<LesHouchesEvents version="3.0">
<header>
<!--
#*********************************************************************
#                                                                    *
#                        MadGraph5_aMC@NLO                           *
#                                                                    *
#                           Going Beyond                             *
#                                                                    *
#                   http://madgraph.hep.uiuc.edu                     *
#                   http://madgraph.phys.ucl.ac.be                   *
#                   http://amcatnlo.cern.ch                          *
#                                                                    *
#                     The MadGraph5_aMC@NLO team                     *
#                                                                    *
#....................................................................*
#                                                                    *
# This file contains all the information necessary to reproduce      *
# the events generated:                                              *
#                                                                    *
# 1. software version                                                *
# 2. proc_card          : code generation info including model       *
# 3. param_card         : model primary parameters in the LH format  *
# 4. run_card           : running parameters (collider and cuts)     *
# 5. pythia_card        : present only if pythia has been run        *
# 6. pgs_card           : present only if pgs has been run           *
# 7. delphes_cards      : present only if delphes has been run       *
#                                                                    *
#                                                                    *
#*********************************************************************
-->
<MGVersion>
#5.2.2.3
</MGVersion>
<MG5ProcCard>
#************************************************************
#*                     MadGraph5_aMC@NLO                    *
#*                                                          *
#*                *                       *                 *
#*                  *        * *        *                   *
#*                    * * * * 5 * * * *                     *
#*                  *        * *        *                   *
#*                *                       *                 *
#*                                                          *
#*                                                          *
#*         VERSION 2.2.3                 2015-02-10         *
#*                                                          *
#*    The MadGraph5_aMC@NLO Development Team - Find us at   *
#*    https://server06.fynu.ucl.ac.be/projects/madgraph     *
#*                                                          *
#************************************************************
#*                                                          *
#*               Command File for MadGraph5_aMC@NLO         *
#*                                                          *
#*     run as ./bin/mg5_aMC  filename                       *
#*                                                          *
#************************************************************
set group_subprocesses Auto
set ignore_six_quark_processes False
set loop_optimized_output True
set gauge unitary
set complex_mass_scheme False
import model sm
define p = g u c d s u~ c~ d~ s~
define j = g u c d s u~ c~ d~ s~
define l+ = e+ mu+
define l- = e- mu-
define vl = ve vm vt
define vl~ = ve~ vm~ vt~
import model Zprime_UFO
generate p p > zph, zph > j j
add process p p > zph, zph > b b~
output Dijet_signal
</MG5ProcCard>
<MGProcCard>
#*********************************************************************
#                        MadGraph/MadEvent                           *
#                   http://madgraph.hep.uiuc.edu                     *
#                                                                    *
#                          proc_card.dat                             *
#*********************************************************************
#                                                                    *
#            This Files is generated by MADGRAPH 5                   *
#                                                                    *
# WARNING: This Files is generated for MADEVENT (compatibility issue)*
#          This files is NOT a valid MG4 proc_card.dat               *
#          Running this in MG4 will NEVER reproduce the result of MG5*
#                                                                    *
#*********************************************************************
#*********************************************************************
# Process(es) requested : mg2 input                                  *
#*********************************************************************
# Begin PROCESS # This is TAG. Do not modify this line
p p > zph , zph > j j           #Process
# Be carefull the coupling are here in MG5 convention
          
end_coup           # End the couplings input

done               # this tells MG there are no more procs
# End PROCESS  # This is TAG. Do not modify this line
#*********************************************************************
# Model information                                                  *
#*********************************************************************
# Begin MODEL  # This is TAG. Do not modify this line
Zprime_UFO
# End   MODEL  # This is TAG. Do not modify this line
#*********************************************************************
# Start multiparticle definitions                                    *
#*********************************************************************
# Begin MULTIPARTICLES # This is TAG. Do not modify this line

# End  MULTIPARTICLES # This is TAG. Do not modify this line
</MGProcCard>
<MGRunCard>
#*********************************************************************
#                       MadGraph5_aMC@NLO                            *
#                                                                    *
#                     run_card.dat MadEvent                          *
#                                                                    *
#  This file is used to set the parameters of the run.               *
#                                                                    *
#  Some notation/conventions:                                        *
#                                                                    *
#   Lines starting with a '# ' are info or comments                  *
#                                                                    *
#   mind the format:   value    = variable     ! comment             *
#*********************************************************************
#
#*******************                                                 
# Running parameters
#*******************                                                 
#                                                                    
#*********************************************************************
# Tag name for the run (one word)                                    *
#*********************************************************************
  tag_1     = run_tag ! name of the run 
#*********************************************************************
# Run to generate the grid pack                                      *
#*********************************************************************
  .false.     = gridpack  !True = setting up the grid pack
#*********************************************************************
# Number of events and rnd seed                                      *
# Warning: Do not generate more than 1M events in a single run       *
# If you want to run Pythia, avoid more than 50k events in a run.    *
#*********************************************************************
  2000 = nevents ! Number of unweighted events requested 
 2046 = iseed   ! rnd seed (0=assigned automatically=default))
#*********************************************************************
# Collider type and energy                                           *
# lpp: 0=No PDF, 1=proton, -1=antiproton, 2=photon from proton,      *
#                                         3=photon from electron     *
#*********************************************************************
        1     = lpp1    ! beam 1 type 
        1     = lpp2    ! beam 2 type
     4000     = ebeam1  ! beam 1 total energy in GeV
     4000     = ebeam2  ! beam 2 total energy in GeV
#*********************************************************************
# Beam polarization from -100 (left-handed) to 100 (right-handed)    *
#*********************************************************************
        0     = polbeam1 ! beam polarization for beam 1
        0     = polbeam2 ! beam polarization for beam 2
#*********************************************************************
# PDF CHOICE: this automatically fixes also alpha_s and its evol.    *
#*********************************************************************
 'nn23lo1'    = pdlabel     ! PDF set                                     
 230000    = lhaid     ! if pdlabel=lhapdf, this is the lhapdf number
#*********************************************************************
# Renormalization and factorization scales                           *
#*********************************************************************
 F        = fixed_ren_scale  ! if .true. use fixed ren scale
 F        = fixed_fac_scale  ! if .true. use fixed fac scale
 91.1880  = scale            ! fixed ren scale
 91.1880  = dsqrt_q2fact1    ! fixed fact scale for pdf1
 91.1880  = dsqrt_q2fact2    ! fixed fact scale for pdf2
 1        = scalefact        ! scale factor for event-by-event scales
#*********************************************************************
# Matching - Warning! ickkw > 1 is still beta
#*********************************************************************
 0        = ickkw            ! 0 no matching, 1 MLM, 2 CKKW matching
 1        = highestmult      ! for ickkw=2, highest mult group
 1        = ktscheme         ! for ickkw=1, 1 Durham kT, 2 Pythia pTE
 1        = alpsfact         ! scale factor for QCD emission vx
 F        = chcluster        ! cluster only according to channel diag
 T        = pdfwgt           ! for ickkw=1, perform pdf reweighting
 5        = asrwgtflavor     ! highest quark flavor for a_s reweight
 T        = clusinfo         ! include clustering tag in output
 3.0      = lhe_version       ! Change the way clustering information pass to shower.        
#*********************************************************************
#**********************************************************
#
#**********************************************************
# Automatic ptj and mjj cuts if xqcut > 0
# (turn off for VBF and single top processes)
#**********************************************************
   T  = auto_ptj_mjj  ! Automatic setting of ptj and mjj
#**********************************************************
#                                                                    
#**********************************
# BW cutoff (M+/-bwcutoff*Gamma)
#**********************************
  15  = bwcutoff      ! (M+/-bwcutoff*Gamma)
#**********************************************************
# Apply pt/E/eta/dr/mij cuts on decay products or not
# (note that etmiss/ptll/ptheavy/ht/sorted cuts always apply)
#**********************************************************
   T  = cut_decays    ! Cut decay products 
#*************************************************************
# Number of helicities to sum per event (0 = all helicities)
# 0 gives more stable result, but longer run time (needed for
# long decay chains e.g.).
# Use >=2 if most helicities contribute, e.g. pure QCD.
#*************************************************************
   0  = nhel          ! Number of helicities used per event
#*******************                                                 
# Standard Cuts
#*******************                                                 
#                                                                    
#*********************************************************************
# Minimum and maximum pt's (for max, -1 means no cut)                *
#*********************************************************************
 20  = ptj       ! minimum pt for the jets 
  0  = ptb       ! minimum pt for the b 
 10  = pta       ! minimum pt for the photons 
 10  = ptl       ! minimum pt for the charged leptons 
  0  = misset    ! minimum missing Et (sum of neutrino's momenta)
  0  = ptheavy   ! minimum pt for one heavy final state
 1.0 = ptonium   ! minimum pt for the quarkonium states
 -1  = ptjmax    ! maximum pt for the jets
 -1  = ptbmax    ! maximum pt for the b
 -1  = ptamax    ! maximum pt for the photons
 -1  = ptlmax    ! maximum pt for the charged leptons
 -1  = missetmax ! maximum missing Et (sum of neutrino's momenta)
#*********************************************************************
# Minimum and maximum E's (in the center of mass frame)              *
#*********************************************************************
  0  = ej     ! minimum E for the jets 
  0  = eb     ! minimum E for the b 
  0  = ea     ! minimum E for the photons 
  0  = el     ! minimum E for the charged leptons 
 -1   = ejmax ! maximum E for the jets
 -1   = ebmax ! maximum E for the b
 -1   = eamax ! maximum E for the photons
 -1   = elmax ! maximum E for the charged leptons
#*********************************************************************
# Maximum and minimum absolute rapidity (for max, -1 means no cut)   *
#*********************************************************************
   5  = etaj    ! max rap for the jets 
  -1  = etab    ! max rap for the b
 2.5  = etaa    ! max rap for the photons 
 2.5  = etal    ! max rap for the charged leptons 
 0.6  = etaonium ! max rap for the quarkonium states
   0  = etajmin ! min rap for the jets
   0  = etabmin ! min rap for the b
   0  = etaamin ! min rap for the photons
   0  = etalmin ! main rap for the charged leptons
#*********************************************************************
# Minimum and maximum DeltaR distance                                *
#*********************************************************************
 0.4 = drjj    ! min distance between jets 
 0   = drbb    ! min distance between b's 
 0.4 = drll    ! min distance between leptons 
 0.4 = draa    ! min distance between gammas 
 0   = drbj    ! min distance between b and jet 
 0.4 = draj    ! min distance between gamma and jet 
 0.4 = drjl    ! min distance between jet and lepton 
 0   = drab    ! min distance between gamma and b 
 0   = drbl    ! min distance between b and lepton 
 0.4 = dral    ! min distance between gamma and lepton 
 -1  = drjjmax ! max distance between jets
 -1  = drbbmax ! max distance between b's
 -1  = drllmax ! max distance between leptons
 -1  = draamax ! max distance between gammas
 -1  = drbjmax ! max distance between b and jet
 -1  = drajmax ! max distance between gamma and jet
 -1  = drjlmax ! max distance between jet and lepton
 -1  = drabmax ! max distance between gamma and b
 -1  = drblmax ! max distance between b and lepton
 -1  = dralmax ! maxdistance between gamma and lepton
#*********************************************************************
# Minimum and maximum invariant mass for pairs                       *
# WARNING: for four lepton final state mmll cut require to have      *
#          different lepton masses for each flavor!                  *           
#*********************************************************************
 0   = mmjj    ! min invariant mass of a jet pair 
 0   = mmbb    ! min invariant mass of a b pair 
 0   = mmaa    ! min invariant mass of gamma gamma pair
 0   = mmll    ! min invariant mass of l+l- (same flavour) lepton pair
 -1  = mmjjmax ! max invariant mass of a jet pair
 -1  = mmbbmax ! max invariant mass of a b pair
 -1  = mmaamax ! max invariant mass of gamma gamma pair
 -1  = mmllmax ! max invariant mass of l+l- (same flavour) lepton pair
#*********************************************************************
# Minimum and maximum invariant mass for all letpons                 *
#*********************************************************************
 0   = mmnl    ! min invariant mass for all letpons (l+- and vl) 
 -1  = mmnlmax ! max invariant mass for all letpons (l+- and vl) 
#*********************************************************************
# Minimum and maximum pt for 4-momenta sum of leptons                *
#*********************************************************************
 0   = ptllmin  ! Minimum pt for 4-momenta sum of leptons(l and vl)
 -1  = ptllmax  ! Maximum pt for 4-momenta sum of leptons(l and vl)
#*********************************************************************
# Inclusive cuts                                                     *
#*********************************************************************
 0  = xptj ! minimum pt for at least one jet  
 0  = xptb ! minimum pt for at least one b 
 0  = xpta ! minimum pt for at least one photon 
 0  = xptl ! minimum pt for at least one charged lepton 
#*********************************************************************
# Control the pt's of the jets sorted by pt                          *
#*********************************************************************
 0   = ptj1min ! minimum pt for the leading jet in pt
 0   = ptj2min ! minimum pt for the second jet in pt
 0   = ptj3min ! minimum pt for the third jet in pt
 0   = ptj4min ! minimum pt for the fourth jet in pt
 -1  = ptj1max ! maximum pt for the leading jet in pt 
 -1  = ptj2max ! maximum pt for the second jet in pt
 -1  = ptj3max ! maximum pt for the third jet in pt
 -1  = ptj4max ! maximum pt for the fourth jet in pt
 0   = cutuse  ! reject event if fails any (0) / all (1) jet pt cuts
#*********************************************************************
# Control the pt's of leptons sorted by pt                           *
#*********************************************************************
 0   = ptl1min ! minimum pt for the leading lepton in pt
 0   = ptl2min ! minimum pt for the second lepton in pt
 0   = ptl3min ! minimum pt for the third lepton in pt
 0   = ptl4min ! minimum pt for the fourth lepton in pt
 -1  = ptl1max ! maximum pt for the leading lepton in pt 
 -1  = ptl2max ! maximum pt for the second lepton in pt
 -1  = ptl3max ! maximum pt for the third lepton in pt
 -1  = ptl4max ! maximum pt for the fourth lepton in pt
#*********************************************************************
# Control the Ht(k)=Sum of k leading jets                            *
#*********************************************************************
 0   = htjmin ! minimum jet HT=Sum(jet pt)
 -1  = htjmax ! maximum jet HT=Sum(jet pt)
 0   = ihtmin  !inclusive Ht for all partons (including b)
 -1  = ihtmax  !inclusive Ht for all partons (including b)
 0   = ht2min ! minimum Ht for the two leading jets
 0   = ht3min ! minimum Ht for the three leading jets
 0   = ht4min ! minimum Ht for the four leading jets
 -1  = ht2max ! maximum Ht for the two leading jets
 -1  = ht3max ! maximum Ht for the three leading jets
 -1  = ht4max ! maximum Ht for the four leading jets
#***********************************************************************
# Photon-isolation cuts, according to hep-ph/9801442                   *
# When ptgmin=0, all the other parameters are ignored                  *
# When ptgmin>0, pta and draj are not going to be used                 *
#***********************************************************************
   0 = ptgmin ! Min photon transverse momentum
 0.4 = R0gamma ! Radius of isolation code
 1.0 = xn ! n parameter of eq.(3.4) in hep-ph/9801442
 1.0 = epsgamma ! epsilon_gamma parameter of eq.(3.4) in hep-ph/9801442
 .true. = isoEM ! isolate photons from EM energy (photons and leptons)
#*********************************************************************
# WBF cuts                                                           *
#*********************************************************************
 0   = xetamin ! minimum rapidity for two jets in the WBF case  
 0   = deltaeta ! minimum rapidity for two jets in the WBF case 
#*********************************************************************
# KT DURHAM CUT                                                      *
#*********************************************************************
 -1    =  ktdurham        
 0.4  =  dparameter 
#*********************************************************************
# maximal pdg code for quark to be considered as a light jet         *
# (otherwise b cuts are applied)                                     *
#*********************************************************************
 4 = maxjetflavor    ! Maximum jet pdg code
#*********************************************************************
# Jet measure cuts                                                   *
#*********************************************************************
 0   = xqcut   ! minimum kt jet measure between partons
#*********************************************************************
#
#*********************************************************************
# Store info for systematics studies                                 *
# WARNING: If use_syst is T, matched Pythia output is                *
#          meaningful ONLY if plotted taking matchscale              *
#          reweighting into account!                                 *
#*********************************************************************
   F  = use_syst      ! Enable systematics studies
#
#**************************************
# Parameter of the systematics study
#  will be used by SysCalc (if installed)
#**************************************                                  
#
0.5 1 2 = sys_scalefact  # factorization/renormalization scale factor
0.5 1 2 = sys_alpsfact  # \alpha_s emission scale factors
30 50 = sys_matchscale # variation of merging scale
# PDF sets and number of members (0 or none for all members).
CT10nlo.LHgrid = sys_pdf # matching scales
# MSTW2008nlo68cl.LHgrid 1  = sys_pdf
</MGRunCard>
<slha>
######################################################################
## PARAM_CARD AUTOMATICALY GENERATED BY MG5 FOLLOWING UFO MODEL   ####
######################################################################
##                                                                  ##
##  Width set on Auto will be computed following the information    ##
##        present in the decay.py files of the model.               ##
##        See  arXiv:1402.1178 for more details.                    ##
##                                                                  ##
######################################################################

###################################
## INFORMATION FOR CKMBLOCK
###################################
Block ckmblock 
    1 2.277360e-01 # cabi 

###################################
## INFORMATION FOR FRBLOCK
###################################
Block frblock 
    1 1.000000e+00 # gz 

###################################
## INFORMATION FOR MASS
###################################
Block mass 
    1 5.040000e-03 # MD 
    2 2.550000e-03 # MU 
    3 1.010000e-01 # MS 
    4 1.270000e+00 # MC 
    5 4.700000e+00 # MB 
    6 1.720000e+02 # MT 
   11 5.110000e-04 # Me 
   13 1.056600e-01 # MM 
   15 1.777000e+00 # MTA 
   23 9.118760e+01 # MZ 
   25 1.200000e+02 # MH 
  10030 3.300000e+03 # MZph 
  10031 3.000000e+02 # MZpl 
## Dependent parameters, given by model restrictions.
## Those values should be edited following the 
## analytical expression. MG5 ignores those values 
## but they are important for interfacing the output of MG5
## to external program such as Pythia.
  12 0.000000 # ve : 0.0 
  14 0.000000 # vm : 0.0 
  16 0.000000 # vt : 0.0 
  21 0.000000 # g : 0.0 
  22 0.000000 # a : 0.0 
  24 79.824360 # w+ : cmath.sqrt(MZ__exp__2/2. + cmath.sqrt(MZ__exp__4/4. - (aEW*cmath.pi*MZ__exp__2)/(Gf*sqrt__2))) 

###################################
## INFORMATION FOR SMINPUTS
###################################
Block sminputs 
    1 1.279000e+02 # aEWM1 
    2 1.166370e-05 # Gf 
    3 1.184000e-01 # aS 

###################################
## INFORMATION FOR YUKAWA
###################################
Block yukawa 
    1 5.040000e-03 # ymdo 
    2 2.550000e-03 # ymup 
    3 1.010000e-01 # yms 
    4 1.270000e+00 # ymc 
    5 4.700000e+00 # ymb 
    6 1.720000e+02 # ymt 
   11 5.110000e-04 # yme 
   13 1.056600e-01 # ymm 
   15 1.777000e+00 # ymtau 

###################################
## INFORMATION FOR DECAY
###################################
DECAY   6 1.508336e+00 # WT 
DECAY  23 2.495200e+00 # WZ 
DECAY  24 2.085000e+00 # WW 
DECAY  25 5.753088e-03 # WH 
## Dependent parameters, given by model restrictions.
## Those values should be edited following the 
## analytical expression. MG5 ignores those values 
## but they are important for interfacing the output of MG5
## to external program such as Pythia.
DECAY  1 0.000000 # d : 0.0 
DECAY  2 0.000000 # u : 0.0 
DECAY  3 0.000000 # s : 0.0 
DECAY  4 0.000000 # c : 0.0 
DECAY  5 0.000000 # b : 0.0 
DECAY  11 0.000000 # e- : 0.0 
DECAY  12 0.000000 # ve : 0.0 
DECAY  13 0.000000 # mu- : 0.0 
DECAY  14 0.000000 # vm : 0.0 
DECAY  15 0.000000 # ta- : 0.0 
DECAY  16 0.000000 # vt : 0.0 
DECAY  21 0.000000 # g : 0.0 
DECAY  22 0.000000 # a : 0.0 
DECAY  10030 0.308725 # zph : (gz__exp__2*MZph*(5 + cmath.sqrt(1 - (4*MT__exp__2)/MZph__exp__2)))/(144.*cmath.pi) 
DECAY  10031 0.132629 # zpl : (5*gz__exp__2*MZpl)/(144.*cmath.pi) 
#===========================================================
# QUANTUM NUMBERS OF NEW STATE(S) (NON SM PDG CODE)
#===========================================================

Block QNUMBERS 10030  # zph 
        1 0  # 3 times electric charge
        2 3  # number of spin states (2S+1)
        3 1  # colour rep (1: singlet, 3: triplet, 8: octet)
        4 0  # Particle/Antiparticle distinction (0=own anti)
Block QNUMBERS 10031  # zpl 
        1 0  # 3 times electric charge
        2 3  # number of spin states (2S+1)
        3 1  # colour rep (1: singlet, 3: triplet, 8: octet)
        4 0  # Particle/Antiparticle distinction (0=own anti)
</slha>
## END BANNER##
<MGGenerationInfo>
#  Number of Events        :         3904
#  Integrated weight (pb)  :  0.45480E-03
#  Max wgt                 :  0.18326E-06
#  Average wgt             :  0.11650E-06
</MGGenerationInfo>
</header>
<init>
     2212     2212  0.40000000000E+04  0.40000000000E+04 0 0  247000  247000 2   1
  0.45498822435E-03  0.92042076942E-06  0.18326260000E-06   0
</init>
<event>
 5   0  0.1728937E-06  0.3358755E+04  0.7818609E-02  0.8148104E-01
       -2   -1    0    0    0  501  0.00000000000E+00  0.00000000000E+00  0.15055149819E+04  0.15055149819E+04  0.25500000920E-02 0.  1.
        2   -1    0    0  501    0  0.00000000000E+00  0.00000000000E+00 -0.18733183474E+04  0.18733183474E+04  0.25500000920E-02 0. -1.
    10030    2    1    2    0    0  0.00000000000E+00  0.00000000000E+00 -0.36780336546E+03  0.33788333293E+04  0.33587550300E+04 0.  0.
        1    1    3    3  502    0 -0.49956390460E+02 -0.49093893348E+03 -0.17987366127E+04  0.18651997424E+04  0.50400001928E-02 0. -1.
       -1    1    3    3    0  502  0.49956390460E+02  0.49093893348E+03  0.14309332472E+04  0.15136335869E+04  0.50400001928E-02 0.  1.
</event>
<event>
 5   0  0.1728937E-06  0.3277187E+04  0.7818609E-02  0.8168725E-01
        2   -1    0    0  501    0  0.00000000000E+00  0.00000000000E+00  0.21676683427E+04  0.21676683427E+04  0.25500000920E-02 0.  1.
       -2   -1    0    0    0  501  0.00000000000E+00  0.00000000000E+00 -0.12386527941E+04  0.12386527941E+04  0.25500000920E-02 0. -1.
    10030    2    1    2    0    0  0.00000000000E+00  0.00000000000E+00  0.92901554856E+03  0.34063211368E+04  0.32771868725E+04 0.  0.
        1    1    3    3  502    0 -0.15579912833E+04  0.34410327401E+03  0.76649123988E+02  0.15973787873E+04  0.50400001928E-02 0. -1.
       -1    1    3    3    0  502  0.15579912833E+04 -0.34410327401E+03  0.85236642457E+03  0.18089423495E+04  0.50400001928E-02 0.  1.
</event>
<event>
 5   0  0.1832626E-06  0.3054882E+04  0.7818609E-02  0.8228230E-01
       -2   -1    0    0    0  501  0.00000000000E+00  0.00000000000E+00  0.26176696937E+04  0.26176696937E+04  0.25500000920E-02 0. -1.
        2   -1    0    0  501    0  0.00000000000E+00  0.00000000000E+00 -0.89127971204E+03  0.89127971205E+03  0.25500000920E-02 0.  1.
    10030    2    1    2    0    0  0.00000000000E+00  0.00000000000E+00  0.17263899816E+04  0.35089494057E+04  0.30548819230E+04 0.  0.
        3    1    3    3  502    0  0.14482970193E+04 -0.46533519773E+03  0.10214185077E+04  0.18323200813E+04  0.10100000352E+00 0. -1.
       -3    1    3    3    0  502 -0.14482970193E+04  0.46533519773E+03  0.70497147391E+03  0.16766293244E+04  0.10100000352E+00 0.  1.
</event>
<event>
 5   0  0.1728937E-06  0.3355136E+04  0.7818609E-02  0.8149006E-01
       -2   -1    0    0    0  501  0.00000000000E+00  0.00000000000E+00  0.10384723712E+04  0.10384723712E+04  0.25500000920E-02 0. -1.
        2   -1    0    0  501    0  0.00000000000E+00  0.00000000000E+00 -0.27099748277E+04  0.27099748277E+04  0.25500000920E-02 0.  1.
    10030    2    1    2    0    0  0.00000000000E+00  0.00000000000E+00 -0.16715024565E+04  0.37484471989E+04  0.33551357559E+04 0.  0.
        1    1    3    3  502    0 -0.23245085769E+03 -0.76780187574E+03 -0.24817870760E+04  0.26082216570E+04  0.50400001928E-02 0.  1.
       -1    1    3    3    0  502  0.23245085769E+03  0.76780187574E+03  0.81028461950E+03  0.11402255418E+04  0.50400001928E-02 0. -1.
</event>
<event>
 5   0  0.1832626E-06  0.3289768E+04  0.7818609E-02  0.8165504E-01
        2   -1    0    0  501    0  0.00000000000E+00  0.00000000000E+00  0.25509712187E+04  0.25509712187E+04  0.25500000920E-02 0.  1.
       -2   -1    0    0    0  501  0.00000000000E+00  0.00000000000E+00 -0.10606327293E+04  0.10606327293E+04  0.25500000920E-02 0. -1.
    10030    2    1    2    0    0  0.00000000000E+00  0.00000000000E+00  0.14903384894E+04  0.36116039480E+04  0.32897681171E+04 0.  0.
        3    1    3    3  502    0  0.52723445013E+03 -0.15397447294E+04  0.10069354993E+04  0.19138205525E+04  0.10100000352E+00 0.  1.
       -3    1    3    3    0  502 -0.52723445013E+03  0.15397447294E+04  0.48340299013E+03  0.16977833955E+04  0.10100000352E+00 0. -1.
</event>
<event>
 5   0  0.6085351E-07  0.3302252E+04  0.7818609E-02  0.8162323E-01
        1   -1    0    0  501    0  0.00000000000E+00  0.00000000000E+00  0.18184203201E+04  0.18184203201E+04  0.50400001928E-02 0. -1.
       -1   -1    0    0    0  501  0.00000000000E+00  0.00000000000E+00 -0.14992228849E+04  0.14992228849E+04  0.50400001928E-02 0.  1.
    10030    2    1    2    0    0  0.00000000000E+00  0.00000000000E+00  0.31919743522E+03  0.33176432050E+04  0.33022521759E+04 0.  0.
        1    1    3    3  502    0 -0.45072084077E+03  0.12704590030E+04  0.11174583334E+04  0.17509792921E+04  0.50400001928E-02 0. -1.
       -1    1    3    3    0  502  0.45072084077E+03 -0.12704590030E+04 -0.79826089813E+03  0.15666639129E+04  0.50400001928E-02 0.  1.
</event>
<event>
 5   0  0.5858859E-07  0.3318951E+04  0.7818609E-02  0.8158090E-01
        1   -1    0    0  501    0  0.00000000000E+00  0.00000000000E+00  0.17815296808E+04  0.17815296808E+04  0.50400001928E-02 0. -1.
       -1   -1    0    0    0  501  0.00000000000E+00  0.00000000000E+00 -0.15457832035E+04  0.15457832035E+04  0.50400001928E-02 0.  1.
    10030    2    1    2    0    0  0.00000000000E+00  0.00000000000E+00  0.23574647733E+03  0.33273128844E+04  0.33189508326E+04 0.  0.
        3    1    3    3  502    0  0.12008551048E+04 -0.10889768663E+04  0.47364062318E+03  0.16888632414E+04  0.10100000352E+00 0. -1.
       -3    1    3    3    0  502 -0.12008551048E+04  0.10889768663E+04 -0.23789414585E+03  0.16384496430E+04  0.10100000352E+00 0.  1.
</event>
<event>
 5   0  0.1728937E-06  0.3228706E+04  0.7818609E-02  0.8181277E-01
        2   -1    0    0  501    0  0.00000000000E+00  0.00000000000E+00  0.20600983181E+04  0.20600983181E+04  0.25500000920E-02 0.  1.
       -2   -1    0    0    0  501  0.00000000000E+00  0.00000000000E+00 -0.12650537612E+04  0.12650537612E+04  0.25500000920E-02 0. -1.
    10030    2    1    2    0    0  0.00000000000E+00  0.00000000000E+00  0.79504455687E+03  0.33251520792E+04  0.32287057008E+04 0.  0.
        1    1    3    3  502    0  0.30145482163E+03  0.29382455863E+03  0.20025787079E+04  0.20463453672E+04  0.50400001928E-02 0.  1.
       -1    1    3    3    0  502 -0.30145482163E+03 -0.29382455863E+03 -0.12075341510E+04  0.12788067120E+04  0.50400001928E-02 0. -1.
</event>
<event>
 5   0  0.5985183E-07  0.3289295E+04  0.7818609E-02  0.8165625E-01
       -1   -1    0    0    0  501  0.00000000000E+00  0.00000000000E+00  0.12743746662E+04  0.12743746662E+04  0.50400001928E-02 0.  1.
        1   -1    0    0  501    0  0.00000000000E+00  0.00000000000E+00 -0.21225043065E+04  0.21225043065E+04  0.50400001928E-02 0. -1.
    10030    2    1    2    0    0  0.00000000000E+00  0.00000000000E+00 -0.84812964038E+03  0.33968789727E+04  0.32892951933E+04 0.  0.
        2    1    3    3  502    0 -0.24739115261E+03  0.14028981988E+04  0.42473005969E+03  0.14865131557E+04  0.25500000920E-02 0.  1.
       -2    1    3    3    0  502  0.24739115261E+03 -0.14028981988E+04 -0.12728597001E+04  0.19103658170E+04  0.25500000920E-02 0. -1.
</event>
<event>
 5   0  0.1728937E-06  0.3308177E+04  0.7818609E-02  0.8160818E-01
        2   -1    0    0  501    0  0.00000000000E+00  0.00000000000E+00  0.15458607638E+04  0.15458607638E+04  0.25500000920E-02 0.  1.
       -2   -1    0    0    0  501  0.00000000000E+00  0.00000000000E+00 -0.17698937270E+04  0.17698937270E+04  0.25500000920E-02 0. -1.
    10030    2    1    2    0    0  0.00000000000E+00  0.00000000000E+00 -0.22403296316E+03  0.33157544908E+04  0.33081773040E+04 0.  0.
        1    1    3    3  502    0 -0.84989668311E+03  0.11754329445E+04 -0.90884828144E+03  0.17117161499E+04  0.50400001928E-02 0. -1.
       -1    1    3    3    0  502  0.84989668311E+03 -0.11754329445E+04  0.68481531829E+03  0.16040383410E+04  0.50400001928E-02 0.  1.
</event>
<event>
 5   0  0.5685000E-07  0.3104580E+04  0.7818609E-02  0.8214482E-01
        4   -1    0    0  501    0  0.00000000000E+00  0.00000000000E+00  0.12996159946E+04  0.12996166152E+04  0.12699999809E+01 0.  1.
       -4   -1    0    0    0  501  0.00000000000E+00  0.00000000000E+00 -0.18540876495E+04  0.18540880845E+04  0.12699999809E+01 0. -1.
    10030    2    1    2    0    0  0.00000000000E+00  0.00000000000E+00 -0.55447165489E+03  0.31537046996E+04  0.31045796038E+04 0.  0.
        5    1    3    3  502    0  0.15167305702E+04 -0.23154725199E+03 -0.37932778652E+02  0.15347790519E+04  0.46999998093E+01 0.  1.
       -5    1    3    3    0  502 -0.15167305702E+04  0.23154725199E+03 -0.51653887624E+03  0.16189256478E+04  0.46999998093E+01 0. -1.
</event>
<event>
 5   0  0.1743810E-06  0.3279120E+04  0.7818609E-02  0.8168229E-01
       -2   -1    0    0    0  501  0.00000000000E+00  0.00000000000E+00  0.13189584527E+04  0.13189584527E+04  0.25500000920E-02 0.  1.
        2   -1    0    0  501    0  0.00000000000E+00  0.00000000000E+00 -0.20380904613E+04  0.20380904613E+04  0.25500000920E-02 0. -1.
    10030    2    1    2    0    0  0.00000000000E+00  0.00000000000E+00 -0.71913200865E+03  0.33570489140E+04  0.32791197851E+04 0.  0.
        5    1    3    3  502    0  0.94451300466E+03  0.30221154321E+03 -0.16962357030E+04  0.19648598635E+04  0.46999998093E+01 0. -1.
       -5    1    3    3    0  502 -0.94451300466E+03 -0.30221154321E+03  0.97710369438E+03  0.13921890505E+04  0.46999998093E+01 0.  1.
</event>
<event>
 5   0  0.6023446E-07  0.2967132E+04  0.7818609E-02  0.8253179E-01
       -1   -1    0    0    0  501  0.00000000000E+00  0.00000000000E+00  0.14695457080E+04  0.14695457080E+04  0.50400001928E-02 0.  1.
        1   -1    0    0  501    0  0.00000000000E+00  0.00000000000E+00 -0.14977203649E+04  0.14977203649E+04  0.50400001928E-02 0. -1.
    10030    2    1    2    0    0  0.00000000000E+00  0.00000000000E+00 -0.28174656971E+02  0.29672660729E+04  0.29671323085E+04 0.  0.
        5    1    3    3  502    0 -0.56691453010E+03 -0.65169935673E+03  0.11921354891E+04  0.14721797615E+04  0.46999998093E+01 0.  1.
       -5    1    3    3    0  502  0.56691453010E+03  0.65169935673E+03 -0.12203101460E+04  0.14950863114E+04  0.46999998093E+01 0. -1.
</event>
<event>
 5   0  0.6085351E-07  0.3228004E+04  0.7818609E-02  0.8181460E-01
       -1   -1    0    0    0  501  0.00000000000E+00  0.00000000000E+00  0.16710110992E+04  0.16710110992E+04  0.50400001928E-02 0.  1.
        1   -1    0    0  501    0  0.00000000000E+00  0.00000000000E+00 -0.15589375567E+04  0.15589375567E+04  0.50400001928E-02 0. -1.
    10030    2    1    2    0    0  0.00000000000E+00  0.00000000000E+00  0.11207354248E+03  0.32299486560E+04  0.32280036929E+04 0.  0.
        1    1    3    3  502    0  0.57573865417E+03  0.14154426327E+04  0.57601238440E+03  0.16330165680E+04  0.50400001928E-02 0.  1.
       -1    1    3    3    0  502 -0.57573865417E+03 -0.14154426327E+04 -0.46393884192E+03  0.15969320879E+04  0.50400001928E-02 0. -1.
</event>
<event>
 5   0  0.5858859E-07  0.3362011E+04  0.7818609E-02  0.8147293E-01
        1   -1    0    0  501    0  0.00000000000E+00  0.00000000000E+00  0.16850057480E+04  0.16850057481E+04  0.50400001928E-02 0. -1.
       -1   -1    0    0    0  501  0.00000000000E+00  0.00000000000E+00 -0.16770151420E+04  0.16770151420E+04  0.50400001928E-02 0.  1.
    10030    2    1    2    0    0  0.00000000000E+00  0.00000000000E+00  0.79906060027E+01  0.33620208901E+04  0.33620113943E+04 0.  0.
        3    1    3    3  502    0 -0.16190353093E+04 -0.14318434651E+03  0.43295228613E+03  0.16820299587E+04  0.10100000352E+00 0. -1.
       -3    1    3    3    0  502  0.16190353093E+04  0.14318434651E+03 -0.42496168013E+03  0.16799909314E+04  0.10100000352E+00 0.  1.
</event>
<event>
 5   0  0.5858859E-07  0.3307021E+04  0.7818609E-02  0.8161111E-01
       -1   -1    0    0    0  501  0.00000000000E+00  0.00000000000E+00  0.27340284922E+04  0.27340284922E+04  0.50400001928E-02 0.  1.
        1   -1    0    0  501    0  0.00000000000E+00  0.00000000000E+00 -0.10000249031E+04  0.10000249031E+04  0.50400001928E-02 0. -1.
    10030    2    1    2    0    0  0.00000000000E+00  0.00000000000E+00  0.17340035891E+04  0.37340533953E+04  0.33070207608E+04 0.  0.
        3    1    3    3  502    0  0.73769424181E+03  0.14853676425E+03 -0.79548144520E+03  0.10950099107E+04  0.10100000352E+00 0. -1.
       -3    1    3    3    0  502 -0.73769424181E+03 -0.14853676425E+03  0.25294850343E+04  0.26390434846E+04  0.10100000352E+00 0.  1.
</event>
<event>
 5   0  0.1728937E-06  0.3306544E+04  0.7818609E-02  0.8161232E-01
       -2   -1    0    0    0  501  0.00000000000E+00  0.00000000000E+00  0.18061263045E+04  0.18061263045E+04  0.25500000920E-02 0.  1.
        2   -1    0    0  501    0  0.00000000000E+00  0.00000000000E+00 -0.15133542959E+04  0.15133542959E+04  0.25500000920E-02 0. -1.
    10030    2    1    2    0    0  0.00000000000E+00  0.00000000000E+00  0.29277200864E+03  0.33194806004E+04  0.33065444209E+04 0.  0.
        1    1    3    3  502    0 -0.10058726836E+04 -0.24970806180E+03  0.14395150745E+04  0.17737918766E+04  0.50400001928E-02 0.  1.
       -1    1    3    3    0  502  0.10058726836E+04  0.24970806180E+03 -0.11467430659E+04  0.15456887238E+04  0.50400001928E-02 0. -1.
</event>
<event>
 5   0  0.5988516E-07  0.3307535E+04  0.7818609E-02  0.8160981E-01
       -1   -1    0    0    0  501  0.00000000000E+00  0.00000000000E+00  0.20180952418E+04  0.20180952418E+04  0.50400001928E-02 0.  1.
        1   -1    0    0  501    0  0.00000000000E+00  0.00000000000E+00 -0.13552118857E+04  0.13552118857E+04  0.50400001928E-02 0. -1.
    10030    2    1    2    0    0  0.00000000000E+00  0.00000000000E+00  0.66288335613E+03  0.33733071275E+04  0.33075348271E+04 0.  0.
        4    1    3    3  502    0  0.10397689528E+03 -0.63323804478E+03  0.18859371807E+04  0.19921250660E+04  0.12699999809E+01 0.  1.
       -4    1    3    3    0  502 -0.10397689528E+03  0.63323804478E+03 -0.12230538246E+04  0.13811820615E+04  0.12699999809E+01 0. -1.
</event>
<event>
 5   0  0.6085351E-07  0.3289274E+04  0.7818609E-02  0.8165630E-01
        1   -1    0    0  501    0  0.00000000000E+00  0.00000000000E+00  0.15958665019E+04  0.15958665019E+04  0.50400001928E-02 0. -1.
       -1   -1    0    0    0  501  0.00000000000E+00  0.00000000000E+00 -0.16948983642E+04  0.16948983642E+04  0.50400001928E-02 0.  1.
    10030    2    1    2    0    0  0.00000000000E+00  0.00000000000E+00 -0.99031862330E+02  0.32907648660E+04  0.32892744023E+04 0.  0.
        1    1    3    3  502    0 -0.45768781990E+03 -0.58041553108E+03 -0.15193552988E+04  0.16896155933E+04  0.50400001928E-02 0.  1.
       -1    1    3    3    0  502  0.45768781990E+03  0.58041553108E+03  0.14203234365E+04  0.16011492727E+04  0.50400001928E-02 0. -1.
</event>
<event>
 5   0  0.1784626E-06  0.3306251E+04  0.7818609E-02  0.8161307E-01
       -2   -1    0    0    0  501  0.00000000000E+00  0.00000000000E+00  0.98755963272E+03  0.98755963273E+03  0.25500000920E-02 0.  1.
        2   -1    0    0  501    0  0.00000000000E+00  0.00000000000E+00 -0.27672489515E+04  0.27672489515E+04  0.25500000920E-02 0. -1.
    10030    2    1    2    0    0  0.00000000000E+00  0.00000000000E+00 -0.17796893188E+04  0.37548085842E+04  0.33062506609E+04 0.  0.
        2    1    3    3  502    0 -0.68362960422E+03  0.11969807779E+04 -0.19261772618E+04  0.23686011193E+04  0.25500000920E-02 0. -1.
       -2    1    3    3    0  502  0.68362960422E+03 -0.11969807779E+04  0.14648794301E+03  0.13862074650E+04  0.25500000920E-02 0.  1.
</event>
<event>
 5   0  0.5858859E-07  0.3239906E+04  0.7818609E-02  0.8178357E-01
        1   -1    0    0  501    0  0.00000000000E+00  0.00000000000E+00  0.22892578445E+04  0.22892578445E+04  0.50400001928E-02 0.  1.
       -1   -1    0    0    0  501  0.00000000000E+00  0.00000000000E+00 -0.11463313849E+04  0.11463313849E+04  0.50400001928E-02 0. -1.
    10030    2    1    2    0    0  0.00000000000E+00  0.00000000000E+00  0.11429264596E+04  0.34355892294E+04  0.32399062427E+04 0.  0.
        3    1    3    3  502    0  0.66698506983E+03 -0.13961522412E+04  0.62761866217E+02  0.15485636009E+04  0.10100000352E+00 0.  1.
       -3    1    3    3    0  502 -0.66698506983E+03  0.13961522412E+04  0.10801645934E+04  0.18870256286E+04  0.10100000352E+00 0. -1.
</event>
<event>
 5   0  0.1832626E-06  0.3261914E+04  0.7818609E-02  0.8172654E-01
        2   -1    0    0  501    0  0.00000000000E+00  0.00000000000E+00  0.23589267558E+04  0.23589267558E+04  0.25500000920E-02 0.  1.
       -2   -1    0    0    0  501  0.00000000000E+00  0.00000000000E+00 -0.11276404295E+04  0.11276404295E+04  0.25500000920E-02 0. -1.
    10030    2    1    2    0    0  0.00000000000E+00  0.00000000000E+00  0.12312863263E+04  0.34865671854E+04  0.32619142724E+04 0.  0.
        3    1    3    3  502    0 -0.73337062231E+03 -0.11924970222E+02 -0.94140821422E+03  0.11934086101E+04  0.10100000352E+00 0. -1.
       -3    1    3    3    0  502  0.73337062231E+03  0.11924970222E+02  0.21726945406E+04  0.22931585753E+04  0.10100000352E+00 0.  1.
</event>
<event>
 5   0  0.6085351E-07  0.3295545E+04  0.7818609E-02  0.8164030E-01
       -1   -1    0    0    0  501  0.00000000000E+00  0.00000000000E+00  0.11028052963E+04  0.11028052963E+04  0.50400001928E-02 0.  1.
        1   -1    0    0  501    0  0.00000000000E+00  0.00000000000E+00 -0.24620431435E+04  0.24620431435E+04  0.50400001928E-02 0. -1.
    10030    2    1    2    0    0  0.00000000000E+00  0.00000000000E+00 -0.13592378471E+04  0.35648484398E+04  0.32955450040E+04 0.  0.
        1    1    3    3  502    0 -0.25924965914E+03  0.75909939015E+03  0.87734485477E+03  0.11887709048E+04  0.50400001928E-02 0.  1.
       -1    1    3    3    0  502  0.25924965914E+03 -0.75909939015E+03 -0.22365827019E+04  0.23760775350E+04  0.50400001928E-02 0. -1.
</event>
<event>
 5   0  0.1784626E-06  0.3291855E+04  0.7818609E-02  0.8164971E-01
       -2   -1    0    0    0  501  0.00000000000E+00  0.00000000000E+00  0.87297803538E+03  0.87297803539E+03  0.25500000920E-02 0.  1.
        2   -1    0    0  501    0  0.00000000000E+00  0.00000000000E+00 -0.31032589139E+04  0.31032589139E+04  0.25500000920E-02 0. -1.
    10030    2    1    2    0    0  0.00000000000E+00  0.00000000000E+00 -0.22302808785E+04  0.39762369493E+04  0.32918547173E+04 0.  0.
        2    1    3    3  502    0 -0.13649065143E+04 -0.73611025715E+03 -0.44887695747E+03  0.16144096835E+04  0.25500000920E-02 0.  1.
       -2    1    3    3    0  502  0.13649065143E+04  0.73611025715E+03 -0.17814039210E+04  0.23618272658E+04  0.25500000920E-02 0. -1.
</event>
<event>
 5   0  0.5985183E-07  0.3294009E+04  0.7818609E-02  0.8164421E-01
       -1   -1    0    0    0  501  0.00000000000E+00  0.00000000000E+00  0.11922097502E+04  0.11922097502E+04  0.50400001928E-02 0. -1.
        1   -1    0    0  501    0  0.00000000000E+00  0.00000000000E+00 -0.22752905791E+04  0.22752905791E+04  0.50400001928E-02 0.  1.
    10030    2    1    2    0    0  0.00000000000E+00  0.00000000000E+00 -0.10830808289E+04  0.34675003292E+04  0.32940088724E+04 0.  0.
        2    1    3    3  502    0  0.11762940409E+04 -0.11499908119E+04 -0.62625948837E+03  0.17602123409E+04  0.25500000920E-02 0. -1.
       -2    1    3    3    0  502 -0.11762940409E+04  0.11499908119E+04 -0.45682134052E+03  0.17072879884E+04  0.25500000920E-02 0.  1.
</event>
<event>
 5   0  0.1832626E-06  0.3323077E+04  0.7818609E-02  0.8157048E-01
        2   -1    0    0  501    0  0.00000000000E+00  0.00000000000E+00  0.29606893802E+04  0.29606893802E+04  0.25500000920E-02 0. -1.
       -2   -1    0    0    0  501  0.00000000000E+00  0.00000000000E+00 -0.93245509753E+03  0.93245509754E+03  0.25500000920E-02 0.  1.
    10030    2    1    2    0    0  0.00000000000E+00  0.00000000000E+00  0.20282342827E+04  0.38931444778E+04  0.33230768302E+04 0.  0.
        3    1    3    3  502    0  0.83779753263E+03  0.70723329671E+03 -0.44850159402E+03  0.11845831890E+04  0.10100000352E+00 0.  1.
       -3    1    3    3    0  502 -0.83779753263E+03 -0.70723329671E+03  0.24767358767E+04  0.27085612887E+04  0.10100000352E+00 0. -1.
</event>
<event>
 5   0  0.1743810E-06  0.3183677E+04  0.7818609E-02  0.8193141E-01
       -2   -1    0    0    0  501  0.00000000000E+00  0.00000000000E+00  0.13113285510E+04  0.13113285510E+04  0.25500000920E-02 0.  1.
        2   -1    0    0  501    0  0.00000000000E+00  0.00000000000E+00 -0.19323532090E+04  0.19323532090E+04  0.25500000920E-02 0. -1.
    10030    2    1    2    0    0  0.00000000000E+00  0.00000000000E+00 -0.62102465803E+03  0.32436817600E+04  0.31836770776E+04 0.  0.
        5    1    3    3  502    0  0.71364269147E+03  0.12698042955E+04  0.34364734460E+03  0.14965976170E+04  0.46999998093E+01 0.  1.
       -5    1    3    3    0  502 -0.71364269147E+03 -0.12698042955E+04 -0.96467200263E+03  0.17470841429E+04  0.46999998093E+01 0. -1.
</event>
<event>
 5   0  0.5985183E-07  0.3131357E+04  0.7818609E-02  0.8207185E-01
        1   -1    0    0  501    0  0.00000000000E+00  0.00000000000E+00  0.15344628767E+04  0.15344628767E+04  0.50400001928E-02 0. -1.
       -1   -1    0    0    0  501  0.00000000000E+00  0.00000000000E+00 -0.15975286524E+04  0.15975286524E+04  0.50400001928E-02 0.  1.
    10030    2    1    2    0    0  0.00000000000E+00  0.00000000000E+00 -0.63065775677E+02  0.31319915291E+04  0.31313565185E+04 0.  0.
        2    1    3    3  502    0  0.26474737431E+03  0.15269719546E+04  0.19125403660E+03  0.15615097274E+04  0.25500000920E-02 0. -1.
       -2    1    3    3    0  502 -0.26474737431E+03 -0.15269719546E+04 -0.25431981228E+03  0.15704818016E+04  0.25500000920E-02 0.  1.
</event>
<event>
 5   0  0.1832626E-06  0.3286532E+04  0.7818609E-02  0.8166331E-01
        2   -1    0    0  501    0  0.00000000000E+00  0.00000000000E+00  0.13657079436E+04  0.13657079436E+04  0.25500000920E-02 0. -1.
       -2   -1    0    0    0  501  0.00000000000E+00  0.00000000000E+00 -0.19772330045E+04  0.19772330045E+04  0.25500000920E-02 0.  1.
    10030    2    1    2    0    0  0.00000000000E+00  0.00000000000E+00 -0.61152506091E+03  0.33429409481E+04  0.32865318015E+04 0.  0.
        3    1    3    3  502    0  0.62255531249E+03 -0.12298193287E+04 -0.12157075120E+04  0.18379269472E+04  0.10100000352E+00 0.  1.
       -3    1    3    3    0  502 -0.62255531249E+03  0.12298193287E+04  0.60418245111E+03  0.15050140009E+04  0.10100000352E+00 0. -1.
</event>
<event>
 5   0  0.1728937E-06  0.3280052E+04  0.7818609E-02  0.8167990E-01
       -2   -1    0    0    0  501  0.00000000000E+00  0.00000000000E+00  0.16511516832E+04  0.16511516832E+04  0.25500000920E-02 0. -1.
        2   -1    0    0  501    0  0.00000000000E+00  0.00000000000E+00 -0.16289752489E+04  0.16289752489E+04  0.25500000920E-02 0.  1.
    10030    2    1    2    0    0  0.00000000000E+00  0.00000000000E+00  0.22176434334E+02  0.32801269320E+04  0.32800519654E+04 0.  0.
        1    1    3    3  502    0 -0.36729721067E+03 -0.86613691395E+03  0.13544672846E+04  0.16491458455E+04  0.50400001928E-02 0. -1.
       -1    1    3    3    0  502  0.36729721067E+03  0.86613691395E+03 -0.13322908503E+04  0.16309810865E+04  0.50400001928E-02 0.  1.
</event>
<event>
 5   0  0.6023446E-07  0.3270986E+04  0.7818609E-02  0.8170318E-01
       -1   -1    0    0    0  501  0.00000000000E+00  0.00000000000E+00  0.12189981352E+04  0.12189981352E+04  0.50400001928E-02 0. -1.
        1   -1    0    0  501    0  0.00000000000E+00  0.00000000000E+00 -0.21942911433E+04  0.21942911433E+04  0.50400001928E-02 0.  1.
    10030    2    1    2    0    0  0.00000000000E+00  0.00000000000E+00 -0.97529300812E+03  0.34132892785E+04  0.32709856690E+04 0.  0.
        5    1    3    3  502    0 -0.13523702250E+04 -0.29573124078E+03  0.42113327940E+03  0.14469753008E+04  0.46999998093E+01 0. -1.
       -5    1    3    3    0  502  0.13523702250E+04  0.29573124078E+03 -0.13964262875E+04  0.19663139776E+04  0.46999998093E+01 0.  1.
</event>
<event>
 5   0  0.1832626E-06  0.3295729E+04  0.7818609E-02  0.8163983E-01
       -2   -1    0    0    0  501  0.00000000000E+00  0.00000000000E+00  0.97551546413E+03  0.97551546413E+03  0.25500000920E-02 0. -1.
        2   -1    0    0  501    0  0.00000000000E+00  0.00000000000E+00 -0.27836136339E+04  0.27836136339E+04  0.25500000920E-02 0.  1.
    10030    2    1    2    0    0  0.00000000000E+00  0.00000000000E+00 -0.18080981698E+04  0.37591290981E+04  0.32957294465E+04 0.  0.
        3    1    3    3  502    0 -0.24103819750E+03  0.23824972136E+03  0.93533369477E+03  0.99484243635E+03  0.10100000352E+00 0. -1.
       -3    1    3    3    0  502  0.24103819750E+03 -0.23824972136E+03 -0.27434318646E+04  0.27642866617E+04  0.10100000352E+00 0.  1.
</event>
<event>
 5   0  0.5988516E-07  0.3242655E+04  0.7818609E-02  0.8177642E-01
       -1   -1    0    0    0  501  0.00000000000E+00  0.00000000000E+00  0.12268654832E+04  0.12268654832E+04  0.50400001928E-02 0. -1.
        1   -1    0    0  501    0  0.00000000000E+00  0.00000000000E+00 -0.21426164665E+04  0.21426164665E+04  0.50400001928E-02 0.  1.
    10030    2    1    2    0    0  0.00000000000E+00  0.00000000000E+00 -0.91575098334E+03  0.33694819497E+04  0.32426545832E+04 0.  0.
        4    1    3    3  502    0  0.53443723681E+03  0.25990274778E+03  0.11096100184E+04  0.12587329360E+04  0.12699999809E+01 0. -1.
       -4    1    3    3    0  502 -0.53443723681E+03 -0.25990274778E+03 -0.20253610018E+04  0.21107490137E+04  0.12699999809E+01 0.  1.
</event>
<event>
 5   0  0.6085351E-07  0.3289210E+04  0.7818609E-02  0.8165646E-01
       -1   -1    0    0    0  501  0.00000000000E+00  0.00000000000E+00  0.12503474788E+04  0.12503474788E+04  0.50400001928E-02 0. -1.
        1   -1    0    0  501    0  0.00000000000E+00  0.00000000000E+00 -0.21631791042E+04  0.21631791042E+04  0.50400001928E-02 0.  1.
    10030    2    1    2    0    0  0.00000000000E+00  0.00000000000E+00 -0.91283162539E+03  0.34135265830E+04  0.32892099593E+04 0.  0.
        1    1    3    3  502    0  0.62723126966E+03  0.12828869363E+04  0.39020354957E+03  0.14803637279E+04  0.50400001928E-02 0. -1.
       -1    1    3    3    0  502 -0.62723126966E+03 -0.12828869363E+04 -0.13030351750E+04  0.19331628550E+04  0.50400001928E-02 0.  1.
</event>
<event>
 5   0  0.5858859E-07  0.3246006E+04  0.7818609E-02  0.8176772E-01
       -1   -1    0    0    0  501  0.00000000000E+00  0.00000000000E+00  0.12747479431E+04  0.12747479431E+04  0.50400001928E-02 0. -1.
        1   -1    0    0  501    0  0.00000000000E+00  0.00000000000E+00 -0.20664000408E+04  0.20664000409E+04  0.50400001928E-02 0.  1.
    10030    2    1    2    0    0  0.00000000000E+00  0.00000000000E+00 -0.79165209771E+03  0.33411479840E+04  0.32460062858E+04 0.  0.
        3    1    3    3  502    0 -0.44968195811E+03 -0.70618436157E+03  0.10353333366E+04  0.13314748755E+04  0.10100000352E+00 0. -1.
       -3    1    3    3    0  502  0.44968195811E+03  0.70618436157E+03 -0.18269854343E+04  0.20096731085E+04  0.10100000352E+00 0.  1.
</event>
<event>
 5   0  0.1696681E-06  0.2900125E+04  0.7818609E-02  0.8272840E-01
        2   -1    0    0  501    0  0.00000000000E+00  0.00000000000E+00  0.21901511230E+04  0.21901511230E+04  0.25500000920E-02 0.  1.
       -2   -1    0    0    0  501  0.00000000000E+00  0.00000000000E+00 -0.96006209483E+03  0.96006209484E+03  0.25500000920E-02 0. -1.
    10030    2    1    2    0    0  0.00000000000E+00  0.00000000000E+00  0.12300890282E+04  0.31502132179E+04  0.29001248767E+04 0.  0.
        4    1    3    3  502    0  0.73047761139E+03 -0.23007377689E+03  0.19525453017E+04  0.20973712717E+04  0.12699999809E+01 0.  1.
       -4    1    3    3    0  502 -0.73047761139E+03  0.23007377689E+03 -0.72245627347E+03  0.10528419461E+04  0.12699999809E+01 0. -1.
</event>
<event>
 5   0  0.1696681E-06  0.3298057E+04  0.7818609E-02  0.8163390E-01
        2   -1    0    0  501    0  0.00000000000E+00  0.00000000000E+00  0.12639032725E+04  0.12639032725E+04  0.25500000920E-02 0. -1.
       -2   -1    0    0    0  501  0.00000000000E+00  0.00000000000E+00 -0.21515051478E+04  0.21515051478E+04  0.25500000920E-02 0.  1.
    10030    2    1    2    0    0  0.00000000000E+00  0.00000000000E+00 -0.88760187525E+03  0.34154084203E+04  0.32980566382E+04 0.  0.
        4    1    3    3  502    0 -0.22080864651E+03 -0.16253683973E+04 -0.26831972808E+03  0.16620998690E+04  0.12699999809E+01 0. -1.
       -4    1    3    3    0  502  0.22080864651E+03  0.16253683973E+04 -0.61928214717E+03  0.17533085513E+04  0.12699999809E+01 0.  1.
</event>
<event>
 5   0  0.5985183E-07  0.3323863E+04  0.7818609E-02  0.8156850E-01
       -1   -1    0    0    0  501  0.00000000000E+00  0.00000000000E+00  0.11164220770E+04  0.11164220770E+04  0.50400001928E-02 0. -1.
        1   -1    0    0  501    0  0.00000000000E+00  0.00000000000E+00 -0.24739889686E+04  0.24739889686E+04  0.50400001928E-02 0.  1.
    10030    2    1    2    0    0  0.00000000000E+00  0.00000000000E+00 -0.13575668916E+04  0.35904110456E+04  0.33238627546E+04 0.  0.
        2    1    3    3  502    0 -0.85420096150E+03 -0.96567466866E+03  0.45404379138E+03  0.13668732980E+04  0.25500000920E-02 0. -1.
       -2    1    3    3    0  502  0.85420096150E+03  0.96567466866E+03 -0.18116106830E+04  0.22235377476E+04  0.25500000920E-02 0.  1.
</event>
<event>
 5   0  0.6023446E-07  0.3195763E+04  0.7818609E-02  0.8189937E-01
        1   -1    0    0  501    0  0.00000000000E+00  0.00000000000E+00  0.23760134614E+04  0.23760134614E+04  0.50400001928E-02 0. -1.
       -1   -1    0    0    0  501  0.00000000000E+00  0.00000000000E+00 -0.10745838916E+04  0.10745838916E+04  0.50400001928E-02 0.  1.
    10030    2    1    2    0    0  0.00000000000E+00  0.00000000000E+00  0.13014295698E+04  0.34505973530E+04  0.31957633153E+04 0.  0.
        5    1    3    3  502    0  0.14436863019E+04 -0.60237748216E+03  0.10024435839E+04  0.18579569419E+04  0.46999998093E+01 0.  1.
       -5    1    3    3    0  502 -0.14436863019E+04  0.60237748216E+03  0.29898598589E+03  0.15926404111E+04  0.46999998093E+01 0. -1.
</event>
<event>
 5   0  0.6023446E-07  0.3225197E+04  0.7818609E-02  0.8182194E-01
       -1   -1    0    0    0  501  0.00000000000E+00  0.00000000000E+00  0.15777623681E+04  0.15777623681E+04  0.50400001928E-02 0.  1.
        1   -1    0    0  501    0  0.00000000000E+00  0.00000000000E+00 -0.16482040322E+04  0.16482040322E+04  0.50400001928E-02 0. -1.
    10030    2    1    2    0    0  0.00000000000E+00  0.00000000000E+00 -0.70441664165E+02  0.32259664003E+04  0.32251972324E+04 0.  0.
        5    1    3    3  502    0  0.15580245595E+04  0.13717883601E+03 -0.42798946765E+03  0.16215596306E+04  0.46999998093E+01 0. -1.
       -5    1    3    3    0  502 -0.15580245595E+04 -0.13717883601E+03  0.35754780349E+03  0.16044067698E+04  0.46999998093E+01 0.  1.
</event>
<event>
 5   0  0.1784626E-06  0.3305261E+04  0.7818609E-02  0.8161558E-01
       -2   -1    0    0    0  501  0.00000000000E+00  0.00000000000E+00  0.26401804065E+04  0.26401804065E+04  0.25500000920E-02 0. -1.
        2   -1    0    0  501    0  0.00000000000E+00  0.00000000000E+00 -0.10344699727E+04  0.10344699727E+04  0.25500000920E-02 0.  1.
    10030    2    1    2    0    0  0.00000000000E+00  0.00000000000E+00  0.16057104338E+04  0.36746503792E+04  0.33052608690E+04 0.  0.
        2    1    3    3  502    0  0.13831839530E+04  0.89827675394E+03  0.91992486238E+03  0.18884810635E+04  0.25500000920E-02 0. -1.
       -2    1    3    3    0  502 -0.13831839530E+04 -0.89827675394E+03  0.68578557143E+03  0.17861693158E+04  0.25500000920E-02 0.  1.
</event>
<event>
 5   0  0.1832626E-06  0.3250062E+04  0.7818609E-02  0.8175720E-01
        2   -1    0    0  501    0  0.00000000000E+00  0.00000000000E+00  0.20073997300E+04  0.20073997300E+04  0.25500000920E-02 0. -1.
       -2   -1    0    0    0  501  0.00000000000E+00  0.00000000000E+00 -0.13154959871E+04  0.13154959872E+04  0.25500000920E-02 0.  1.
    10030    2    1    2    0    0  0.00000000000E+00  0.00000000000E+00  0.69190374284E+03  0.33228957171E+04  0.32500623314E+04 0.  0.
        3    1    3    3  502    0  0.45887375990E+03  0.15471172410E+04  0.15038169298E+03  0.16207256241E+04  0.10100000352E+00 0.  1.
       -3    1    3    3    0  502 -0.45887375990E+03 -0.15471172410E+04  0.54152204986E+03  0.17021700930E+04  0.10100000352E+00 0. -1.
</event>
<event>
 5   0  0.1728937E-06  0.3235806E+04  0.7818609E-02  0.8179424E-01
       -2   -1    0    0    0  501  0.00000000000E+00  0.00000000000E+00  0.22214063596E+04  0.22214063596E+04  0.25500000920E-02 0. -1.
        2   -1    0    0  501    0  0.00000000000E+00  0.00000000000E+00 -0.11783574806E+04  0.11783574806E+04  0.25500000920E-02 0.  1.
    10030    2    1    2    0    0  0.00000000000E+00  0.00000000000E+00  0.10430488790E+04  0.33997638402E+04  0.32358064227E+04 0.  0.
        1    1    3    3  502    0  0.10661666752E+04  0.29086424136E+03  0.17630486265E+04  0.20807820274E+04  0.50400001928E-02 0. -1.
       -1    1    3    3    0  502 -0.10661666752E+04 -0.29086424136E+03 -0.71999974743E+03  0.13189818128E+04  0.50400001928E-02 0.  1.
</event>
<event>
 5   0  0.1784626E-06  0.3286440E+04  0.7818609E-02  0.8166354E-01
        2   -1    0    0  501    0  0.00000000000E+00  0.00000000000E+00  0.19088415884E+04  0.19088415884E+04  0.25500000920E-02 0. -1.
       -2   -1    0    0    0  501  0.00000000000E+00  0.00000000000E+00 -0.14145604046E+04  0.14145604046E+04  0.25500000920E-02 0.  1.
    10030    2    1    2    0    0  0.00000000000E+00  0.00000000000E+00  0.49428118380E+03  0.33234019930E+04  0.32864398547E+04 0.  0.
        2    1    3    3  502    0  0.86499258833E+03 -0.13792802402E+04  0.47223235629E+03  0.16951783261E+04  0.25500000920E-02 0.  1.
       -2    1    3    3    0  502 -0.86499258833E+03  0.13792802402E+04  0.22048827511E+02  0.16282236670E+04  0.25500000920E-02 0. -1.
</event>
<event>
 5   0  0.1832626E-06  0.3325676E+04  0.7818609E-02  0.8156393E-01
       -2   -1    0    0    0  501  0.00000000000E+00  0.00000000000E+00  0.14284040364E+04  0.14284040364E+04  0.25500000920E-02 0.  1.
        2   -1    0    0  501    0  0.00000000000E+00  0.00000000000E+00 -0.19357481043E+04  0.19357481043E+04  0.25500000920E-02 0. -1.
    10030    2    1    2    0    0  0.00000000000E+00  0.00000000000E+00 -0.50734406789E+03  0.33641521407E+04  0.33256761151E+04 0.  0.
        3    1    3    3  502    0 -0.14212048350E+03 -0.10928522050E+04 -0.15132714000E+04  0.18720348592E+04  0.10100000352E+00 0.  1.
       -3    1    3    3    0  502  0.14212048350E+03  0.10928522050E+04  0.10059273321E+04  0.14921172814E+04  0.10100000352E+00 0. -1.
</event>
<event>
 5   0  0.5858859E-07  0.3170589E+04  0.7818609E-02  0.8196628E-01
       -1   -1    0    0    0  501  0.00000000000E+00  0.00000000000E+00  0.13216402306E+04  0.13216402306E+04  0.50400001928E-02 0. -1.
        1   -1    0    0  501    0  0.00000000000E+00  0.00000000000E+00 -0.19015450434E+04  0.19015450434E+04  0.50400001928E-02 0.  1.
    10030    2    1    2    0    0  0.00000000000E+00  0.00000000000E+00 -0.57990481288E+03  0.32231852740E+04  0.31705888599E+04 0.  0.
        3    1    3    3  502    0 -0.53482317452E+03  0.70709849978E+03  0.10460535542E+04  0.13712228721E+04  0.10100000352E+00 0. -1.
       -3    1    3    3    0  502  0.53482317452E+03 -0.70709849978E+03 -0.16259583671E+04  0.18519624019E+04  0.10100000352E+00 0.  1.
</event>
<event>
 5   0  0.1743810E-06  0.3298390E+04  0.7818609E-02  0.8163305E-01
        2   -1    0    0  501    0  0.00000000000E+00  0.00000000000E+00  0.17959376330E+04  0.17959376330E+04  0.25500000920E-02 0.  1.
       -2   -1    0    0    0  501  0.00000000000E+00  0.00000000000E+00 -0.15144421083E+04  0.15144421083E+04  0.25500000920E-02 0. -1.
    10030    2    1    2    0    0  0.00000000000E+00  0.00000000000E+00  0.28149552468E+03  0.33103797413E+04  0.32983896527E+04 0.  0.
        5    1    3    3  502    0 -0.81301099905E+03 -0.80685504156E+03 -0.10500810966E+04  0.15539286799E+04  0.46999998093E+01 0. -1.
       -5    1    3    3    0  502  0.81301099905E+03  0.80685504156E+03  0.13315766213E+04  0.17564510614E+04  0.46999998093E+01 0.  1.
</event>
<event>
 5   0  0.6023446E-07  0.3304961E+04  0.7818609E-02  0.8161634E-01
        1   -1    0    0  501    0  0.00000000000E+00  0.00000000000E+00  0.88188554181E+03  0.88188554182E+03  0.50400001928E-02 0.  1.
       -1   -1    0    0    0  501  0.00000000000E+00  0.00000000000E+00 -0.30964251837E+04  0.30964251837E+04  0.50400001928E-02 0. -1.
    10030    2    1    2    0    0  0.00000000000E+00  0.00000000000E+00 -0.22145396419E+04  0.39783107256E+04  0.33049614829E+04 0.  0.
        5    1    3    3  502    0  0.26245809074E+02  0.51047732817E+03 -0.29988621417E+04  0.30421163981E+04  0.46999998093E+01 0. -1.
       -5    1    3    3    0  502 -0.26245809074E+02 -0.51047732817E+03  0.78432249975E+03  0.93619432742E+03  0.46999998093E+01 0.  1.
</event>
<event>
 5   0  0.5858859E-07  0.3234596E+04  0.7818609E-02  0.8179740E-01
        1   -1    0    0  501    0  0.00000000000E+00  0.00000000000E+00  0.24785517479E+04  0.24785517479E+04  0.50400001928E-02 0. -1.
       -1   -1    0    0    0  501  0.00000000000E+00  0.00000000000E+00 -0.10553152056E+04  0.10553152056E+04  0.50400001928E-02 0.  1.
    10030    2    1    2    0    0  0.00000000000E+00  0.00000000000E+00  0.14232365423E+04  0.35338669535E+04  0.32345963257E+04 0.  0.
        3    1    3    3  502    0  0.24257084571E+03 -0.55717742115E+03  0.23490770226E+04  0.24264068418E+04  0.10100000352E+00 0. -1.
       -3    1    3    3    0  502 -0.24257084571E+03  0.55717742115E+03 -0.92584048031E+03  0.11074601117E+04  0.10100000352E+00 0.  1.
</event>
<event>
 5   0  0.1832626E-06  0.3318791E+04  0.7818609E-02  0.8158130E-01
        2   -1    0    0  501    0  0.00000000000E+00  0.00000000000E+00  0.20564120365E+04  0.20564120365E+04  0.25500000920E-02 0. -1.
       -2   -1    0    0    0  501  0.00000000000E+00  0.00000000000E+00 -0.13390279661E+04  0.13390279661E+04  0.25500000920E-02 0.  1.
    10030    2    1    2    0    0  0.00000000000E+00  0.00000000000E+00  0.71738407035E+03  0.33954400026E+04  0.33187908803E+04 0.  0.
        3    1    3    3  502    0 -0.11953789693E+04 -0.51206482812E+03 -0.69586681675E+03  0.14749142027E+04  0.10100000352E+00 0.  1.
       -3    1    3    3    0  502  0.11953789693E+04  0.51206482812E+03  0.14132508871E+04  0.19205258000E+04  0.10100000352E+00 0. -1.
</event>
<event>
 5   0  0.6085351E-07  0.3296340E+04  0.7818609E-02  0.8163827E-01
       -1   -1    0    0    0  501  0.00000000000E+00  0.00000000000E+00  0.16107828548E+04  0.16107828548E+04  0.50400001928E-02 0.  1.
        1   -1    0    0  501    0  0.00000000000E+00  0.00000000000E+00 -0.16864254160E+04  0.16864254160E+04  0.50400001928E-02 0. -1.
    10030    2    1    2    0    0  0.00000000000E+00  0.00000000000E+00 -0.75642561252E+02  0.32972082708E+04  0.32963404836E+04 0.  0.
        1    1    3    3  502    0 -0.15231570725E+04  0.50287290236E+03  0.34119339939E+03  0.16399090095E+04  0.50400001928E-02 0.  1.
       -1    1    3    3    0  502  0.15231570725E+04 -0.50287290236E+03 -0.41683596064E+03  0.16572992613E+04  0.50400001928E-02 0. -1.
</event>
<event>
 5   0  0.5858859E-07  0.3097405E+04  0.7818609E-02  0.8216451E-01
        1   -1    0    0  501    0  0.00000000000E+00  0.00000000000E+00  0.14405581220E+04  0.14405581220E+04  0.50400001928E-02 0. -1.
       -1   -1    0    0    0  501  0.00000000000E+00  0.00000000000E+00 -0.16649649872E+04  0.16649649872E+04  0.50400001928E-02 0.  1.
    10030    2    1    2    0    0  0.00000000000E+00  0.00000000000E+00 -0.22440686527E+03  0.31055231092E+04  0.30974046136E+04 0.  0.
        3    1    3    3  502    0  0.69623648514E+03  0.11551403040E+04  0.65096473196E+03  0.14976145892E+04  0.10100000352E+00 0. -1.
       -3    1    3    3    0  502 -0.69623648514E+03 -0.11551403040E+04 -0.87537159723E+03  0.16079085200E+04  0.10100000352E+00 0.  1.
</event>
<event>
 5   0  0.5988516E-07  0.3303177E+04  0.7818609E-02  0.8162088E-01
       -1   -1    0    0    0  501  0.00000000000E+00  0.00000000000E+00  0.14409369712E+04  0.14409369712E+04  0.50400001928E-02 0. -1.
        1   -1    0    0  501    0  0.00000000000E+00  0.00000000000E+00 -0.18930349127E+04  0.18930349127E+04  0.50400001928E-02 0.  1.
    10030    2    1    2    0    0  0.00000000000E+00  0.00000000000E+00 -0.45209794156E+03  0.33339718839E+04  0.33031766489E+04 0.  0.
        4    1    3    3  502    0  0.64542829668E+03 -0.11326607319E+04 -0.12495264751E+04  0.18057729771E+04  0.12699999809E+01 0.  1.
       -4    1    3    3    0  502 -0.64542829668E+03  0.11326607319E+04  0.79742853355E+03  0.15281989068E+04  0.12699999809E+01 0. -1.
</event>
<event>
 5   0  0.6023446E-07  0.2794032E+04  0.7818609E-02  0.8305124E-01
       -1   -1    0    0    0  501  0.00000000000E+00  0.00000000000E+00  0.10938634499E+04  0.10938634499E+04  0.50400001928E-02 0. -1.
        1   -1    0    0  501    0  0.00000000000E+00  0.00000000000E+00 -0.17841838135E+04  0.17841838135E+04  0.50400001928E-02 0.  1.
    10030    2    1    2    0    0  0.00000000000E+00  0.00000000000E+00 -0.69032036362E+03  0.28780472634E+04  0.27940318262E+04 0.  0.
        5    1    3    3  502    0  0.82611764669E+03  0.54813653226E+03  0.66866452274E+03  0.11958504748E+04  0.46999998093E+01 0. -1.
       -5    1    3    3    0  502 -0.82611764669E+03 -0.54813653226E+03 -0.13589848864E+04  0.16821967886E+04  0.46999998093E+01 0.  1.
</event>
<event>
 5   0  0.1696681E-06  0.3491429E+04  0.7818609E-02  0.8115824E-01
        2   -1    0    0  501    0  0.00000000000E+00  0.00000000000E+00  0.18802957674E+04  0.18802957674E+04  0.25500000920E-02 0. -1.
       -2   -1    0    0    0  501  0.00000000000E+00  0.00000000000E+00 -0.16207660473E+04  0.16207660473E+04  0.25500000920E-02 0.  1.
    10030    2    1    2    0    0  0.00000000000E+00  0.00000000000E+00  0.25952972011E+03  0.35010618147E+04  0.34914292424E+04 0.  0.
        4    1    3    3  502    0  0.67641501400E+03 -0.42198100710E+03  0.16870829357E+04  0.18659731205E+04  0.12699999809E+01 0. -1.
       -4    1    3    3    0  502 -0.67641501400E+03  0.42198100710E+03 -0.14275532156E+04  0.16350886942E+04  0.12699999809E+01 0.  1.
</event>
<event>
 5   0  0.1728937E-06  0.3303758E+04  0.7818609E-02  0.8161940E-01
       -2   -1    0    0    0  501  0.00000000000E+00  0.00000000000E+00  0.18754482593E+04  0.18754482593E+04  0.25500000920E-02 0. -1.
        2   -1    0    0  501    0  0.00000000000E+00  0.00000000000E+00 -0.14549606562E+04  0.14549606562E+04  0.25500000920E-02 0.  1.
    10030    2    1    2    0    0  0.00000000000E+00  0.00000000000E+00  0.42048760314E+03  0.33304089155E+04  0.33037575154E+04 0.  0.
        1    1    3    3  502    0 -0.54796960772E+02 -0.49528700626E+03 -0.13773869926E+04  0.14647548781E+04  0.50400001928E-02 0.  1.
       -1    1    3    3    0  502  0.54796960772E+02  0.49528700626E+03  0.17978745957E+04  0.18656540375E+04  0.50400001928E-02 0. -1.
</event>
<event>
 5   0  0.5988516E-07  0.3342651E+04  0.7818609E-02  0.8152127E-01
        1   -1    0    0  501    0  0.00000000000E+00  0.00000000000E+00  0.19287482445E+04  0.19287482445E+04  0.50400001928E-02 0. -1.
       -1   -1    0    0    0  501  0.00000000000E+00  0.00000000000E+00 -0.14482596814E+04  0.14482596814E+04  0.50400001928E-02 0.  1.
    10030    2    1    2    0    0  0.00000000000E+00  0.00000000000E+00  0.48048856310E+03  0.33770079260E+04  0.33426506358E+04 0.  0.
        4    1    3    3  502    0  0.12664141917E+04 -0.14473074182E+03 -0.85187318478E+03  0.15331149430E+04  0.12699999809E+01 0.  1.
       -4    1    3    3    0  502 -0.12664141917E+04  0.14473074182E+03  0.13323617479E+04  0.18438929830E+04  0.12699999809E+01 0. -1.
</event>
<event>
 5   0  0.1784626E-06  0.3297790E+04  0.7818609E-02  0.8163458E-01
       -2   -1    0    0    0  501  0.00000000000E+00  0.00000000000E+00  0.10664332368E+04  0.10664332369E+04  0.25500000920E-02 0.  1.
        2   -1    0    0  501    0  0.00000000000E+00  0.00000000000E+00 -0.25494838082E+04  0.25494838082E+04  0.25500000920E-02 0. -1.
    10030    2    1    2    0    0  0.00000000000E+00  0.00000000000E+00 -0.14830505713E+04  0.36159170450E+04  0.32977897264E+04 0.  0.
        2    1    3    3  502    0 -0.15909649156E+04  0.26291023838E+02 -0.12156678813E+04  0.20024257735E+04  0.25500000920E-02 0. -1.
       -2    1    3    3    0  502  0.15909649156E+04 -0.26291023838E+02 -0.26738268998E+03  0.16134912716E+04  0.25500000920E-02 0.  1.
</event>
<event>
 5   0  0.6023446E-07  0.3295990E+04  0.7818609E-02  0.8163917E-01
       -1   -1    0    0    0  501  0.00000000000E+00  0.00000000000E+00  0.18838749830E+04  0.18838749830E+04  0.50400001928E-02 0.  1.
        1   -1    0    0  501    0  0.00000000000E+00  0.00000000000E+00 -0.14416494432E+04  0.14416494432E+04  0.50400001928E-02 0. -1.
    10030    2    1    2    0    0  0.00000000000E+00  0.00000000000E+00  0.44222553982E+03  0.33255244263E+04  0.32959898789E+04 0.  0.
        5    1    3    3  502    0  0.31734879559E+03  0.14775267018E+04  0.88432303195E+03  0.17509553756E+04  0.46999998093E+01 0. -1.
       -5    1    3    3    0  502 -0.31734879559E+03 -0.14775267018E+04 -0.44209749213E+03  0.15745690506E+04  0.46999998093E+01 0.  1.
</event>
<event>
 5   0  0.1784626E-06  0.3284568E+04  0.7818609E-02  0.8166833E-01
        2   -1    0    0  501    0  0.00000000000E+00  0.00000000000E+00  0.11602077624E+04  0.11602077624E+04  0.25500000920E-02 0. -1.
       -2   -1    0    0    0  501  0.00000000000E+00  0.00000000000E+00 -0.23246663378E+04  0.23246663378E+04  0.25500000920E-02 0.  1.
    10030    2    1    2    0    0  0.00000000000E+00  0.00000000000E+00 -0.11644585754E+04  0.34848741001E+04  0.32845675088E+04 0.  0.
        2    1    3    3  502    0 -0.89419289485E+00  0.93210637487E+03 -0.20168245875E+04  0.22218020862E+04  0.25500000920E-02 0.  1.
       -2    1    3    3    0  502  0.89419289485E+00 -0.93210637487E+03  0.85236601210E+03  0.12630720139E+04  0.25500000920E-02 0. -1.
</event>
<event>
 5   0  0.5988516E-07  0.3297221E+04  0.7818609E-02  0.8163603E-01
        1   -1    0    0  501    0  0.00000000000E+00  0.00000000000E+00  0.19755288362E+04  0.19755288362E+04  0.50400001928E-02 0. -1.
       -1   -1    0    0    0  501  0.00000000000E+00  0.00000000000E+00 -0.13757918204E+04  0.13757918204E+04  0.50400001928E-02 0.  1.
    10030    2    1    2    0    0  0.00000000000E+00  0.00000000000E+00  0.59973701578E+03  0.33513206566E+04  0.32972208987E+04 0.  0.
        4    1    3    3  502    0 -0.81514564942E+03  0.10324698339E+04 -0.71014538291E+03  0.14949128622E+04  0.12699999809E+01 0. -1.
       -4    1    3    3    0  502  0.81514564942E+03 -0.10324698339E+04  0.13098823987E+04  0.18564077944E+04  0.12699999809E+01 0.  1.
</event>
<event>
 5   0  0.5988516E-07  0.3138833E+04  0.7818609E-02  0.8205161E-01
       -1   -1    0    0    0  501  0.00000000000E+00  0.00000000000E+00  0.29813807568E+04  0.29813807568E+04  0.50400001928E-02 0. -1.
        1   -1    0    0  501    0  0.00000000000E+00  0.00000000000E+00 -0.82615000295E+03  0.82615000296E+03  0.50400001928E-02 0.  1.
    10030    2    1    2    0    0  0.00000000000E+00  0.00000000000E+00  0.21552307538E+04  0.38075307598E+04  0.31388327264E+04 0.  0.
        4    1    3    3  502    0 -0.96858348182E+03  0.33021871446E+03  0.25210150180E+04  0.27207933943E+04  0.12699999809E+01 0. -1.
       -4    1    3    3    0  502  0.96858348182E+03 -0.33021871446E+03 -0.36578426416E+03  0.10867373654E+04  0.12699999809E+01 0.  1.
</event>
<event>
 5   0  0.5985183E-07  0.3315709E+04  0.7818609E-02  0.8158910E-01
       -1   -1    0    0    0  501  0.00000000000E+00  0.00000000000E+00  0.13908522200E+04  0.13908522200E+04  0.50400001928E-02 0. -1.
        1   -1    0    0  501    0  0.00000000000E+00  0.00000000000E+00 -0.19761137653E+04  0.19761137653E+04  0.50400001928E-02 0.  1.
    10030    2    1    2    0    0  0.00000000000E+00  0.00000000000E+00 -0.58526154532E+03  0.33669659853E+04  0.33157094067E+04 0.  0.
        2    1    3    3  502    0 -0.13579410419E+04  0.50038120376E+03 -0.11138958289E+04  0.18262390698E+04  0.25500000920E-02 0.  1.
       -2    1    3    3    0  502  0.13579410419E+04 -0.50038120376E+03  0.52863428362E+03  0.15407269155E+04  0.25500000920E-02 0. -1.
</event>
<event>
 5   0  0.1696681E-06  0.3168228E+04  0.7818609E-02  0.8197259E-01
       -2   -1    0    0    0  501  0.00000000000E+00  0.00000000000E+00  0.10566808450E+04  0.10566808450E+04  0.25500000920E-02 0.  1.
        2   -1    0    0  501    0  0.00000000000E+00  0.00000000000E+00 -0.23748113869E+04  0.23748113869E+04  0.25500000920E-02 0. -1.
    10030    2    1    2    0    0  0.00000000000E+00  0.00000000000E+00 -0.13181305419E+04  0.34314922319E+04  0.31682283397E+04 0.  0.
        4    1    3    3  502    0 -0.12371042843E+04 -0.57469559615E+03 -0.15314201579E+04  0.20508416202E+04  0.12699999809E+01 0. -1.
       -4    1    3    3    0  502  0.12371042843E+04  0.57469559615E+03  0.21328961603E+03  0.13806506117E+04  0.12699999809E+01 0.  1.
</event>
<event>
 5   0  0.5685000E-07  0.3300913E+04  0.7818609E-02  0.8162663E-01
       -3   -1    0    0    0  501  0.00000000000E+00  0.00000000000E+00  0.24771321579E+04  0.24771321600E+04  0.10100000352E+00 0.  1.
        3   -1    0    0  501    0  0.00000000000E+00  0.00000000000E+00 -0.10996616121E+04  0.10996616168E+04  0.10100000352E+00 0. -1.
    10030    2    1    2    0    0  0.00000000000E+00  0.00000000000E+00  0.13774705458E+04  0.35767937767E+04  0.33009133004E+04 0.  0.
        4    1    3    3  502    0  0.83802852549E+03  0.39247677294E+03 -0.79211285099E+03  0.12181027085E+04  0.12699999809E+01 0. -1.
       -4    1    3    3    0  502 -0.83802852549E+03 -0.39247677294E+03  0.21695833968E+04  0.23586910682E+04  0.12699999809E+01 0.  1.
</event>
<event>
 5   0  0.1743810E-06  0.3327192E+04  0.7818609E-02  0.8156011E-01
        2   -1    0    0  501    0  0.00000000000E+00  0.00000000000E+00  0.18111990468E+04  0.18111990468E+04  0.25500000920E-02 0.  1.
       -2   -1    0    0    0  501  0.00000000000E+00  0.00000000000E+00 -0.15280219683E+04  0.15280219683E+04  0.25500000920E-02 0. -1.
    10030    2    1    2    0    0  0.00000000000E+00  0.00000000000E+00  0.28317707854E+03  0.33392210152E+04  0.33271921691E+04 0.  0.
        5    1    3    3  502    0  0.15991000785E+04 -0.30924900663E+03  0.48159621643E+03  0.16984442925E+04  0.46999998093E+01 0.  1.
       -5    1    3    3    0  502 -0.15991000785E+04  0.30924900663E+03 -0.19841913790E+03  0.16407767226E+04  0.46999998093E+01 0. -1.
</event>
<event>
 5   0  0.1743810E-06  0.3297248E+04  0.7818609E-02  0.8163596E-01
        2   -1    0    0  501    0  0.00000000000E+00  0.00000000000E+00  0.24775567020E+04  0.24775567020E+04  0.25500000920E-02 0. -1.
       -2   -1    0    0    0  501  0.00000000000E+00  0.00000000000E+00 -0.10970331023E+04  0.10970331023E+04  0.25500000920E-02 0.  1.
    10030    2    1    2    0    0  0.00000000000E+00  0.00000000000E+00  0.13805235998E+04  0.35745898043E+04  0.32972483770E+04 0.  0.
        5    1    3    3  502    0  0.12571632821E+04  0.48766439451E+03 -0.33802582843E+03  0.13901653248E+04  0.46999998093E+01 0.  1.
       -5    1    3    3    0  502 -0.12571632821E+04 -0.48766439451E+03  0.17185494282E+04  0.21844244795E+04  0.46999998093E+01 0. -1.
</event>
<event>
 5   0  0.1696681E-06  0.3310322E+04  0.7818609E-02  0.8160274E-01
        2   -1    0    0  501    0  0.00000000000E+00  0.00000000000E+00  0.23798558727E+04  0.23798558727E+04  0.25500000920E-02 0.  1.
       -2   -1    0    0    0  501  0.00000000000E+00  0.00000000000E+00 -0.11511443077E+04  0.11511443077E+04  0.25500000920E-02 0. -1.
    10030    2    1    2    0    0  0.00000000000E+00  0.00000000000E+00  0.12287115650E+04  0.35310001803E+04  0.33103217613E+04 0.  0.
        4    1    3    3  502    0  0.96795216357E+03 -0.44150743483E+03 -0.73811988000E+03  0.12948678605E+04  0.12699999809E+01 0. -1.
       -4    1    3    3    0  502 -0.96795216357E+03  0.44150743483E+03  0.19668314450E+04  0.22361323199E+04  0.12699999809E+01 0.  1.
</event>
<event>
 5   0  0.5988516E-07  0.3236508E+04  0.7818609E-02  0.8179242E-01
       -1   -1    0    0    0  501  0.00000000000E+00  0.00000000000E+00  0.16951833611E+04  0.16951833611E+04  0.50400001928E-02 0.  1.
        1   -1    0    0  501    0  0.00000000000E+00  0.00000000000E+00 -0.15448157786E+04  0.15448157787E+04  0.50400001928E-02 0. -1.
    10030    2    1    2    0    0  0.00000000000E+00  0.00000000000E+00  0.15036758245E+03  0.32399991398E+04  0.32365079972E+04 0.  0.
        4    1    3    3  502    0  0.14165171661E+04 -0.78109615979E+03  0.29174469086E+02  0.16178642883E+04  0.12699999809E+01 0. -1.
       -4    1    3    3    0  502 -0.14165171661E+04  0.78109615979E+03  0.12119311337E+03  0.16221348515E+04  0.12699999809E+01 0.  1.
</event>
<event>
 5   0  0.5985183E-07  0.3370180E+04  0.7818609E-02  0.8145264E-01
       -1   -1    0    0    0  501  0.00000000000E+00  0.00000000000E+00  0.12772902244E+04  0.12772902244E+04  0.50400001928E-02 0. -1.
        1   -1    0    0  501    0  0.00000000000E+00  0.00000000000E+00 -0.22230873625E+04  0.22230873625E+04  0.50400001928E-02 0.  1.
    10030    2    1    2    0    0  0.00000000000E+00  0.00000000000E+00 -0.94579713812E+03  0.35003775869E+04  0.33701796725E+04 0.  0.
        2    1    3    3  502    0  0.14921211860E+04  0.61647680735E+03  0.28512923250E+02  0.16147081081E+04  0.25500000920E-02 0. -1.
       -2    1    3    3    0  502 -0.14921211860E+04 -0.61647680735E+03 -0.97431006137E+03  0.18856694788E+04  0.25500000920E-02 0.  1.
</event>
<event>
 5   0  0.1784626E-06  0.2984500E+04  0.7818609E-02  0.8248171E-01
       -2   -1    0    0    0  501  0.00000000000E+00  0.00000000000E+00  0.10277035619E+04  0.10277035619E+04  0.25500000920E-02 0. -1.
        2   -1    0    0  501    0  0.00000000000E+00  0.00000000000E+00 -0.21667818476E+04  0.21667818476E+04  0.25500000920E-02 0.  1.
    10030    2    1    2    0    0  0.00000000000E+00  0.00000000000E+00 -0.11390782858E+04  0.31944854095E+04  0.29844995712E+04 0.  0.
        2    1    3    3  502    0 -0.80277163792E+03  0.12072175870E+04 -0.94795725694E+03  0.17321776947E+04  0.25500000920E-02 0.  1.
       -2    1    3    3    0  502  0.80277163792E+03 -0.12072175870E+04 -0.19112102882E+03  0.14623077148E+04  0.25500000920E-02 0. -1.
</event>
<event>
 5   0  0.5985183E-07  0.3201480E+04  0.7818609E-02  0.8188427E-01
       -1   -1    0    0    0  501  0.00000000000E+00  0.00000000000E+00  0.14701383936E+04  0.14701383936E+04  0.50400001928E-02 0. -1.
        1   -1    0    0  501    0  0.00000000000E+00  0.00000000000E+00 -0.17429433809E+04  0.17429433809E+04  0.50400001928E-02 0.  1.
    10030    2    1    2    0    0  0.00000000000E+00  0.00000000000E+00 -0.27280498733E+03  0.32130817745E+04  0.32014796467E+04 0.  0.
        2    1    3    3  502    0  0.73998409201E+03 -0.16681260226E+01  0.12881740572E+04  0.14855879781E+04  0.25500000920E-02 0. -1.
       -2    1    3    3    0  502 -0.73998409201E+03  0.16681260226E+01 -0.15609790445E+04  0.17274937964E+04  0.25500000920E-02 0.  1.
</event>
<event>
 5   0  0.1832626E-06  0.3303143E+04  0.7818609E-02  0.8162096E-01
        2   -1    0    0  501    0  0.00000000000E+00  0.00000000000E+00  0.10984963343E+04  0.10984963343E+04  0.25500000920E-02 0. -1.
       -2   -1    0    0    0  501  0.00000000000E+00  0.00000000000E+00 -0.24831113380E+04  0.24831113380E+04  0.25500000920E-02 0.  1.
    10030    2    1    2    0    0  0.00000000000E+00  0.00000000000E+00 -0.13846150037E+04  0.35816076723E+04  0.33031431713E+04 0.  0.
        3    1    3    3  502    0  0.15536166061E+03  0.13114989198E+04  0.38302472056E+03  0.13750907639E+04  0.10100000352E+00 0.  1.
       -3    1    3    3    0  502 -0.15536166061E+03 -0.13114989198E+04 -0.17676397242E+04  0.22065169084E+04  0.10100000352E+00 0. -1.
</event>
<event>
 5   0  0.1743810E-06  0.3288900E+04  0.7818609E-02  0.8165726E-01
        2   -1    0    0  501    0  0.00000000000E+00  0.00000000000E+00  0.11106276618E+04  0.11106276618E+04  0.25500000920E-02 0.  1.
       -2   -1    0    0    0  501  0.00000000000E+00  0.00000000000E+00 -0.24348537016E+04  0.24348537016E+04  0.25500000920E-02 0. -1.
    10030    2    1    2    0    0  0.00000000000E+00  0.00000000000E+00 -0.13242260399E+04  0.35454813634E+04  0.32889000431E+04 0.  0.
        5    1    3    3  502    0  0.65215002118E+03 -0.77689650404E+03 -0.20574342136E+04  0.22938887203E+04  0.46999998093E+01 0. -1.
       -5    1    3    3    0  502 -0.65215002118E+03  0.77689650404E+03  0.73320817371E+03  0.12515926430E+04  0.46999998093E+01 0.  1.
</event>
<event>
 5   0  0.6023446E-07  0.3275933E+04  0.7818609E-02  0.8169046E-01
        1   -1    0    0  501    0  0.00000000000E+00  0.00000000000E+00  0.16602606177E+04  0.16602606177E+04  0.50400001928E-02 0.  1.
       -1   -1    0    0    0  501  0.00000000000E+00  0.00000000000E+00 -0.16159721249E+04  0.16159721249E+04  0.50400001928E-02 0. -1.
    10030    2    1    2    0    0  0.00000000000E+00  0.00000000000E+00  0.44288492879E+02  0.32762327426E+04  0.32759333804E+04 0.  0.
        5    1    3    3  502    0 -0.20020344484E+03 -0.15617802004E+04  0.47348801845E+03  0.16442176886E+04  0.46999998093E+01 0. -1.
       -5    1    3    3    0  502  0.20020344484E+03  0.15617802004E+04 -0.42919952558E+03  0.16320150540E+04  0.46999998093E+01 0.  1.
</event>
<event>
 5   0  0.5858859E-07  0.3303740E+04  0.7818609E-02  0.8161945E-01
       -1   -1    0    0    0  501  0.00000000000E+00  0.00000000000E+00  0.25077977364E+04  0.25077977364E+04  0.50400001928E-02 0. -1.
        1   -1    0    0  501    0  0.00000000000E+00  0.00000000000E+00 -0.10880757016E+04  0.10880757016E+04  0.50400001928E-02 0.  1.
    10030    2    1    2    0    0  0.00000000000E+00  0.00000000000E+00  0.14197220348E+04  0.35958734380E+04  0.33037395669E+04 0.  0.
        3    1    3    3  502    0 -0.11427992260E+04  0.73705585722E+03  0.17305650134E+04  0.22009308674E+04  0.10100000352E+00 0. -1.
       -3    1    3    3    0  502  0.11427992260E+04 -0.73705585722E+03 -0.31084297860E+03  0.13949425706E+04  0.10100000352E+00 0.  1.
</event>
<event>
 5   0  0.1832626E-06  0.3311930E+04  0.7818609E-02  0.8159866E-01
       -2   -1    0    0    0  501  0.00000000000E+00  0.00000000000E+00  0.18868275963E+04  0.18868275963E+04  0.25500000920E-02 0.  1.
        2   -1    0    0  501    0  0.00000000000E+00  0.00000000000E+00 -0.14533499303E+04  0.14533499303E+04  0.25500000920E-02 0. -1.
    10030    2    1    2    0    0  0.00000000000E+00  0.00000000000E+00  0.43347766593E+03  0.33401775266E+04  0.33119304072E+04 0.  0.
        3    1    3    3  502    0  0.52336811819E+03  0.17565237032E+03  0.17912888275E+04  0.18744288773E+04  0.10100000352E+00 0.  1.
       -3    1    3    3    0  502 -0.52336811819E+03 -0.17565237032E+03 -0.13578111615E+04  0.14657486493E+04  0.10100000352E+00 0. -1.
</event>
<event>
 5   0  0.1728937E-06  0.3268176E+04  0.7818609E-02  0.8171041E-01
       -2   -1    0    0    0  501  0.00000000000E+00  0.00000000000E+00  0.14837623817E+04  0.14837623817E+04  0.25500000920E-02 0. -1.
        2   -1    0    0  501    0  0.00000000000E+00  0.00000000000E+00 -0.17996436364E+04  0.17996436364E+04  0.25500000920E-02 0.  1.
    10030    2    1    2    0    0  0.00000000000E+00  0.00000000000E+00 -0.31588125470E+03  0.32834060181E+04  0.32681759611E+04 0.  0.
        1    1    3    3  502    0  0.13549496858E+03  0.12354453101E+04  0.90792729672E+03  0.15391608028E+04  0.50400001928E-02 0. -1.
       -1    1    3    3    0  502 -0.13549496858E+03 -0.12354453101E+04 -0.12238085514E+04  0.17442452153E+04  0.50400001928E-02 0.  1.
</event>
<event>
 5   0  0.1728937E-06  0.3291046E+04  0.7818609E-02  0.8165177E-01
        2   -1    0    0  501    0  0.00000000000E+00  0.00000000000E+00  0.22279173117E+04  0.22279173117E+04  0.25500000920E-02 0. -1.
       -2   -1    0    0    0  501  0.00000000000E+00  0.00000000000E+00 -0.12153710043E+04  0.12153710043E+04  0.25500000920E-02 0.  1.
    10030    2    1    2    0    0  0.00000000000E+00  0.00000000000E+00  0.10125463074E+04  0.34432883160E+04  0.32910460955E+04 0.  0.
        1    1    3    3  502    0 -0.21863673123E+03  0.38496112060E+03 -0.11518910832E+04  0.12340381486E+04  0.50400001928E-02 0.  1.
       -1    1    3    3    0  502  0.21863673123E+03 -0.38496112060E+03  0.21644373906E+04  0.22092501674E+04  0.50400001928E-02 0. -1.
</event>
<event>
 5   0  0.1784626E-06  0.3294667E+04  0.7818609E-02  0.8164254E-01
       -2   -1    0    0    0  501  0.00000000000E+00  0.00000000000E+00  0.16047030999E+04  0.16047030999E+04  0.25500000920E-02 0. -1.
        2   -1    0    0  501    0  0.00000000000E+00  0.00000000000E+00 -0.16910963891E+04  0.16910963891E+04  0.25500000920E-02 0.  1.
    10030    2    1    2    0    0  0.00000000000E+00  0.00000000000E+00 -0.86393289272E+02  0.32957994890E+04  0.32946669743E+04 0.  0.
        2    1    3    3  502    0 -0.14949349032E+04  0.99367134504E+02 -0.72827029992E+03  0.16658576836E+04  0.25500000920E-02 0.  1.
       -2    1    3    3    0  502  0.14949349032E+04 -0.99367134504E+02  0.64187701065E+03  0.16299418054E+04  0.25500000920E-02 0. -1.
</event>
<event>
 5   0  0.6085351E-07  0.3285947E+04  0.7818609E-02  0.8166480E-01
       -1   -1    0    0    0  501  0.00000000000E+00  0.00000000000E+00  0.19404291353E+04  0.19404291353E+04  0.50400001928E-02 0. -1.
        1   -1    0    0  501    0  0.00000000000E+00  0.00000000000E+00 -0.13911157078E+04  0.13911157078E+04  0.50400001928E-02 0.  1.
    10030    2    1    2    0    0  0.00000000000E+00  0.00000000000E+00  0.54931342742E+03  0.33315448431E+04  0.32859467129E+04 0.  0.
        1    1    3    3  502    0  0.46091003845E+03 -0.81333376656E+03 -0.10951697323E+04  0.14399120188E+04  0.50400001928E-02 0.  1.
       -1    1    3    3    0  502 -0.46091003845E+03  0.81333376656E+03  0.16444831597E+04  0.18916328243E+04  0.50400001928E-02 0. -1.
</event>
<event>
 5   0  0.1728937E-06  0.3184030E+04  0.7818609E-02  0.8193048E-01
       -2   -1    0    0    0  501  0.00000000000E+00  0.00000000000E+00  0.19585920849E+04  0.19585920849E+04  0.25500000920E-02 0.  1.
        2   -1    0    0  501    0  0.00000000000E+00  0.00000000000E+00 -0.12940476276E+04  0.12940476276E+04  0.25500000920E-02 0. -1.
    10030    2    1    2    0    0  0.00000000000E+00  0.00000000000E+00  0.66454445728E+03  0.32526397126E+04  0.31840297995E+04 0.  0.
        1    1    3    3  502    0  0.14657219076E+04  0.62032194785E+03  0.29444166913E+03  0.16185907221E+04  0.50400001928E-02 0. -1.
       -1    1    3    3    0  502 -0.14657219076E+04 -0.62032194785E+03  0.37010278815E+03  0.16340489904E+04  0.50400001928E-02 0.  1.
</event>
<event>
 5   0  0.1696681E-06  0.3326720E+04  0.7818609E-02  0.8156130E-01
        2   -1    0    0  501    0  0.00000000000E+00  0.00000000000E+00  0.10727040540E+04  0.10727040540E+04  0.25500000920E-02 0.  1.
       -2   -1    0    0    0  501  0.00000000000E+00  0.00000000000E+00 -0.25792443097E+04  0.25792443097E+04  0.25500000920E-02 0. -1.
    10030    2    1    2    0    0  0.00000000000E+00  0.00000000000E+00 -0.15065402558E+04  0.36519483637E+04  0.33267196018E+04 0.  0.
        4    1    3    3  502    0 -0.26386615953E+03 -0.88034912454E+03  0.76867559256E+03  0.11981250814E+04  0.12699999809E+01 0.  1.
       -4    1    3    3    0  502  0.26386615953E+03  0.88034912454E+03 -0.22752158483E+04  0.24538232823E+04  0.12699999809E+01 0. -1.
</event>
<event>
 5   0  0.1832626E-06  0.3283035E+04  0.7818609E-02  0.8167226E-01
       -2   -1    0    0    0  501  0.00000000000E+00  0.00000000000E+00  0.21392947225E+04  0.21392947225E+04  0.25500000920E-02 0.  1.
        2   -1    0    0  501    0  0.00000000000E+00  0.00000000000E+00 -0.12595641475E+04  0.12595641475E+04  0.25500000920E-02 0. -1.
    10030    2    1    2    0    0  0.00000000000E+00  0.00000000000E+00  0.87973057501E+03  0.33988588700E+04  0.32830345313E+04 0.  0.
        3    1    3    3  502    0 -0.68207046897E+03 -0.66144024884E+03 -0.94596224340E+03  0.13407340913E+04  0.10100000352E+00 0. -1.
       -3    1    3    3    0  502  0.68207046897E+03  0.66144024884E+03  0.18256928184E+04  0.20581247787E+04  0.10100000352E+00 0.  1.
</event>
<event>
 5   0  0.6023446E-07  0.3265701E+04  0.7818609E-02  0.8171678E-01
       -1   -1    0    0    0  501  0.00000000000E+00  0.00000000000E+00  0.15645052584E+04  0.15645052584E+04  0.50400001928E-02 0. -1.
        1   -1    0    0  501    0  0.00000000000E+00  0.00000000000E+00 -0.17041810084E+04  0.17041810084E+04  0.50400001928E-02 0.  1.
    10030    2    1    2    0    0  0.00000000000E+00  0.00000000000E+00 -0.13967574998E+03  0.32686862668E+04  0.32657006286E+04 0.  0.
        5    1    3    3  502    0 -0.25741148048E+03 -0.50495836228E+03  0.14628799962E+04  0.15688478547E+04  0.46999998093E+01 0. -1.
       -5    1    3    3    0  502  0.25741148048E+03  0.50495836228E+03 -0.16025557461E+04  0.16998384122E+04  0.46999998093E+01 0.  1.
</event>
<event>
 5   0  0.5985183E-07  0.3283878E+04  0.7818609E-02  0.8167010E-01
        1   -1    0    0  501    0  0.00000000000E+00  0.00000000000E+00  0.16786854034E+04  0.16786854034E+04  0.50400001928E-02 0. -1.
       -1   -1    0    0    0  501  0.00000000000E+00  0.00000000000E+00 -0.16059967765E+04  0.16059967765E+04  0.50400001928E-02 0.  1.
    10030    2    1    2    0    0  0.00000000000E+00  0.00000000000E+00  0.72688626861E+02  0.32846821800E+04  0.32838777972E+04 0.  0.
        2    1    3    3  502    0 -0.57950647125E+03  0.91143276613E+03  0.12733468453E+04  0.16697154326E+04  0.25500000920E-02 0. -1.
       -2    1    3    3    0  502  0.57950647125E+03 -0.91143276613E+03 -0.12006582185E+04  0.16149667473E+04  0.25500000920E-02 0.  1.
</event>
<event>
 5   0  0.1728937E-06  0.3154626E+04  0.7818609E-02  0.8200904E-01
       -2   -1    0    0    0  501  0.00000000000E+00  0.00000000000E+00  0.98972245231E+03  0.98972245231E+03  0.25500000920E-02 0. -1.
        2   -1    0    0  501    0  0.00000000000E+00  0.00000000000E+00 -0.25137521417E+04  0.25137521417E+04  0.25500000920E-02 0.  1.
    10030    2    1    2    0    0  0.00000000000E+00  0.00000000000E+00 -0.15240296894E+04  0.35034745940E+04  0.31546264021E+04 0.  0.
        1    1    3    3  502    0  0.66078943462E+03 -0.12607863598E+04 -0.73967424421E+01  0.14234744936E+04  0.50400001928E-02 0. -1.
       -1    1    3    3    0  502 -0.66078943462E+03  0.12607863598E+04 -0.15166329469E+04  0.20800001004E+04  0.50400001928E-02 0.  1.
</event>
<event>
 5   0  0.1696681E-06  0.3291724E+04  0.7818609E-02  0.8165004E-01
        2   -1    0    0  501    0  0.00000000000E+00  0.00000000000E+00  0.25556321182E+04  0.25556321182E+04  0.25500000920E-02 0. -1.
       -2   -1    0    0    0  501  0.00000000000E+00  0.00000000000E+00 -0.10599577414E+04  0.10599577414E+04  0.25500000920E-02 0.  1.
    10030    2    1    2    0    0  0.00000000000E+00  0.00000000000E+00  0.14956743768E+04  0.36155898596E+04  0.32917241974E+04 0.  0.
        4    1    3    3  502    0  0.87754134315E+03 -0.13899206232E+04  0.83909125691E+03  0.18455443365E+04  0.12699999809E+01 0. -1.
       -4    1    3    3    0  502 -0.87754134315E+03  0.13899206232E+04  0.65658311984E+03  0.17700455231E+04  0.12699999809E+01 0.  1.
</event>
<event>
 5   0  0.1832626E-06  0.3314290E+04  0.7818609E-02  0.8159269E-01
       -2   -1    0    0    0  501  0.00000000000E+00  0.00000000000E+00  0.32885184082E+04  0.32885184082E+04  0.25500000920E-02 0. -1.
        2   -1    0    0  501    0  0.00000000000E+00  0.00000000000E+00 -0.83506612360E+03  0.83506612360E+03  0.25500000920E-02 0.  1.
    10030    2    1    2    0    0  0.00000000000E+00  0.00000000000E+00  0.24534522846E+04  0.41235845318E+04  0.33142904638E+04 0.  0.
        3    1    3    3  502    0 -0.36647364010E+03 -0.32616147947E+01  0.32374650675E+04  0.32581426673E+04  0.10100000352E+00 0. -1.
       -3    1    3    3    0  502  0.36647364010E+03  0.32616147947E+01 -0.78401278286E+03  0.86544186454E+03  0.10100000352E+00 0.  1.
</event>
<event>
 5   0  0.6085351E-07  0.3338689E+04  0.7818609E-02  0.8153120E-01
       -1   -1    0    0    0  501  0.00000000000E+00  0.00000000000E+00  0.14597428620E+04  0.14597428620E+04  0.50400001928E-02 0.  1.
        1   -1    0    0  501    0  0.00000000000E+00  0.00000000000E+00 -0.19090424967E+04  0.19090424967E+04  0.50400001928E-02 0. -1.
    10030    2    1    2    0    0  0.00000000000E+00  0.00000000000E+00 -0.44929963470E+03  0.33687853588E+04  0.33386890589E+04 0.  0.
        1    1    3    3  502    0  0.16012703593E+03  0.15614126237E+04 -0.79815811621E+03  0.17608822867E+04  0.50400001928E-02 0. -1.
       -1    1    3    3    0  502 -0.16012703593E+03 -0.15614126237E+04  0.34885848151E+03  0.16079030721E+04  0.50400001928E-02 0.  1.
</event>
<event>
 5   0  0.1784626E-06  0.3330560E+04  0.7818609E-02  0.8155163E-01
        2   -1    0    0  501    0  0.00000000000E+00  0.00000000000E+00  0.13080188999E+04  0.13080188999E+04  0.25500000920E-02 0.  1.
       -2   -1    0    0    0  501  0.00000000000E+00  0.00000000000E+00 -0.21201198077E+04  0.21201198077E+04  0.25500000920E-02 0. -1.
    10030    2    1    2    0    0  0.00000000000E+00  0.00000000000E+00 -0.81210090780E+03  0.34281387075E+04  0.33305595797E+04 0.  0.
        2    1    3    3  502    0 -0.45349500525E+03 -0.23958026169E+03 -0.20367979541E+04  0.21003814719E+04  0.25500000920E-02 0. -1.
       -2    1    3    3    0  502  0.45349500525E+03  0.23958026169E+03  0.12246970463E+04  0.13277572356E+04  0.25500000920E-02 0.  1.
</event>
<event>
 5   0  0.6085351E-07  0.3322853E+04  0.7818609E-02  0.8157105E-01
       -1   -1    0    0    0  501  0.00000000000E+00  0.00000000000E+00  0.11151733193E+04  0.11151733193E+04  0.50400001928E-02 0.  1.
        1   -1    0    0  501    0  0.00000000000E+00  0.00000000000E+00 -0.24752545644E+04  0.24752545644E+04  0.50400001928E-02 0. -1.
    10030    2    1    2    0    0  0.00000000000E+00  0.00000000000E+00 -0.13600812451E+04  0.35904278838E+04  0.33228529001E+04 0.  0.
        1    1    3    3  502    0 -0.93054474611E+03  0.25935129225E+03  0.78053325210E+03  0.12419375085E+04  0.50400001928E-02 0.  1.
       -1    1    3    3    0  502  0.93054474611E+03 -0.25935129225E+03 -0.21406144972E+04  0.23484903753E+04  0.50400001928E-02 0. -1.
</event>
<event>
 5   0  0.5985183E-07  0.3258318E+04  0.7818609E-02  0.8173583E-01
        1   -1    0    0  501    0  0.00000000000E+00  0.00000000000E+00  0.19343088467E+04  0.19343088467E+04  0.50400001928E-02 0. -1.
       -1   -1    0    0    0  501  0.00000000000E+00  0.00000000000E+00 -0.13721488318E+04  0.13721488319E+04  0.50400001928E-02 0.  1.
    10030    2    1    2    0    0  0.00000000000E+00  0.00000000000E+00  0.56216001485E+03  0.33064576785E+04  0.32583183543E+04 0.  0.
        2    1    3    3  502    0  0.12506871869E+04 -0.94783237747E+03  0.72521619950E+03  0.17287403481E+04  0.25500000920E-02 0. -1.
       -2    1    3    3    0  502 -0.12506871869E+04  0.94783237747E+03 -0.16305618465E+03  0.15777173304E+04  0.25500000920E-02 0.  1.
</event>
<event>
 5   0  0.1743810E-06  0.3186135E+04  0.7818609E-02  0.8192488E-01
       -2   -1    0    0    0  501  0.00000000000E+00  0.00000000000E+00  0.26220124932E+04  0.26220124932E+04  0.25500000920E-02 0.  1.
        2   -1    0    0  501    0  0.00000000000E+00  0.00000000000E+00 -0.96790703057E+03  0.96790703057E+03  0.25500000920E-02 0. -1.
    10030    2    1    2    0    0  0.00000000000E+00  0.00000000000E+00  0.16541054626E+04  0.35899195238E+04  0.31861351675E+04 0.  0.
        5    1    3    3  502    0  0.17575169827E+03 -0.15230039055E+04  0.33927720827E+03  0.15702103902E+04  0.46999998093E+01 0. -1.
       -5    1    3    3    0  502 -0.17575169827E+03  0.15230039055E+04  0.13148282543E+04  0.20197091335E+04  0.46999998093E+01 0.  1.
</event>
<event>
 5   0  0.6085351E-07  0.3275942E+04  0.7818609E-02  0.8169044E-01
       -1   -1    0    0    0  501  0.00000000000E+00  0.00000000000E+00  0.15643031866E+04  0.15643031866E+04  0.50400001928E-02 0.  1.
        1   -1    0    0  501    0  0.00000000000E+00  0.00000000000E+00 -0.17151082154E+04  0.17151082154E+04  0.50400001928E-02 0. -1.
    10030    2    1    2    0    0  0.00000000000E+00  0.00000000000E+00 -0.15080502882E+03  0.32794114020E+04  0.32759421526E+04 0.  0.
        1    1    3    3  502    0  0.24640158758E+03 -0.13367720671E+04  0.83949967155E+03  0.15976335626E+04  0.50400001928E-02 0.  1.
       -1    1    3    3    0  502 -0.24640158758E+03  0.13367720671E+04 -0.99030470037E+03  0.16817778395E+04  0.50400001928E-02 0. -1.
</event>
<event>
 5   0  0.1696681E-06  0.3315229E+04  0.7818609E-02  0.8159031E-01
        2   -1    0    0  501    0  0.00000000000E+00  0.00000000000E+00  0.14251069999E+04  0.14251069999E+04  0.25500000920E-02 0. -1.
       -2   -1    0    0    0  501  0.00000000000E+00  0.00000000000E+00 -0.19280554764E+04  0.19280554764E+04  0.25500000920E-02 0.  1.
    10030    2    1    2    0    0  0.00000000000E+00  0.00000000000E+00 -0.50294847657E+03  0.33531624763E+04  0.33152287135E+04 0.  0.
        4    1    3    3  502    0 -0.93661527872E+03  0.99912685338E+03 -0.11960666151E+04  0.18182628000E+04  0.12699999809E+01 0.  1.
       -4    1    3    3    0  502  0.93661527872E+03 -0.99912685338E+03  0.69311813849E+03  0.15348996763E+04  0.12699999809E+01 0. -1.
</event>
<event>
 5   0  0.5685000E-07  0.3303836E+04  0.7818609E-02  0.8161920E-01
        3   -1    0    0  501    0  0.00000000000E+00  0.00000000000E+00  0.18015109253E+04  0.18015109281E+04  0.10100000352E+00 0.  1.
       -3   -1    0    0    0  501  0.00000000000E+00  0.00000000000E+00 -0.15147471790E+04  0.15147471824E+04  0.10100000352E+00 0. -1.
    10030    2    1    2    0    0  0.00000000000E+00  0.00000000000E+00  0.28676374626E+03  0.33162581105E+04  0.33038363169E+04 0.  0.
        1    1    3    3  502    0  0.77141793560E+03 -0.28053498602E+03  0.15823156171E+04  0.17825566532E+04  0.50400001928E-02 0.  1.
       -1    1    3    3    0  502 -0.77141793560E+03  0.28053498602E+03 -0.12955518709E+04  0.15337014572E+04  0.50400001928E-02 0. -1.
</event>
<event>
 5   0  0.1832626E-06  0.3308362E+04  0.7818609E-02  0.8160771E-01
       -2   -1    0    0    0  501  0.00000000000E+00  0.00000000000E+00  0.10765132375E+04  0.10765132375E+04  0.25500000920E-02 0.  1.
        2   -1    0    0  501    0  0.00000000000E+00  0.00000000000E+00 -0.25418305495E+04  0.25418305495E+04  0.25500000920E-02 0. -1.
    10030    2    1    2    0    0  0.00000000000E+00  0.00000000000E+00 -0.14653173120E+04  0.36183437869E+04  0.33083616694E+04 0.  0.
        3    1    3    3  502    0 -0.40787094527E+03  0.15958617597E+04 -0.56614085034E+03  0.17417373329E+04  0.10100000352E+00 0. -1.
       -3    1    3    3    0  502  0.40787094527E+03 -0.15958617597E+04 -0.89917646170E+03  0.18766064541E+04  0.10100000352E+00 0.  1.
</event>
<event>
 5   0  0.1832626E-06  0.3304500E+04  0.7818609E-02  0.8161751E-01
       -2   -1    0    0    0  501  0.00000000000E+00  0.00000000000E+00  0.13878473836E+04  0.13878473836E+04  0.25500000920E-02 0.  1.
        2   -1    0    0  501    0  0.00000000000E+00  0.00000000000E+00 -0.19670245378E+04  0.19670245378E+04  0.25500000920E-02 0. -1.
    10030    2    1    2    0    0  0.00000000000E+00  0.00000000000E+00 -0.57917715421E+03  0.33548719214E+04  0.33044998763E+04 0.  0.
        3    1    3    3  502    0  0.19586645727E+03  0.15972403933E+04 -0.66998569395E+03  0.17431068193E+04  0.10100000352E+00 0.  1.
       -3    1    3    3    0  502 -0.19586645727E+03 -0.15972403933E+04  0.90808539740E+02  0.16117651021E+04  0.10100000352E+00 0. -1.
</event>
<event>
 5   0  0.5858859E-07  0.3248742E+04  0.7818609E-02  0.8176062E-01
       -1   -1    0    0    0  501  0.00000000000E+00  0.00000000000E+00  0.12511375951E+04  0.12511375952E+04  0.50400001928E-02 0. -1.
        1   -1    0    0  501    0  0.00000000000E+00  0.00000000000E+00 -0.21089459807E+04  0.21089459807E+04  0.50400001928E-02 0.  1.
    10030    2    1    2    0    0  0.00000000000E+00  0.00000000000E+00 -0.85780838556E+03  0.33600835759E+04  0.32487422813E+04 0.  0.
        3    1    3    3  502    0 -0.11743460947E+04 -0.76111103631E+03  0.42410563967E+03  0.14622736965E+04  0.10100000352E+00 0. -1.
       -3    1    3    3    0  502  0.11743460947E+04  0.76111103631E+03 -0.12819140252E+04  0.18978098793E+04  0.10100000352E+00 0.  1.
</event>
<event>
 5   0  0.1784626E-06  0.3240758E+04  0.7818609E-02  0.8178135E-01
       -2   -1    0    0    0  501  0.00000000000E+00  0.00000000000E+00  0.98565116913E+03  0.98565116913E+03  0.25500000920E-02 0. -1.
        2   -1    0    0  501    0  0.00000000000E+00  0.00000000000E+00 -0.26638517223E+04  0.26638517223E+04  0.25500000920E-02 0.  1.
    10030    2    1    2    0    0  0.00000000000E+00  0.00000000000E+00 -0.16782005531E+04  0.36495028914E+04  0.32407582844E+04 0.  0.
        2    1    3    3  502    0  0.10058380730E+04  0.80453053778E+03  0.26808796203E+03  0.13156180186E+04  0.25500000920E-02 0. -1.
       -2    1    3    3    0  502 -0.10058380730E+04 -0.80453053778E+03 -0.19462885152E+04  0.23338848728E+04  0.25500000920E-02 0.  1.
</event>
<event>
 5   0  0.1696681E-06  0.3175371E+04  0.7818609E-02  0.8195352E-01
        2   -1    0    0  501    0  0.00000000000E+00  0.00000000000E+00  0.21486098823E+04  0.21486098823E+04  0.25500000920E-02 0.  1.
       -2   -1    0    0    0  501  0.00000000000E+00  0.00000000000E+00 -0.11731983653E+04  0.11731983653E+04  0.25500000920E-02 0. -1.
    10030    2    1    2    0    0  0.00000000000E+00  0.00000000000E+00  0.97541151704E+03  0.33218082476E+04  0.31753712234E+04 0.  0.
        4    1    3    3  502    0 -0.92887748010E+03  0.84552280200E+03  0.15035822777E+04  0.19592048031E+04  0.12699999809E+01 0.  1.
       -4    1    3    3    0  502  0.92887748010E+03 -0.84552280200E+03 -0.52817076064E+03  0.13626034445E+04  0.12699999809E+01 0. -1.
</event>
<event>
 5   0  0.1696681E-06  0.3291178E+04  0.7818609E-02  0.8165144E-01
        2   -1    0    0  501    0  0.00000000000E+00  0.00000000000E+00  0.26890326851E+04  0.26890326851E+04  0.25500000920E-02 0. -1.
       -2   -1    0    0    0  501  0.00000000000E+00  0.00000000000E+00 -0.10070401372E+04  0.10070401372E+04  0.25500000920E-02 0.  1.
    10030    2    1    2    0    0  0.00000000000E+00  0.00000000000E+00  0.16819925479E+04  0.36960728224E+04  0.32911784177E+04 0.  0.
        4    1    3    3  502    0 -0.14590959727E+04  0.75365188796E+03  0.95883359480E+03  0.19016613004E+04  0.12699999809E+01 0.  1.
       -4    1    3    3    0  502  0.14590959727E+04 -0.75365188796E+03  0.72315895312E+03  0.17944115220E+04  0.12699999809E+01 0. -1.
</event>
<event>
 5   0  0.5988516E-07  0.3328667E+04  0.7818609E-02  0.8155639E-01
        1   -1    0    0  501    0  0.00000000000E+00  0.00000000000E+00  0.20012154500E+04  0.20012154500E+04  0.50400001928E-02 0.  1.
       -1   -1    0    0    0  501  0.00000000000E+00  0.00000000000E+00 -0.13841619280E+04  0.13841619280E+04  0.50400001928E-02 0. -1.
    10030    2    1    2    0    0  0.00000000000E+00  0.00000000000E+00  0.61705352195E+03  0.33853773780E+04  0.33286671421E+04 0.  0.
        4    1    3    3  502    0 -0.13968637079E+04 -0.54575547363E+02  0.12271300880E+04  0.18601227311E+04  0.12699999809E+01 0.  1.
       -4    1    3    3    0  502  0.13968637079E+04  0.54575547363E+02 -0.61007656608E+03  0.15252546470E+04  0.12699999809E+01 0. -1.
</event>
<event>
 5   0  0.5858859E-07  0.2946864E+04  0.7818609E-02  0.8259069E-01
       -1   -1    0    0    0  501  0.00000000000E+00  0.00000000000E+00  0.76172491768E+03  0.76172491770E+03  0.50400001928E-02 0. -1.
        1   -1    0    0  501    0  0.00000000000E+00  0.00000000000E+00 -0.28501128525E+04  0.28501128525E+04  0.50400001928E-02 0.  1.
    10030    2    1    2    0    0  0.00000000000E+00  0.00000000000E+00 -0.20883879349E+04  0.36118377702E+04  0.29468640810E+04 0.  0.
        3    1    3    3  502    0 -0.14306984208E+03  0.11988606037E+04 -0.90661858825E+01  0.12074013139E+04  0.10100000352E+00 0. -1.
       -3    1    3    3    0  502  0.14306984208E+03 -0.11988606037E+04 -0.20793217490E+04  0.24044364564E+04  0.10100000352E+00 0.  1.
</event>
<event>
 5   0  0.6085351E-07  0.3292967E+04  0.7818609E-02  0.8164687E-01
       -1   -1    0    0    0  501  0.00000000000E+00  0.00000000000E+00  0.13485661514E+04  0.13485661514E+04  0.50400001928E-02 0.  1.
        1   -1    0    0  501    0  0.00000000000E+00  0.00000000000E+00 -0.20102147964E+04  0.20102147964E+04  0.50400001928E-02 0. -1.
    10030    2    1    2    0    0  0.00000000000E+00  0.00000000000E+00 -0.66164864499E+03  0.33587809478E+04  0.32929668273E+04 0.  0.
        1    1    3    3  502    0 -0.35290763769E+03  0.13899447379E+04 -0.11559531552E+04  0.18419331888E+04  0.50400001928E-02 0. -1.
       -1    1    3    3    0  502  0.35290763769E+03 -0.13899447379E+04  0.49430451025E+03  0.15168477590E+04  0.50400001928E-02 0.  1.
</event>
<event>
 5   0  0.5988516E-07  0.3303459E+04  0.7818609E-02  0.8162016E-01
       -1   -1    0    0    0  501  0.00000000000E+00  0.00000000000E+00  0.92808219215E+03  0.92808219216E+03  0.50400001928E-02 0.  1.
        1   -1    0    0  501    0  0.00000000000E+00  0.00000000000E+00 -0.29396223628E+04  0.29396223628E+04  0.50400001928E-02 0. -1.
    10030    2    1    2    0    0  0.00000000000E+00  0.00000000000E+00 -0.20115401706E+04  0.38677045550E+04  0.33034594997E+04 0.  0.
        4    1    3    3  502    0  0.10371801763E+04 -0.11123523070E+04 -0.17601344542E+04  0.23261868547E+04  0.12699999809E+01 0. -1.
       -4    1    3    3    0  502 -0.10371801763E+04  0.11123523070E+04 -0.25140571640E+03  0.15415177003E+04  0.12699999809E+01 0.  1.
</event>
<event>
 5   0  0.6085351E-07  0.3293322E+04  0.7818609E-02  0.8164597E-01
        1   -1    0    0  501    0  0.00000000000E+00  0.00000000000E+00  0.26145975476E+04  0.26145975476E+04  0.50400001928E-02 0. -1.
       -1   -1    0    0    0  501  0.00000000000E+00  0.00000000000E+00 -0.10370592226E+04  0.10370592226E+04  0.50400001928E-02 0.  1.
    10030    2    1    2    0    0  0.00000000000E+00  0.00000000000E+00  0.15775383250E+04  0.36516567701E+04  0.32933220310E+04 0.  0.
        1    1    3    3  502    0 -0.33880393432E+03  0.15730109071E+04  0.11765996144E+04  0.19933735406E+04  0.50400001928E-02 0. -1.
       -1    1    3    3    0  502  0.33880393432E+03 -0.15730109071E+04  0.40093871057E+03  0.16582832295E+04  0.50400001928E-02 0.  1.
</event>
<event>
 5   0  0.1784626E-06  0.3294854E+04  0.7818609E-02  0.8164206E-01
        2   -1    0    0  501    0  0.00000000000E+00  0.00000000000E+00  0.16028648527E+04  0.16028648527E+04  0.25500000920E-02 0.  1.
       -2   -1    0    0    0  501  0.00000000000E+00  0.00000000000E+00 -0.16932284772E+04  0.16932284772E+04  0.25500000920E-02 0. -1.
    10030    2    1    2    0    0  0.00000000000E+00  0.00000000000E+00 -0.90363624508E+02  0.32960933299E+04  0.32948544208E+04 0.  0.
        2    1    3    3  502    0  0.85024889644E+03 -0.14023320811E+04 -0.20195053884E+03  0.16523445379E+04  0.25500000920E-02 0. -1.
       -2    1    3    3    0  502 -0.85024889644E+03  0.14023320811E+04  0.11158691433E+03  0.16437487920E+04  0.25500000920E-02 0.  1.
</event>
<event>
 5   0  0.5988516E-07  0.3304169E+04  0.7818609E-02  0.8161835E-01
        1   -1    0    0  501    0  0.00000000000E+00  0.00000000000E+00  0.22727003891E+04  0.22727003891E+04  0.50400001928E-02 0.  1.
       -1   -1    0    0    0  501  0.00000000000E+00  0.00000000000E+00 -0.12009426985E+04  0.12009426985E+04  0.50400001928E-02 0. -1.
    10030    2    1    2    0    0  0.00000000000E+00  0.00000000000E+00  0.10717576905E+04  0.34736430876E+04  0.33041688445E+04 0.  0.
        4    1    3    3  502    0  0.13630312809E+04 -0.75999559166E+03  0.11058431941E+04  0.19126783198E+04  0.12699999809E+01 0.  1.
       -4    1    3    3    0  502 -0.13630312809E+04  0.75999559166E+03 -0.34085503597E+02  0.15609647678E+04  0.12699999809E+01 0. -1.
</event>
<event>
 5   0  0.1696681E-06  0.3303118E+04  0.7818609E-02  0.8162102E-01
        2   -1    0    0  501    0  0.00000000000E+00  0.00000000000E+00  0.14210579337E+04  0.14210579337E+04  0.25500000920E-02 0.  1.
       -2   -1    0    0    0  501  0.00000000000E+00  0.00000000000E+00 -0.19194486900E+04  0.19194486900E+04  0.25500000920E-02 0. -1.
    10030    2    1    2    0    0  0.00000000000E+00  0.00000000000E+00 -0.49839075632E+03  0.33405066238E+04  0.33031183990E+04 0.  0.
        4    1    3    3  502    0  0.80189820759E+03  0.14394768606E+04 -0.13607307205E+03  0.16533758984E+04  0.12699999809E+01 0.  1.
       -4    1    3    3    0  502 -0.80189820759E+03 -0.14394768606E+04 -0.36231768427E+03  0.16871307254E+04  0.12699999809E+01 0. -1.
</event>
<event>
 5   0  0.6085351E-07  0.3591556E+04  0.7818609E-02  0.8092429E-01
       -1   -1    0    0    0  501  0.00000000000E+00  0.00000000000E+00  0.13323745320E+04  0.13323745320E+04  0.50400001928E-02 0. -1.
        1   -1    0    0  501    0  0.00000000000E+00  0.00000000000E+00 -0.24203547509E+04  0.24203547509E+04  0.50400001928E-02 0.  1.
    10030    2    1    2    0    0  0.00000000000E+00  0.00000000000E+00 -0.10879802189E+04  0.37527292828E+04  0.35915562245E+04 0.  0.
        1    1    3    3  502    0  0.11200598639E+04 -0.71881501722E+03 -0.18037434393E+04  0.22415886158E+04  0.50400001928E-02 0.  1.
       -1    1    3    3    0  502 -0.11200598639E+04  0.71881501722E+03  0.71576322042E+03  0.15111406670E+04  0.50400001928E-02 0. -1.
</event>
<event>
 5   0  0.5858859E-07  0.3305460E+04  0.7818609E-02  0.8161508E-01
        1   -1    0    0  501    0  0.00000000000E+00  0.00000000000E+00  0.18648408587E+04  0.18648408587E+04  0.50400001928E-02 0.  1.
       -1   -1    0    0    0  501  0.00000000000E+00  0.00000000000E+00 -0.14647447396E+04  0.14647447396E+04  0.50400001928E-02 0. -1.
    10030    2    1    2    0    0  0.00000000000E+00  0.00000000000E+00  0.40009611912E+03  0.33295855983E+04  0.33054596279E+04 0.  0.
        3    1    3    3  502    0  0.13832636098E+04  0.85409389654E+03  0.49991404978E+03  0.17008258776E+04  0.10100000352E+00 0.  1.
       -3    1    3    3    0  502 -0.13832636098E+04 -0.85409389654E+03 -0.99817930665E+02  0.16287597207E+04  0.10100000352E+00 0. -1.
</event>
<event>
 5   0  0.1784626E-06  0.3111337E+04  0.7818609E-02  0.8212634E-01
       -2   -1    0    0    0  501  0.00000000000E+00  0.00000000000E+00  0.17579662227E+04  0.17579662227E+04  0.25500000920E-02 0.  1.
        2   -1    0    0  501    0  0.00000000000E+00  0.00000000000E+00 -0.13766497745E+04  0.13766497745E+04  0.25500000920E-02 0. -1.
    10030    2    1    2    0    0  0.00000000000E+00  0.00000000000E+00  0.38131644815E+03  0.31346159972E+04  0.31113365643E+04 0.  0.
        2    1    3    3  502    0 -0.69324988656E+03 -0.56344504932E+02 -0.12112754074E+04  0.13967670604E+04  0.25500000920E-02 0. -1.
       -2    1    3    3    0  502  0.69324988656E+03  0.56344504932E+02  0.15925918556E+04  0.17378489367E+04  0.25500000920E-02 0.  1.
</event>
<event>
 5   0  0.1728937E-06  0.3469175E+04  0.7818609E-02  0.8121134E-01
        2   -1    0    0  501    0  0.00000000000E+00  0.00000000000E+00  0.95958477387E+03  0.95958477388E+03  0.25500000920E-02 0.  1.
       -2   -1    0    0    0  501  0.00000000000E+00  0.00000000000E+00 -0.31355170192E+04  0.31355170192E+04  0.25500000920E-02 0. -1.
    10030    2    1    2    0    0  0.00000000000E+00  0.00000000000E+00 -0.21759322453E+04  0.40951017931E+04  0.34691753428E+04 0.  0.
        1    1    3    3  502    0  0.13493497339E+04  0.11840618445E+02 -0.23745263623E+04  0.27311646508E+04  0.50400001928E-02 0. -1.
       -1    1    3    3    0  502 -0.13493497339E+04 -0.11840618445E+02  0.19859411696E+03  0.13639371423E+04  0.50400001928E-02 0.  1.
</event>
<event>
 5   0  0.1743810E-06  0.3303097E+04  0.7818609E-02  0.8162108E-01
       -2   -1    0    0    0  501  0.00000000000E+00  0.00000000000E+00  0.15542279697E+04  0.15542279697E+04  0.25500000920E-02 0.  1.
        2   -1    0    0  501    0  0.00000000000E+00  0.00000000000E+00 -0.17549624130E+04  0.17549624130E+04  0.25500000920E-02 0. -1.
    10030    2    1    2    0    0  0.00000000000E+00  0.00000000000E+00 -0.20073444328E+03  0.33091903827E+04  0.33030965278E+04 0.  0.
        5    1    3    3  502    0  0.47286129574E+03 -0.10537532563E+03 -0.16821682565E+04  0.17505467424E+04  0.46999998093E+01 0. -1.
       -5    1    3    3    0  502 -0.47286129574E+03  0.10537532563E+03  0.14814338132E+04  0.15586436402E+04  0.46999998093E+01 0.  1.
</event>
<event>
 5   0  0.5988516E-07  0.3698425E+04  0.7818609E-02  0.8068311E-01
       -1   -1    0    0    0  501  0.00000000000E+00  0.00000000000E+00  0.15173391012E+04  0.15173391012E+04  0.50400001928E-02 0. -1.
        1   -1    0    0  501    0  0.00000000000E+00  0.00000000000E+00 -0.22536731722E+04  0.22536731722E+04  0.50400001928E-02 0.  1.
    10030    2    1    2    0    0  0.00000000000E+00  0.00000000000E+00 -0.73633407098E+03  0.37710122735E+04  0.36984247596E+04 0.  0.
        4    1    3    3  502    0  0.14656698354E+04 -0.11256660627E+04 -0.30151853026E+03  0.18724922398E+04  0.12699999809E+01 0. -1.
       -4    1    3    3    0  502 -0.14656698354E+04  0.11256660627E+04 -0.43481554072E+03  0.18985200337E+04  0.12699999809E+01 0.  1.
</event>
<event>
 5   0  0.6085351E-07  0.3309743E+04  0.7818609E-02  0.8160421E-01
       -1   -1    0    0    0  501  0.00000000000E+00  0.00000000000E+00  0.12524242792E+04  0.12524242792E+04  0.50400001928E-02 0.  1.
        1   -1    0    0  501    0  0.00000000000E+00  0.00000000000E+00 -0.21866384239E+04  0.21866384239E+04  0.50400001928E-02 0. -1.
    10030    2    1    2    0    0  0.00000000000E+00  0.00000000000E+00 -0.93421414469E+03  0.34390627032E+04  0.33097426196E+04 0.  0.
        1    1    3    3  502    0 -0.52078730721E+03 -0.85043842423E+03 -0.18393651971E+04  0.20923023828E+04  0.50400001928E-02 0. -1.
       -1    1    3    3    0  502  0.52078730721E+03  0.85043842423E+03  0.90515105242E+03  0.13467603204E+04  0.50400001928E-02 0.  1.
</event>
<event>
 5   0  0.5858859E-07  0.3308487E+04  0.7818609E-02  0.8160739E-01
        1   -1    0    0  501    0  0.00000000000E+00  0.00000000000E+00  0.23571309557E+04  0.23571309557E+04  0.50400001928E-02 0.  1.
       -1   -1    0    0    0  501  0.00000000000E+00  0.00000000000E+00 -0.11609543299E+04  0.11609543299E+04  0.50400001928E-02 0. -1.
    10030    2    1    2    0    0  0.00000000000E+00  0.00000000000E+00  0.11961766257E+04  0.35180852856E+04  0.33084868984E+04 0.  0.
        3    1    3    3  502    0 -0.64273386062E+03 -0.33740130123E+03  0.21787222806E+04  0.22964706050E+04  0.10100000352E+00 0.  1.
       -3    1    3    3    0  502  0.64273386062E+03  0.33740130123E+03 -0.98254565484E+03  0.12216146805E+04  0.10100000352E+00 0. -1.
</event>
<event>
 5   0  0.1832626E-06  0.3203307E+04  0.7818609E-02  0.8187944E-01
       -2   -1    0    0    0  501  0.00000000000E+00  0.00000000000E+00  0.17288997018E+04  0.17288997018E+04  0.25500000920E-02 0. -1.
        2   -1    0    0  501    0  0.00000000000E+00  0.00000000000E+00 -0.14837729532E+04  0.14837729532E+04  0.25500000920E-02 0.  1.
    10030    2    1    2    0    0  0.00000000000E+00  0.00000000000E+00  0.24512674864E+03  0.32126726550E+04  0.32033074260E+04 0.  0.
        3    1    3    3  502    0  0.10874014913E+04  0.59853736699E+03  0.11377507857E+04  0.16837950717E+04  0.10100000352E+00 0. -1.
       -3    1    3    3    0  502 -0.10874014913E+04 -0.59853736699E+03 -0.89262403703E+03  0.15288775833E+04  0.10100000352E+00 0.  1.
</event>
<event>
 5   0  0.1784626E-06  0.3302766E+04  0.7818609E-02  0.8162192E-01
       -2   -1    0    0    0  501  0.00000000000E+00  0.00000000000E+00  0.12177669381E+04  0.12177669381E+04  0.25500000920E-02 0. -1.
        2   -1    0    0  501    0  0.00000000000E+00  0.00000000000E+00 -0.22393987317E+04  0.22393987317E+04  0.25500000920E-02 0.  1.
    10030    2    1    2    0    0  0.00000000000E+00  0.00000000000E+00 -0.10216317937E+04  0.34571656698E+04  0.33027659540E+04 0.  0.
        2    1    3    3  502    0  0.88831530983E+03  0.87701312262E+03 -0.16424715133E+04  0.20629999464E+04  0.25500000920E-02 0.  1.
       -2    1    3    3    0  502 -0.88831530983E+03 -0.87701312262E+03  0.62083971962E+03  0.13941657234E+04  0.25500000920E-02 0. -1.
</event>
<event>
 5   0  0.5985183E-07  0.3328891E+04  0.7818609E-02  0.8155583E-01
        1   -1    0    0  501    0  0.00000000000E+00  0.00000000000E+00  0.20517459018E+04  0.20517459018E+04  0.50400001928E-02 0.  1.
       -1   -1    0    0    0  501  0.00000000000E+00  0.00000000000E+00 -0.13502541932E+04  0.13502541932E+04  0.50400001928E-02 0. -1.
    10030    2    1    2    0    0  0.00000000000E+00  0.00000000000E+00  0.70149170857E+03  0.34020000950E+04  0.33288908107E+04 0.  0.
        2    1    3    3  502    0  0.16080037621E+04  0.41016594620E+03  0.21960655849E+03  0.16739591521E+04  0.25500000920E-02 0. -1.
       -2    1    3    3    0  502 -0.16080037621E+04 -0.41016594620E+03  0.48188515008E+03  0.17280409429E+04  0.25500000920E-02 0.  1.
</event>
<event>
 5   0  0.5985183E-07  0.3318833E+04  0.7818609E-02  0.8158120E-01
        1   -1    0    0  501    0  0.00000000000E+00  0.00000000000E+00  0.14333714766E+04  0.14333714766E+04  0.50400001928E-02 0. -1.
       -1   -1    0    0    0  501  0.00000000000E+00  0.00000000000E+00 -0.19211090004E+04  0.19211090004E+04  0.50400001928E-02 0.  1.
    10030    2    1    2    0    0  0.00000000000E+00  0.00000000000E+00 -0.48773752388E+03  0.33544804770E+04  0.33188328338E+04 0.  0.
        2    1    3    3  502    0 -0.84048393326E+03  0.96529163589E+03  0.82362959311E+03  0.15220272307E+04  0.25500000920E-02 0. -1.
       -2    1    3    3    0  502  0.84048393326E+03 -0.96529163589E+03 -0.13113671170E+04  0.18324532463E+04  0.25500000920E-02 0.  1.
</event>
<event>
 5   0  0.1696681E-06  0.3460971E+04  0.7818609E-02  0.8123102E-01
        2   -1    0    0  501    0  0.00000000000E+00  0.00000000000E+00  0.23290678283E+04  0.23290678283E+04  0.25500000920E-02 0.  1.
       -2   -1    0    0    0  501  0.00000000000E+00  0.00000000000E+00 -0.12857416401E+04  0.12857416401E+04  0.25500000920E-02 0. -1.
    10030    2    1    2    0    0  0.00000000000E+00  0.00000000000E+00  0.10433261882E+04  0.36148094685E+04  0.34609706671E+04 0.  0.
        4    1    3    3  502    0 -0.11816811217E+04  0.57008709712E+03  0.17001838186E+04  0.21475558669E+04  0.12699999809E+01 0.  1.
       -4    1    3    3    0  502  0.11816811217E+04 -0.57008709712E+03 -0.65685763041E+03  0.14672536015E+04  0.12699999809E+01 0. -1.
</event>
<event>
 5   0  0.5858859E-07  0.3262577E+04  0.7818609E-02  0.8172483E-01
        1   -1    0    0  501    0  0.00000000000E+00  0.00000000000E+00  0.14284778106E+04  0.14284778106E+04  0.50400001928E-02 0. -1.
       -1   -1    0    0    0  501  0.00000000000E+00  0.00000000000E+00 -0.18628941147E+04  0.18628941147E+04  0.50400001928E-02 0.  1.
    10030    2    1    2    0    0  0.00000000000E+00  0.00000000000E+00 -0.43441630409E+03  0.32913719253E+04  0.32625774513E+04 0.  0.
        3    1    3    3  502    0  0.16009805308E+04  0.29775771702E+03 -0.31451972093E+03  0.16585297655E+04  0.10100000352E+00 0.  1.
       -3    1    3    3    0  502 -0.16009805308E+04 -0.29775771702E+03 -0.11989658316E+03  0.16328421598E+04  0.10100000352E+00 0. -1.
</event>
<event>
 5   0  0.1728937E-06  0.3328317E+04  0.7818609E-02  0.8155727E-01
        2   -1    0    0  501    0  0.00000000000E+00  0.00000000000E+00  0.24649484806E+04  0.24649484806E+04  0.25500000920E-02 0. -1.
       -2   -1    0    0    0  501  0.00000000000E+00  0.00000000000E+00 -0.11235218876E+04  0.11235218876E+04  0.25500000920E-02 0.  1.
    10030    2    1    2    0    0  0.00000000000E+00  0.00000000000E+00  0.13414265930E+04  0.35884703681E+04  0.33283170340E+04 0.  0.
        1    1    3    3  502    0 -0.61507010048E+01 -0.14456041896E+04 -0.21811100433E+03  0.14619786984E+04  0.50400001928E-02 0.  1.
       -1    1    3    3    0  502  0.61507010048E+01  0.14456041896E+04  0.15595375973E+04  0.21264916698E+04  0.50400001928E-02 0. -1.
</event>
<event>
 5   0  0.5985183E-07  0.3306847E+04  0.7818609E-02  0.8161155E-01
       -1   -1    0    0    0  501  0.00000000000E+00  0.00000000000E+00  0.14636858806E+04  0.14636858806E+04  0.50400001928E-02 0.  1.
        1   -1    0    0  501    0  0.00000000000E+00  0.00000000000E+00 -0.18677571894E+04  0.18677571894E+04  0.50400001928E-02 0. -1.
    10030    2    1    2    0    0  0.00000000000E+00  0.00000000000E+00 -0.40407130874E+03  0.33314430700E+04  0.33068473364E+04 0.  0.
        2    1    3    3  502    0 -0.55783708306E+03 -0.14371774239E+04 -0.80409980371E+03  0.17387460003E+04  0.25500000920E-02 0. -1.
       -2    1    3    3    0  502  0.55783708306E+03  0.14371774239E+04  0.40002849497E+03  0.15926970697E+04  0.25500000920E-02 0.  1.
</event>
<event>
 5   0  0.5988516E-07  0.3294324E+04  0.7818609E-02  0.8164341E-01
       -1   -1    0    0    0  501  0.00000000000E+00  0.00000000000E+00  0.25660328651E+04  0.25660328651E+04  0.50400001928E-02 0. -1.
        1   -1    0    0  501    0  0.00000000000E+00  0.00000000000E+00 -0.10573295235E+04  0.10573295235E+04  0.50400001928E-02 0.  1.
    10030    2    1    2    0    0  0.00000000000E+00  0.00000000000E+00  0.15087033416E+04  0.36233623886E+04  0.32943237889E+04 0.  0.
        4    1    3    3  502    0  0.95066045414E+03  0.53070767755E+03  0.21138211721E+04  0.23777399981E+04  0.12699999809E+01 0. -1.
       -4    1    3    3    0  502 -0.95066045414E+03 -0.53070767755E+03 -0.60511783044E+03  0.12456223905E+04  0.12699999809E+01 0.  1.
</event>
<event>
 5   0  0.1696681E-06  0.3357142E+04  0.7818609E-02  0.8148506E-01
       -2   -1    0    0    0  501  0.00000000000E+00  0.00000000000E+00  0.13244391875E+04  0.13244391875E+04  0.25500000920E-02 0.  1.
        2   -1    0    0  501    0  0.00000000000E+00  0.00000000000E+00 -0.21273914542E+04  0.21273914542E+04  0.25500000920E-02 0. -1.
    10030    2    1    2    0    0  0.00000000000E+00  0.00000000000E+00 -0.80295226671E+03  0.34518306417E+04  0.33571420042E+04 0.  0.
        4    1    3    3  502    0  0.75687109639E+03  0.14218679913E+04  0.84111694348E+02  0.16129596496E+04  0.12699999809E+01 0.  1.
       -4    1    3    3    0  502 -0.75687109639E+03 -0.14218679913E+04 -0.88706396106E+03  0.18388709920E+04  0.12699999809E+01 0. -1.
</event>
<event>
 5   0  0.1784626E-06  0.3333442E+04  0.7818609E-02  0.8154438E-01
       -2   -1    0    0    0  501  0.00000000000E+00  0.00000000000E+00  0.18827681809E+04  0.18827681809E+04  0.25500000920E-02 0.  1.
        2   -1    0    0  501    0  0.00000000000E+00  0.00000000000E+00 -0.14754648783E+04  0.14754648783E+04  0.25500000920E-02 0. -1.
    10030    2    1    2    0    0  0.00000000000E+00  0.00000000000E+00  0.40730330262E+03  0.33582330592E+04  0.33334416599E+04 0.  0.
        2    1    3    3  502    0  0.14743707813E+04  0.54871689554E+03  0.75829032527E+03  0.17463858822E+04  0.25500000920E-02 0.  1.
       -2    1    3    3    0  502 -0.14743707813E+04 -0.54871689554E+03 -0.35098702264E+03  0.16118471770E+04  0.25500000920E-02 0. -1.
</event>
<event>
 5   0  0.6023446E-07  0.3297721E+04  0.7818609E-02  0.8163475E-01
       -1   -1    0    0    0  501  0.00000000000E+00  0.00000000000E+00  0.14547981253E+04  0.14547981253E+04  0.50400001928E-02 0.  1.
        1   -1    0    0  501    0  0.00000000000E+00  0.00000000000E+00 -0.18688102999E+04  0.18688102999E+04  0.50400001928E-02 0. -1.
    10030    2    1    2    0    0  0.00000000000E+00  0.00000000000E+00 -0.41401217457E+03  0.33236084253E+04  0.32977214685E+04 0.  0.
        5    1    3    3  502    0 -0.14685856773E+04  0.34399699670E+03  0.46428690222E+03  0.15781832095E+04  0.46999998093E+01 0.  1.
       -5    1    3    3    0  502  0.14685856773E+04 -0.34399699670E+03 -0.87829907679E+03  0.17454252157E+04  0.46999998093E+01 0. -1.
</event>
<event>
 5   0  0.1743810E-06  0.3259721E+04  0.7818609E-02  0.8173221E-01
       -2   -1    0    0    0  501  0.00000000000E+00  0.00000000000E+00  0.13625299335E+04  0.13625299335E+04  0.25500000920E-02 0. -1.
        2   -1    0    0  501    0  0.00000000000E+00  0.00000000000E+00 -0.19496420916E+04  0.19496420916E+04  0.25500000920E-02 0.  1.
    10030    2    1    2    0    0  0.00000000000E+00  0.00000000000E+00 -0.58711215808E+03  0.33121720252E+04  0.32597212823E+04 0.  0.
        5    1    3    3  502    0  0.14893675261E+04 -0.23313548971E+03 -0.92308616489E+03  0.17676758589E+04  0.46999998093E+01 0.  1.
       -5    1    3    3    0  502 -0.14893675261E+04  0.23313548971E+03  0.33597400681E+03  0.15444961663E+04  0.46999998093E+01 0. -1.
</event>
<event>
 5   0  0.1784626E-06  0.3293082E+04  0.7818609E-02  0.8164658E-01
        2   -1    0    0  501    0  0.00000000000E+00  0.00000000000E+00  0.24903726281E+04  0.24903726281E+04  0.25500000920E-02 0.  1.
       -2   -1    0    0    0  501  0.00000000000E+00  0.00000000000E+00 -0.10886312323E+04  0.10886312323E+04  0.25500000920E-02 0. -1.
    10030    2    1    2    0    0  0.00000000000E+00  0.00000000000E+00  0.14017413958E+04  0.35790038605E+04  0.32930820962E+04 0.  0.
        2    1    3    3  502    0 -0.22178120588E+03 -0.13716091781E+04 -0.25935548479E+03  0.14134227635E+04  0.25500000920E-02 0. -1.
       -2    1    3    3    0  502  0.22178120588E+03  0.13716091781E+04  0.16610968806E+04  0.21655810970E+04  0.25500000920E-02 0.  1.
</event>
<event>
 5   0  0.1743810E-06  0.3417981E+04  0.7818609E-02  0.8133507E-01
        2   -1    0    0  501    0  0.00000000000E+00  0.00000000000E+00  0.31378165434E+04  0.31378165434E+04  0.25500000920E-02 0.  1.
       -2   -1    0    0    0  501  0.00000000000E+00  0.00000000000E+00 -0.93079031737E+03  0.93079031737E+03  0.25500000920E-02 0. -1.
    10030    2    1    2    0    0  0.00000000000E+00  0.00000000000E+00  0.22070262260E+04  0.40686068607E+04  0.34179814255E+04 0.  0.
        5    1    3    3  502    0 -0.12005976630E+04 -0.99859935631E+03  0.27710260981E+03  0.15860149335E+04  0.46999998093E+01 0. -1.
       -5    1    3    3    0  502  0.12005976630E+04  0.99859935631E+03  0.19299236162E+04  0.24825919273E+04  0.46999998093E+01 0.  1.
</event>
<event>
 5   0  0.5858859E-07  0.3287408E+04  0.7818609E-02  0.8166107E-01
        1   -1    0    0  501    0  0.00000000000E+00  0.00000000000E+00  0.11431667479E+04  0.11431667480E+04  0.50400001928E-02 0. -1.
       -1   -1    0    0    0  501  0.00000000000E+00  0.00000000000E+00 -0.23634025103E+04  0.23634025103E+04  0.50400001928E-02 0.  1.
    10030    2    1    2    0    0  0.00000000000E+00  0.00000000000E+00 -0.12202357623E+04  0.35065692582E+04  0.32874081960E+04 0.  0.
        3    1    3    3  502    0 -0.15623382370E+04 -0.32766796015E+03 -0.19221299401E+03  0.16078597277E+04  0.10100000352E+00 0. -1.
       -3    1    3    3    0  502  0.15623382370E+04  0.32766796015E+03 -0.10280227683E+04  0.18987095305E+04  0.10100000352E+00 0.  1.
</event>
<event>
 5   0  0.1728937E-06  0.3345226E+04  0.7818609E-02  0.8151482E-01
        2   -1    0    0  501    0  0.00000000000E+00  0.00000000000E+00  0.14773099677E+04  0.14773099677E+04  0.25500000920E-02 0. -1.
       -2   -1    0    0    0  501  0.00000000000E+00  0.00000000000E+00 -0.18937350458E+04  0.18937350458E+04  0.25500000920E-02 0.  1.
    10030    2    1    2    0    0  0.00000000000E+00  0.00000000000E+00 -0.41642507803E+03  0.33710450135E+04  0.33452256482E+04 0.  0.
        1    1    3    3  502    0  0.72632560572E+03 -0.80199102940E+03  0.10771301087E+04  0.15267441724E+04  0.50400001928E-02 0. -1.
       -1    1    3    3    0  502 -0.72632560572E+03  0.80199102940E+03 -0.14935551867E+04  0.18443008411E+04  0.50400001928E-02 0.  1.
</event>
<event>
 5   0  0.5858859E-07  0.3301271E+04  0.7818609E-02  0.8162572E-01
       -1   -1    0    0    0  501  0.00000000000E+00  0.00000000000E+00  0.12047660461E+04  0.12047660461E+04  0.50400001928E-02 0. -1.
        1   -1    0    0  501    0  0.00000000000E+00  0.00000000000E+00 -0.22615160534E+04  0.22615160534E+04  0.50400001928E-02 0.  1.
    10030    2    1    2    0    0  0.00000000000E+00  0.00000000000E+00 -0.10567500074E+04  0.34662820995E+04  0.33012711211E+04 0.  0.
        3    1    3    3  502    0  0.28595503492E+03  0.55733280082E+02  0.11775571187E+04  0.12130611107E+04  0.10100000352E+00 0. -1.
       -3    1    3    3    0  502 -0.28595503492E+03 -0.55733280082E+02 -0.22343071260E+04  0.22532209888E+04  0.10100000352E+00 0.  1.
</event>
<event>
 5   0  0.1784626E-06  0.3298361E+04  0.7818609E-02  0.8163313E-01
       -2   -1    0    0    0  501  0.00000000000E+00  0.00000000000E+00  0.11862993756E+04  0.11862993756E+04  0.25500000920E-02 0. -1.
        2   -1    0    0  501    0  0.00000000000E+00  0.00000000000E+00 -0.22926721616E+04  0.22926721616E+04  0.25500000920E-02 0.  1.
    10030    2    1    2    0    0  0.00000000000E+00  0.00000000000E+00 -0.11063727860E+04  0.34789715372E+04  0.32983605344E+04 0.  0.
        2    1    3    3  502    0  0.40616911460E+03 -0.78302541130E+03  0.91656228582E+03  0.12720804095E+04  0.25500000920E-02 0. -1.
       -2    1    3    3    0  502 -0.40616911460E+03  0.78302541130E+03 -0.20229350719E+04  0.22068911277E+04  0.25500000920E-02 0.  1.
</event>
<event>
 5   0  0.1832626E-06  0.3259578E+04  0.7818609E-02  0.8173258E-01
        2   -1    0    0  501    0  0.00000000000E+00  0.00000000000E+00  0.18450182504E+04  0.18450182504E+04  0.25500000920E-02 0. -1.
       -2   -1    0    0    0  501  0.00000000000E+00  0.00000000000E+00 -0.14396674128E+04  0.14396674128E+04  0.25500000920E-02 0.  1.
    10030    2    1    2    0    0  0.00000000000E+00  0.00000000000E+00  0.40535083762E+03  0.32846856632E+04  0.32595782863E+04 0.  0.
        3    1    3    3  502    0  0.41599664671E+02  0.15691859002E+04 -0.23903608957E+03  0.15878328577E+04  0.10100000352E+00 0.  1.
       -3    1    3    3    0  502 -0.41599664671E+02 -0.15691859002E+04  0.64438692719E+03  0.16968528056E+04  0.10100000352E+00 0. -1.
</event>
<event>
 5   0  0.1728937E-06  0.3220698E+04  0.7818609E-02  0.8183372E-01
        2   -1    0    0  501    0  0.00000000000E+00  0.00000000000E+00  0.21303162247E+04  0.21303162247E+04  0.25500000920E-02 0. -1.
       -2   -1    0    0    0  501  0.00000000000E+00  0.00000000000E+00 -0.12172954202E+04  0.12172954202E+04  0.25500000920E-02 0.  1.
    10030    2    1    2    0    0  0.00000000000E+00  0.00000000000E+00  0.91302080452E+03  0.33476116449E+04  0.32206981752E+04 0.  0.
        1    1    3    3  502    0  0.15961958497E+04  0.13517686667E+03  0.62765037801E+03  0.17204821920E+04  0.50400001928E-02 0. -1.
       -1    1    3    3    0  502 -0.15961958497E+04 -0.13517686667E+03  0.28537042651E+03  0.16271294529E+04  0.50400001928E-02 0.  1.
</event>
<event>
 5   0  0.1743810E-06  0.3244387E+04  0.7818609E-02  0.8177192E-01
        2   -1    0    0  501    0  0.00000000000E+00  0.00000000000E+00  0.12177190312E+04  0.12177190312E+04  0.25500000920E-02 0.  1.
       -2   -1    0    0    0  501  0.00000000000E+00  0.00000000000E+00 -0.21610167498E+04  0.21610167498E+04  0.25500000920E-02 0. -1.
    10030    2    1    2    0    0  0.00000000000E+00  0.00000000000E+00 -0.94329771864E+03  0.33787357810E+04  0.32443866742E+04 0.  0.
        5    1    3    3  502    0 -0.46773433394E+03 -0.82444084281E+02  0.11436835823E+04  0.12383887356E+04  0.46999998093E+01 0.  1.
       -5    1    3    3    0  502  0.46773433394E+03  0.82444084281E+02 -0.20869813009E+04  0.21403470454E+04  0.46999998093E+01 0. -1.
</event>
<event>
 5   0  0.5988516E-07  0.3357319E+04  0.7818609E-02  0.8148462E-01
        1   -1    0    0  501    0  0.00000000000E+00  0.00000000000E+00  0.20947049862E+04  0.20947049862E+04  0.50400001928E-02 0.  1.
       -1   -1    0    0    0  501  0.00000000000E+00  0.00000000000E+00 -0.13452478105E+04  0.13452478105E+04  0.50400001928E-02 0. -1.
    10030    2    1    2    0    0  0.00000000000E+00  0.00000000000E+00  0.74945717569E+03  0.34399527966E+04  0.33573187494E+04 0.  0.
        4    1    3    3  502    0  0.11561076326E+04  0.11455888297E+04 -0.46407415562E+02  0.16282241510E+04  0.12699999809E+01 0. -1.
       -4    1    3    3    0  502 -0.11561076326E+04 -0.11455888297E+04  0.79586459125E+03  0.18117286456E+04  0.12699999809E+01 0.  1.
</event>
<event>
 5   0  0.6023446E-07  0.3333667E+04  0.7818609E-02  0.8154381E-01
        1   -1    0    0  501    0  0.00000000000E+00  0.00000000000E+00  0.18230337378E+04  0.18230337378E+04  0.50400001928E-02 0. -1.
       -1   -1    0    0    0  501  0.00000000000E+00  0.00000000000E+00 -0.15240164868E+04  0.15240164868E+04  0.50400001928E-02 0.  1.
    10030    2    1    2    0    0  0.00000000000E+00  0.00000000000E+00  0.29901725100E+03  0.33470502247E+04  0.33336667335E+04 0.  0.
        5    1    3    3  502    0 -0.43104496469E+03 -0.10714539434E+04  0.13562064526E+04  0.17813285341E+04  0.46999998093E+01 0. -1.
       -5    1    3    3    0  502  0.43104496469E+03  0.10714539434E+04 -0.10571892016E+04  0.15657216906E+04  0.46999998093E+01 0.  1.
</event>
<event>
 5   0  0.1696681E-06  0.3270036E+04  0.7818609E-02  0.8170562E-01
       -2   -1    0    0    0  501  0.00000000000E+00  0.00000000000E+00  0.13036045505E+04  0.13036045505E+04  0.25500000920E-02 0. -1.
        2   -1    0    0  501    0  0.00000000000E+00  0.00000000000E+00 -0.20506861267E+04  0.20506861267E+04  0.25500000920E-02 0.  1.
    10030    2    1    2    0    0  0.00000000000E+00  0.00000000000E+00 -0.74708157616E+03  0.33542906772E+04  0.32700359426E+04 0.  0.
        4    1    3    3  502    0  0.15941986261E+04  0.18466460893E+03 -0.69418384868E+03  0.17485602952E+04  0.12699999809E+01 0.  1.
       -4    1    3    3    0  502 -0.15941986261E+04 -0.18466460893E+03 -0.52897727479E+02  0.16057303820E+04  0.12699999809E+01 0. -1.
</event>
<event>
 5   0  0.5988516E-07  0.3343098E+04  0.7818609E-02  0.8152015E-01
        1   -1    0    0  501    0  0.00000000000E+00  0.00000000000E+00  0.10537983647E+04  0.10537983647E+04  0.50400001928E-02 0. -1.
       -1   -1    0    0    0  501  0.00000000000E+00  0.00000000000E+00 -0.26514335833E+04  0.26514335833E+04  0.50400001928E-02 0.  1.
    10030    2    1    2    0    0  0.00000000000E+00  0.00000000000E+00 -0.15976352186E+04  0.37052319481E+04  0.33430981884E+04 0.  0.
        4    1    3    3  502    0  0.12073277395E+04  0.66711849906E+03  0.24758668456E+03  0.14014236125E+04  0.12699999809E+01 0. -1.
       -4    1    3    3    0  502 -0.12073277395E+04 -0.66711849906E+03 -0.18452219031E+04  0.23038083356E+04  0.12699999809E+01 0.  1.
</event>
<event>
 5   0  0.6085351E-07  0.3299132E+04  0.7818609E-02  0.8163116E-01
       -1   -1    0    0    0  501  0.00000000000E+00  0.00000000000E+00  0.13810838804E+04  0.13810838804E+04  0.50400001928E-02 0.  1.
        1   -1    0    0  501    0  0.00000000000E+00  0.00000000000E+00 -0.19702405903E+04  0.19702405903E+04  0.50400001928E-02 0. -1.
    10030    2    1    2    0    0  0.00000000000E+00  0.00000000000E+00 -0.58915670982E+03  0.33513244707E+04  0.32991317159E+04 0.  0.
        1    1    3    3  502    0 -0.33287853439E+03 -0.35018167312E+03 -0.18967531948E+04  0.19573216406E+04  0.50400001928E-02 0. -1.
       -1    1    3    3    0  502  0.33287853439E+03  0.35018167312E+03  0.13075964850E+04  0.13940028301E+04  0.50400001928E-02 0.  1.
</event>
<event>
 5   0  0.1728937E-06  0.3278639E+04  0.7818609E-02  0.8168352E-01
        2   -1    0    0  501    0  0.00000000000E+00  0.00000000000E+00  0.26609526658E+04  0.26609526658E+04  0.25500000920E-02 0. -1.
       -2   -1    0    0    0  501  0.00000000000E+00  0.00000000000E+00 -0.10099273412E+04  0.10099273412E+04  0.25500000920E-02 0.  1.
    10030    2    1    2    0    0  0.00000000000E+00  0.00000000000E+00  0.16510253246E+04  0.36708800070E+04  0.32786392609E+04 0.  0.
        1    1    3    3  502    0 -0.12594274106E+04  0.10445938328E+04  0.71335241062E+03  0.17849944930E+04  0.50400001928E-02 0. -1.
       -1    1    3    3    0  502  0.12594274106E+04 -0.10445938328E+04  0.93767291400E+03  0.18858855140E+04  0.50400001928E-02 0.  1.
</event>
<event>
 5   0  0.6023446E-07  0.3328259E+04  0.7818609E-02  0.8155742E-01
        1   -1    0    0  501    0  0.00000000000E+00  0.00000000000E+00  0.23340978402E+04  0.23340978402E+04  0.50400001928E-02 0.  1.
       -1   -1    0    0    0  501  0.00000000000E+00  0.00000000000E+00 -0.11864660408E+04  0.11864660408E+04  0.50400001928E-02 0. -1.
    10030    2    1    2    0    0  0.00000000000E+00  0.00000000000E+00  0.11476317994E+04  0.35205638810E+04  0.33282594991E+04 0.  0.
        5    1    3    3  502    0  0.16345236343E+04 -0.74869603254E+02  0.25291843698E+03  0.16556759328E+04  0.46999998093E+01 0. -1.
       -5    1    3    3    0  502 -0.16345236343E+04  0.74869603254E+02  0.89471336239E+03  0.18648879482E+04  0.46999998093E+01 0.  1.
</event>
<event>
 5   0  0.1696681E-06  0.2693438E+04  0.7818609E-02  0.8337137E-01
        2   -1    0    0  501    0  0.00000000000E+00  0.00000000000E+00  0.21981920741E+04  0.21981920741E+04  0.25500000920E-02 0. -1.
       -2   -1    0    0    0  501  0.00000000000E+00  0.00000000000E+00 -0.82506562574E+03  0.82506562575E+03  0.25500000920E-02 0.  1.
    10030    2    1    2    0    0  0.00000000000E+00  0.00000000000E+00  0.13731264484E+04  0.30232576998E+04  0.26934384857E+04 0.  0.
        4    1    3    3  502    0 -0.49145039770E+03 -0.11711531633E+04  0.18392502747E+03  0.12833367656E+04  0.12699999809E+01 0. -1.
       -4    1    3    3    0  502  0.49145039770E+03  0.11711531633E+04  0.11892014209E+04  0.17399209343E+04  0.12699999809E+01 0.  1.
</event>
<event>
 5   0  0.1728937E-06  0.2864420E+04  0.7818609E-02  0.8283543E-01
       -2   -1    0    0    0  501  0.00000000000E+00  0.00000000000E+00  0.89432819376E+03  0.89432819376E+03  0.25500000920E-02 0. -1.
        2   -1    0    0  501    0  0.00000000000E+00  0.00000000000E+00 -0.22935940652E+04  0.22935940652E+04  0.25500000920E-02 0.  1.
    10030    2    1    2    0    0  0.00000000000E+00  0.00000000000E+00 -0.13992658715E+04  0.31879222590E+04  0.28644202468E+04 0.  0.
        1    1    3    3  502    0 -0.67543520187E+03  0.12390413560E+04 -0.97176766586E+03  0.17134084715E+04  0.50400001928E-02 0. -1.
       -1    1    3    3    0  502  0.67543520187E+03 -0.12390413560E+04 -0.42749820559E+03  0.14745137875E+04  0.50400001928E-02 0.  1.
</event>
<event>
 5   0  0.1832626E-06  0.3255738E+04  0.7818609E-02  0.8174250E-01
        2   -1    0    0  501    0  0.00000000000E+00  0.00000000000E+00  0.28359316696E+04  0.28359316696E+04  0.25500000920E-02 0.  1.
       -2   -1    0    0    0  501  0.00000000000E+00  0.00000000000E+00 -0.93442195400E+03  0.93442195401E+03  0.25500000920E-02 0. -1.
    10030    2    1    2    0    0  0.00000000000E+00  0.00000000000E+00  0.19015097156E+04  0.37703536236E+04  0.32557375890E+04 0.  0.
        3    1    3    3  502    0 -0.39257611621E+03  0.10767153771E+04 -0.38806208790E+03  0.12099686791E+04  0.10100000352E+00 0. -1.
       -3    1    3    3    0  502  0.39257611621E+03 -0.10767153771E+04  0.22895718035E+04  0.25603849444E+04  0.10100000352E+00 0.  1.
</event>
<event>
 5   0  0.1784626E-06  0.3330581E+04  0.7818609E-02  0.8155157E-01
       -2   -1    0    0    0  501  0.00000000000E+00  0.00000000000E+00  0.11945422414E+04  0.11945422414E+04  0.25500000920E-02 0.  1.
        2   -1    0    0  501    0  0.00000000000E+00  0.00000000000E+00 -0.23215529643E+04  0.23215529643E+04  0.25500000920E-02 0. -1.
    10030    2    1    2    0    0  0.00000000000E+00  0.00000000000E+00 -0.11270107230E+04  0.35160952057E+04  0.33305813796E+04 0.  0.
        2    1    3    3  502    0  0.90262478467E+03  0.12311721539E+04  0.13889368237E+03  0.15329082912E+04  0.25500000920E-02 0.  1.
       -2    1    3    3    0  502 -0.90262478467E+03 -0.12311721539E+04 -0.12659044053E+04  0.19831869145E+04  0.25500000920E-02 0. -1.
</event>
<event>
 5   0  0.1728937E-06  0.3287280E+04  0.7818609E-02  0.8166139E-01
        2   -1    0    0  501    0  0.00000000000E+00  0.00000000000E+00  0.15197970064E+04  0.15197970064E+04  0.25500000920E-02 0. -1.
       -2   -1    0    0    0  501  0.00000000000E+00  0.00000000000E+00 -0.17775748452E+04  0.17775748452E+04  0.25500000920E-02 0.  1.
    10030    2    1    2    0    0  0.00000000000E+00  0.00000000000E+00 -0.25777783883E+03  0.32973718516E+04  0.32872802912E+04 0.  0.
        1    1    3    3  502    0  0.55913942671E+02 -0.14998191440E+04  0.54321962057E+03  0.15961426596E+04  0.50400001928E-02 0. -1.
       -1    1    3    3    0  502 -0.55913942671E+02  0.14998191440E+04 -0.80099745940E+03  0.17012291920E+04  0.50400001928E-02 0.  1.
</event>
<event>
 5   0  0.1743810E-06  0.3256189E+04  0.7818609E-02  0.8174133E-01
        2   -1    0    0  501    0  0.00000000000E+00  0.00000000000E+00  0.15039705595E+04  0.15039705595E+04  0.25500000920E-02 0. -1.
       -2   -1    0    0    0  501  0.00000000000E+00  0.00000000000E+00 -0.17624622748E+04  0.17624622748E+04  0.25500000920E-02 0.  1.
    10030    2    1    2    0    0  0.00000000000E+00  0.00000000000E+00 -0.25849171532E+03  0.32664328343E+04  0.32561887989E+04 0.  0.
        5    1    3    3  502    0 -0.96793572428E+03 -0.75648029969E+03 -0.12010205453E+04  0.17180321448E+04  0.46999998093E+01 0. -1.
       -5    1    3    3    0  502  0.96793572428E+03  0.75648029969E+03  0.94252882998E+03  0.15484006896E+04  0.46999998093E+01 0.  1.
</event>
<event>
 5   0  0.1784626E-06  0.3386422E+04  0.7818609E-02  0.8141247E-01
        2   -1    0    0  501    0  0.00000000000E+00  0.00000000000E+00  0.13921188893E+04  0.13921188893E+04  0.25500000920E-02 0. -1.
       -2   -1    0    0    0  501  0.00000000000E+00  0.00000000000E+00 -0.20594237944E+04  0.20594237944E+04  0.25500000920E-02 0.  1.
    10030    2    1    2    0    0  0.00000000000E+00  0.00000000000E+00 -0.66730490505E+03  0.34515426837E+04  0.33864215717E+04 0.  0.
        2    1    3    3  502    0  0.65942393593E+03  0.81846599281E+03 -0.16866726905E+04  0.19873578625E+04  0.25500000920E-02 0.  1.
       -2    1    3    3    0  502 -0.65942393593E+03 -0.81846599281E+03  0.10193677855E+04  0.14641848212E+04  0.25500000920E-02 0. -1.
</event>
<event>
 5   0  0.5858859E-07  0.3373357E+04  0.7818609E-02  0.8144476E-01
        1   -1    0    0  501    0  0.00000000000E+00  0.00000000000E+00  0.21983672530E+04  0.21983672530E+04  0.50400001928E-02 0.  1.
       -1   -1    0    0    0  501  0.00000000000E+00  0.00000000000E+00 -0.12940899020E+04  0.12940899020E+04  0.50400001928E-02 0. -1.
    10030    2    1    2    0    0  0.00000000000E+00  0.00000000000E+00  0.90427735093E+03  0.34924571550E+04  0.33733572969E+04 0.  0.
        3    1    3    3  502    0  0.57213819753E+03  0.53176483230E+03 -0.10955551621E+04  0.13454951049E+04  0.10100000352E+00 0. -1.
       -3    1    3    3    0  502 -0.57213819753E+03 -0.53176483230E+03  0.19998325131E+04  0.21469620501E+04  0.10100000352E+00 0.  1.
</event>
<event>
 5   0  0.6085351E-07  0.3286498E+04  0.7818609E-02  0.8166340E-01
       -1   -1    0    0    0  501  0.00000000000E+00  0.00000000000E+00  0.22043026249E+04  0.22043026249E+04  0.50400001928E-02 0.  1.
        1   -1    0    0  501    0  0.00000000000E+00  0.00000000000E+00 -0.12249983699E+04  0.12249983699E+04  0.50400001928E-02 0. -1.
    10030    2    1    2    0    0  0.00000000000E+00  0.00000000000E+00  0.97930425495E+03  0.34293009948E+04  0.32864979065E+04 0.  0.
        1    1    3    3  502    0 -0.24675926462E+03 -0.27706174878E+03 -0.11807222657E+04  0.12376422811E+04  0.50400001928E-02 0. -1.
       -1    1    3    3    0  502  0.24675926462E+03  0.27706174878E+03  0.21600265206E+04  0.21916587137E+04  0.50400001928E-02 0.  1.
</event>
<event>
 5   0  0.1696681E-06  0.3335786E+04  0.7818609E-02  0.8153849E-01
        2   -1    0    0  501    0  0.00000000000E+00  0.00000000000E+00  0.14811084038E+04  0.14811084038E+04  0.25500000920E-02 0.  1.
       -2   -1    0    0    0  501  0.00000000000E+00  0.00000000000E+00 -0.18782328151E+04  0.18782328151E+04  0.25500000920E-02 0. -1.
    10030    2    1    2    0    0  0.00000000000E+00  0.00000000000E+00 -0.39712441132E+03  0.33593412190E+04  0.33357856087E+04 0.  0.
        4    1    3    3  502    0 -0.41472579362E+03 -0.76062057136E+03 -0.16338716786E+04  0.18493456715E+04  0.12699999809E+01 0. -1.
       -4    1    3    3    0  502  0.41472579362E+03  0.76062057136E+03  0.12367472673E+04  0.15099955475E+04  0.12699999809E+01 0.  1.
</event>
<event>
 5   0  0.1743810E-06  0.3218344E+04  0.7818609E-02  0.8183989E-01
       -2   -1    0    0    0  501  0.00000000000E+00  0.00000000000E+00  0.18213984205E+04  0.18213984206E+04  0.25500000920E-02 0. -1.
        2   -1    0    0  501    0  0.00000000000E+00  0.00000000000E+00 -0.14216738043E+04  0.14216738043E+04  0.25500000920E-02 0.  1.
    10030    2    1    2    0    0  0.00000000000E+00  0.00000000000E+00  0.39972461621E+03  0.32430722249E+04  0.32183439355E+04 0.  0.
        5    1    3    3  502    0  0.10655060182E+04 -0.80657579087E+03  0.11031564647E+04  0.17328715638E+04  0.46999998093E+01 0. -1.
       -5    1    3    3    0  502 -0.10655060182E+04  0.80657579087E+03 -0.70343184852E+03  0.15102006611E+04  0.46999998093E+01 0.  1.
</event>
<event>
 5   0  0.1743810E-06  0.3308997E+04  0.7818609E-02  0.8160610E-01
        2   -1    0    0  501    0  0.00000000000E+00  0.00000000000E+00  0.23036155914E+04  0.23036155914E+04  0.25500000920E-02 0.  1.
       -2   -1    0    0    0  501  0.00000000000E+00  0.00000000000E+00 -0.11882908305E+04  0.11882908305E+04  0.25500000920E-02 0. -1.
    10030    2    1    2    0    0  0.00000000000E+00  0.00000000000E+00  0.11153247609E+04  0.34919064220E+04  0.33089969987E+04 0.  0.
        5    1    3    3  502    0 -0.56510044264E+03  0.14953647543E+04  0.10077212908E+04  0.18897032964E+04  0.46999998093E+01 0.  1.
       -5    1    3    3    0  502  0.56510044264E+03 -0.14953647543E+04  0.10760347012E+03  0.16022031255E+04  0.46999998093E+01 0. -1.
</event>
<event>
 5   0  0.5988516E-07  0.3297283E+04  0.7818609E-02  0.8163587E-01
       -1   -1    0    0    0  501  0.00000000000E+00  0.00000000000E+00  0.15209025828E+04  0.15209025828E+04  0.50400001928E-02 0. -1.
        1   -1    0    0  501    0  0.00000000000E+00  0.00000000000E+00 -0.17871091104E+04  0.17871091104E+04  0.50400001928E-02 0.  1.
    10030    2    1    2    0    0  0.00000000000E+00  0.00000000000E+00 -0.26620652767E+03  0.33080116932E+04  0.32972830402E+04 0.  0.
        4    1    3    3  502    0  0.90450201416E+03 -0.97374587962E+03 -0.11118349581E+04  0.17327675893E+04  0.12699999809E+01 0. -1.
       -4    1    3    3    0  502 -0.90450201416E+03  0.97374587962E+03  0.84562843039E+03  0.15752441039E+04  0.12699999809E+01 0.  1.
</event>
<event>
 5   0  0.6023446E-07  0.3272196E+04  0.7818609E-02  0.8170006E-01
        1   -1    0    0  501    0  0.00000000000E+00  0.00000000000E+00  0.11238868222E+04  0.11238868222E+04  0.50400001928E-02 0. -1.
       -1   -1    0    0    0  501  0.00000000000E+00  0.00000000000E+00 -0.23817490076E+04  0.23817490076E+04  0.50400001928E-02 0.  1.
    10030    2    1    2    0    0  0.00000000000E+00  0.00000000000E+00 -0.12578621854E+04  0.35056358298E+04  0.32721957908E+04 0.  0.
        5    1    3    3  502    0  0.21907650442E+03  0.14388087031E+04  0.17180489423E+03  0.14655046949E+04  0.46999998093E+01 0.  1.
       -5    1    3    3    0  502 -0.21907650442E+03 -0.14388087031E+04 -0.14296670796E+04  0.20401311349E+04  0.46999998093E+01 0. -1.
</event>
<event>
 5   0  0.1728937E-06  0.3299731E+04  0.7818609E-02  0.8162964E-01
       -2   -1    0    0    0  501  0.00000000000E+00  0.00000000000E+00  0.15229916373E+04  0.15229916373E+04  0.25500000920E-02 0.  1.
        2   -1    0    0  501    0  0.00000000000E+00  0.00000000000E+00 -0.17873089925E+04  0.17873089925E+04  0.25500000920E-02 0. -1.
    10030    2    1    2    0    0  0.00000000000E+00  0.00000000000E+00 -0.26431735511E+03  0.33103006298E+04  0.32997312914E+04 0.  0.
        1    1    3    3  502    0  0.70264780027E+03  0.13650912365E+04 -0.73813705315E+03  0.17035358301E+04  0.50400001928E-02 0. -1.
       -1    1    3    3    0  502 -0.70264780027E+03 -0.13650912365E+04  0.47381969803E+03  0.16067647997E+04  0.50400001928E-02 0.  1.
</event>
<event>
 5   0  0.1696681E-06  0.3278279E+04  0.7818609E-02  0.8168444E-01
       -2   -1    0    0    0  501  0.00000000000E+00  0.00000000000E+00  0.10415977728E+04  0.10415977728E+04  0.25500000920E-02 0.  1.
        2   -1    0    0  501    0  0.00000000000E+00  0.00000000000E+00 -0.25794775229E+04  0.25794775229E+04  0.25500000920E-02 0. -1.
    10030    2    1    2    0    0  0.00000000000E+00  0.00000000000E+00 -0.15378797501E+04  0.36210752957E+04  0.32782788429E+04 0.  0.
        4    1    3    3  502    0 -0.42727072126E+02 -0.87210874836E+03 -0.23012150354E+04  0.24612987473E+04  0.12699999809E+01 0. -1.
       -4    1    3    3    0  502  0.42727072126E+02  0.87210874836E+03  0.76333528524E+03  0.11597765484E+04  0.12699999809E+01 0.  1.
</event>
<event>
 5   0  0.1784626E-06  0.3305889E+04  0.7818609E-02  0.8161399E-01
        2   -1    0    0  501    0  0.00000000000E+00  0.00000000000E+00  0.22495052179E+04  0.22495052179E+04  0.25500000920E-02 0.  1.
       -2   -1    0    0    0  501  0.00000000000E+00  0.00000000000E+00 -0.12145892627E+04  0.12145892627E+04  0.25500000920E-02 0. -1.
    10030    2    1    2    0    0  0.00000000000E+00  0.00000000000E+00  0.10349159552E+04  0.34640944806E+04  0.33058886152E+04 0.  0.
        2    1    3    3  502    0 -0.10054734088E+04  0.78407477003E+02  0.18897491914E+04  0.21420262638E+04  0.25500000920E-02 0.  1.
       -2    1    3    3    0  502  0.10054734088E+04 -0.78407477003E+02 -0.85483323625E+03  0.13220682168E+04  0.25500000920E-02 0. -1.
</event>
<event>
 5   0  0.1784626E-06  0.3301712E+04  0.7818609E-02  0.8162460E-01
       -2   -1    0    0    0  501  0.00000000000E+00  0.00000000000E+00  0.18729734001E+04  0.18729734001E+04  0.25500000920E-02 0.  1.
        2   -1    0    0  501    0  0.00000000000E+00  0.00000000000E+00 -0.14550798561E+04  0.14550798561E+04  0.25500000920E-02 0. -1.
    10030    2    1    2    0    0  0.00000000000E+00  0.00000000000E+00  0.41789354400E+03  0.33280532563E+04  0.33017122017E+04 0.  0.
        2    1    3    3  502    0 -0.96867935035E+03  0.58698902882E+03 -0.10016469996E+04  0.15120160434E+04  0.25500000920E-02 0. -1.
       -2    1    3    3    0  502  0.96867935035E+03 -0.58698902882E+03  0.14195405436E+04  0.18160372129E+04  0.25500000920E-02 0.  1.
</event>
<event>
 5   0  0.5985183E-07  0.3302761E+04  0.7818609E-02  0.8162193E-01
       -1   -1    0    0    0  501  0.00000000000E+00  0.00000000000E+00  0.14171110269E+04  0.14171110269E+04  0.50400001928E-02 0. -1.
        1   -1    0    0  501    0  0.00000000000E+00  0.00000000000E+00 -0.19243785457E+04  0.19243785457E+04  0.50400001928E-02 0.  1.
    10030    2    1    2    0    0  0.00000000000E+00  0.00000000000E+00 -0.50726751878E+03  0.33414895726E+04  0.33027613035E+04 0.  0.
        2    1    3    3  502    0  0.27484762135E+03  0.91571914700E+03 -0.16158901834E+04  0.18775472979E+04  0.25500000920E-02 0.  1.
       -2    1    3    3    0  502 -0.27484762135E+03 -0.91571914700E+03  0.11086226646E+04  0.14639422747E+04  0.25500000920E-02 0. -1.
</event>
<event>
 5   0  0.5858859E-07  0.3225549E+04  0.7818609E-02  0.8182102E-01
       -1   -1    0    0    0  501  0.00000000000E+00  0.00000000000E+00  0.20339088802E+04  0.20339088802E+04  0.50400001928E-02 0. -1.
        1   -1    0    0  501    0  0.00000000000E+00  0.00000000000E+00 -0.12788387590E+04  0.12788387590E+04  0.50400001928E-02 0.  1.
    10030    2    1    2    0    0  0.00000000000E+00  0.00000000000E+00  0.75507012126E+03  0.33127476392E+04  0.32255489506E+04 0.  0.
        3    1    3    3  502    0 -0.68673333825E+03  0.84521725326E+03 -0.84418045515E+03  0.13779098425E+04  0.10100000352E+00 0.  1.
       -3    1    3    3    0  502  0.68673333825E+03 -0.84521725326E+03  0.15992505764E+04  0.19348377967E+04  0.10100000352E+00 0. -1.
</event>
<event>
 5   0  0.1743810E-06  0.3303355E+04  0.7818609E-02  0.8162042E-01
       -2   -1    0    0    0  501  0.00000000000E+00  0.00000000000E+00  0.13425085300E+04  0.13425085300E+04  0.25500000920E-02 0. -1.
        2   -1    0    0  501    0  0.00000000000E+00  0.00000000000E+00 -0.20320459920E+04  0.20320459920E+04  0.25500000920E-02 0.  1.
    10030    2    1    2    0    0  0.00000000000E+00  0.00000000000E+00 -0.68953746203E+03  0.33745545220E+04  0.33033553110E+04 0.  0.
        5    1    3    3  502    0  0.95178772614E+02 -0.13300730698E+04 -0.13403845467E+04  0.18907157884E+04  0.46999998093E+01 0.  1.
       -5    1    3    3    0  502 -0.95178772614E+02  0.13300730698E+04  0.65084708464E+03  0.14838387336E+04  0.46999998093E+01 0. -1.
</event>
<event>
 5   0  0.1728937E-06  0.3282160E+04  0.7818609E-02  0.8167450E-01
       -2   -1    0    0    0  501  0.00000000000E+00  0.00000000000E+00  0.12156852592E+04  0.12156852592E+04  0.25500000920E-02 0.  1.
        2   -1    0    0  501    0  0.00000000000E+00  0.00000000000E+00 -0.22153299073E+04  0.22153299073E+04  0.25500000920E-02 0. -1.
    10030    2    1    2    0    0  0.00000000000E+00  0.00000000000E+00 -0.99964464805E+03  0.34310151665E+04  0.32821602109E+04 0.  0.
        1    1    3    3  502    0 -0.63187877351E+02 -0.10832784771E+04  0.78713339773E+03  0.13405461397E+04  0.50400001928E-02 0.  1.
       -1    1    3    3    0  502  0.63187877351E+02  0.10832784771E+04 -0.17867780458E+04  0.20904690267E+04  0.50400001928E-02 0. -1.
</event>
<event>
 5   0  0.5988516E-07  0.3258665E+04  0.7818609E-02  0.8173494E-01
        1   -1    0    0  501    0  0.00000000000E+00  0.00000000000E+00  0.16785234424E+04  0.16785234424E+04  0.50400001928E-02 0.  1.
       -1   -1    0    0    0  501  0.00000000000E+00  0.00000000000E+00 -0.15815827494E+04  0.15815827494E+04  0.50400001928E-02 0. -1.
    10030    2    1    2    0    0  0.00000000000E+00  0.00000000000E+00  0.96940692984E+02  0.32601061918E+04  0.32586645860E+04 0.  0.
        4    1    3    3  502    0 -0.14209196561E+04  0.43293994898E+03 -0.62135735615E+03  0.16101354743E+04  0.12699999809E+01 0. -1.
       -4    1    3    3    0  502  0.14209196561E+04 -0.43293994898E+03  0.71829804914E+03  0.16499707176E+04  0.12699999809E+01 0.  1.
</event>
<event>
 5   0  0.5858859E-07  0.3346422E+04  0.7818609E-02  0.8151183E-01
       -1   -1    0    0    0  501  0.00000000000E+00  0.00000000000E+00  0.10878738011E+04  0.10878738011E+04  0.50400001928E-02 0. -1.
        1   -1    0    0  501    0  0.00000000000E+00  0.00000000000E+00 -0.25734922557E+04  0.25734922557E+04  0.50400001928E-02 0.  1.
    10030    2    1    2    0    0  0.00000000000E+00  0.00000000000E+00 -0.14856184546E+04  0.36613660569E+04  0.33464218518E+04 0.  0.
        3    1    3    3  502    0  0.13484372362E+04  0.78563716201E+03 -0.14030287249E+04  0.20985705476E+04  0.10100000352E+00 0.  1.
       -3    1    3    3    0  502 -0.13484372362E+04 -0.78563716201E+03 -0.82589729743E+02  0.15627955093E+04  0.10100000352E+00 0. -1.
</event>
<event>
 5   0  0.1743810E-06  0.3292323E+04  0.7818609E-02  0.8164852E-01
       -2   -1    0    0    0  501  0.00000000000E+00  0.00000000000E+00  0.15574661311E+04  0.15574661311E+04  0.25500000920E-02 0.  1.
        2   -1    0    0  501    0  0.00000000000E+00  0.00000000000E+00 -0.17399074682E+04  0.17399074682E+04  0.25500000920E-02 0. -1.
    10030    2    1    2    0    0  0.00000000000E+00  0.00000000000E+00 -0.18244133711E+03  0.32973735994E+04  0.32923225559E+04 0.  0.
        5    1    3    3  502    0  0.17917086096E+03  0.15392273417E+04  0.46506089888E+03  0.16179081360E+04  0.46999998093E+01 0.  1.
       -5    1    3    3    0  502 -0.17917086096E+03 -0.15392273417E+04 -0.64750223599E+03  0.16794654633E+04  0.46999998093E+01 0. -1.
</event>
<event>
 5   0  0.1743810E-06  0.3253314E+04  0.7818609E-02  0.8174877E-01
        2   -1    0    0  501    0  0.00000000000E+00  0.00000000000E+00  0.14962972303E+04  0.14962972303E+04  0.25500000920E-02 0. -1.
       -2   -1    0    0    0  501  0.00000000000E+00  0.00000000000E+00 -0.17683740715E+04  0.17683740715E+04  0.25500000920E-02 0.  1.
    10030    2    1    2    0    0  0.00000000000E+00  0.00000000000E+00 -0.27207684122E+03  0.32646713018E+04  0.32533141412E+04 0.  0.
        5    1    3    3  502    0  0.11075465280E+04  0.89513332523E+03 -0.92495601924E+03  0.16980838345E+04  0.46999998093E+01 0.  1.
       -5    1    3    3    0  502 -0.11075465280E+04 -0.89513332523E+03  0.65287917802E+03  0.15665874673E+04  0.46999998093E+01 0. -1.
</event>
<event>
 5   0  0.1784626E-06  0.3297413E+04  0.7818609E-02  0.8163554E-01
        2   -1    0    0  501    0  0.00000000000E+00  0.00000000000E+00  0.21341574682E+04  0.21341574682E+04  0.25500000920E-02 0. -1.
       -2   -1    0    0    0  501  0.00000000000E+00  0.00000000000E+00 -0.12736797553E+04  0.12736797553E+04  0.25500000920E-02 0.  1.
    10030    2    1    2    0    0  0.00000000000E+00  0.00000000000E+00  0.86047771284E+03  0.34078372235E+04  0.32974130235E+04 0.  0.
        2    1    3    3  502    0 -0.10134912512E+04 -0.51449626221E+03 -0.80406023804E+03  0.13922585200E+04  0.25500000920E-02 0.  1.
       -2    1    3    3    0  502  0.10134912512E+04  0.51449626221E+03  0.16645379509E+04  0.20155787035E+04  0.25500000920E-02 0. -1.
</event>
<event>
 5   0  0.1696681E-06  0.3329335E+04  0.7818609E-02  0.8155471E-01
        2   -1    0    0  501    0  0.00000000000E+00  0.00000000000E+00  0.16703881187E+04  0.16703881187E+04  0.25500000920E-02 0. -1.
       -2   -1    0    0    0  501  0.00000000000E+00  0.00000000000E+00 -0.16589667595E+04  0.16589667595E+04  0.25500000920E-02 0.  1.
    10030    2    1    2    0    0  0.00000000000E+00  0.00000000000E+00  0.11421359112E+02  0.33293548782E+04  0.33293352876E+04 0.  0.
        4    1    3    3  502    0 -0.51544176175E+03  0.17463945702E+03 -0.15674920181E+04  0.16592805638E+04  0.12699999809E+01 0.  1.
       -4    1    3    3    0  502  0.51544176175E+03 -0.17463945702E+03  0.15789133773E+04  0.16700743144E+04  0.12699999809E+01 0. -1.
</event>
<event>
 5   0  0.6085351E-07  0.3309720E+04  0.7818609E-02  0.8160426E-01
       -1   -1    0    0    0  501  0.00000000000E+00  0.00000000000E+00  0.22197702366E+04  0.22197702366E+04  0.50400001928E-02 0. -1.
        1   -1    0    0  501    0  0.00000000000E+00  0.00000000000E+00 -0.12337141373E+04  0.12337141373E+04  0.50400001928E-02 0.  1.
    10030    2    1    2    0    0  0.00000000000E+00  0.00000000000E+00  0.98605609932E+03  0.34534843739E+04  0.33097201830E+04 0.  0.
        1    1    3    3  502    0 -0.45210895809E+03  0.48152172922E+03 -0.10902121877E+04  0.12746875303E+04  0.50400001928E-02 0.  1.
       -1    1    3    3    0  502  0.45210895809E+03 -0.48152172922E+03  0.20762682871E+04  0.21787968436E+04  0.50400001928E-02 0. -1.
</event>
<event>
 5   0  0.6085351E-07  0.3214611E+04  0.7818609E-02  0.8184969E-01
        1   -1    0    0  501    0  0.00000000000E+00  0.00000000000E+00  0.18210230828E+04  0.18210230828E+04  0.50400001928E-02 0.  1.
       -1   -1    0    0    0  501  0.00000000000E+00  0.00000000000E+00 -0.14186702433E+04  0.14186702433E+04  0.50400001928E-02 0. -1.
    10030    2    1    2    0    0  0.00000000000E+00  0.00000000000E+00  0.40235283950E+03  0.32396933260E+04  0.32146111801E+04 0.  0.
        1    1    3    3  502    0  0.11742508942E+04  0.32592847215E+03  0.12573692225E+04  0.17510202435E+04  0.50400001928E-02 0.  1.
       -1    1    3    3    0  502 -0.11742508942E+04 -0.32592847215E+03 -0.85501638301E+03  0.14886730825E+04  0.50400001928E-02 0. -1.
</event>
<event>
 5   0  0.6023446E-07  0.3127934E+04  0.7818609E-02  0.8208113E-01
        1   -1    0    0  501    0  0.00000000000E+00  0.00000000000E+00  0.19030780594E+04  0.19030780594E+04  0.50400001928E-02 0.  1.
       -1   -1    0    0    0  501  0.00000000000E+00  0.00000000000E+00 -0.12852820163E+04  0.12852820163E+04  0.50400001928E-02 0. -1.
    10030    2    1    2    0    0  0.00000000000E+00  0.00000000000E+00  0.61779604311E+03  0.31883600758E+04  0.31279335066E+04 0.  0.
        5    1    3    3  502    0  0.14242492179E+04  0.57633807828E+03  0.11161948040E+02  0.15364888851E+04  0.46999998093E+01 0. -1.
       -5    1    3    3    0  502 -0.14242492179E+04 -0.57633807828E+03  0.60663409507E+03  0.16518711906E+04  0.46999998093E+01 0.  1.
</event>
<event>
 5   0  0.1728937E-06  0.3379127E+04  0.7818609E-02  0.8143048E-01
       -2   -1    0    0    0  501  0.00000000000E+00  0.00000000000E+00  0.15936945711E+04  0.15936945711E+04  0.25500000920E-02 0.  1.
        2   -1    0    0  501    0  0.00000000000E+00  0.00000000000E+00 -0.17911995812E+04  0.17911995812E+04  0.25500000920E-02 0. -1.
    10030    2    1    2    0    0  0.00000000000E+00  0.00000000000E+00 -0.19750501016E+03  0.33848941523E+04  0.33791271348E+04 0.  0.
        1    1    3    3  502    0  0.61195617537E+03 -0.30875596566E+03 -0.16456692718E+04  0.17827080409E+04  0.50400001928E-02 0. -1.
       -1    1    3    3    0  502 -0.61195617537E+03  0.30875596566E+03  0.14481642616E+04  0.16021861114E+04  0.50400001928E-02 0.  1.
</event>
<event>
 5   0  0.1696681E-06  0.3295471E+04  0.7818609E-02  0.8164049E-01
        2   -1    0    0  501    0  0.00000000000E+00  0.00000000000E+00  0.19285887279E+04  0.19285887279E+04  0.25500000920E-02 0. -1.
       -2   -1    0    0    0  501  0.00000000000E+00  0.00000000000E+00 -0.14077820868E+04  0.14077820868E+04  0.25500000920E-02 0.  1.
    10030    2    1    2    0    0  0.00000000000E+00  0.00000000000E+00  0.52080664101E+03  0.33363708147E+04  0.32954712343E+04 0.  0.
        4    1    3    3  502    0  0.45283254469E+03  0.45185932064E+03 -0.12769274260E+04  0.14282084663E+04  0.12699999809E+01 0.  1.
       -4    1    3    3    0  502 -0.45283254469E+03 -0.45185932064E+03  0.17977340670E+04  0.19081623484E+04  0.12699999809E+01 0. -1.
</event>
<event>
 5   0  0.5988516E-07  0.3332982E+04  0.7818609E-02  0.8154554E-01
        1   -1    0    0  501    0  0.00000000000E+00  0.00000000000E+00  0.14801231286E+04  0.14801231287E+04  0.50400001928E-02 0. -1.
       -1   -1    0    0    0  501  0.00000000000E+00  0.00000000000E+00 -0.18763248685E+04  0.18763248685E+04  0.50400001928E-02 0.  1.
    10030    2    1    2    0    0  0.00000000000E+00  0.00000000000E+00 -0.39620173982E+03  0.33564479971E+04  0.33329817489E+04 0.  0.
        4    1    3    3  502    0  0.12828546999E+04  0.18663652758E+03 -0.12526800583E+04  0.18027086054E+04  0.12699999809E+01 0.  1.
       -4    1    3    3    0  502 -0.12828546999E+04 -0.18663652758E+03  0.85647831848E+03  0.15537393917E+04  0.12699999809E+01 0. -1.
</event>
<event>
 5   0  0.6023446E-07  0.3290272E+04  0.7818609E-02  0.8165375E-01
       -1   -1    0    0    0  501  0.00000000000E+00  0.00000000000E+00  0.16418998826E+04  0.16418998826E+04  0.50400001928E-02 0. -1.
        1   -1    0    0  501    0  0.00000000000E+00  0.00000000000E+00 -0.16483780997E+04  0.16483780998E+04  0.50400001928E-02 0.  1.
    10030    2    1    2    0    0  0.00000000000E+00  0.00000000000E+00 -0.64782171822E+01  0.32902779823E+04  0.32902716048E+04 0.  0.
        5    1    3    3  502    0  0.31067528372E+03 -0.65967782347E+03  0.14714690613E+04  0.16422354432E+04  0.46999998093E+01 0. -1.
       -5    1    3    3    0  502 -0.31067528372E+03  0.65967782347E+03 -0.14779472785E+04  0.16480425391E+04  0.46999998093E+01 0.  1.
</event>
<event>
 5   0  0.1728937E-06  0.3325602E+04  0.7818609E-02  0.8156411E-01
       -2   -1    0    0    0  501  0.00000000000E+00  0.00000000000E+00  0.12279876023E+04  0.12279876023E+04  0.25500000920E-02 0.  1.
        2   -1    0    0  501    0  0.00000000000E+00  0.00000000000E+00 -0.22515763055E+04  0.22515763055E+04  0.25500000920E-02 0. -1.
    10030    2    1    2    0    0  0.00000000000E+00  0.00000000000E+00 -0.10235887032E+04  0.34795639078E+04  0.33256023748E+04 0.  0.
        1    1    3    3  502    0 -0.83776536537E+03  0.80045055680E+03 -0.17596248033E+04  0.21068581703E+04  0.50400001928E-02 0. -1.
       -1    1    3    3    0  502  0.83776536537E+03 -0.80045055680E+03  0.73603610002E+03  0.13727057375E+04  0.50400001928E-02 0.  1.
</event>
<event>
 5   0  0.5858859E-07  0.3126109E+04  0.7818609E-02  0.8208609E-01
       -1   -1    0    0    0  501  0.00000000000E+00  0.00000000000E+00  0.15147634092E+04  0.15147634092E+04  0.50400001928E-02 0. -1.
        1   -1    0    0  501    0  0.00000000000E+00  0.00000000000E+00 -0.16128847862E+04  0.16128847862E+04  0.50400001928E-02 0.  1.
    10030    2    1    2    0    0  0.00000000000E+00  0.00000000000E+00 -0.98121376954E+02  0.31276481954E+04  0.31261086721E+04 0.  0.
        3    1    3    3  502    0  0.73274682771E+03  0.52045386015E+03  0.12303766250E+04  0.15236852640E+04  0.10100000352E+00 0. -1.
       -3    1    3    3    0  502 -0.73274682771E+03 -0.52045386015E+03 -0.13284980020E+04  0.16039629315E+04  0.10100000352E+00 0.  1.
</event>
<event>
 5   0  0.1784626E-06  0.3296305E+04  0.7818609E-02  0.8163836E-01
       -2   -1    0    0    0  501  0.00000000000E+00  0.00000000000E+00  0.14217192048E+04  0.14217192048E+04  0.25500000920E-02 0.  1.
        2   -1    0    0  501    0  0.00000000000E+00  0.00000000000E+00 -0.19106493689E+04  0.19106493689E+04  0.25500000920E-02 0. -1.
    10030    2    1    2    0    0  0.00000000000E+00  0.00000000000E+00 -0.48893016416E+03  0.33323685737E+04  0.32963051445E+04 0.  0.
        2    1    3    3  502    0  0.73270564238E+03  0.14493465324E+04 -0.52850874788E+03  0.17078596037E+04  0.25500000920E-02 0. -1.
       -2    1    3    3    0  502 -0.73270564238E+03 -0.14493465324E+04  0.39578583716E+02  0.16245089700E+04  0.25500000920E-02 0.  1.
</event>
<event>
 5   0  0.1784626E-06  0.3113252E+04  0.7818609E-02  0.8212110E-01
       -2   -1    0    0    0  501  0.00000000000E+00  0.00000000000E+00  0.10093765376E+04  0.10093765376E+04  0.25500000920E-02 0.  1.
        2   -1    0    0  501    0  0.00000000000E+00  0.00000000000E+00 -0.24005753123E+04  0.24005753123E+04  0.25500000920E-02 0. -1.
    10030    2    1    2    0    0  0.00000000000E+00  0.00000000000E+00 -0.13911987747E+04  0.34099518498E+04  0.31132519312E+04 0.  0.
        2    1    3    3  502    0  0.14436540968E+04  0.52872725634E+03 -0.96253588075E+03  0.18138811936E+04  0.25500000920E-02 0. -1.
       -2    1    3    3    0  502 -0.14436540968E+04 -0.52872725634E+03 -0.42866289395E+03  0.15960706562E+04  0.25500000920E-02 0.  1.
</event>
<event>
 5   0  0.1696681E-06  0.3336341E+04  0.7818609E-02  0.8153709E-01
       -2   -1    0    0    0  501  0.00000000000E+00  0.00000000000E+00  0.20586212932E+04  0.20586212932E+04  0.25500000920E-02 0.  1.
        2   -1    0    0  501    0  0.00000000000E+00  0.00000000000E+00 -0.13517752859E+04  0.13517752859E+04  0.25500000920E-02 0. -1.
    10030    2    1    2    0    0  0.00000000000E+00  0.00000000000E+00  0.70684600723E+03  0.34103965791E+04  0.33363413418E+04 0.  0.
        4    1    3    3  502    0  0.23416324062E+02  0.14016524694E+04 -0.57086755085E+03  0.15136278746E+04  0.12699999809E+01 0. -1.
       -4    1    3    3    0  502 -0.23416324062E+02 -0.14016524694E+04  0.12777135581E+04  0.18967687045E+04  0.12699999809E+01 0.  1.
</event>
<event>
 5   0  0.1832626E-06  0.3309221E+04  0.7818609E-02  0.8160553E-01
        2   -1    0    0  501    0  0.00000000000E+00  0.00000000000E+00  0.19012511084E+04  0.19012511084E+04  0.25500000920E-02 0.  1.
       -2   -1    0    0    0  501  0.00000000000E+00  0.00000000000E+00 -0.14399650800E+04  0.14399650800E+04  0.25500000920E-02 0. -1.
    10030    2    1    2    0    0  0.00000000000E+00  0.00000000000E+00  0.46128602838E+03  0.33412161884E+04  0.33092205756E+04 0.  0.
        3    1    3    3  502    0 -0.28475496297E+03 -0.79217773091E+03 -0.12075959192E+04  0.14720458079E+04  0.10100000352E+00 0. -1.
       -3    1    3    3    0  502  0.28475496297E+03  0.79217773091E+03  0.16688819476E+04  0.18691703805E+04  0.10100000352E+00 0.  1.
</event>
<event>
 5   0  0.1728937E-06  0.3460948E+04  0.7818609E-02  0.8123108E-01
       -2   -1    0    0    0  501  0.00000000000E+00  0.00000000000E+00  0.14261019597E+04  0.14261019598E+04  0.25500000920E-02 0. -1.
        2   -1    0    0  501    0  0.00000000000E+00  0.00000000000E+00 -0.20998075691E+04  0.20998075691E+04  0.25500000920E-02 0.  1.
    10030    2    1    2    0    0  0.00000000000E+00  0.00000000000E+00 -0.67370560938E+03  0.35259095289E+04  0.34609476676E+04 0.  0.
        1    1    3    3  502    0  0.73109144611E+03 -0.10907852489E+04  0.81134773593E+03  0.15435648060E+04  0.50400001928E-02 0. -1.
       -1    1    3    3    0  502 -0.73109144611E+03  0.10907852489E+04 -0.14850533453E+04  0.19823447229E+04  0.50400001928E-02 0.  1.
</event>
<event>
 5   0  0.1743810E-06  0.3310931E+04  0.7818609E-02  0.8160119E-01
        2   -1    0    0  501    0  0.00000000000E+00  0.00000000000E+00  0.14043347000E+04  0.14043347000E+04  0.25500000920E-02 0.  1.
       -2   -1    0    0    0  501  0.00000000000E+00  0.00000000000E+00 -0.19515054369E+04  0.19515054369E+04  0.25500000920E-02 0. -1.
    10030    2    1    2    0    0  0.00000000000E+00  0.00000000000E+00 -0.54717073686E+03  0.33558401368E+04  0.33109314715E+04 0.  0.
        5    1    3    3  502    0 -0.79996849660E+03  0.89524098190E+03  0.88167222638E+03  0.14895549725E+04  0.46999998093E+01 0.  1.
       -5    1    3    3    0  502  0.79996849660E+03 -0.89524098190E+03 -0.14288429632E+04  0.18662851644E+04  0.46999998093E+01 0. -1.
</event>
<event>
 5   0  0.5988516E-07  0.3294765E+04  0.7818609E-02  0.8164229E-01
       -1   -1    0    0    0  501  0.00000000000E+00  0.00000000000E+00  0.18595193105E+04  0.18595193105E+04  0.50400001928E-02 0. -1.
        1   -1    0    0  501    0  0.00000000000E+00  0.00000000000E+00 -0.14594465344E+04  0.14594465344E+04  0.50400001928E-02 0.  1.
    10030    2    1    2    0    0  0.00000000000E+00  0.00000000000E+00  0.40007277601E+03  0.33189658449E+04  0.32947649466E+04 0.  0.
        4    1    3    3  502    0  0.13250237500E+04 -0.69226759223E+03 -0.49710551522E+03  0.15754484643E+04  0.12699999809E+01 0. -1.
       -4    1    3    3    0  502 -0.13250237500E+04  0.69226759223E+03  0.89717829123E+03  0.17435173806E+04  0.12699999809E+01 0.  1.
</event>
<event>
 5   0  0.6023446E-07  0.3304887E+04  0.7818609E-02  0.8161653E-01
       -1   -1    0    0    0  501  0.00000000000E+00  0.00000000000E+00  0.12135411245E+04  0.12135411245E+04  0.50400001928E-02 0. -1.
        1   -1    0    0  501    0  0.00000000000E+00  0.00000000000E+00 -0.22500834611E+04  0.22500834611E+04  0.50400001928E-02 0.  1.
    10030    2    1    2    0    0  0.00000000000E+00  0.00000000000E+00 -0.10365423366E+04  0.34636245856E+04  0.33048865721E+04 0.  0.
        5    1    3    3  502    0  0.10309268225E+02  0.80256325332E+03  0.99552023379E+03  0.12787871920E+04  0.46999998093E+01 0. -1.
       -5    1    3    3    0  502 -0.10309268225E+02 -0.80256325332E+03 -0.20320625704E+04  0.21848373936E+04  0.46999998093E+01 0.  1.
</event>
<event>
 5   0  0.1696681E-06  0.3271112E+04  0.7818609E-02  0.8170285E-01
       -2   -1    0    0    0  501  0.00000000000E+00  0.00000000000E+00  0.19096194256E+04  0.19096194256E+04  0.25500000920E-02 0. -1.
        2   -1    0    0  501    0  0.00000000000E+00  0.00000000000E+00 -0.14008254611E+04  0.14008254611E+04  0.25500000920E-02 0.  1.
    10030    2    1    2    0    0  0.00000000000E+00  0.00000000000E+00  0.50879396446E+03  0.33104448867E+04  0.32711120509E+04 0.  0.
        4    1    3    3  502    0  0.24511169631E+03  0.26268742270E+03  0.18691887013E+04  0.19034054848E+04  0.12699999809E+01 0. -1.
       -4    1    3    3    0  502 -0.24511169631E+03 -0.26268742270E+03 -0.13603947368E+04  0.14070394019E+04  0.12699999809E+01 0.  1.
</event>
<event>
 5   0  0.1784626E-06  0.3301355E+04  0.7818609E-02  0.8162551E-01
        2   -1    0    0  501    0  0.00000000000E+00  0.00000000000E+00  0.34312424586E+04  0.34312424586E+04  0.25500000920E-02 0. -1.
       -2   -1    0    0    0  501  0.00000000000E+00  0.00000000000E+00 -0.79409628599E+03  0.79409628600E+03  0.25500000920E-02 0.  1.
    10030    2    1    2    0    0  0.00000000000E+00  0.00000000000E+00  0.26371461726E+04  0.42253387446E+04  0.33013554142E+04 0.  0.
        2    1    3    3  502    0 -0.10853170497E+04 -0.41267486999E+03  0.28201964791E+04  0.30498724281E+04  0.25500000920E-02 0. -1.
       -2    1    3    3    0  502  0.10853170497E+04  0.41267486999E+03 -0.18305030649E+03  0.11754663166E+04  0.25500000920E-02 0.  1.
</event>
<event>
 5   0  0.6023446E-07  0.3001488E+04  0.7818609E-02  0.8243306E-01
       -1   -1    0    0    0  501  0.00000000000E+00  0.00000000000E+00  0.14421265736E+04  0.14421265736E+04  0.50400001928E-02 0.  1.
        1   -1    0    0  501    0  0.00000000000E+00  0.00000000000E+00 -0.15617440827E+04  0.15617440827E+04  0.50400001928E-02 0. -1.
    10030    2    1    2    0    0  0.00000000000E+00  0.00000000000E+00 -0.11961750909E+03  0.30038706564E+04  0.30014880596E+04 0.  0.
        5    1    3    3  502    0 -0.10211019216E+04 -0.10622033211E+04 -0.34514123459E+03  0.15132975886E+04  0.46999998093E+01 0. -1.
       -5    1    3    3    0  502  0.10211019216E+04  0.10622033211E+04  0.22552372550E+03  0.14905730678E+04  0.46999998093E+01 0.  1.
</event>
<event>
 5   0  0.5988516E-07  0.3388191E+04  0.7818609E-02  0.8140811E-01
       -1   -1    0    0    0  501  0.00000000000E+00  0.00000000000E+00  0.13152074807E+04  0.13152074807E+04  0.50400001928E-02 0. -1.
        1   -1    0    0  501    0  0.00000000000E+00  0.00000000000E+00 -0.21821343111E+04  0.21821343111E+04  0.50400001928E-02 0.  1.
    10030    2    1    2    0    0  0.00000000000E+00  0.00000000000E+00 -0.86692683043E+03  0.34973417918E+04  0.33881908859E+04 0.  0.
        4    1    3    3  502    0 -0.49029915717E+03 -0.16134548274E+04 -0.60094970188E+03  0.17901876719E+04  0.12699999809E+01 0. -1.
       -4    1    3    3    0  502  0.49029915717E+03  0.16134548274E+04 -0.26597712854E+03  0.17071541200E+04  0.12699999809E+01 0.  1.
</event>
<event>
 5   0  0.1743810E-06  0.3320497E+04  0.7818609E-02  0.8157699E-01
       -2   -1    0    0    0  501  0.00000000000E+00  0.00000000000E+00  0.20890076462E+04  0.20890076462E+04  0.25500000920E-02 0.  1.
        2   -1    0    0  501    0  0.00000000000E+00  0.00000000000E+00 -0.13194902919E+04  0.13194902919E+04  0.25500000920E-02 0. -1.
    10030    2    1    2    0    0  0.00000000000E+00  0.00000000000E+00  0.76951735431E+03  0.34084979380E+04  0.33204971367E+04 0.  0.
        5    1    3    3  502    0 -0.18835710091E+03 -0.13255658482E+03 -0.13030038923E+04  0.13232123333E+04  0.46999998093E+01 0. -1.
       -5    1    3    3    0  502  0.18835710091E+03  0.13255658482E+03  0.20725212466E+04  0.20852856047E+04  0.46999998093E+01 0.  1.
</event>
<event>
 5   0  0.5985183E-07  0.3283664E+04  0.7818609E-02  0.8167065E-01
        1   -1    0    0  501    0  0.00000000000E+00  0.00000000000E+00  0.21796397823E+04  0.21796397824E+04  0.50400001928E-02 0. -1.
       -1   -1    0    0    0  501  0.00000000000E+00  0.00000000000E+00 -0.12367235791E+04  0.12367235791E+04  0.50400001928E-02 0.  1.
    10030    2    1    2    0    0  0.00000000000E+00  0.00000000000E+00  0.94291620323E+03  0.34163633615E+04  0.32836637543E+04 0.  0.
        2    1    3    3  502    0  0.11694536403E+02  0.58391767192E+03  0.20679110939E+04  0.21488026671E+04  0.25500000920E-02 0. -1.
       -2    1    3    3    0  502 -0.11694536403E+02 -0.58391767192E+03 -0.11249948907E+04  0.12675606944E+04  0.25500000920E-02 0.  1.
</event>
<event>
 5   0  0.5858859E-07  0.3379214E+04  0.7818609E-02  0.8143027E-01
       -1   -1    0    0    0  501  0.00000000000E+00  0.00000000000E+00  0.24223151490E+04  0.24223151490E+04  0.50400001928E-02 0. -1.
        1   -1    0    0  501    0  0.00000000000E+00  0.00000000000E+00 -0.11785305594E+04  0.11785305594E+04  0.50400001928E-02 0.  1.
    10030    2    1    2    0    0  0.00000000000E+00  0.00000000000E+00  0.12437845896E+04  0.36008457084E+04  0.33792143629E+04 0.  0.
        3    1    3    3  502    0 -0.11443326399E+04 -0.12405084420E+04  0.70723262724E+03  0.18299006489E+04  0.10100000352E+00 0.  1.
       -3    1    3    3    0  502  0.11443326399E+04  0.12405084420E+04  0.53655196238E+03  0.17709450596E+04  0.10100000352E+00 0. -1.
</event>
<event>
 5   0  0.6085351E-07  0.3184094E+04  0.7818609E-02  0.8193031E-01
       -1   -1    0    0    0  501  0.00000000000E+00  0.00000000000E+00  0.12072254660E+04  0.12072254660E+04  0.50400001928E-02 0.  1.
        1   -1    0    0  501    0  0.00000000000E+00  0.00000000000E+00 -0.20995360282E+04  0.20995360282E+04  0.50400001928E-02 0. -1.
    10030    2    1    2    0    0  0.00000000000E+00  0.00000000000E+00 -0.89231056222E+03  0.33067614943E+04  0.31840938178E+04 0.  0.
        1    1    3    3  502    0 -0.98953659948E+03 -0.10609576624E+04 -0.11270029860E+04  0.18371035827E+04  0.50400001928E-02 0.  1.
       -1    1    3    3    0  502  0.98953659948E+03  0.10609576624E+04  0.23469242378E+03  0.14696579115E+04  0.50400001928E-02 0. -1.
</event>
<event>
 5   0  0.1728937E-06  0.3280148E+04  0.7818609E-02  0.8167965E-01
       -2   -1    0    0    0  501  0.00000000000E+00  0.00000000000E+00  0.10054296822E+04  0.10054296822E+04  0.25500000920E-02 0.  1.
        2   -1    0    0  501    0  0.00000000000E+00  0.00000000000E+00 -0.26753169489E+04  0.26753169489E+04  0.25500000920E-02 0. -1.
    10030    2    1    2    0    0  0.00000000000E+00  0.00000000000E+00 -0.16698872667E+04  0.36807466311E+04  0.32801482099E+04 0.  0.
        1    1    3    3  502    0  0.22270317999E+03  0.77048340119E+03 -0.24402544071E+04  0.25686733831E+04  0.50400001928E-02 0. -1.
       -1    1    3    3    0  502 -0.22270317999E+03 -0.77048340119E+03  0.77036714035E+03  0.11120732480E+04  0.50400001928E-02 0.  1.
</event>
<event>
 5   0  0.1832626E-06  0.3281052E+04  0.7818609E-02  0.8167733E-01
        2   -1    0    0  501    0  0.00000000000E+00  0.00000000000E+00  0.18334180950E+04  0.18334180950E+04  0.25500000920E-02 0. -1.
       -2   -1    0    0    0  501  0.00000000000E+00  0.00000000000E+00 -0.14679281376E+04  0.14679281376E+04  0.25500000920E-02 0.  1.
    10030    2    1    2    0    0  0.00000000000E+00  0.00000000000E+00  0.36548995738E+03  0.33013462327E+04  0.32810522762E+04 0.  0.
        3    1    3    3  502    0 -0.25744257518E+03  0.10628374284E+04  0.14131847945E+04  0.17868943316E+04  0.10100000352E+00 0.  1.
       -3    1    3    3    0  502  0.25744257518E+03 -0.10628374284E+04 -0.10476948371E+04  0.15144519011E+04  0.10100000352E+00 0. -1.
</event>
<event>
 5   0  0.1743810E-06  0.3309802E+04  0.7818609E-02  0.8160406E-01
        2   -1    0    0  501    0  0.00000000000E+00  0.00000000000E+00  0.10943391447E+04  0.10943391447E+04  0.25500000920E-02 0. -1.
       -2   -1    0    0    0  501  0.00000000000E+00  0.00000000000E+00 -0.25026035901E+04  0.25026035901E+04  0.25500000920E-02 0.  1.
    10030    2    1    2    0    0  0.00000000000E+00  0.00000000000E+00 -0.14082644454E+04  0.35969427348E+04  0.33098018504E+04 0.  0.
        5    1    3    3  502    0  0.13739255465E+04 -0.41941988035E+03 -0.15970522011E+04  0.21480647724E+04  0.46999998093E+01 0.  1.
       -5    1    3    3    0  502 -0.13739255465E+04  0.41941988035E+03  0.18878775568E+03  0.14488779624E+04  0.46999998093E+01 0. -1.
</event>
<event>
 5   0  0.1696681E-06  0.3371683E+04  0.7818609E-02  0.8144891E-01
        2   -1    0    0  501    0  0.00000000000E+00  0.00000000000E+00  0.25534284048E+04  0.25534284048E+04  0.25500000920E-02 0.  1.
       -2   -1    0    0    0  501  0.00000000000E+00  0.00000000000E+00 -0.11130373594E+04  0.11130373594E+04  0.25500000920E-02 0. -1.
    10030    2    1    2    0    0  0.00000000000E+00  0.00000000000E+00  0.14403910455E+04  0.36664657642E+04  0.33716827900E+04 0.  0.
        4    1    3    3  502    0 -0.40898477667E+03  0.16064534868E+04  0.10537691314E+04  0.19642790911E+04  0.12699999809E+01 0.  1.
       -4    1    3    3    0  502  0.40898477667E+03 -0.16064534868E+04  0.38662191404E+03  0.17021866731E+04  0.12699999809E+01 0. -1.
</event>
<event>
 5   0  0.1728937E-06  0.3327435E+04  0.7818609E-02  0.8155949E-01
        2   -1    0    0  501    0  0.00000000000E+00  0.00000000000E+00  0.23672651522E+04  0.23672651522E+04  0.25500000920E-02 0. -1.
       -2   -1    0    0    0  501  0.00000000000E+00  0.00000000000E+00 -0.11692630189E+04  0.11692630189E+04  0.25500000920E-02 0.  1.
    10030    2    1    2    0    0  0.00000000000E+00  0.00000000000E+00  0.11980021332E+04  0.35365281711E+04  0.33274348068E+04 0.  0.
        1    1    3    3  502    0  0.44118382076E+03 -0.58800753332E+02 -0.11048117018E+04  0.11910959612E+04  0.50400001928E-02 0.  1.
       -1    1    3    3    0  502 -0.44118382076E+03  0.58800753332E+02  0.23028138350E+04  0.23454322099E+04  0.50400001928E-02 0. -1.
</event>
<event>
 5   0  0.5985183E-07  0.3327208E+04  0.7818609E-02  0.8156007E-01
        1   -1    0    0  501    0  0.00000000000E+00  0.00000000000E+00  0.23548669720E+04  0.23548669720E+04  0.50400001928E-02 0. -1.
       -1   -1    0    0    0  501  0.00000000000E+00  0.00000000000E+00 -0.11752590005E+04  0.11752590005E+04  0.50400001928E-02 0.  1.
    10030    2    1    2    0    0  0.00000000000E+00  0.00000000000E+00  0.11796079715E+04  0.35301259725E+04  0.33272082013E+04 0.  0.
        2    1    3    3  502    0  0.17799371475E+03  0.32490132670E+03  0.23105462964E+04  0.23400570126E+04  0.25500000920E-02 0. -1.
       -2    1    3    3    0  502 -0.17799371475E+03 -0.32490132670E+03 -0.11309383249E+04  0.11900689599E+04  0.25500000920E-02 0.  1.
</event>
<event>
 5   0  0.5858859E-07  0.3330331E+04  0.7818609E-02  0.8155220E-01
        1   -1    0    0  501    0  0.00000000000E+00  0.00000000000E+00  0.17355865931E+04  0.17355865931E+04  0.50400001928E-02 0.  1.
       -1   -1    0    0    0  501  0.00000000000E+00  0.00000000000E+00 -0.15976021866E+04  0.15976021866E+04  0.50400001928E-02 0. -1.
    10030    2    1    2    0    0  0.00000000000E+00  0.00000000000E+00  0.13798440652E+03  0.33331887796E+04  0.33303314766E+04 0.  0.
        3    1    3    3  502    0 -0.14194153519E+04 -0.29254275872E+03 -0.75174533036E+03  0.16326182220E+04  0.10100000352E+00 0. -1.
       -3    1    3    3    0  502  0.14194153519E+04  0.29254275872E+03  0.88972973688E+03  0.17005705577E+04  0.10100000352E+00 0.  1.
</event>
<event>
 5   0  0.1832626E-06  0.3285434E+04  0.7818609E-02  0.8166612E-01
       -2   -1    0    0    0  501  0.00000000000E+00  0.00000000000E+00  0.13173846961E+04  0.13173846961E+04  0.25500000920E-02 0.  1.
        2   -1    0    0  501    0  0.00000000000E+00  0.00000000000E+00 -0.20483910324E+04  0.20483910324E+04  0.25500000920E-02 0. -1.
    10030    2    1    2    0    0  0.00000000000E+00  0.00000000000E+00 -0.73100633624E+03  0.33657757285E+04  0.32854339121E+04 0.  0.
        3    1    3    3  502    0  0.15440262467E+04  0.30780606145E+03 -0.84574961325E+03  0.17871916630E+04  0.10100000352E+00 0. -1.
       -3    1    3    3    0  502 -0.15440262467E+04 -0.30780606145E+03  0.11474327702E+03  0.15785840655E+04  0.10100000352E+00 0.  1.
</event>
<event>
 5   0  0.1832626E-06  0.3225496E+04  0.7818609E-02  0.8182116E-01
        2   -1    0    0  501    0  0.00000000000E+00  0.00000000000E+00  0.13169473819E+04  0.13169473819E+04  0.25500000920E-02 0.  1.
       -2   -1    0    0    0  501  0.00000000000E+00  0.00000000000E+00 -0.19749884495E+04  0.19749884495E+04  0.25500000920E-02 0. -1.
    10030    2    1    2    0    0  0.00000000000E+00  0.00000000000E+00 -0.65804106760E+03  0.32919358314E+04  0.32254958489E+04 0.  0.
        3    1    3    3  502    0  0.27967910000E+03  0.13742684582E+04 -0.11417409484E+04  0.18084265530E+04  0.10100000352E+00 0. -1.
       -3    1    3    3    0  502 -0.27967910000E+03 -0.13742684582E+04  0.48369988083E+03  0.14835092784E+04  0.10100000352E+00 0.  1.
</event>
<event>
 5   0  0.5988516E-07  0.3296214E+04  0.7818609E-02  0.8163859E-01
       -1   -1    0    0    0  501  0.00000000000E+00  0.00000000000E+00  0.20820655030E+04  0.20820655030E+04  0.50400001928E-02 0. -1.
        1   -1    0    0  501    0  0.00000000000E+00  0.00000000000E+00 -0.13045969968E+04  0.13045969968E+04  0.50400001928E-02 0.  1.
    10030    2    1    2    0    0  0.00000000000E+00  0.00000000000E+00  0.77746850629E+03  0.33866624998E+04  0.32962138294E+04 0.  0.
        4    1    3    3  502    0  0.12409656613E+03  0.11943561597E+04 -0.77112156088E+03  0.14270657548E+04  0.12699999809E+01 0.  1.
       -4    1    3    3    0  502 -0.12409656613E+03 -0.11943561597E+04  0.15485900672E+04  0.19595967450E+04  0.12699999809E+01 0. -1.
</event>
<event>
 5   0  0.6085351E-07  0.2651450E+04  0.7818609E-02  0.8350932E-01
       -1   -1    0    0    0  501  0.00000000000E+00  0.00000000000E+00  0.10595388616E+04  0.10595388616E+04  0.50400001928E-02 0.  1.
        1   -1    0    0  501    0  0.00000000000E+00  0.00000000000E+00 -0.16587852221E+04  0.16587852221E+04  0.50400001928E-02 0. -1.
    10030    2    1    2    0    0  0.00000000000E+00  0.00000000000E+00 -0.59924636053E+03  0.27183240837E+04  0.26514504754E+04 0.  0.
        1    1    3    3  502    0  0.10043329936E+04 -0.67532180085E+03 -0.85438371121E+03  0.14814573307E+04  0.50400001928E-02 0. -1.
       -1    1    3    3    0  502 -0.10043329936E+04  0.67532180085E+03  0.25513735068E+03  0.12368667529E+04  0.50400001928E-02 0.  1.
</event>
<event>
 5   0  0.1743810E-06  0.3283598E+04  0.7818609E-02  0.8167082E-01
       -2   -1    0    0    0  501  0.00000000000E+00  0.00000000000E+00  0.13148692976E+04  0.13148692976E+04  0.25500000920E-02 0.  1.
        2   -1    0    0  501    0  0.00000000000E+00  0.00000000000E+00 -0.20500161933E+04  0.20500161934E+04  0.25500000920E-02 0. -1.
    10030    2    1    2    0    0  0.00000000000E+00  0.00000000000E+00 -0.73514689575E+03  0.33648854910E+04  0.32835976320E+04 0.  0.
        5    1    3    3  502    0  0.34846427303E+03  0.79230033740E+03 -0.17972138692E+04  0.19947849398E+04  0.46999998093E+01 0. -1.
       -5    1    3    3    0  502 -0.34846427303E+03 -0.79230033740E+03  0.10620669735E+04  0.13701005512E+04  0.46999998093E+01 0.  1.
</event>
<event>
 5   0  0.5988516E-07  0.3243341E+04  0.7818609E-02  0.8177464E-01
        1   -1    0    0  501    0  0.00000000000E+00  0.00000000000E+00  0.17266621191E+04  0.17266621191E+04  0.50400001928E-02 0.  1.
       -1   -1    0    0    0  501  0.00000000000E+00  0.00000000000E+00 -0.15230625805E+04  0.15230625805E+04  0.50400001928E-02 0. -1.
    10030    2    1    2    0    0  0.00000000000E+00  0.00000000000E+00  0.20359953862E+03  0.32497246997E+04  0.32433405389E+04 0.  0.
        4    1    3    3  502    0 -0.61301676306E+03 -0.27797574019E+03  0.15800861486E+04  0.17174789413E+04  0.12699999809E+01 0.  1.
       -4    1    3    3    0  502  0.61301676306E+03  0.27797574019E+03 -0.13764866099E+04  0.15322457584E+04  0.12699999809E+01 0. -1.
</event>
<event>
 5   0  0.6085351E-07  0.3336323E+04  0.7818609E-02  0.8153714E-01
        1   -1    0    0  501    0  0.00000000000E+00  0.00000000000E+00  0.17539231808E+04  0.17539231808E+04  0.50400001928E-02 0.  1.
       -1   -1    0    0    0  501  0.00000000000E+00  0.00000000000E+00 -0.15865932882E+04  0.15865932882E+04  0.50400001928E-02 0. -1.
    10030    2    1    2    0    0  0.00000000000E+00  0.00000000000E+00  0.16732989254E+03  0.33405164690E+04  0.33363229740E+04 0.  0.
        1    1    3    3  502    0 -0.16647815270E+03  0.17288164325E+03 -0.15692157621E+04  0.15874637463E+04  0.50400001928E-02 0. -1.
       -1    1    3    3    0  502  0.16647815270E+03 -0.17288164325E+03  0.17365456546E+04  0.17530527227E+04  0.50400001928E-02 0.  1.
</event>
<event>
 5   0  0.1696681E-06  0.3290631E+04  0.7818609E-02  0.8165283E-01
        2   -1    0    0  501    0  0.00000000000E+00  0.00000000000E+00  0.11880374090E+04  0.11880374090E+04  0.25500000920E-02 0. -1.
       -2   -1    0    0    0  501  0.00000000000E+00  0.00000000000E+00 -0.22786014865E+04  0.22786014865E+04  0.25500000920E-02 0.  1.
    10030    2    1    2    0    0  0.00000000000E+00  0.00000000000E+00 -0.10905640775E+04  0.34666388955E+04  0.32906314325E+04 0.  0.
        4    1    3    3  502    0  0.15785314873E+04 -0.43193895542E+03 -0.36671894496E+03  0.16771455855E+04  0.12699999809E+01 0. -1.
       -4    1    3    3    0  502 -0.15785314873E+04  0.43193895542E+03 -0.72384513254E+03  0.17894933100E+04  0.12699999809E+01 0.  1.
</event>
<event>
 5   0  0.5858859E-07  0.2674467E+04  0.7818609E-02  0.8343337E-01
       -1   -1    0    0    0  501  0.00000000000E+00  0.00000000000E+00  0.14816227627E+04  0.14816227627E+04  0.50400001928E-02 0.  1.
        1   -1    0    0  501    0  0.00000000000E+00  0.00000000000E+00 -0.12069156949E+04  0.12069156949E+04  0.50400001928E-02 0. -1.
    10030    2    1    2    0    0  0.00000000000E+00  0.00000000000E+00  0.27470706775E+03  0.26885384576E+04  0.26744672488E+04 0.  0.
        3    1    3    3  502    0  0.58108849084E+03  0.38516200909E+02 -0.10727432841E+04  0.12206250430E+04  0.10100000352E+00 0. -1.
       -3    1    3    3    0  502 -0.58108849084E+03 -0.38516200909E+02  0.13474503518E+04  0.14679134146E+04  0.10100000352E+00 0.  1.
</event>
<event>
 5   0  0.5858859E-07  0.3267262E+04  0.7818609E-02  0.8171276E-01
        1   -1    0    0  501    0  0.00000000000E+00  0.00000000000E+00  0.21238926223E+04  0.21238926223E+04  0.50400001928E-02 0.  1.
       -1   -1    0    0    0  501  0.00000000000E+00  0.00000000000E+00 -0.12565368988E+04  0.12565368988E+04  0.50400001928E-02 0. -1.
    10030    2    1    2    0    0  0.00000000000E+00  0.00000000000E+00  0.86735572352E+03  0.33804295212E+04  0.32672615133E+04 0.  0.
        3    1    3    3  502    0 -0.14768097089E+03  0.20435272473E+03 -0.12362850816E+04  0.12617331407E+04  0.10100000352E+00 0. -1.
       -3    1    3    3    0  502  0.14768097089E+03 -0.20435272473E+03  0.21036408051E+04  0.21186963804E+04  0.10100000352E+00 0.  1.
</event>
<event>
 5   0  0.6085351E-07  0.3400742E+04  0.7818609E-02  0.8137724E-01
        1   -1    0    0  501    0  0.00000000000E+00  0.00000000000E+00  0.13436836826E+04  0.13436836826E+04  0.50400001928E-02 0.  1.
       -1   -1    0    0    0  501  0.00000000000E+00  0.00000000000E+00 -0.21517430964E+04  0.21517430964E+04  0.50400001928E-02 0. -1.
    10030    2    1    2    0    0  0.00000000000E+00  0.00000000000E+00 -0.80805941375E+03  0.34954267790E+04  0.34007423236E+04 0.  0.
        1    1    3    3  502    0 -0.16586656841E+04 -0.14309389708E+03 -0.48547255241E+02  0.16655343139E+04  0.50400001928E-02 0. -1.
       -1    1    3    3    0  502  0.16586656841E+04  0.14309389708E+03 -0.75951215851E+03  0.18298924651E+04  0.50400001928E-02 0.  1.
</event>
<event>
 5   0  0.6023446E-07  0.3301089E+04  0.7818609E-02  0.8162618E-01
       -1   -1    0    0    0  501  0.00000000000E+00  0.00000000000E+00  0.14002850854E+04  0.14002850854E+04  0.50400001928E-02 0.  1.
        1   -1    0    0  501    0  0.00000000000E+00  0.00000000000E+00 -0.19455305647E+04  0.19455305647E+04  0.50400001928E-02 0. -1.
    10030    2    1    2    0    0  0.00000000000E+00  0.00000000000E+00 -0.54524547935E+03  0.33458156501E+04  0.33010891735E+04 0.  0.
        5    1    3    3  502    0 -0.63561923034E+03 -0.82799315994E+03  0.10232506436E+04  0.14617278982E+04  0.46999998093E+01 0.  1.
       -5    1    3    3    0  502  0.63561923034E+03  0.82799315994E+03 -0.15684961229E+04  0.18840877518E+04  0.46999998093E+01 0. -1.
</event>
<event>
 5   0  0.6023446E-07  0.3314370E+04  0.7818609E-02  0.8159248E-01
        1   -1    0    0  501    0  0.00000000000E+00  0.00000000000E+00  0.15935601530E+04  0.15935601530E+04  0.50400001928E-02 0. -1.
       -1   -1    0    0    0  501  0.00000000000E+00  0.00000000000E+00 -0.17233504052E+04  0.17233504052E+04  0.50400001928E-02 0.  1.
    10030    2    1    2    0    0  0.00000000000E+00  0.00000000000E+00 -0.12979025221E+03  0.33169105582E+04  0.33143702481E+04 0.  0.
        5    1    3    3  502    0 -0.68389866512E+03 -0.99752834148E+03  0.10688722433E+04  0.16140911185E+04  0.46999998093E+01 0. -1.
       -5    1    3    3    0  502  0.68389866512E+03  0.99752834148E+03 -0.11986624955E+04  0.17028194397E+04  0.46999998093E+01 0.  1.
</event>
<event>
 5   0  0.5985183E-07  0.3320274E+04  0.7818609E-02  0.8157756E-01
       -1   -1    0    0    0  501  0.00000000000E+00  0.00000000000E+00  0.13183635328E+04  0.13183635328E+04  0.50400001928E-02 0.  1.
        1   -1    0    0  501    0  0.00000000000E+00  0.00000000000E+00 -0.20905122498E+04  0.20905122498E+04  0.50400001928E-02 0. -1.
    10030    2    1    2    0    0  0.00000000000E+00  0.00000000000E+00 -0.77214871706E+03  0.34088757826E+04  0.33202741544E+04 0.  0.
        2    1    3    3  502    0 -0.10300786770E+04 -0.10585289645E+04 -0.11642646809E+04  0.18807067545E+04  0.25500000920E-02 0. -1.
       -2    1    3    3    0  502  0.10300786770E+04  0.10585289645E+04  0.39211596384E+03  0.15281690281E+04  0.25500000920E-02 0.  1.
</event>
<event>
 5   0  0.5985183E-07  0.3321428E+04  0.7818609E-02  0.8157464E-01
       -1   -1    0    0    0  501  0.00000000000E+00  0.00000000000E+00  0.95431271131E+03  0.95431271132E+03  0.50400001928E-02 0. -1.
        1   -1    0    0  501    0  0.00000000000E+00  0.00000000000E+00 -0.28900073127E+04  0.28900073127E+04  0.50400001928E-02 0.  1.
    10030    2    1    2    0    0  0.00000000000E+00  0.00000000000E+00 -0.19356946013E+04  0.38443200240E+04  0.33214278341E+04 0.  0.
        2    1    3    3  502    0 -0.15709408798E+04  0.10434488941E+03 -0.15794563362E+04  0.22301178045E+04  0.25500000920E-02 0.  1.
       -2    1    3    3    0  502  0.15709408798E+04 -0.10434488941E+03 -0.35623826516E+03  0.16142022195E+04  0.25500000920E-02 0. -1.
</event>
<event>
 5   0  0.5985183E-07  0.3312046E+04  0.7818609E-02  0.8159837E-01
       -1   -1    0    0    0  501  0.00000000000E+00  0.00000000000E+00  0.17077382947E+04  0.17077382947E+04  0.50400001928E-02 0. -1.
        1   -1    0    0  501    0  0.00000000000E+00  0.00000000000E+00 -0.16058740144E+04  0.16058740144E+04  0.50400001928E-02 0.  1.
    10030    2    1    2    0    0  0.00000000000E+00  0.00000000000E+00  0.10186428030E+03  0.33136123091E+04  0.33120462260E+04 0.  0.
        2    1    3    3  502    0 -0.28302280745E+02  0.56684810393E+03  0.16073974132E+04  0.17046536998E+04  0.25500000920E-02 0. -1.
       -2    1    3    3    0  502  0.28302280745E+02 -0.56684810393E+03 -0.15055331329E+04  0.16089586093E+04  0.25500000920E-02 0.  1.
</event>
<event>
 5   0  0.1743810E-06  0.3339518E+04  0.7818609E-02  0.8152912E-01
       -2   -1    0    0    0  501  0.00000000000E+00  0.00000000000E+00  0.13230156518E+04  0.13230156518E+04  0.25500000920E-02 0. -1.
        2   -1    0    0  501    0  0.00000000000E+00  0.00000000000E+00 -0.21073783633E+04  0.21073783633E+04  0.25500000920E-02 0.  1.
    10030    2    1    2    0    0  0.00000000000E+00  0.00000000000E+00 -0.78436271150E+03  0.34303940151E+04  0.33395176651E+04 0.  0.
        5    1    3    3  502    0 -0.13553491852E+04  0.60562125572E+03 -0.11773936746E+04  0.18947365184E+04  0.46999998093E+01 0.  1.
       -5    1    3    3    0  502  0.13553491852E+04 -0.60562125572E+03  0.39303096312E+03  0.15356574967E+04  0.46999998093E+01 0. -1.
</event>
<event>
 5   0  0.6085351E-07  0.3309686E+04  0.7818609E-02  0.8160435E-01
        1   -1    0    0  501    0  0.00000000000E+00  0.00000000000E+00  0.20249111886E+04  0.20249111886E+04  0.50400001928E-02 0.  1.
       -1   -1    0    0    0  501  0.00000000000E+00  0.00000000000E+00 -0.13524075422E+04  0.13524075422E+04  0.50400001928E-02 0. -1.
    10030    2    1    2    0    0  0.00000000000E+00  0.00000000000E+00  0.67250364639E+03  0.33773187308E+04  0.33096858846E+04 0.  0.
        1    1    3    3  502    0  0.14251723849E+04 -0.74286178757E+03  0.73870335073E+03  0.17687969365E+04  0.50400001928E-02 0.  1.
       -1    1    3    3    0  502 -0.14251723849E+04  0.74286178757E+03 -0.66199704349E+02  0.16085217943E+04  0.50400001928E-02 0. -1.
</event>
<event>
 5   0  0.5685000E-07  0.3283528E+04  0.7818609E-02  0.8167099E-01
       -3   -1    0    0    0  501  0.00000000000E+00  0.00000000000E+00  0.19590658595E+04  0.19590658621E+04  0.10100000352E+00 0.  1.
        3   -1    0    0  501    0  0.00000000000E+00  0.00000000000E+00 -0.13758543362E+04  0.13758543399E+04  0.10100000352E+00 0. -1.
    10030    2    1    2    0    0  0.00000000000E+00  0.00000000000E+00  0.58321152327E+03  0.33349202020E+04  0.32835281441E+04 0.  0.
        5    1    3    3  502    0  0.13731780653E+04 -0.61927394067E+03 -0.37149018412E+03  0.15514977472E+04  0.46999998093E+01 0. -1.
       -5    1    3    3    0  502 -0.13731780653E+04  0.61927394067E+03  0.95470170738E+03  0.17834224549E+04  0.46999998093E+01 0.  1.
</event>
<event>
 5   0  0.1832626E-06  0.3401665E+04  0.7818609E-02  0.8137498E-01
        2   -1    0    0  501    0  0.00000000000E+00  0.00000000000E+00  0.10804528775E+04  0.10804528775E+04  0.25500000920E-02 0.  1.
       -2   -1    0    0    0  501  0.00000000000E+00  0.00000000000E+00 -0.26774241452E+04  0.26774241452E+04  0.25500000920E-02 0. -1.
    10030    2    1    2    0    0  0.00000000000E+00  0.00000000000E+00 -0.15969712677E+04  0.37578770227E+04  0.34016646642E+04 0.  0.
        3    1    3    3  502    0 -0.10607665059E+04 -0.36431061744E+02 -0.22666699193E+04  0.25028674226E+04  0.10100000352E+00 0. -1.
       -3    1    3    3    0  502  0.10607665059E+04  0.36431061744E+02  0.66969865150E+03  0.12550096001E+04  0.10100000352E+00 0.  1.
</event>
<event>
 5   0  0.5988516E-07  0.3225084E+04  0.7818609E-02  0.8182224E-01
       -1   -1    0    0    0  501  0.00000000000E+00  0.00000000000E+00  0.16654828257E+04  0.16654828257E+04  0.50400001928E-02 0.  1.
        1   -1    0    0  501    0  0.00000000000E+00  0.00000000000E+00 -0.15612842275E+04  0.15612842275E+04  0.50400001928E-02 0. -1.
    10030    2    1    2    0    0  0.00000000000E+00  0.00000000000E+00  0.10419859819E+03  0.32267670532E+04  0.32250842264E+04 0.  0.
        4    1    3    3  502    0 -0.16048241318E+04  0.14834442345E+03  0.10526733323E+03  0.16151004261E+04  0.12699999809E+01 0. -1.
       -4    1    3    3    0  502  0.16048241318E+04 -0.14834442345E+03 -0.10687350443E+01  0.16116666271E+04  0.12699999809E+01 0.  1.
</event>
<event>
 5   0  0.1696681E-06  0.3300052E+04  0.7818609E-02  0.8162882E-01
       -2   -1    0    0    0  501  0.00000000000E+00  0.00000000000E+00  0.14458631436E+04  0.14458631436E+04  0.25500000920E-02 0. -1.
        2   -1    0    0  501    0  0.00000000000E+00  0.00000000000E+00 -0.18830176814E+04  0.18830176814E+04  0.25500000920E-02 0.  1.
    10030    2    1    2    0    0  0.00000000000E+00  0.00000000000E+00 -0.43715453780E+03  0.33288808249E+04  0.33000520385E+04 0.  0.
        4    1    3    3  502    0  0.42138967628E+03  0.50633756551E+03 -0.17446173537E+04  0.18648427047E+04  0.12699999809E+01 0.  1.
       -4    1    3    3    0  502 -0.42138967628E+03 -0.50633756551E+03  0.13074628159E+04  0.14640381202E+04  0.12699999809E+01 0. -1.
</event>
<event>
 5   0  0.1728937E-06  0.3294384E+04  0.7818609E-02  0.8164326E-01
        2   -1    0    0  501    0  0.00000000000E+00  0.00000000000E+00  0.16985821219E+04  0.16985821219E+04  0.25500000920E-02 0.  1.
       -2   -1    0    0    0  501  0.00000000000E+00  0.00000000000E+00 -0.15973569033E+04  0.15973569033E+04  0.25500000920E-02 0. -1.
    10030    2    1    2    0    0  0.00000000000E+00  0.00000000000E+00  0.10122521860E+03  0.32959390251E+04  0.32943842388E+04 0.  0.
        1    1    3    3  502    0 -0.67177509110E+03  0.66671507961E+03 -0.12981523838E+04  0.16065461033E+04  0.50400001928E-02 0. -1.
       -1    1    3    3    0  502  0.67177509110E+03 -0.66671507961E+03  0.13993776024E+04  0.16893929219E+04  0.50400001928E-02 0.  1.
</event>
<event>
 5   0  0.5858859E-07  0.3213400E+04  0.7818609E-02  0.8185287E-01
        1   -1    0    0  501    0  0.00000000000E+00  0.00000000000E+00  0.13638515798E+04  0.13638515798E+04  0.50400001928E-02 0.  1.
       -1   -1    0    0    0  501  0.00000000000E+00  0.00000000000E+00 -0.18927898758E+04  0.18927898758E+04  0.50400001928E-02 0. -1.
    10030    2    1    2    0    0  0.00000000000E+00  0.00000000000E+00 -0.52893829608E+03  0.32566414556E+04  0.32133997338E+04 0.  0.
        3    1    3    3  502    0  0.40375683037E+03 -0.15213624364E+04 -0.59117528578E+03  0.16813837961E+04  0.10100000352E+00 0. -1.
       -3    1    3    3    0  502 -0.40375683037E+03  0.15213624364E+04  0.62236989700E+02  0.15752576596E+04  0.10100000352E+00 0.  1.
</event>
<event>
 5   0  0.1832626E-06  0.3353313E+04  0.7818609E-02  0.8149461E-01
       -2   -1    0    0    0  501  0.00000000000E+00  0.00000000000E+00  0.12544783760E+04  0.12544783760E+04  0.25500000920E-02 0. -1.
        2   -1    0    0  501    0  0.00000000000E+00  0.00000000000E+00 -0.22409131878E+04  0.22409131878E+04  0.25500000920E-02 0.  1.
    10030    2    1    2    0    0  0.00000000000E+00  0.00000000000E+00 -0.98643481181E+03  0.34953915638E+04  0.33533130701E+04 0.  0.
        3    1    3    3  502    0  0.13793737150E+04  0.92634827225E+03 -0.72719201984E+03  0.18137257817E+04  0.10100000352E+00 0.  1.
       -3    1    3    3    0  502 -0.13793737150E+04 -0.92634827225E+03 -0.25924279197E+03  0.16816657821E+04  0.10100000352E+00 0. -1.
</event>
<event>
 5   0  0.5988516E-07  0.3297566E+04  0.7818609E-02  0.8163515E-01
       -1   -1    0    0    0  501  0.00000000000E+00  0.00000000000E+00  0.20253019008E+04  0.20253019009E+04  0.50400001928E-02 0.  1.
        1   -1    0    0  501    0  0.00000000000E+00  0.00000000000E+00 -0.13422618618E+04  0.13422618618E+04  0.50400001928E-02 0. -1.
    10030    2    1    2    0    0  0.00000000000E+00  0.00000000000E+00  0.68304003906E+03  0.33675637627E+04  0.32975660722E+04 0.  0.
        4    1    3    3  502    0  0.13249379936E+04 -0.56516436481E+03 -0.47776409958E+03  0.15176071936E+04  0.12699999809E+01 0. -1.
       -4    1    3    3    0  502 -0.13249379936E+04  0.56516436481E+03  0.11608041386E+04  0.18499565691E+04  0.12699999809E+01 0.  1.
</event>
<event>
 5   0  0.1784626E-06  0.3016198E+04  0.7818609E-02  0.8239121E-01
        2   -1    0    0  501    0  0.00000000000E+00  0.00000000000E+00  0.16269204445E+04  0.16269204445E+04  0.25500000920E-02 0.  1.
       -2   -1    0    0    0  501  0.00000000000E+00  0.00000000000E+00 -0.13979555484E+04  0.13979555484E+04  0.25500000920E-02 0. -1.
    10030    2    1    2    0    0  0.00000000000E+00  0.00000000000E+00  0.22896489609E+03  0.30248759930E+04  0.30161979128E+04 0.  0.
        2    1    3    3  502    0 -0.10973353907E+03 -0.29711505468E+03 -0.13642236726E+04  0.14005088483E+04  0.25500000920E-02 0. -1.
       -2    1    3    3    0  502  0.10973353907E+03  0.29711505468E+03  0.15931885687E+04  0.16243671447E+04  0.25500000920E-02 0.  1.
</event>
<event>
 5   0  0.5988516E-07  0.3248607E+04  0.7818609E-02  0.8176097E-01
        1   -1    0    0  501    0  0.00000000000E+00  0.00000000000E+00  0.24506253815E+04  0.24506253815E+04  0.50400001928E-02 0. -1.
       -1   -1    0    0    0  501  0.00000000000E+00  0.00000000000E+00 -0.10766074523E+04  0.10766074523E+04  0.50400001928E-02 0.  1.
    10030    2    1    2    0    0  0.00000000000E+00  0.00000000000E+00  0.13740179292E+04  0.35272328338E+04  0.32486068082E+04 0.  0.
        4    1    3    3  502    0  0.62285494571E+03  0.11431259709E+04  0.17417555465E+04  0.21744882767E+04  0.12699999809E+01 0. -1.
       -4    1    3    3    0  502 -0.62285494571E+03 -0.11431259709E+04 -0.36773761733E+03  0.13527445571E+04  0.12699999809E+01 0.  1.
</event>
<event>
 5   0  0.5988516E-07  0.3289738E+04  0.7818609E-02  0.8165512E-01
       -1   -1    0    0    0  501  0.00000000000E+00  0.00000000000E+00  0.15270296484E+04  0.15270296484E+04  0.50400001928E-02 0. -1.
        1   -1    0    0  501    0  0.00000000000E+00  0.00000000000E+00 -0.17718016269E+04  0.17718016269E+04  0.50400001928E-02 0.  1.
    10030    2    1    2    0    0  0.00000000000E+00  0.00000000000E+00 -0.24477197853E+03  0.32988312753E+04  0.32897377496E+04 0.  0.
        4    1    3    3  502    0 -0.91094416315E+03 -0.64863457008E+03 -0.13319731713E+04  0.17391665291E+04  0.12699999809E+01 0.  1.
       -4    1    3    3    0  502  0.91094416315E+03  0.64863457008E+03  0.10872011928E+04  0.15596647462E+04  0.12699999809E+01 0. -1.
</event>
<event>
 5   0  0.5985183E-07  0.3288830E+04  0.7818609E-02  0.8165744E-01
       -1   -1    0    0    0  501  0.00000000000E+00  0.00000000000E+00  0.11766780954E+04  0.11766780954E+04  0.50400001928E-02 0.  1.
        1   -1    0    0  501    0  0.00000000000E+00  0.00000000000E+00 -0.22980796993E+04  0.22980796993E+04  0.50400001928E-02 0. -1.
    10030    2    1    2    0    0  0.00000000000E+00  0.00000000000E+00 -0.11214016040E+04  0.34747577947E+04  0.32888296056E+04 0.  0.
        2    1    3    3  502    0  0.12863407511E+04 -0.17790186235E+03 -0.16265844229E+04  0.20813693775E+04  0.25500000920E-02 0. -1.
       -2    1    3    3    0  502 -0.12863407511E+04  0.17790186235E+03  0.50518281894E+03  0.13933884172E+04  0.25500000920E-02 0.  1.
</event>
<event>
 5   0  0.1784626E-06  0.3268794E+04  0.7818609E-02  0.8170881E-01
       -2   -1    0    0    0  501  0.00000000000E+00  0.00000000000E+00  0.96102839423E+03  0.96102839424E+03  0.25500000920E-02 0. -1.
        2   -1    0    0  501    0  0.00000000000E+00  0.00000000000E+00 -0.27795787263E+04  0.27795787263E+04  0.25500000920E-02 0.  1.
    10030    2    1    2    0    0  0.00000000000E+00  0.00000000000E+00 -0.18185503321E+04  0.37406071206E+04  0.32687943221E+04 0.  0.
        2    1    3    3  502    0 -0.11393415211E+04 -0.10696360177E+04 -0.36162369306E+03  0.16040548643E+04  0.25500000920E-02 0. -1.
       -2    1    3    3    0  502  0.11393415211E+04  0.10696360177E+04 -0.14569266390E+04  0.21365522563E+04  0.25500000920E-02 0.  1.
</event>
<event>
 5   0  0.1728937E-06  0.3341837E+04  0.7818609E-02  0.8152331E-01
        2   -1    0    0  501    0  0.00000000000E+00  0.00000000000E+00  0.18960970165E+04  0.18960970165E+04  0.25500000920E-02 0. -1.
       -2   -1    0    0    0  501  0.00000000000E+00  0.00000000000E+00 -0.14724823238E+04  0.14724823238E+04  0.25500000920E-02 0.  1.
    10030    2    1    2    0    0  0.00000000000E+00  0.00000000000E+00  0.42361469269E+03  0.33685793404E+04  0.33418374234E+04 0.  0.
        1    1    3    3  502    0  0.35224150121E+03 -0.80026684977E+03  0.16470934895E+04  0.18647836521E+04  0.50400001928E-02 0. -1.
       -1    1    3    3    0  502 -0.35224150121E+03  0.80026684977E+03 -0.12234787968E+04  0.15037956883E+04  0.50400001928E-02 0.  1.
</event>
<event>
 5   0  0.1743810E-06  0.3312180E+04  0.7818609E-02  0.8159803E-01
        2   -1    0    0  501    0  0.00000000000E+00  0.00000000000E+00  0.30407021477E+04  0.30407021477E+04  0.25500000920E-02 0. -1.
       -2   -1    0    0    0  501  0.00000000000E+00  0.00000000000E+00 -0.90197387278E+03  0.90197387279E+03  0.25500000920E-02 0.  1.
    10030    2    1    2    0    0  0.00000000000E+00  0.00000000000E+00  0.21387282749E+04  0.39426760205E+04  0.33121798817E+04 0.  0.
        5    1    3    3  502    0  0.14923100766E+03 -0.15984741776E+03 -0.88470397363E+03  0.91134203325E+03  0.46999998093E+01 0.  1.
       -5    1    3    3    0  502 -0.14923100766E+03  0.15984741776E+03  0.30234322485E+04  0.30313339872E+04  0.46999998093E+01 0. -1.
</event>
<event>
 5   0  0.1728937E-06  0.3334494E+04  0.7818609E-02  0.8154173E-01
        2   -1    0    0  501    0  0.00000000000E+00  0.00000000000E+00  0.17794494734E+04  0.17794494734E+04  0.25500000920E-02 0.  1.
       -2   -1    0    0    0  501  0.00000000000E+00  0.00000000000E+00 -0.15621193377E+04  0.15621193377E+04  0.25500000920E-02 0. -1.
    10030    2    1    2    0    0  0.00000000000E+00  0.00000000000E+00  0.21733013561E+03  0.33415688111E+04  0.33344939243E+04 0.  0.
        1    1    3    3  502    0 -0.14415953287E+04  0.38824273342E+03 -0.63505707310E+03  0.16224139416E+04  0.50400001928E-02 0. -1.
       -1    1    3    3    0  502  0.14415953287E+04 -0.38824273342E+03  0.85238720871E+03  0.17191548695E+04  0.50400001928E-02 0.  1.
</event>
<event>
 5   0  0.6085351E-07  0.3269652E+04  0.7818609E-02  0.8170661E-01
        1   -1    0    0  501    0  0.00000000000E+00  0.00000000000E+00  0.14009997699E+04  0.14009997699E+04  0.50400001928E-02 0. -1.
       -1   -1    0    0    0  501  0.00000000000E+00  0.00000000000E+00 -0.19076781663E+04  0.19076781663E+04  0.50400001928E-02 0.  1.
    10030    2    1    2    0    0  0.00000000000E+00  0.00000000000E+00 -0.50667839646E+03  0.33086779362E+04  0.32696523803E+04 0.  0.
        1    1    3    3  502    0 -0.14778523486E+04  0.50012210142E+03 -0.74751930681E+03  0.17300158366E+04  0.50400001928E-02 0.  1.
       -1    1    3    3    0  502  0.14778523486E+04 -0.50012210142E+03  0.24084091035E+03  0.15786620996E+04  0.50400001928E-02 0. -1.
</event>
<event>
 5   0  0.1743810E-06  0.3296806E+04  0.7818609E-02  0.8163709E-01
       -2   -1    0    0    0  501  0.00000000000E+00  0.00000000000E+00  0.11838249933E+04  0.11838249933E+04  0.25500000920E-02 0. -1.
        2   -1    0    0  501    0  0.00000000000E+00  0.00000000000E+00 -0.22952989583E+04  0.22952989583E+04  0.25500000920E-02 0.  1.
    10030    2    1    2    0    0  0.00000000000E+00  0.00000000000E+00 -0.11114739650E+04  0.34791239517E+04  0.32968058930E+04 0.  0.
        5    1    3    3  502    0  0.14098922847E+03  0.50599169067E+03 -0.22046111397E+04  0.22663269669E+04  0.46999998093E+01 0.  1.
       -5    1    3    3    0  502 -0.14098922847E+03 -0.50599169067E+03  0.10931371747E+04  0.12127969848E+04  0.46999998093E+01 0. -1.
</event>
<event>
 5   0  0.1696681E-06  0.3328799E+04  0.7818609E-02  0.8155606E-01
        2   -1    0    0  501    0  0.00000000000E+00  0.00000000000E+00  0.23471985735E+04  0.23471985735E+04  0.25500000920E-02 0.  1.
       -2   -1    0    0    0  501  0.00000000000E+00  0.00000000000E+00 -0.11802264332E+04  0.11802264332E+04  0.25500000920E-02 0. -1.
    10030    2    1    2    0    0  0.00000000000E+00  0.00000000000E+00  0.11669721403E+04  0.35274250067E+04  0.33287990630E+04 0.  0.
        4    1    3    3  502    0 -0.77895926738E+02  0.11718164122E+04  0.18332678721E+04  0.21771757355E+04  0.12699999809E+01 0.  1.
       -4    1    3    3    0  502  0.77895926738E+02 -0.11718164122E+04 -0.66629573182E+03  0.13502492712E+04  0.12699999809E+01 0. -1.
</event>
<event>
 5   0  0.1696681E-06  0.3303572E+04  0.7818609E-02  0.8161987E-01
        2   -1    0    0  501    0  0.00000000000E+00  0.00000000000E+00  0.31177883689E+04  0.31177883689E+04  0.25500000920E-02 0.  1.
       -2   -1    0    0    0  501  0.00000000000E+00  0.00000000000E+00 -0.87510668875E+03  0.87510668875E+03  0.25500000920E-02 0. -1.
    10030    2    1    2    0    0  0.00000000000E+00  0.00000000000E+00  0.22426816801E+04  0.39928950576E+04  0.33035722821E+04 0.  0.
        4    1    3    3  502    0  0.10929748969E+04 -0.52373322851E+03 -0.23511003136E+03  0.12345723792E+04  0.12699999809E+01 0. -1.
       -4    1    3    3    0  502 -0.10929748969E+04  0.52373322851E+03  0.24777917115E+04  0.27583226784E+04  0.12699999809E+01 0.  1.
</event>
<event>
 5   0  0.5985183E-07  0.3224832E+04  0.7818609E-02  0.8182290E-01
       -1   -1    0    0    0  501  0.00000000000E+00  0.00000000000E+00  0.28459274083E+04  0.28459274083E+04  0.50400001928E-02 0.  1.
        1   -1    0    0  501    0  0.00000000000E+00  0.00000000000E+00 -0.91354587219E+03  0.91354587220E+03  0.50400001928E-02 0. -1.
    10030    2    1    2    0    0  0.00000000000E+00  0.00000000000E+00  0.19323815361E+04  0.37594732805E+04  0.32248319252E+04 0.  0.
        2    1    3    3  502    0  0.11801759568E+04  0.79779960664E+03  0.18467941983E+04  0.23323696775E+04  0.25500000920E-02 0.  1.
       -2    1    3    3    0  502 -0.11801759568E+04 -0.79779960664E+03  0.85587337807E+02  0.14271036031E+04  0.25500000920E-02 0. -1.
</event>
<event>
 5   0  0.5858859E-07  0.3268661E+04  0.7818609E-02  0.8170916E-01
       -1   -1    0    0    0  501  0.00000000000E+00  0.00000000000E+00  0.12690349037E+04  0.12690349038E+04  0.50400001928E-02 0. -1.
        1   -1    0    0  501    0  0.00000000000E+00  0.00000000000E+00 -0.21047775911E+04  0.21047775911E+04  0.50400001928E-02 0.  1.
    10030    2    1    2    0    0  0.00000000000E+00  0.00000000000E+00 -0.83574268735E+03  0.33738124949E+04  0.32686610272E+04 0.  0.
        3    1    3    3  502    0 -0.12002004068E+04  0.72485369880E+03  0.44886986719E+03  0.14722017759E+04  0.10100000352E+00 0. -1.
       -3    1    3    3    0  502  0.12002004068E+04 -0.72485369880E+03 -0.12846125545E+04  0.19016107190E+04  0.10100000352E+00 0.  1.
</event>
<event>
 5   0  0.6023446E-07  0.2744654E+04  0.7818609E-02  0.8320660E-01
       -1   -1    0    0    0  501  0.00000000000E+00  0.00000000000E+00  0.11392194598E+04  0.11392194598E+04  0.50400001928E-02 0.  1.
        1   -1    0    0  501    0  0.00000000000E+00  0.00000000000E+00 -0.16531330545E+04  0.16531330545E+04  0.50400001928E-02 0. -1.
    10030    2    1    2    0    0  0.00000000000E+00  0.00000000000E+00 -0.51391359476E+03  0.27923525143E+04  0.27446539639E+04 0.  0.
        5    1    3    3  502    0 -0.19013326278E+03  0.11665743872E+04  0.45245080534E+03  0.12656145858E+04  0.46999998093E+01 0.  1.
       -5    1    3    3    0  502  0.19013326278E+03 -0.11665743872E+04 -0.96636440009E+03  0.15267379285E+04  0.46999998093E+01 0. -1.
</event>
<event>
 5   0  0.1696681E-06  0.3310096E+04  0.7818609E-02  0.8160331E-01
       -2   -1    0    0    0  501  0.00000000000E+00  0.00000000000E+00  0.12450686331E+04  0.12450686331E+04  0.25500000920E-02 0.  1.
        2   -1    0    0  501    0  0.00000000000E+00  0.00000000000E+00 -0.22000268250E+04  0.22000268250E+04  0.25500000920E-02 0. -1.
    10030    2    1    2    0    0  0.00000000000E+00  0.00000000000E+00 -0.95495819191E+03  0.34450954580E+04  0.33100963078E+04 0.  0.
        4    1    3    3  502    0  0.87825548341E+03  0.92904772426E+03  0.61644406937E+03  0.14193192987E+04  0.12699999809E+01 0.  1.
       -4    1    3    3    0  502 -0.87825548341E+03 -0.92904772426E+03 -0.15714022613E+04  0.20257761593E+04  0.12699999809E+01 0. -1.
</event>
<event>
 5   0  0.1743810E-06  0.3314619E+04  0.7818609E-02  0.8159186E-01
       -2   -1    0    0    0  501  0.00000000000E+00  0.00000000000E+00  0.13474681894E+04  0.13474681894E+04  0.25500000920E-02 0. -1.
        2   -1    0    0  501    0  0.00000000000E+00  0.00000000000E+00 -0.20383964850E+04  0.20383964850E+04  0.25500000920E-02 0.  1.
    10030    2    1    2    0    0  0.00000000000E+00  0.00000000000E+00 -0.69092829568E+03  0.33858646744E+04  0.33146187841E+04 0.  0.
        5    1    3    3  502    0  0.23464363522E+03  0.29630783880E+03  0.13028482185E+04  0.13565734559E+04  0.46999998093E+01 0. -1.
       -5    1    3    3    0  502 -0.23464363522E+03 -0.29630783880E+03 -0.19937765142E+04  0.20292912185E+04  0.46999998093E+01 0.  1.
</event>
<event>
 5   0  0.1728937E-06  0.3323878E+04  0.7818609E-02  0.8156846E-01
       -2   -1    0    0    0  501  0.00000000000E+00  0.00000000000E+00  0.14676805243E+04  0.14676805243E+04  0.25500000920E-02 0.  1.
        2   -1    0    0  501    0  0.00000000000E+00  0.00000000000E+00 -0.18819094468E+04  0.18819094468E+04  0.25500000920E-02 0. -1.
    10030    2    1    2    0    0  0.00000000000E+00  0.00000000000E+00 -0.41422892255E+03  0.33495899711E+04  0.33238783634E+04 0.  0.
        1    1    3    3  502    0 -0.16542158656E+03  0.15292135808E+04  0.42718544053E+03  0.15963539324E+04  0.50400001928E-02 0.  1.
       -1    1    3    3    0  502  0.16542158656E+03 -0.15292135808E+04 -0.84141436308E+03  0.17532360387E+04  0.50400001928E-02 0. -1.
</event>
<event>
 5   0  0.1728937E-06  0.3312054E+04  0.7818609E-02  0.8159835E-01
       -2   -1    0    0    0  501  0.00000000000E+00  0.00000000000E+00  0.19691607422E+04  0.19691607422E+04  0.25500000920E-02 0.  1.
        2   -1    0    0  501    0  0.00000000000E+00  0.00000000000E+00 -0.13926873857E+04  0.13926873857E+04  0.25500000920E-02 0. -1.
    10030    2    1    2    0    0  0.00000000000E+00  0.00000000000E+00  0.57647335650E+03  0.33618481280E+04  0.33120539405E+04 0.  0.
        1    1    3    3  502    0  0.74830445159E+03  0.24671328588E+03  0.17667058435E+04  0.19344447615E+04  0.50400001928E-02 0.  1.
       -1    1    3    3    0  502 -0.74830445159E+03 -0.24671328588E+03 -0.11902324870E+04  0.14274033665E+04  0.50400001928E-02 0. -1.
</event>
<event>
 5   0  0.5685000E-07  0.3171493E+04  0.7818609E-02  0.8196387E-01
       -3   -1    0    0    0  501  0.00000000000E+00  0.00000000000E+00  0.10411707240E+04  0.10411707289E+04  0.10100000352E+00 0.  1.
        3   -1    0    0  501    0  0.00000000000E+00  0.00000000000E+00 -0.24151574260E+04  0.24151574281E+04  0.10100000352E+00 0. -1.
    10030    2    1    2    0    0  0.00000000000E+00  0.00000000000E+00 -0.13739867020E+04  0.34563281570E+04  0.31714925305E+04 0.  0.
        4    1    3    3  502    0 -0.15631995475E+04 -0.81555134098E+02 -0.96343947168E+03  0.18380591105E+04  0.12699999809E+01 0.  1.
       -4    1    3    3    0  502  0.15631995475E+04  0.81555134098E+02 -0.41054723035E+03  0.16182690464E+04  0.12699999809E+01 0. -1.
</event>
<event>
 5   0  0.5685000E-07  0.2671379E+04  0.7818609E-02  0.8344352E-01
       -3   -1    0    0    0  501  0.00000000000E+00  0.00000000000E+00  0.11430867585E+04  0.11430867629E+04  0.10100000352E+00 0. -1.
        3   -1    0    0  501    0  0.00000000000E+00  0.00000000000E+00 -0.15607439943E+04  0.15607439976E+04  0.10100000352E+00 0.  1.
    10030    2    1    2    0    0  0.00000000000E+00  0.00000000000E+00 -0.41765723584E+03  0.27038307605E+04  0.26713785233E+04 0.  0.
        4    1    3    3  502    0 -0.60902113147E+03  0.18391398433E+03 -0.13975461096E+04  0.15355350317E+04  0.12699999809E+01 0.  1.
       -4    1    3    3    0  502  0.60902113147E+03 -0.18391398433E+03  0.97988887373E+03  0.11682957288E+04  0.12699999809E+01 0. -1.
</event>
<event>
 5   0  0.1696681E-06  0.3326077E+04  0.7818609E-02  0.8156292E-01
        2   -1    0    0  501    0  0.00000000000E+00  0.00000000000E+00  0.16878606777E+04  0.16878606777E+04  0.25500000920E-02 0. -1.
       -2   -1    0    0    0  501  0.00000000000E+00  0.00000000000E+00 -0.16385814649E+04  0.16385814649E+04  0.25500000920E-02 0.  1.
    10030    2    1    2    0    0  0.00000000000E+00  0.00000000000E+00  0.49279212797E+02  0.33264421426E+04  0.33260771018E+04 0.  0.
        4    1    3    3  502    0 -0.19962606433E+03  0.12554946253E+04 -0.10476619548E+04  0.16473355773E+04  0.12699999809E+01 0.  1.
       -4    1    3    3    0  502  0.19962606433E+03 -0.12554946253E+04  0.10969411676E+04  0.16791065654E+04  0.12699999809E+01 0. -1.
</event>
<event>
 5   0  0.5988516E-07  0.2873228E+04  0.7818609E-02  0.8280888E-01
        1   -1    0    0  501    0  0.00000000000E+00  0.00000000000E+00  0.23106445902E+04  0.23106445902E+04  0.50400001928E-02 0.  1.
       -1   -1    0    0    0  501  0.00000000000E+00  0.00000000000E+00 -0.89319671915E+03  0.89319671917E+03  0.50400001928E-02 0. -1.
    10030    2    1    2    0    0  0.00000000000E+00  0.00000000000E+00  0.14174478711E+04  0.32038413094E+04  0.28732282660E+04 0.  0.
        4    1    3    3  502    0  0.13755704501E+02  0.34628396209E+03  0.22633352495E+04  0.22897139267E+04  0.12699999809E+01 0.  1.
       -4    1    3    3    0  502 -0.13755704501E+02 -0.34628396209E+03 -0.84588737844E+03  0.91412738265E+03  0.12699999809E+01 0. -1.
</event>
<event>
 5   0  0.1696681E-06  0.3322606E+04  0.7818609E-02  0.8157167E-01
       -2   -1    0    0    0  501  0.00000000000E+00  0.00000000000E+00  0.11480996877E+04  0.11480996877E+04  0.25500000920E-02 0. -1.
        2   -1    0    0  501    0  0.00000000000E+00  0.00000000000E+00 -0.24039095355E+04  0.24039095356E+04  0.25500000920E-02 0.  1.
    10030    2    1    2    0    0  0.00000000000E+00  0.00000000000E+00 -0.12558098479E+04  0.35520092232E+04  0.33226060777E+04 0.  0.
        4    1    3    3  502    0  0.40191726258E+03  0.32007765902E+03 -0.23168371075E+04  0.23731251525E+04  0.12699999809E+01 0.  1.
       -4    1    3    3    0  502 -0.40191726258E+03 -0.32007765902E+03  0.10610272596E+04  0.11788840707E+04  0.12699999809E+01 0. -1.
</event>
<event>
 5   0  0.5858859E-07  0.3352166E+04  0.7818609E-02  0.8149747E-01
       -1   -1    0    0    0  501  0.00000000000E+00  0.00000000000E+00  0.16322467104E+04  0.16322467104E+04  0.50400001928E-02 0.  1.
        1   -1    0    0  501    0  0.00000000000E+00  0.00000000000E+00 -0.17210962461E+04  0.17210962461E+04  0.50400001928E-02 0. -1.
    10030    2    1    2    0    0  0.00000000000E+00  0.00000000000E+00 -0.88849535688E+02  0.33533429566E+04  0.33521656797E+04 0.  0.
        3    1    3    3  502    0 -0.57944260045E+03  0.15472882533E+04  0.23745249142E+03  0.16692029122E+04  0.10100000352E+00 0.  1.
       -3    1    3    3    0  502  0.57944260045E+03 -0.15472882533E+04 -0.32630202711E+03  0.16841400444E+04  0.10100000352E+00 0. -1.
</event>
<event>
 5   0  0.5988516E-07  0.2850800E+04  0.7818609E-02  0.8287668E-01
        1   -1    0    0  501    0  0.00000000000E+00  0.00000000000E+00  0.10649995025E+04  0.10649995025E+04  0.50400001928E-02 0.  1.
       -1   -1    0    0    0  501  0.00000000000E+00  0.00000000000E+00 -0.19077611290E+04  0.19077611290E+04  0.50400001928E-02 0. -1.
    10030    2    1    2    0    0  0.00000000000E+00  0.00000000000E+00 -0.84276162651E+03  0.29727606315E+04  0.28507996445E+04 0.  0.
        4    1    3    3  502    0  0.10237982401E+04 -0.27463342943E+03 -0.14151337356E+04  0.17681039165E+04  0.12699999809E+01 0. -1.
       -4    1    3    3    0  502 -0.10237982401E+04  0.27463342943E+03  0.57237210906E+03  0.12046567150E+04  0.12699999809E+01 0.  1.
</event>
<event>
 5   0  0.5985183E-07  0.3265188E+04  0.7818609E-02  0.8171810E-01
       -1   -1    0    0    0  501  0.00000000000E+00  0.00000000000E+00  0.14872182178E+04  0.14872182178E+04  0.50400001928E-02 0. -1.
        1   -1    0    0  501    0  0.00000000000E+00  0.00000000000E+00 -0.17921797872E+04  0.17921797872E+04  0.50400001928E-02 0.  1.
    10030    2    1    2    0    0  0.00000000000E+00  0.00000000000E+00 -0.30496156934E+03  0.32793980050E+04  0.32651875469E+04 0.  0.
        2    1    3    3  502    0  0.10323550735E+04 -0.19126556800E+03 -0.14081309815E+04  0.17564658768E+04  0.25500000920E-02 0.  1.
       -2    1    3    3    0  502 -0.10323550735E+04  0.19126556800E+03  0.11031694121E+04  0.15229321282E+04  0.25500000920E-02 0. -1.
</event>
<event>
 5   0  0.1728937E-06  0.3268275E+04  0.7818609E-02  0.8171015E-01
        2   -1    0    0  501    0  0.00000000000E+00  0.00000000000E+00  0.15468250888E+04  0.15468250888E+04  0.25500000920E-02 0.  1.
       -2   -1    0    0    0  501  0.00000000000E+00  0.00000000000E+00 -0.17263781748E+04  0.17263781748E+04  0.25500000920E-02 0. -1.
    10030    2    1    2    0    0  0.00000000000E+00  0.00000000000E+00 -0.17955308599E+03  0.32732032636E+04  0.32682748192E+04 0.  0.
        1    1    3    3  502    0 -0.44992786901E+03  0.15620950269E+04  0.77295618572E+02  0.16274368107E+04  0.50400001928E-02 0. -1.
       -1    1    3    3    0  502  0.44992786901E+03 -0.15620950269E+04 -0.25684870456E+03  0.16457664528E+04  0.50400001928E-02 0.  1.
</event>
<event>
 5   0  0.5858859E-07  0.2821994E+04  0.7818609E-02  0.8296472E-01
        1   -1    0    0  501    0  0.00000000000E+00  0.00000000000E+00  0.13720682778E+04  0.13720682778E+04  0.50400001928E-02 0. -1.
       -1   -1    0    0    0  501  0.00000000000E+00  0.00000000000E+00 -0.14510304733E+04  0.14510304733E+04  0.50400001928E-02 0.  1.
    10030    2    1    2    0    0  0.00000000000E+00  0.00000000000E+00 -0.78962195481E+02  0.28230987511E+04  0.28219942470E+04 0.  0.
        3    1    3    3  502    0  0.92152410898E+03  0.19866648471E+03 -0.10897671532E+04  0.14409259225E+04  0.10100000352E+00 0.  1.
       -3    1    3    3    0  502 -0.92152410898E+03 -0.19866648471E+03  0.10108049577E+04  0.13821728287E+04  0.10100000352E+00 0. -1.
</event>
<event>
 5   0  0.1728937E-06  0.3295007E+04  0.7818609E-02  0.8164167E-01
        2   -1    0    0  501    0  0.00000000000E+00  0.00000000000E+00  0.24738715548E+04  0.24738715548E+04  0.25500000920E-02 0. -1.
       -2   -1    0    0    0  501  0.00000000000E+00  0.00000000000E+00 -0.10971741909E+04  0.10971741909E+04  0.25500000920E-02 0.  1.
    10030    2    1    2    0    0  0.00000000000E+00  0.00000000000E+00  0.13766973639E+04  0.35710457457E+04  0.32950071451E+04 0.  0.
        1    1    3    3  502    0 -0.77081711173E+03  0.89023373756E+03  0.19370872132E+04  0.22669322881E+04  0.50400001928E-02 0. -1.
       -1    1    3    3    0  502  0.77081711173E+03 -0.89023373756E+03 -0.56038984931E+03  0.13041134577E+04  0.50400001928E-02 0.  1.
</event>
<event>
 5   0  0.1784626E-06  0.3308562E+04  0.7818609E-02  0.8160720E-01
        2   -1    0    0  501    0  0.00000000000E+00  0.00000000000E+00  0.20667680367E+04  0.20667680367E+04  0.25500000920E-02 0. -1.
       -2   -1    0    0    0  501  0.00000000000E+00  0.00000000000E+00 -0.13241185803E+04  0.13241185803E+04  0.25500000920E-02 0.  1.
    10030    2    1    2    0    0  0.00000000000E+00  0.00000000000E+00  0.74264945639E+03  0.33908866170E+04  0.33085622005E+04 0.  0.
        2    1    3    3  502    0  0.48822799553E+03 -0.10073039296E+03 -0.12453056679E+04  0.13413796607E+04  0.25500000920E-02 0.  1.
       -2    1    3    3    0  502 -0.48822799553E+03  0.10073039296E+03  0.19879551243E+04  0.20495069563E+04  0.25500000920E-02 0. -1.
</event>
<event>
 5   0  0.1696681E-06  0.3241464E+04  0.7818609E-02  0.8177952E-01
       -2   -1    0    0    0  501  0.00000000000E+00  0.00000000000E+00  0.15562750095E+04  0.15562750095E+04  0.25500000920E-02 0.  1.
        2   -1    0    0  501    0  0.00000000000E+00  0.00000000000E+00 -0.16878584245E+04  0.16878584245E+04  0.25500000920E-02 0. -1.
    10030    2    1    2    0    0  0.00000000000E+00  0.00000000000E+00 -0.13158341508E+03  0.32441334340E+04  0.32414637963E+04 0.  0.
        4    1    3    3  502    0  0.15816990310E+04 -0.26547524769E+03 -0.29948206736E+03  0.16315452962E+04  0.12699999809E+01 0. -1.
       -4    1    3    3    0  502 -0.15816990310E+04  0.26547524769E+03  0.16789865227E+03  0.16125881378E+04  0.12699999809E+01 0.  1.
</event>
<event>
 5   0  0.5988516E-07  0.3279957E+04  0.7818609E-02  0.8168014E-01
       -1   -1    0    0    0  501  0.00000000000E+00  0.00000000000E+00  0.19110301545E+04  0.19110301545E+04  0.50400001928E-02 0.  1.
        1   -1    0    0  501    0  0.00000000000E+00  0.00000000000E+00 -0.14073711392E+04  0.14073711392E+04  0.50400001928E-02 0. -1.
    10030    2    1    2    0    0  0.00000000000E+00  0.00000000000E+00  0.50365901531E+03  0.33184012936E+04  0.32799565152E+04 0.  0.
        4    1    3    3  502    0  0.14027654928E+04  0.43282832402E+03  0.99144933186E+03  0.17714583756E+04  0.12699999809E+01 0.  1.
       -4    1    3    3    0  502 -0.14027654928E+04 -0.43282832402E+03 -0.48779031655E+03  0.15469429181E+04  0.12699999809E+01 0. -1.
</event>
<event>
 5   0  0.6085351E-07  0.3346504E+04  0.7818609E-02  0.8151162E-01
       -1   -1    0    0    0  501  0.00000000000E+00  0.00000000000E+00  0.10550131949E+04  0.10550131949E+04  0.50400001928E-02 0.  1.
        1   -1    0    0  501    0  0.00000000000E+00  0.00000000000E+00 -0.26537792637E+04  0.26537792637E+04  0.50400001928E-02 0. -1.
    10030    2    1    2    0    0  0.00000000000E+00  0.00000000000E+00 -0.15987660688E+04  0.37087924586E+04  0.33465039306E+04 0.  0.
        1    1    3    3  502    0  0.64382613946E+02  0.65598806389E+03 -0.25038356052E+04  0.25891423674E+04  0.50400001928E-02 0. -1.
       -1    1    3    3    0  502 -0.64382613946E+02 -0.65598806389E+03  0.90506953635E+03  0.11196500911E+04  0.50400001928E-02 0.  1.
</event>
<event>
 5   0  0.1696681E-06  0.3309697E+04  0.7818609E-02  0.8160432E-01
        2   -1    0    0  501    0  0.00000000000E+00  0.00000000000E+00  0.17097572639E+04  0.17097572639E+04  0.25500000920E-02 0.  1.
       -2   -1    0    0    0  501  0.00000000000E+00  0.00000000000E+00 -0.16017036116E+04  0.16017036116E+04  0.25500000920E-02 0. -1.
    10030    2    1    2    0    0  0.00000000000E+00  0.00000000000E+00  0.10805365229E+03  0.33114608755E+04  0.33096974995E+04 0.  0.
        4    1    3    3  502    0  0.40009875162E+03  0.93387858559E+03  0.13609825443E+04  0.16983766727E+04  0.12699999809E+01 0.  1.
       -4    1    3    3    0  502 -0.40009875162E+03 -0.93387858559E+03 -0.12529288920E+04  0.16130842027E+04  0.12699999809E+01 0. -1.
</event>
<event>
 5   0  0.1743810E-06  0.3297346E+04  0.7818609E-02  0.8163571E-01
        2   -1    0    0  501    0  0.00000000000E+00  0.00000000000E+00  0.13911341499E+04  0.13911341499E+04  0.25500000920E-02 0. -1.
       -2   -1    0    0    0  501  0.00000000000E+00  0.00000000000E+00 -0.19538900989E+04  0.19538900989E+04  0.25500000920E-02 0.  1.
    10030    2    1    2    0    0  0.00000000000E+00  0.00000000000E+00 -0.56275594899E+03  0.33450242488E+04  0.32973463523E+04 0.  0.
        5    1    3    3  502    0 -0.59978006210E+03  0.10840593548E+04  0.82209112433E+03  0.14868680890E+04  0.46999998093E+01 0. -1.
       -5    1    3    3    0  502  0.59978006210E+03 -0.10840593548E+04 -0.13848470733E+04  0.18581561597E+04  0.46999998093E+01 0.  1.
</event>
<event>
 5   0  0.5985183E-07  0.3152484E+04  0.7818609E-02  0.8201480E-01
        1   -1    0    0  501    0  0.00000000000E+00  0.00000000000E+00  0.18356282759E+04  0.18356282759E+04  0.50400001928E-02 0.  1.
       -1   -1    0    0    0  501  0.00000000000E+00  0.00000000000E+00 -0.13535084388E+04  0.13535084388E+04  0.50400001928E-02 0. -1.
    10030    2    1    2    0    0  0.00000000000E+00  0.00000000000E+00  0.48211983707E+03  0.31891367147E+04  0.31524836951E+04 0.  0.
        2    1    3    3  502    0 -0.14995955463E+03  0.35379898152E+03 -0.13053983125E+04  0.13607815187E+04  0.25500000920E-02 0. -1.
       -2    1    3    3    0  502  0.14995955463E+03 -0.35379898152E+03  0.17875181496E+04  0.18283551960E+04  0.25500000920E-02 0.  1.
</event>
<event>
 5   0  0.5858859E-07  0.3302054E+04  0.7818609E-02  0.8162373E-01
       -1   -1    0    0    0  501  0.00000000000E+00  0.00000000000E+00  0.23460045186E+04  0.23460045187E+04  0.50400001928E-02 0. -1.
        1   -1    0    0  501    0  0.00000000000E+00  0.00000000000E+00 -0.11619290478E+04  0.11619290478E+04  0.50400001928E-02 0.  1.
    10030    2    1    2    0    0  0.00000000000E+00  0.00000000000E+00  0.11840754708E+04  0.35079335665E+04  0.33020543887E+04 0.  0.
        3    1    3    3  502    0 -0.80414211479E+02  0.78993969585E+03 -0.94577212238E+03  0.12348911232E+04  0.10100000352E+00 0.  1.
       -3    1    3    3    0  502  0.80414211479E+02 -0.78993969585E+03  0.21298475932E+04  0.22730424433E+04  0.10100000352E+00 0. -1.
</event>
<event>
 5   0  0.1784626E-06  0.3338109E+04  0.7818609E-02  0.8153266E-01
       -2   -1    0    0    0  501  0.00000000000E+00  0.00000000000E+00  0.15345830665E+04  0.15345830666E+04  0.25500000920E-02 0. -1.
        2   -1    0    0  501    0  0.00000000000E+00  0.00000000000E+00 -0.18153092119E+04  0.18153092119E+04  0.25500000920E-02 0.  1.
    10030    2    1    2    0    0  0.00000000000E+00  0.00000000000E+00 -0.28072614536E+03  0.33498922785E+04  0.33381089120E+04 0.  0.
        2    1    3    3  502    0  0.39059233069E+02  0.16221538227E+04  0.25195698526E+03  0.16420691126E+04  0.25500000920E-02 0. -1.
       -2    1    3    3    0  502 -0.39059233069E+02 -0.16221538227E+04 -0.53268313062E+03  0.17078231659E+04  0.25500000920E-02 0.  1.
</event>
<event>
 5   0  0.1696681E-06  0.3307327E+04  0.7818609E-02  0.8161033E-01
       -2   -1    0    0    0  501  0.00000000000E+00  0.00000000000E+00  0.88813710492E+03  0.88813710492E+03  0.25500000920E-02 0. -1.
        2   -1    0    0  501    0  0.00000000000E+00  0.00000000000E+00 -0.30790329918E+04  0.30790329918E+04  0.25500000920E-02 0.  1.
    10030    2    1    2    0    0  0.00000000000E+00  0.00000000000E+00 -0.21908958869E+04  0.39671700967E+04  0.33073272879E+04 0.  0.
        4    1    3    3  502    0 -0.14421885358E+04  0.73893549843E+03 -0.70003100830E+03  0.17652134344E+04  0.12699999809E+01 0.  1.
       -4    1    3    3    0  502  0.14421885358E+04 -0.73893549843E+03 -0.14908648786E+04  0.22019566623E+04  0.12699999809E+01 0. -1.
</event>
<event>
 5   0  0.6085351E-07  0.3353287E+04  0.7818609E-02  0.8149467E-01
       -1   -1    0    0    0  501  0.00000000000E+00  0.00000000000E+00  0.11705301188E+04  0.11705301188E+04  0.50400001928E-02 0.  1.
        1   -1    0    0  501    0  0.00000000000E+00  0.00000000000E+00 -0.24015893797E+04  0.24015893797E+04  0.50400001928E-02 0. -1.
    10030    2    1    2    0    0  0.00000000000E+00  0.00000000000E+00 -0.12310592609E+04  0.35721194985E+04  0.33532865681E+04 0.  0.
        1    1    3    3  502    0 -0.25396313620E+02  0.14926329593E+04 -0.14285775901E+04  0.20662604034E+04  0.50400001928E-02 0. -1.
       -1    1    3    3    0  502  0.25396313620E+02 -0.14926329593E+04  0.19751832918E+03  0.15058590951E+04  0.50400001928E-02 0.  1.
</event>
<event>
 5   0  0.6085351E-07  0.3278992E+04  0.7818609E-02  0.8168262E-01
       -1   -1    0    0    0  501  0.00000000000E+00  0.00000000000E+00  0.94891435655E+03  0.94891435657E+03  0.50400001928E-02 0.  1.
        1   -1    0    0  501    0  0.00000000000E+00  0.00000000000E+00 -0.28326549656E+04  0.28326549656E+04  0.50400001928E-02 0. -1.
    10030    2    1    2    0    0  0.00000000000E+00  0.00000000000E+00 -0.18837406090E+04  0.37815693221E+04  0.32789918963E+04 0.  0.
        1    1    3    3  502    0  0.91434859047E+03 -0.15367846008E+03 -0.25012613737E+04  0.26675754672E+04  0.50400001928E-02 0. -1.
       -1    1    3    3    0  502 -0.91434859047E+03  0.15367846008E+03  0.61752076464E+03  0.11139938549E+04  0.50400001928E-02 0.  1.
</event>
<event>
 5   0  0.1832626E-06  0.3305516E+04  0.7818609E-02  0.8161493E-01
        2   -1    0    0  501    0  0.00000000000E+00  0.00000000000E+00  0.22720512590E+04  0.22720512590E+04  0.25500000920E-02 0. -1.
       -2   -1    0    0    0  501  0.00000000000E+00  0.00000000000E+00 -0.12022654155E+04  0.12022654155E+04  0.25500000920E-02 0.  1.
    10030    2    1    2    0    0  0.00000000000E+00  0.00000000000E+00  0.10697858435E+04  0.34743166745E+04  0.33055157848E+04 0.  0.
        3    1    3    3  502    0  0.51260805669E+03  0.13722175876E+04  0.13393952016E+04  0.19848747174E+04  0.10100000352E+00 0. -1.
       -3    1    3    3    0  502 -0.51260805669E+03 -0.13722175876E+04 -0.26960935813E+03  0.14894419571E+04  0.10100000352E+00 0.  1.
</event>
<event>
 5   0  0.5988516E-07  0.3312557E+04  0.7818609E-02  0.8159708E-01
       -1   -1    0    0    0  501  0.00000000000E+00  0.00000000000E+00  0.18094103455E+04  0.18094103455E+04  0.50400001928E-02 0. -1.
        1   -1    0    0  501    0  0.00000000000E+00  0.00000000000E+00 -0.15161064142E+04  0.15161064142E+04  0.50400001928E-02 0.  1.
    10030    2    1    2    0    0  0.00000000000E+00  0.00000000000E+00  0.29330393124E+03  0.33255167597E+04  0.33125570973E+04 0.  0.
        4    1    3    3  502    0  0.13338761065E+03  0.12729343109E+04 -0.90869957313E+03  0.15696784836E+04  0.12699999809E+01 0.  1.
       -4    1    3    3    0  502 -0.13338761065E+03 -0.12729343109E+04  0.12020035044E+04  0.17558382762E+04  0.12699999809E+01 0. -1.
</event>
<event>
 5   0  0.5858859E-07  0.3338703E+04  0.7818609E-02  0.8153117E-01
        1   -1    0    0  501    0  0.00000000000E+00  0.00000000000E+00  0.17845708266E+04  0.17845708266E+04  0.50400001928E-02 0. -1.
       -1   -1    0    0    0  501  0.00000000000E+00  0.00000000000E+00 -0.15615715316E+04  0.15615715316E+04  0.50400001928E-02 0.  1.
    10030    2    1    2    0    0  0.00000000000E+00  0.00000000000E+00  0.22299929496E+03  0.33461423582E+04  0.33387033405E+04 0.  0.
        3    1    3    3  502    0 -0.55573592581E+03  0.81620496331E+03 -0.12374941944E+04  0.15831692432E+04  0.10100000352E+00 0.  1.
       -3    1    3    3    0  502  0.55573592581E+03 -0.81620496331E+03  0.14604934894E+04  0.17629731149E+04  0.10100000352E+00 0. -1.
</event>
<event>
 5   0  0.6085351E-07  0.3292458E+04  0.7818609E-02  0.8164817E-01
        1   -1    0    0  501    0  0.00000000000E+00  0.00000000000E+00  0.20562597110E+04  0.20562597110E+04  0.50400001928E-02 0.  1.
       -1   -1    0    0    0  501  0.00000000000E+00  0.00000000000E+00 -0.13179610555E+04  0.13179610555E+04  0.50400001928E-02 0. -1.
    10030    2    1    2    0    0  0.00000000000E+00  0.00000000000E+00  0.73829865542E+03  0.33742207665E+04  0.32924581814E+04 0.  0.
        1    1    3    3  502    0 -0.24692934798E+03 -0.14885741877E+04 -0.30540821940E+03  0.15395133632E+04  0.50400001928E-02 0. -1.
       -1    1    3    3    0  502  0.24692934798E+03  0.14885741877E+04  0.10437068748E+04  0.18347074033E+04  0.50400001928E-02 0.  1.
</event>
<event>
 5   0  0.5858859E-07  0.3302586E+04  0.7818609E-02  0.8162238E-01
        1   -1    0    0  501    0  0.00000000000E+00  0.00000000000E+00  0.13932624090E+04  0.13932624090E+04  0.50400001928E-02 0. -1.
       -1   -1    0    0    0  501  0.00000000000E+00  0.00000000000E+00 -0.19571108037E+04  0.19571108037E+04  0.50400001928E-02 0.  1.
    10030    2    1    2    0    0  0.00000000000E+00  0.00000000000E+00 -0.56384839478E+03  0.33503732127E+04  0.33025862066E+04 0.  0.
        3    1    3    3  502    0  0.54356094715E+03  0.24288974772E+03 -0.18444428112E+04  0.19381494336E+04  0.10100000352E+00 0.  1.
       -3    1    3    3    0  502 -0.54356094715E+03 -0.24288974772E+03  0.12805944164E+04  0.14122237791E+04  0.10100000352E+00 0. -1.
</event>
<event>
 5   0  0.1743810E-06  0.3296868E+04  0.7818609E-02  0.8163693E-01
       -2   -1    0    0    0  501  0.00000000000E+00  0.00000000000E+00  0.17338323497E+04  0.17338323497E+04  0.25500000920E-02 0. -1.
        2   -1    0    0  501    0  0.00000000000E+00  0.00000000000E+00 -0.15672419106E+04  0.15672419106E+04  0.25500000920E-02 0.  1.
    10030    2    1    2    0    0  0.00000000000E+00  0.00000000000E+00  0.16659043907E+03  0.33010742604E+04  0.32968680438E+04 0.  0.
        5    1    3    3  502    0 -0.41152562795E+03  0.98049760289E+03  0.13444988994E+04  0.17141844335E+04  0.46999998093E+01 0. -1.
       -5    1    3    3    0  502  0.41152562795E+03 -0.98049760289E+03 -0.11779084603E+04  0.15868898268E+04  0.46999998093E+01 0.  1.
</event>
<event>
 5   0  0.5988516E-07  0.3292750E+04  0.7818609E-02  0.8164742E-01
        1   -1    0    0  501    0  0.00000000000E+00  0.00000000000E+00  0.10426466998E+04  0.10426466998E+04  0.50400001928E-02 0. -1.
       -1   -1    0    0    0  501  0.00000000000E+00  0.00000000000E+00 -0.25996834540E+04  0.25996834540E+04  0.50400001928E-02 0.  1.
    10030    2    1    2    0    0  0.00000000000E+00  0.00000000000E+00 -0.15570367542E+04  0.36423301538E+04  0.32927504454E+04 0.  0.
        4    1    3    3  502    0 -0.43637924572E+03  0.15832236652E+04 -0.64987097368E+03  0.17661704095E+04  0.12699999809E+01 0.  1.
       -4    1    3    3    0  502  0.43637924572E+03 -0.15832236652E+04 -0.90716578051E+03  0.18761597443E+04  0.12699999809E+01 0. -1.
</event>
<event>
 5   0  0.6085351E-07  0.3256300E+04  0.7818609E-02  0.8174105E-01
       -1   -1    0    0    0  501  0.00000000000E+00  0.00000000000E+00  0.11240775501E+04  0.11240775501E+04  0.50400001928E-02 0.  1.
        1   -1    0    0  501    0  0.00000000000E+00  0.00000000000E+00 -0.23582652513E+04  0.23582652513E+04  0.50400001928E-02 0. -1.
    10030    2    1    2    0    0  0.00000000000E+00  0.00000000000E+00 -0.12341877012E+04  0.34823428014E+04  0.32563003708E+04 0.  0.
        1    1    3    3  502    0 -0.13153511128E+03 -0.58822990048E+03 -0.22345519394E+04  0.23144196403E+04  0.50400001928E-02 0. -1.
       -1    1    3    3    0  502  0.13153511128E+03  0.58822990048E+03  0.10003642382E+04  0.11679231612E+04  0.50400001928E-02 0.  1.
</event>
<event>
 5   0  0.5858859E-07  0.3298249E+04  0.7818609E-02  0.8163341E-01
       -1   -1    0    0    0  501  0.00000000000E+00  0.00000000000E+00  0.10508020662E+04  0.10508020662E+04  0.50400001928E-02 0.  1.
        1   -1    0    0  501    0  0.00000000000E+00  0.00000000000E+00 -0.25881290076E+04  0.25881290076E+04  0.50400001928E-02 0. -1.
    10030    2    1    2    0    0  0.00000000000E+00  0.00000000000E+00 -0.15373269415E+04  0.36389310738E+04  0.32982488134E+04 0.  0.
        3    1    3    3  502    0 -0.61433641304E+02 -0.78150808150E+03  0.83209186108E+03  0.11431998291E+04  0.10100000352E+00 0.  1.
       -3    1    3    3    0  502  0.61433641304E+02  0.78150808150E+03 -0.23694188026E+04  0.24957312447E+04  0.10100000352E+00 0. -1.
</event>
<event>
 5   0  0.1743810E-06  0.3367640E+04  0.7818609E-02  0.8145894E-01
       -2   -1    0    0    0  501  0.00000000000E+00  0.00000000000E+00  0.13510085544E+04  0.13510085544E+04  0.25500000920E-02 0. -1.
        2   -1    0    0  501    0  0.00000000000E+00  0.00000000000E+00 -0.20986174964E+04  0.20986174964E+04  0.25500000920E-02 0.  1.
    10030    2    1    2    0    0  0.00000000000E+00  0.00000000000E+00 -0.74760894197E+03  0.34496260508E+04  0.33676402361E+04 0.  0.
        5    1    3    3  502    0  0.15557815432E+04  0.23882786696E+03 -0.98647348496E+03  0.18575917169E+04  0.46999998093E+01 0. -1.
       -5    1    3    3    0  502 -0.15557815432E+04 -0.23882786696E+03  0.23886454299E+03  0.15920343338E+04  0.46999998093E+01 0.  1.
</event>
<event>
 5   0  0.1696681E-06  0.3291648E+04  0.7818609E-02  0.8165024E-01
        2   -1    0    0  501    0  0.00000000000E+00  0.00000000000E+00  0.20122914215E+04  0.20122914215E+04  0.25500000920E-02 0. -1.
       -2   -1    0    0    0  501  0.00000000000E+00  0.00000000000E+00 -0.13460954971E+04  0.13460954972E+04  0.25500000920E-02 0.  1.
    10030    2    1    2    0    0  0.00000000000E+00  0.00000000000E+00  0.66619592433E+03  0.33583869186E+04  0.32916478678E+04 0.  0.
        4    1    3    3  502    0 -0.11701622426E+04  0.89288731410E+03  0.10843749254E+04  0.18282226400E+04  0.12699999809E+01 0. -1.
       -4    1    3    3    0  502  0.11701622426E+04 -0.89288731410E+03 -0.41817900102E+03  0.15301642786E+04  0.12699999809E+01 0.  1.
</event>
<event>
 5   0  0.6023446E-07  0.3241086E+04  0.7818609E-02  0.8178050E-01
       -1   -1    0    0    0  501  0.00000000000E+00  0.00000000000E+00  0.13549281166E+04  0.13549281166E+04  0.50400001928E-02 0. -1.
        1   -1    0    0  501    0  0.00000000000E+00  0.00000000000E+00 -0.19382281651E+04  0.19382281651E+04  0.50400001928E-02 0.  1.
    10030    2    1    2    0    0  0.00000000000E+00  0.00000000000E+00 -0.58330004847E+03  0.32931562817E+04  0.32410861372E+04 0.  0.
        5    1    3    3  502    0  0.88239770620E+03  0.63137689164E+03  0.93138041431E+03  0.14299489702E+04  0.46999998093E+01 0. -1.
       -5    1    3    3    0  502 -0.88239770620E+03 -0.63137689164E+03 -0.15146804628E+04  0.18632073115E+04  0.46999998093E+01 0.  1.
</event>
<event>
 5   0  0.1696681E-06  0.3264621E+04  0.7818609E-02  0.8171956E-01
       -2   -1    0    0    0  501  0.00000000000E+00  0.00000000000E+00  0.79635317340E+03  0.79635317341E+03  0.25500000920E-02 0. -1.
        2   -1    0    0  501    0  0.00000000000E+00  0.00000000000E+00 -0.33457984249E+04  0.33457984249E+04  0.25500000920E-02 0.  1.
    10030    2    1    2    0    0  0.00000000000E+00  0.00000000000E+00 -0.25494452515E+04  0.41421515983E+04  0.32646207702E+04 0.  0.
        4    1    3    3  502    0 -0.44030403671E+03  0.79226933506E+03  0.44770686611E+03  0.10109408464E+04  0.12699999809E+01 0. -1.
       -4    1    3    3    0  502  0.44030403671E+03 -0.79226933506E+03 -0.29971521176E+04  0.31312107520E+04  0.12699999809E+01 0.  1.
</event>
<event>
 5   0  0.5858859E-07  0.3315356E+04  0.7818609E-02  0.8158999E-01
       -1   -1    0    0    0  501  0.00000000000E+00  0.00000000000E+00  0.30151456302E+04  0.30151456302E+04  0.50400001928E-02 0. -1.
        1   -1    0    0  501    0  0.00000000000E+00  0.00000000000E+00 -0.91136456661E+03  0.91136456663E+03  0.50400001928E-02 0.  1.
    10030    2    1    2    0    0  0.00000000000E+00  0.00000000000E+00  0.21037810635E+04  0.39265101968E+04  0.33153563251E+04 0.  0.
        3    1    3    3  502    0  0.87269918000E+03 -0.10860953419E+04 -0.11835617322E+02  0.13933223039E+04  0.10100000352E+00 0.  1.
       -3    1    3    3    0  502 -0.87269918000E+03  0.10860953419E+04  0.21156166809E+04  0.25331878929E+04  0.10100000352E+00 0. -1.
</event>
<event>
 5   0  0.1784626E-06  0.3244103E+04  0.7818609E-02  0.8177266E-01
       -2   -1    0    0    0  501  0.00000000000E+00  0.00000000000E+00  0.93138292675E+03  0.93138292675E+03  0.25500000920E-02 0. -1.
        2   -1    0    0  501    0  0.00000000000E+00  0.00000000000E+00 -0.28248862992E+04  0.28248862992E+04  0.25500000920E-02 0.  1.
    10030    2    1    2    0    0  0.00000000000E+00  0.00000000000E+00 -0.18935033724E+04  0.37562692259E+04  0.32441028770E+04 0.  0.
        2    1    3    3  502    0  0.80261802305E+03 -0.12646793317E+04 -0.22603415243E+03  0.15148270334E+04  0.25500000920E-02 0. -1.
       -2    1    3    3    0  502 -0.80261802305E+03  0.12646793317E+04 -0.16674692200E+04  0.22414421926E+04  0.25500000920E-02 0.  1.
</event>
<event>
 5   0  0.1728937E-06  0.3257277E+04  0.7818609E-02  0.8173852E-01
       -2   -1    0    0    0  501  0.00000000000E+00  0.00000000000E+00  0.10959162015E+04  0.10959162015E+04  0.25500000920E-02 0. -1.
        2   -1    0    0  501    0  0.00000000000E+00  0.00000000000E+00 -0.24203162483E+04  0.24203162483E+04  0.25500000920E-02 0.  1.
    10030    2    1    2    0    0  0.00000000000E+00  0.00000000000E+00 -0.13244000468E+04  0.35162324498E+04  0.32572772613E+04 0.  0.
        1    1    3    3  502    0 -0.35907541833E+03  0.22605675350E+03  0.10352014969E+04  0.11187845865E+04  0.50400001928E-02 0. -1.
       -1    1    3    3    0  502  0.35907541833E+03 -0.22605675350E+03 -0.23596015437E+04  0.23974478633E+04  0.50400001928E-02 0.  1.
</event>
<event>
 5   0  0.5988516E-07  0.3384359E+04  0.7818609E-02  0.8141756E-01
       -1   -1    0    0    0  501  0.00000000000E+00  0.00000000000E+00  0.18521281283E+04  0.18521281283E+04  0.50400001928E-02 0.  1.
        1   -1    0    0  501    0  0.00000000000E+00  0.00000000000E+00 -0.15460441588E+04  0.15460441588E+04  0.50400001928E-02 0. -1.
    10030    2    1    2    0    0  0.00000000000E+00  0.00000000000E+00  0.30608396956E+03  0.33981722871E+04  0.33843592446E+04 0.  0.
        4    1    3    3  502    0  0.43818135263E+03 -0.88298489875E+03  0.15340847447E+04  0.18234809695E+04  0.12699999809E+01 0.  1.
       -4    1    3    3    0  502 -0.43818135263E+03  0.88298489875E+03 -0.12280007751E+04  0.15746913176E+04  0.12699999809E+01 0. -1.
</event>
<event>
 5   0  0.1728937E-06  0.3295581E+04  0.7818609E-02  0.8164021E-01
       -2   -1    0    0    0  501  0.00000000000E+00  0.00000000000E+00  0.18817774045E+04  0.18817774045E+04  0.25500000920E-02 0.  1.
        2   -1    0    0  501    0  0.00000000000E+00  0.00000000000E+00 -0.14428983674E+04  0.14428983674E+04  0.25500000920E-02 0. -1.
    10030    2    1    2    0    0  0.00000000000E+00  0.00000000000E+00  0.43887903704E+03  0.33246757719E+04  0.32955810078E+04 0.  0.
        1    1    3    3  502    0  0.32831066983E+03  0.15162288316E+04 -0.34086979578E+03  0.15883733766E+04  0.50400001928E-02 0. -1.
       -1    1    3    3    0  502 -0.32831066983E+03 -0.15162288316E+04  0.77974883281E+03  0.17363023953E+04  0.50400001928E-02 0.  1.
</event>
<event>
 5   0  0.5985183E-07  0.3278638E+04  0.7818609E-02  0.8168352E-01
       -1   -1    0    0    0  501  0.00000000000E+00  0.00000000000E+00  0.15822465938E+04  0.15822465938E+04  0.50400001928E-02 0. -1.
        1   -1    0    0  501    0  0.00000000000E+00  0.00000000000E+00 -0.16984501872E+04  0.16984501872E+04  0.50400001928E-02 0.  1.
    10030    2    1    2    0    0  0.00000000000E+00  0.00000000000E+00 -0.11620359336E+03  0.32806967810E+04  0.32786381462E+04 0.  0.
        2    1    3    3  502    0  0.79926544520E+02 -0.14955119835E+04  0.60896713029E+03  0.16167205421E+04  0.25500000920E-02 0. -1.
       -2    1    3    3    0  502 -0.79926544520E+02  0.14955119835E+04 -0.72517072365E+03  0.16639762390E+04  0.25500000920E-02 0.  1.
</event>
<event>
 5   0  0.1696681E-06  0.3339432E+04  0.7818609E-02  0.8152934E-01
       -2   -1    0    0    0  501  0.00000000000E+00  0.00000000000E+00  0.14888301117E+04  0.14888301117E+04  0.25500000920E-02 0.  1.
        2   -1    0    0  501    0  0.00000000000E+00  0.00000000000E+00 -0.18725788048E+04  0.18725788048E+04  0.25500000920E-02 0. -1.
    10030    2    1    2    0    0  0.00000000000E+00  0.00000000000E+00 -0.38374869314E+03  0.33614089165E+04  0.33394321141E+04 0.  0.
        4    1    3    3  502    0 -0.40769331576E+03  0.97682273836E+03 -0.14917105507E+04  0.18290977234E+04  0.12699999809E+01 0. -1.
       -4    1    3    3    0  502  0.40769331576E+03 -0.97682273836E+03  0.11079618575E+04  0.15323111931E+04  0.12699999809E+01 0.  1.
</event>
<event>
 5   0  0.1832626E-06  0.3316728E+04  0.7818609E-02  0.8158652E-01
        2   -1    0    0  501    0  0.00000000000E+00  0.00000000000E+00  0.27099469659E+04  0.27099469659E+04  0.25500000920E-02 0.  1.
       -2   -1    0    0    0  501  0.00000000000E+00  0.00000000000E+00 -0.10148431054E+04  0.10148431054E+04  0.25500000920E-02 0. -1.
    10030    2    1    2    0    0  0.00000000000E+00  0.00000000000E+00  0.16951038605E+04  0.37247900714E+04  0.33167279023E+04 0.  0.
        3    1    3    3  502    0 -0.69524091638E+03  0.14717323334E+04  0.49097395453E+03  0.17001210037E+04  0.10100000352E+00 0. -1.
       -3    1    3    3    0  502  0.69524091638E+03 -0.14717323334E+04  0.12041299060E+04  0.20246690677E+04  0.10100000352E+00 0.  1.
</event>
<event>
 5   0  0.5985183E-07  0.2942130E+04  0.7818609E-02  0.8260452E-01
        1   -1    0    0  501    0  0.00000000000E+00  0.00000000000E+00  0.98214742162E+03  0.98214742163E+03  0.50400001928E-02 0. -1.
       -1   -1    0    0    0  501  0.00000000000E+00  0.00000000000E+00 -0.22033677089E+04  0.22033677089E+04  0.50400001928E-02 0.  1.
    10030    2    1    2    0    0  0.00000000000E+00  0.00000000000E+00 -0.12212202873E+04  0.31855151306E+04  0.29421297825E+04 0.  0.
        2    1    3    3  502    0 -0.42039600258E+03  0.61169352125E+03  0.76454770000E+03  0.10655678995E+04  0.25500000920E-02 0. -1.
       -2    1    3    3    0  502  0.42039600258E+03 -0.61169352125E+03 -0.19857679873E+04  0.21199472310E+04  0.25500000920E-02 0.  1.
</event>
<event>
 5   0  0.5988516E-07  0.3357565E+04  0.7818609E-02  0.8148400E-01
        1   -1    0    0  501    0  0.00000000000E+00  0.00000000000E+00  0.28451801845E+04  0.28451801845E+04  0.50400001928E-02 0.  1.
       -1   -1    0    0    0  501  0.00000000000E+00  0.00000000000E+00 -0.99055617237E+03  0.99055617238E+03  0.50400001928E-02 0. -1.
    10030    2    1    2    0    0  0.00000000000E+00  0.00000000000E+00  0.18546240121E+04  0.38357363569E+04  0.33575650661E+04 0.  0.
        4    1    3    3  502    0  0.29134405195E+03  0.16271646381E+03 -0.95228403995E+03  0.10090612022E+04  0.12699999809E+01 0. -1.
       -4    1    3    3    0  502 -0.29134405195E+03 -0.16271646381E+03  0.28069080521E+04  0.28266751547E+04  0.12699999809E+01 0.  1.
</event>
<event>
 5   0  0.5858859E-07  0.3398693E+04  0.7818609E-02  0.8138227E-01
       -1   -1    0    0    0  501  0.00000000000E+00  0.00000000000E+00  0.12652524991E+04  0.12652524991E+04  0.50400001928E-02 0. -1.
        1   -1    0    0  501    0  0.00000000000E+00  0.00000000000E+00 -0.22823739184E+04  0.22823739184E+04  0.50400001928E-02 0.  1.
    10030    2    1    2    0    0  0.00000000000E+00  0.00000000000E+00 -0.10171214193E+04  0.35476264175E+04  0.33986934573E+04 0.  0.
        3    1    3    3  502    0  0.10390584240E+04  0.52936673758E+03 -0.17988124412E+04  0.21437345359E+04  0.10100000352E+00 0.  1.
       -3    1    3    3    0  502 -0.10390584240E+04 -0.52936673758E+03  0.78169102190E+03  0.14038918816E+04  0.10100000352E+00 0. -1.
</event>
<event>
 5   0  0.5858859E-07  0.3259674E+04  0.7818609E-02  0.8173233E-01
       -1   -1    0    0    0  501  0.00000000000E+00  0.00000000000E+00  0.11621458548E+04  0.11621458548E+04  0.50400001928E-02 0.  1.
        1   -1    0    0  501    0  0.00000000000E+00  0.00000000000E+00 -0.22857450996E+04  0.22857450996E+04  0.50400001928E-02 0. -1.
    10030    2    1    2    0    0  0.00000000000E+00  0.00000000000E+00 -0.11235992447E+04  0.34478909544E+04  0.32596743351E+04 0.  0.
        3    1    3    3  502    0 -0.11665675767E+04  0.78428825001E+03 -0.14342795922E+04  0.20082693865E+04  0.10100000352E+00 0. -1.
       -3    1    3    3    0  502  0.11665675767E+04 -0.78428825001E+03  0.31068034744E+03  0.14396215679E+04  0.10100000352E+00 0.  1.
</event>
<event>
 5   0  0.1728937E-06  0.3287138E+04  0.7818609E-02  0.8166176E-01
       -2   -1    0    0    0  501  0.00000000000E+00  0.00000000000E+00  0.14729227535E+04  0.14729227535E+04  0.25500000920E-02 0.  1.
        2   -1    0    0  501    0  0.00000000000E+00  0.00000000000E+00 -0.18339855659E+04  0.18339855659E+04  0.25500000920E-02 0. -1.
    10030    2    1    2    0    0  0.00000000000E+00  0.00000000000E+00 -0.36106281231E+03  0.33069083194E+04  0.32871380072E+04 0.  0.
        1    1    3    3  502    0  0.86527734244E+03 -0.20671696063E+03 -0.15708281879E+04  0.18052528845E+04  0.50400001928E-02 0. -1.
       -1    1    3    3    0  502 -0.86527734244E+03  0.20671696063E+03  0.12097653756E+04  0.15016554349E+04  0.50400001928E-02 0.  1.
</event>
<event>
 5   0  0.1743810E-06  0.3296356E+04  0.7818609E-02  0.8163823E-01
        2   -1    0    0  501    0  0.00000000000E+00  0.00000000000E+00  0.11427029266E+04  0.11427029266E+04  0.25500000920E-02 0.  1.
       -2   -1    0    0    0  501  0.00000000000E+00  0.00000000000E+00 -0.23772500254E+04  0.23772500254E+04  0.25500000920E-02 0. -1.
    10030    2    1    2    0    0  0.00000000000E+00  0.00000000000E+00 -0.12345470988E+04  0.35199529519E+04  0.32963559038E+04 0.  0.
        5    1    3    3  502    0  0.55632985023E+02 -0.13360921897E+04  0.41152613200E+03  0.13991473174E+04  0.46999998093E+01 0.  1.
       -5    1    3    3    0  502 -0.55632985023E+02  0.13360921897E+04 -0.16460732308E+04  0.21208056346E+04  0.46999998093E+01 0. -1.
</event>
<event>
 5   0  0.1784626E-06  0.3300470E+04  0.7818609E-02  0.8162776E-01
       -2   -1    0    0    0  501  0.00000000000E+00  0.00000000000E+00  0.15923896792E+04  0.15923896792E+04  0.25500000920E-02 0.  1.
        2   -1    0    0  501    0  0.00000000000E+00  0.00000000000E+00 -0.17101812364E+04  0.17101812364E+04  0.25500000920E-02 0. -1.
    10030    2    1    2    0    0  0.00000000000E+00  0.00000000000E+00 -0.11779155722E+03  0.33025709156E+04  0.33004696335E+04 0.  0.
        2    1    3    3  502    0 -0.12497878794E+04  0.77771321566E+03 -0.80533810682E+03  0.16779085361E+04  0.25500000920E-02 0. -1.
       -2    1    3    3    0  502  0.12497878794E+04 -0.77771321566E+03  0.68754654960E+03  0.16246623795E+04  0.25500000920E-02 0.  1.
</event>
<event>
 5   0  0.6085351E-07  0.3230219E+04  0.7818609E-02  0.8180882E-01
        1   -1    0    0  501    0  0.00000000000E+00  0.00000000000E+00  0.27713943084E+04  0.27713943084E+04  0.50400001928E-02 0. -1.
       -1   -1    0    0    0  501  0.00000000000E+00  0.00000000000E+00 -0.94125111923E+03  0.94125111924E+03  0.50400001928E-02 0.  1.
    10030    2    1    2    0    0  0.00000000000E+00  0.00000000000E+00  0.18301431892E+04  0.37126454277E+04  0.32302185652E+04 0.  0.
        1    1    3    3  502    0  0.38549296314E+03  0.98834202316E+03  0.23148025728E+04  0.25463180733E+04  0.50400001928E-02 0. -1.
       -1    1    3    3    0  502 -0.38549296314E+03 -0.98834202316E+03 -0.48465938361E+03  0.11663273544E+04  0.50400001928E-02 0.  1.
</event>
<event>
 5   0  0.1784626E-06  0.3319902E+04  0.7818609E-02  0.8157850E-01
        2   -1    0    0  501    0  0.00000000000E+00  0.00000000000E+00  0.11221338272E+04  0.11221338272E+04  0.25500000920E-02 0. -1.
       -2   -1    0    0    0  501  0.00000000000E+00  0.00000000000E+00 -0.24555333713E+04  0.24555333713E+04  0.25500000920E-02 0.  1.
    10030    2    1    2    0    0  0.00000000000E+00  0.00000000000E+00 -0.13333995441E+04  0.35776671985E+04  0.33199018418E+04 0.  0.
        2    1    3    3  502    0  0.13161074561E+04  0.10113739499E+04 -0.64458952090E+03  0.17805930902E+04  0.25500000920E-02 0.  1.
       -2    1    3    3    0  502 -0.13161074561E+04 -0.10113739499E+04 -0.68881002321E+03  0.17970741083E+04  0.25500000920E-02 0. -1.
</event>
<event>
 5   0  0.6085351E-07  0.3276998E+04  0.7818609E-02  0.8168773E-01
       -1   -1    0    0    0  501  0.00000000000E+00  0.00000000000E+00  0.14615140878E+04  0.14615140878E+04  0.50400001928E-02 0. -1.
        1   -1    0    0  501    0  0.00000000000E+00  0.00000000000E+00 -0.18369163843E+04  0.18369163843E+04  0.50400001928E-02 0.  1.
    10030    2    1    2    0    0  0.00000000000E+00  0.00000000000E+00 -0.37540229648E+03  0.32984304721E+04  0.32769981225E+04 0.  0.
        1    1    3    3  502    0  0.88313308948E+03  0.99310686210E+03  0.77694775526E+03  0.15394262268E+04  0.50400001928E-02 0. -1.
       -1    1    3    3    0  502 -0.88313308948E+03 -0.99310686210E+03 -0.11523500517E+04  0.17590042453E+04  0.50400001928E-02 0.  1.
</event>
<event>
 5   0  0.6023446E-07  0.3201082E+04  0.7818609E-02  0.8188531E-01
        1   -1    0    0  501    0  0.00000000000E+00  0.00000000000E+00  0.12838083768E+04  0.12838083768E+04  0.50400001928E-02 0. -1.
       -1   -1    0    0    0  501  0.00000000000E+00  0.00000000000E+00 -0.19954158422E+04  0.19954158422E+04  0.50400001928E-02 0.  1.
    10030    2    1    2    0    0  0.00000000000E+00  0.00000000000E+00 -0.71160746533E+03  0.32792242190E+04  0.32010820505E+04 0.  0.
        5    1    3    3  502    0 -0.92141075804E+03 -0.10564729235E+04 -0.11470422783E+04  0.18113146886E+04  0.46999998093E+01 0.  1.
       -5    1    3    3    0  502  0.92141075804E+03  0.10564729235E+04  0.43543481294E+03  0.14679095304E+04  0.46999998093E+01 0. -1.
</event>
<event>
 5   0  0.1696681E-06  0.3284603E+04  0.7818609E-02  0.8166824E-01
       -2   -1    0    0    0  501  0.00000000000E+00  0.00000000000E+00  0.12257059589E+04  0.12257059589E+04  0.25500000920E-02 0.  1.
        2   -1    0    0  501    0  0.00000000000E+00  0.00000000000E+00 -0.22004908206E+04  0.22004908206E+04  0.25500000920E-02 0. -1.
    10030    2    1    2    0    0  0.00000000000E+00  0.00000000000E+00 -0.97478486169E+03  0.34261967795E+04  0.32846033011E+04 0.  0.
        4    1    3    3  502    0 -0.14728948919E+03  0.14219052170E+04  0.35594265594E+03  0.14731617110E+04  0.12699999809E+01 0.  1.
       -4    1    3    3    0  502  0.14728948919E+03 -0.14219052170E+04 -0.13307275176E+04  0.19530350685E+04  0.12699999809E+01 0. -1.
</event>
<event>
 5   0  0.5858859E-07  0.3415841E+04  0.7818609E-02  0.8134029E-01
        1   -1    0    0  501    0  0.00000000000E+00  0.00000000000E+00  0.14277987678E+04  0.14277987678E+04  0.50400001928E-02 0. -1.
       -1   -1    0    0    0  501  0.00000000000E+00  0.00000000000E+00 -0.20429993626E+04  0.20429993626E+04  0.50400001928E-02 0.  1.
    10030    2    1    2    0    0  0.00000000000E+00  0.00000000000E+00 -0.61520059480E+03  0.34707981303E+04  0.34158407296E+04 0.  0.
        3    1    3    3  502    0 -0.12333318199E+04  0.62644965262E+03  0.71023760480E+03  0.15549868201E+04  0.10100000352E+00 0. -1.
       -3    1    3    3    0  502  0.12333318199E+04 -0.62644965262E+03 -0.13254381996E+04  0.19158113102E+04  0.10100000352E+00 0.  1.
</event>
<event>
 5   0  0.5685000E-07  0.3301804E+04  0.7818609E-02  0.8162436E-01
        3   -1    0    0  501    0  0.00000000000E+00  0.00000000000E+00  0.12408645418E+04  0.12408645459E+04  0.10100000352E+00 0. -1.
       -3   -1    0    0    0  501  0.00000000000E+00  0.00000000000E+00 -0.21964348412E+04  0.21964348435E+04  0.10100000352E+00 0.  1.
    10030    2    1    2    0    0  0.00000000000E+00  0.00000000000E+00 -0.95557029941E+03  0.34372993895E+04  0.33018044303E+04 0.  0.
        5    1    3    3  502    0 -0.97612298802E+03  0.13281138966E+04 -0.57518426144E+03  0.17457266781E+04  0.46999998093E+01 0. -1.
       -5    1    3    3    0  502  0.97612298802E+03 -0.13281138966E+04 -0.38038603797E+03  0.16915727114E+04  0.46999998093E+01 0.  1.
</event>
<event>
 5   0  0.6085351E-07  0.3067886E+04  0.7818609E-02  0.8224607E-01
       -1   -1    0    0    0  501  0.00000000000E+00  0.00000000000E+00  0.30732779689E+04  0.30732779689E+04  0.50400001928E-02 0.  1.
        1   -1    0    0  501    0  0.00000000000E+00  0.00000000000E+00 -0.76562581462E+03  0.76562581464E+03  0.50400001928E-02 0. -1.
    10030    2    1    2    0    0  0.00000000000E+00  0.00000000000E+00  0.23076521542E+04  0.38389037835E+04  0.30678858835E+04 0.  0.
        1    1    3    3  502    0 -0.29056133621E+03 -0.29954686865E+03 -0.69322699214E+03  0.80914638928E+03  0.50400001928E-02 0. -1.
       -1    1    3    3    0  502  0.29056133621E+03  0.29954686865E+03  0.30008791464E+04  0.30297573942E+04  0.50400001928E-02 0.  1.
</event>
<event>
 5   0  0.5985183E-07  0.3277944E+04  0.7818609E-02  0.8168530E-01
       -1   -1    0    0    0  501  0.00000000000E+00  0.00000000000E+00  0.95244498329E+03  0.95244498331E+03  0.50400001928E-02 0. -1.
        1   -1    0    0  501    0  0.00000000000E+00  0.00000000000E+00 -0.28203513027E+04  0.28203513027E+04  0.50400001928E-02 0.  1.
    10030    2    1    2    0    0  0.00000000000E+00  0.00000000000E+00 -0.18679063194E+04  0.37727962860E+04  0.32779441420E+04 0.  0.
        2    1    3    3  502    0 -0.10201948163E+04  0.29551283385E+03 -0.23706331715E+04  0.25976964665E+04  0.25500000920E-02 0.  1.
       -2    1    3    3    0  502  0.10201948163E+04 -0.29551283385E+03  0.50272685209E+03  0.11750998195E+04  0.25500000920E-02 0. -1.
</event>
<event>
 5   0  0.5988516E-07  0.3342908E+04  0.7818609E-02  0.8152063E-01
       -1   -1    0    0    0  501  0.00000000000E+00  0.00000000000E+00  0.18105984621E+04  0.18105984621E+04  0.50400001928E-02 0. -1.
        1   -1    0    0  501    0  0.00000000000E+00  0.00000000000E+00 -0.15430026472E+04  0.15430026472E+04  0.50400001928E-02 0.  1.
    10030    2    1    2    0    0  0.00000000000E+00  0.00000000000E+00  0.26759581486E+03  0.33536011093E+04  0.33429078480E+04 0.  0.
        4    1    3    3  502    0 -0.54085271117E+03 -0.14351236419E+04  0.80049508575E+03  0.17299987046E+04  0.12699999809E+01 0. -1.
       -4    1    3    3    0  502  0.54085271117E+03  0.14351236419E+04 -0.53289927089E+03  0.16236024047E+04  0.12699999809E+01 0.  1.
</event>
<event>
 5   0  0.5685000E-07  0.3244860E+04  0.7818609E-02  0.8177069E-01
        3   -1    0    0  501    0  0.00000000000E+00  0.00000000000E+00  0.15907243475E+04  0.15907243507E+04  0.10100000352E+00 0. -1.
       -3   -1    0    0    0  501  0.00000000000E+00  0.00000000000E+00 -0.16547676141E+04  0.16547676171E+04  0.10100000352E+00 0.  1.
    10030    2    1    2    0    0  0.00000000000E+00  0.00000000000E+00 -0.64043266568E+02  0.32454919678E+04  0.32448600237E+04 0.  0.
        2    1    3    3  502    0 -0.10779973012E+04  0.10990924984E+04  0.48012949549E+03  0.16126397099E+04  0.25500000920E-02 0. -1.
       -2    1    3    3    0  502  0.10779973012E+04 -0.10990924984E+04 -0.54417276206E+03  0.16328522580E+04  0.25500000920E-02 0.  1.
</event>
<event>
 5   0  0.1728937E-06  0.3285250E+04  0.7818609E-02  0.8166659E-01
       -2   -1    0    0    0  501  0.00000000000E+00  0.00000000000E+00  0.11898167914E+04  0.11898167914E+04  0.25500000920E-02 0. -1.
        2   -1    0    0  501    0  0.00000000000E+00  0.00000000000E+00 -0.22677589771E+04  0.22677589771E+04  0.25500000920E-02 0.  1.
    10030    2    1    2    0    0  0.00000000000E+00  0.00000000000E+00 -0.10779421857E+04  0.34575757684E+04  0.32852504986E+04 0.  0.
        1    1    3    3  502    0  0.62935361967E+03 -0.64836698185E+03 -0.19826958630E+04  0.21788870110E+04  0.50400001928E-02 0.  1.
       -1    1    3    3    0  502 -0.62935361967E+03  0.64836698185E+03  0.90475367728E+03  0.12786887574E+04  0.50400001928E-02 0. -1.
</event>
<event>
 5   0  0.5985183E-07  0.3298781E+04  0.7818609E-02  0.8163206E-01
       -1   -1    0    0    0  501  0.00000000000E+00  0.00000000000E+00  0.10512253067E+04  0.10512253067E+04  0.50400001928E-02 0.  1.
        1   -1    0    0  501    0  0.00000000000E+00  0.00000000000E+00 -0.25879223401E+04  0.25879223401E+04  0.50400001928E-02 0. -1.
    10030    2    1    2    0    0  0.00000000000E+00  0.00000000000E+00 -0.15366970335E+04  0.36391476468E+04  0.32987812632E+04 0.  0.
        2    1    3    3  502    0  0.53918877801E+03  0.35969053781E+03  0.90484691090E+03  0.11130362768E+04  0.25500000920E-02 0.  1.
       -2    1    3    3    0  502 -0.53918877801E+03 -0.35969053781E+03 -0.24415439444E+04  0.25261113700E+04  0.25500000920E-02 0. -1.
</event>
<event>
 5   0  0.1832626E-06  0.3267755E+04  0.7818609E-02  0.8171149E-01
        2   -1    0    0  501    0  0.00000000000E+00  0.00000000000E+00  0.18014148163E+04  0.18014148163E+04  0.25500000920E-02 0. -1.
       -2   -1    0    0    0  501  0.00000000000E+00  0.00000000000E+00 -0.14819220680E+04  0.14819220680E+04  0.25500000920E-02 0.  1.
    10030    2    1    2    0    0  0.00000000000E+00  0.00000000000E+00  0.31949274824E+03  0.32833368843E+04  0.32677554192E+04 0.  0.
        3    1    3    3  502    0 -0.93217911968E+03  0.12884512730E+04  0.53635593161E+03  0.16783153129E+04  0.10100000352E+00 0. -1.
       -3    1    3    3    0  502  0.93217911968E+03 -0.12884512730E+04 -0.21686318337E+03  0.16050215714E+04  0.10100000352E+00 0.  1.
</event>
<event>
 5   0  0.5988516E-07  0.3288252E+04  0.7818609E-02  0.8165891E-01
        1   -1    0    0  501    0  0.00000000000E+00  0.00000000000E+00  0.20022784642E+04  0.20022784642E+04  0.50400001928E-02 0.  1.
       -1   -1    0    0    0  501  0.00000000000E+00  0.00000000000E+00 -0.13500368743E+04  0.13500368744E+04  0.50400001928E-02 0. -1.
    10030    2    1    2    0    0  0.00000000000E+00  0.00000000000E+00  0.65224158984E+03  0.33523153385E+04  0.32882516688E+04 0.  0.
        4    1    3    3  502    0 -0.11469621382E+03  0.15812480430E+04 -0.11784901107E+03  0.15897769017E+04  0.12699999809E+01 0. -1.
       -4    1    3    3    0  502  0.11469621382E+03 -0.15812480430E+04  0.77009060091E+03  0.17625384368E+04  0.12699999809E+01 0.  1.
</event>
<event>
 5   0  0.1728937E-06  0.3299610E+04  0.7818609E-02  0.8162995E-01
        2   -1    0    0  501    0  0.00000000000E+00  0.00000000000E+00  0.17202683412E+04  0.17202683412E+04  0.25500000920E-02 0. -1.
       -2   -1    0    0    0  501  0.00000000000E+00  0.00000000000E+00 -0.15822279496E+04  0.15822279496E+04  0.25500000920E-02 0.  1.
    10030    2    1    2    0    0  0.00000000000E+00  0.00000000000E+00  0.13804039161E+03  0.33024962908E+04  0.32996100680E+04 0.  0.
        1    1    3    3  502    0 -0.46092171780E+03  0.15825667188E+04  0.13901276782E+03  0.16541737511E+04  0.50400001928E-02 0.  1.
       -1    1    3    3    0  502  0.46092171780E+03 -0.15825667188E+04 -0.97237620532E+00  0.16483225397E+04  0.50400001928E-02 0. -1.
</event>
<event>
 5   0  0.5858859E-07  0.3291140E+04  0.7818609E-02  0.8165153E-01
       -1   -1    0    0    0  501  0.00000000000E+00  0.00000000000E+00  0.16691017079E+04  0.16691017080E+04  0.50400001928E-02 0.  1.
        1   -1    0    0  501    0  0.00000000000E+00  0.00000000000E+00 -0.16223702681E+04  0.16223702681E+04  0.50400001928E-02 0. -1.
    10030    2    1    2    0    0  0.00000000000E+00  0.00000000000E+00  0.46731439877E+02  0.32914719760E+04  0.32911402191E+04 0.  0.
        3    1    3    3  502    0 -0.96979740636E+03  0.93617427591E+03  0.96737383712E+03  0.16591387631E+04  0.10100000352E+00 0.  1.
       -3    1    3    3    0  502  0.96979740636E+03 -0.93617427591E+03 -0.92064239724E+03  0.16323332129E+04  0.10100000352E+00 0. -1.
</event>
<event>
 5   0  0.1696681E-06  0.3258937E+04  0.7818609E-02  0.8173423E-01
       -2   -1    0    0    0  501  0.00000000000E+00  0.00000000000E+00  0.95710827668E+03  0.95710827669E+03  0.25500000920E-02 0. -1.
        2   -1    0    0  501    0  0.00000000000E+00  0.00000000000E+00 -0.27741554565E+04  0.27741554565E+04  0.25500000920E-02 0.  1.
    10030    2    1    2    0    0  0.00000000000E+00  0.00000000000E+00 -0.18170471798E+04  0.37312637332E+04  0.32589367274E+04 0.  0.
        4    1    3    3  502    0  0.14482800422E+04  0.33640367444E+03 -0.14520189335E+03  0.14939102100E+04  0.12699999809E+01 0. -1.
       -4    1    3    3    0  502 -0.14482800422E+04 -0.33640367444E+03 -0.16718452865E+04  0.22373535232E+04  0.12699999809E+01 0.  1.
</event>
<event>
 5   0  0.1696681E-06  0.3024226E+04  0.7818609E-02  0.8236847E-01
       -2   -1    0    0    0  501  0.00000000000E+00  0.00000000000E+00  0.15039853016E+04  0.15039853016E+04  0.25500000920E-02 0. -1.
        2   -1    0    0  501    0  0.00000000000E+00  0.00000000000E+00 -0.15202842225E+04  0.15202842225E+04  0.25500000920E-02 0.  1.
    10030    2    1    2    0    0  0.00000000000E+00  0.00000000000E+00 -0.16298920887E+02  0.30242695241E+04  0.30242256033E+04 0.  0.
        4    1    3    3  502    0  0.54113868125E+03  0.70961989790E+03 -0.12288604507E+04  0.15187136307E+04  0.12699999809E+01 0.  1.
       -4    1    3    3    0  502 -0.54113868125E+03 -0.70961989790E+03  0.12125615298E+04  0.15055558934E+04  0.12699999809E+01 0. -1.
</event>
<event>
 5   0  0.1743810E-06  0.3294036E+04  0.7818609E-02  0.8164415E-01
        2   -1    0    0  501    0  0.00000000000E+00  0.00000000000E+00  0.21564777042E+04  0.21564777042E+04  0.25500000920E-02 0.  1.
       -2   -1    0    0    0  501  0.00000000000E+00  0.00000000000E+00 -0.12579159348E+04  0.12579159348E+04  0.25500000920E-02 0. -1.
    10030    2    1    2    0    0  0.00000000000E+00  0.00000000000E+00  0.89856176941E+03  0.34143936391E+04  0.32940356205E+04 0.  0.
        5    1    3    3  502    0  0.13505996025E+04 -0.90947861890E+03  0.70607248384E+03  0.17747763485E+04  0.46999998093E+01 0.  1.
       -5    1    3    3    0  502 -0.13505996025E+04  0.90947861890E+03  0.19248928557E+03  0.16396172906E+04  0.46999998093E+01 0. -1.
</event>
<event>
 5   0  0.1784626E-06  0.3376605E+04  0.7818609E-02  0.8143672E-01
        2   -1    0    0  501    0  0.00000000000E+00  0.00000000000E+00  0.26446388238E+04  0.26446388238E+04  0.25500000920E-02 0.  1.
       -2   -1    0    0    0  501  0.00000000000E+00  0.00000000000E+00 -0.10777900862E+04  0.10777900862E+04  0.25500000920E-02 0. -1.
    10030    2    1    2    0    0  0.00000000000E+00  0.00000000000E+00  0.15668487376E+04  0.37224289100E+04  0.33766051033E+04 0.  0.
        2    1    3    3  502    0  0.12244452668E+04  0.10876747829E+04  0.12353656540E+04  0.20514460617E+04  0.25500000920E-02 0.  1.
       -2    1    3    3    0  502 -0.12244452668E+04 -0.10876747829E+04  0.33148308361E+03  0.16709828484E+04  0.25500000920E-02 0. -1.
</event>
<event>
 5   0  0.1832626E-06  0.3298652E+04  0.7818609E-02  0.8163238E-01
       -2   -1    0    0    0  501  0.00000000000E+00  0.00000000000E+00  0.15403107781E+04  0.15403107781E+04  0.25500000920E-02 0.  1.
        2   -1    0    0  501    0  0.00000000000E+00  0.00000000000E+00 -0.17660572412E+04  0.17660572412E+04  0.25500000920E-02 0. -1.
    10030    2    1    2    0    0  0.00000000000E+00  0.00000000000E+00 -0.22574646306E+03  0.33063680192E+04  0.32986524541E+04 0.  0.
        3    1    3    3  502    0 -0.14045439492E+04  0.86412485262E+03 -0.84143900573E+02  0.16512224782E+04  0.10100000352E+00 0.  1.
       -3    1    3    3    0  502  0.14045439492E+04 -0.86412485262E+03 -0.14160256249E+03  0.16551455411E+04  0.10100000352E+00 0. -1.
</event>
<event>
 5   0  0.1832626E-06  0.2935121E+04  0.7818609E-02  0.8262504E-01
        2   -1    0    0  501    0  0.00000000000E+00  0.00000000000E+00  0.12524507276E+04  0.12524507276E+04  0.25500000920E-02 0. -1.
       -2   -1    0    0    0  501  0.00000000000E+00  0.00000000000E+00 -0.17196159699E+04  0.17196159699E+04  0.25500000920E-02 0.  1.
    10030    2    1    2    0    0  0.00000000000E+00  0.00000000000E+00 -0.46716524230E+03  0.29720666974E+04  0.29351213076E+04 0.  0.
        3    1    3    3  502    0 -0.85970236256E+03 -0.67033496340E+03  0.76127975622E+03  0.13296555918E+04  0.10100000352E+00 0. -1.
       -3    1    3    3    0  502  0.85970236256E+03  0.67033496340E+03 -0.12284449985E+04  0.16424111056E+04  0.10100000352E+00 0.  1.
</event>
<event>
 5   0  0.1784626E-06  0.3355517E+04  0.7818609E-02  0.8148911E-01
        2   -1    0    0  501    0  0.00000000000E+00  0.00000000000E+00  0.14965567487E+04  0.14965567487E+04  0.25500000920E-02 0.  1.
       -2   -1    0    0    0  501  0.00000000000E+00  0.00000000000E+00 -0.18809004627E+04  0.18809004627E+04  0.25500000920E-02 0. -1.
    10030    2    1    2    0    0  0.00000000000E+00  0.00000000000E+00 -0.38434371394E+03  0.33774572114E+04  0.33555174153E+04 0.  0.
        2    1    3    3  502    0 -0.11119576864E+04  0.81632162352E+03  0.76908203021E+03  0.15793410203E+04  0.25500000920E-02 0. -1.
       -2    1    3    3    0  502  0.11119576864E+04 -0.81632162352E+03 -0.11534257442E+04  0.17981161911E+04  0.25500000920E-02 0.  1.
</event>
<event>
 5   0  0.1743810E-06  0.3565289E+04  0.7818609E-02  0.8098489E-01
        2   -1    0    0  501    0  0.00000000000E+00  0.00000000000E+00  0.22997940846E+04  0.22997940846E+04  0.25500000920E-02 0.  1.
       -2   -1    0    0    0  501  0.00000000000E+00  0.00000000000E+00 -0.13817850930E+04  0.13817850930E+04  0.25500000920E-02 0. -1.
    10030    2    1    2    0    0  0.00000000000E+00  0.00000000000E+00  0.91800899157E+03  0.36815791777E+04  0.35652888709E+04 0.  0.
        5    1    3    3  502    0  0.81253043043E+03  0.12835866051E+04 -0.50415620338E+03  0.16006235787E+04  0.46999998093E+01 0. -1.
       -5    1    3    3    0  502 -0.81253043043E+03 -0.12835866051E+04  0.14221651949E+04  0.20809555990E+04  0.46999998093E+01 0.  1.
</event>
<event>
 5   0  0.1832626E-06  0.3304095E+04  0.7818609E-02  0.8161854E-01
        2   -1    0    0  501    0  0.00000000000E+00  0.00000000000E+00  0.22562124814E+04  0.22562124814E+04  0.25500000920E-02 0. -1.
       -2   -1    0    0    0  501  0.00000000000E+00  0.00000000000E+00 -0.12096649831E+04  0.12096649831E+04  0.25500000920E-02 0.  1.
    10030    2    1    2    0    0  0.00000000000E+00  0.00000000000E+00  0.10465474983E+04  0.34658774645E+04  0.33040951760E+04 0.  0.
        3    1    3    3  502    0 -0.98725075963E+03  0.12285323348E+03  0.19067553942E+04  0.21506913127E+04  0.10100000352E+00 0. -1.
       -3    1    3    3    0  502  0.98725075963E+03 -0.12285323348E+03 -0.86020789583E+03  0.13151861517E+04  0.10100000352E+00 0.  1.
</event>
<event>
 5   0  0.5988516E-07  0.3309112E+04  0.7818609E-02  0.8160581E-01
       -1   -1    0    0    0  501  0.00000000000E+00  0.00000000000E+00  0.13503859718E+04  0.13503859718E+04  0.50400001928E-02 0.  1.
        1   -1    0    0  501    0  0.00000000000E+00  0.00000000000E+00 -0.20272398592E+04  0.20272398592E+04  0.50400001928E-02 0. -1.
    10030    2    1    2    0    0  0.00000000000E+00  0.00000000000E+00 -0.67685388747E+03  0.33776258310E+04  0.33091124292E+04 0.  0.
        4    1    3    3  502    0 -0.78173138860E+03  0.17627054251E+03 -0.18159400707E+04  0.19848967785E+04  0.12699999809E+01 0. -1.
       -4    1    3    3    0  502  0.78173138860E+03 -0.17627054251E+03  0.11390861832E+04  0.13927290525E+04  0.12699999809E+01 0.  1.
</event>
<event>
 5   0  0.1728937E-06  0.3264041E+04  0.7818609E-02  0.8172106E-01
       -2   -1    0    0    0  501  0.00000000000E+00  0.00000000000E+00  0.11970581465E+04  0.11970581465E+04  0.25500000920E-02 0. -1.
        2   -1    0    0  501    0  0.00000000000E+00  0.00000000000E+00 -0.22250311589E+04  0.22250311589E+04  0.25500000920E-02 0.  1.
    10030    2    1    2    0    0  0.00000000000E+00  0.00000000000E+00 -0.10279730125E+04  0.34220893054E+04  0.32640414673E+04 0.  0.
        1    1    3    3  502    0  0.14510942777E+04 -0.68790552210E+03 -0.81893656402E+03  0.18026496348E+04  0.50400001928E-02 0.  1.
       -1    1    3    3    0  502 -0.14510942777E+04  0.68790552210E+03 -0.20903644843E+03  0.16194396706E+04  0.50400001928E-02 0. -1.
</event>
<event>
 5   0  0.1784626E-06  0.3001201E+04  0.7818609E-02  0.8243388E-01
       -2   -1    0    0    0  501  0.00000000000E+00  0.00000000000E+00  0.13122764966E+04  0.13122764966E+04  0.25500000920E-02 0.  1.
        2   -1    0    0  501    0  0.00000000000E+00  0.00000000000E+00 -0.17159511519E+04  0.17159511519E+04  0.25500000920E-02 0. -1.
    10030    2    1    2    0    0  0.00000000000E+00  0.00000000000E+00 -0.40367465533E+03  0.30282276484E+04  0.30012013367E+04 0.  0.
        2    1    3    3  502    0 -0.52954365772E+03  0.24512407765E+03 -0.15967847113E+04  0.17000657967E+04  0.25500000920E-02 0. -1.
       -2    1    3    3    0  502  0.52954365772E+03 -0.24512407765E+03  0.11931100559E+04  0.13281618518E+04  0.25500000920E-02 0.  1.
</event>
<event>
 5   0  0.5985183E-07  0.3307684E+04  0.7818609E-02  0.8160943E-01
       -1   -1    0    0    0  501  0.00000000000E+00  0.00000000000E+00  0.12087226210E+04  0.12087226210E+04  0.50400001928E-02 0.  1.
        1   -1    0    0  501    0  0.00000000000E+00  0.00000000000E+00 -0.22628796724E+04  0.22628796724E+04  0.50400001928E-02 0. -1.
    10030    2    1    2    0    0  0.00000000000E+00  0.00000000000E+00 -0.10541570515E+04  0.34716022934E+04  0.33076842949E+04 0.  0.
        2    1    3    3  502    0 -0.42695927846E+03 -0.14996481785E+04  0.51564250282E+02  0.15600954319E+04  0.25500000920E-02 0.  1.
       -2    1    3    3    0  502  0.42695927846E+03  0.14996481785E+04 -0.11057213018E+04  0.19115068615E+04  0.25500000920E-02 0. -1.
</event>
<event>
 5   0  0.1743810E-06  0.3323782E+04  0.7818609E-02  0.8156870E-01
        2   -1    0    0  501    0  0.00000000000E+00  0.00000000000E+00  0.21308583605E+04  0.21308583605E+04  0.25500000920E-02 0. -1.
       -2   -1    0    0    0  501  0.00000000000E+00  0.00000000000E+00 -0.12961355947E+04  0.12961355947E+04  0.25500000920E-02 0.  1.
    10030    2    1    2    0    0  0.00000000000E+00  0.00000000000E+00  0.83472276578E+03  0.34269939552E+04  0.33237818029E+04 0.  0.
        5    1    3    3  502    0 -0.37487698023E+03  0.10498998894E+03  0.20831747636E+04  0.21192439298E+04  0.46999998093E+01 0. -1.
       -5    1    3    3    0  502  0.37487698023E+03 -0.10498998894E+03 -0.12484519979E+04  0.13077500254E+04  0.46999998093E+01 0.  1.
</event>
<event>
 5   0  0.5858859E-07  0.3224553E+04  0.7818609E-02  0.8182363E-01
        1   -1    0    0  501    0  0.00000000000E+00  0.00000000000E+00  0.16962297948E+04  0.16962297948E+04  0.50400001928E-02 0. -1.
       -1   -1    0    0    0  501  0.00000000000E+00  0.00000000000E+00 -0.15324782075E+04  0.15324782075E+04  0.50400001928E-02 0.  1.
    10030    2    1    2    0    0  0.00000000000E+00  0.00000000000E+00  0.16375158727E+03  0.32287080023E+04  0.32245528034E+04 0.  0.
        3    1    3    3  502    0  0.87879310535E+03 -0.58080779495E+03 -0.11402789610E+04  0.15523695229E+04  0.10100000352E+00 0.  1.
       -3    1    3    3    0  502 -0.87879310535E+03  0.58080779495E+03  0.13040305482E+04  0.16763384794E+04  0.10100000352E+00 0. -1.
</event>
<event>
 5   0  0.5858859E-07  0.2786793E+04  0.7818609E-02  0.8307381E-01
        1   -1    0    0  501    0  0.00000000000E+00  0.00000000000E+00  0.21905205572E+04  0.21905205572E+04  0.50400001928E-02 0.  1.
       -1   -1    0    0    0  501  0.00000000000E+00  0.00000000000E+00 -0.88634325241E+03  0.88634325243E+03  0.50400001928E-02 0. -1.
    10030    2    1    2    0    0  0.00000000000E+00  0.00000000000E+00  0.13041773047E+04  0.30768638096E+04  0.27867925040E+04 0.  0.
        3    1    3    3  502    0  0.84142936659E+02  0.63205195871E+02  0.21861265469E+04  0.21886580865E+04  0.10100000352E+00 0.  1.
       -3    1    3    3    0  502 -0.84142936659E+02 -0.63205195871E+02 -0.88194924213E+03  0.88820572306E+03  0.10100000352E+00 0. -1.
</event>
<event>
 5   0  0.5988516E-07  0.3246768E+04  0.7818609E-02  0.8176574E-01
       -1   -1    0    0    0  501  0.00000000000E+00  0.00000000000E+00  0.15343418624E+04  0.15343418624E+04  0.50400001928E-02 0.  1.
        1   -1    0    0  501    0  0.00000000000E+00  0.00000000000E+00 -0.17175932289E+04  0.17175932289E+04  0.50400001928E-02 0. -1.
    10030    2    1    2    0    0  0.00000000000E+00  0.00000000000E+00 -0.18325136649E+03  0.32519350914E+04  0.32467677427E+04 0.  0.
        4    1    3    3  502    0  0.83568134997E+03 -0.81958838863E+03  0.10350134936E+04  0.15624797567E+04  0.12699999809E+01 0.  1.
       -4    1    3    3    0  502 -0.83568134997E+03  0.81958838863E+03 -0.12182648601E+04  0.16894553346E+04  0.12699999809E+01 0. -1.
</event>
<event>
 5   0  0.1696681E-06  0.3259634E+04  0.7818609E-02  0.8173243E-01
        2   -1    0    0  501    0  0.00000000000E+00  0.00000000000E+00  0.17899879685E+04  0.17899879685E+04  0.25500000920E-02 0.  1.
       -2   -1    0    0    0  501  0.00000000000E+00  0.00000000000E+00 -0.14839782038E+04  0.14839782038E+04  0.25500000920E-02 0. -1.
    10030    2    1    2    0    0  0.00000000000E+00  0.00000000000E+00  0.30600976461E+03  0.32739661723E+04  0.32596338017E+04 0.  0.
        4    1    3    3  502    0  0.12899331037E+04  0.49963039121E+03  0.10186199902E+04  0.17178900539E+04  0.12699999809E+01 0.  1.
       -4    1    3    3    0  502 -0.12899331037E+04 -0.49963039121E+03 -0.71261022561E+03  0.15560761184E+04  0.12699999809E+01 0. -1.
</event>
<event>
 5   0  0.1784626E-06  0.3290825E+04  0.7818609E-02  0.8165234E-01
        2   -1    0    0  501    0  0.00000000000E+00  0.00000000000E+00  0.20351067124E+04  0.20351067124E+04  0.25500000920E-02 0.  1.
       -2   -1    0    0    0  501  0.00000000000E+00  0.00000000000E+00 -0.13303390365E+04  0.13303390365E+04  0.25500000920E-02 0. -1.
    10030    2    1    2    0    0  0.00000000000E+00  0.00000000000E+00  0.70476767591E+03  0.33654457489E+04  0.32908247617E+04 0.  0.
        2    1    3    3  502    0  0.11922765655E+04 -0.11338836249E+04  0.36557672819E+03  0.16854856356E+04  0.25500000920E-02 0. -1.
       -2    1    3    3    0  502 -0.11922765655E+04  0.11338836249E+04  0.33919094772E+03  0.16799601134E+04  0.25500000920E-02 0.  1.
</event>
<event>
 5   0  0.1696681E-06  0.3311767E+04  0.7818609E-02  0.8159908E-01
        2   -1    0    0  501    0  0.00000000000E+00  0.00000000000E+00  0.17098062475E+04  0.17098062475E+04  0.25500000920E-02 0.  1.
       -2   -1    0    0    0  501  0.00000000000E+00  0.00000000000E+00 -0.16036617546E+04  0.16036617546E+04  0.25500000920E-02 0. -1.
    10030    2    1    2    0    0  0.00000000000E+00  0.00000000000E+00  0.10614449288E+03  0.33134680022E+04  0.33117674357E+04 0.  0.
        4    1    3    3  502    0 -0.47234211009E+03  0.17146424166E+03 -0.15255345739E+04  0.16061645010E+04  0.12699999809E+01 0. -1.
       -4    1    3    3    0  502  0.47234211009E+03 -0.17146424166E+03  0.16316790668E+04  0.17073035012E+04  0.12699999809E+01 0.  1.
</event>
<event>
 5   0  0.1728937E-06  0.3276040E+04  0.7818609E-02  0.8169019E-01
        2   -1    0    0  501    0  0.00000000000E+00  0.00000000000E+00  0.27614053315E+04  0.27614053315E+04  0.25500000920E-02 0. -1.
       -2   -1    0    0    0  501  0.00000000000E+00  0.00000000000E+00 -0.97164623882E+03  0.97164623882E+03  0.25500000920E-02 0.  1.
    10030    2    1    2    0    0  0.00000000000E+00  0.00000000000E+00  0.17897590927E+04  0.37330515704E+04  0.32760397459E+04 0.  0.
        1    1    3    3  502    0  0.90821009568E+03 -0.85392981856E+03  0.21056860911E+04  0.24470299604E+04  0.50400001928E-02 0. -1.
       -1    1    3    3    0  502 -0.90821009568E+03  0.85392981856E+03 -0.31592699837E+03  0.12860216099E+04  0.50400001928E-02 0.  1.
</event>
<event>
 5   0  0.1832626E-06  0.3305908E+04  0.7818609E-02  0.8161394E-01
        2   -1    0    0  501    0  0.00000000000E+00  0.00000000000E+00  0.16103754788E+04  0.16103754788E+04  0.25500000920E-02 0.  1.
       -2   -1    0    0    0  501  0.00000000000E+00  0.00000000000E+00 -0.16966581807E+04  0.16966581807E+04  0.25500000920E-02 0. -1.
    10030    2    1    2    0    0  0.00000000000E+00  0.00000000000E+00 -0.86282701917E+02  0.33070336595E+04  0.33059078815E+04 0.  0.
        3    1    3    3  502    0  0.94810830661E+03  0.53254990929E+02  0.13102832625E+04  0.16182050838E+04  0.10100000352E+00 0.  1.
       -3    1    3    3    0  502 -0.94810830661E+03 -0.53254990929E+02 -0.13965659644E+04  0.16888285757E+04  0.10100000352E+00 0. -1.
</event>
<event>
 5   0  0.6085351E-07  0.3344778E+04  0.7818609E-02  0.8151594E-01
        1   -1    0    0  501    0  0.00000000000E+00  0.00000000000E+00  0.14931279017E+04  0.14931279018E+04  0.50400001928E-02 0. -1.
       -1   -1    0    0    0  501  0.00000000000E+00  0.00000000000E+00 -0.18731722328E+04  0.18731722328E+04  0.50400001928E-02 0.  1.
    10030    2    1    2    0    0  0.00000000000E+00  0.00000000000E+00 -0.38004433101E+03  0.33663001345E+04  0.33447784534E+04 0.  0.
        1    1    3    3  502    0  0.10715017361E+04  0.32393516930E+03 -0.14405288740E+04  0.18243282054E+04  0.50400001928E-02 0.  1.
       -1    1    3    3    0  502 -0.10715017361E+04 -0.32393516930E+03  0.10604845430E+04  0.15419719291E+04  0.50400001928E-02 0. -1.
</event>
<event>
 5   0  0.1784626E-06  0.3267605E+04  0.7818609E-02  0.8171187E-01
       -2   -1    0    0    0  501  0.00000000000E+00  0.00000000000E+00  0.17531419494E+04  0.17531419494E+04  0.25500000920E-02 0.  1.
        2   -1    0    0  501    0  0.00000000000E+00  0.00000000000E+00 -0.15225869112E+04  0.15225869112E+04  0.25500000920E-02 0. -1.
    10030    2    1    2    0    0  0.00000000000E+00  0.00000000000E+00  0.23055503816E+03  0.32757288606E+04  0.32676052306E+04 0.  0.
        2    1    3    3  502    0 -0.28715200783E+03 -0.11791962428E+04  0.12117750560E+04  0.17150390202E+04  0.25500000920E-02 0.  1.
       -2    1    3    3    0  502  0.28715200783E+03  0.11791962428E+04 -0.98122001782E+03  0.15606898404E+04  0.25500000920E-02 0. -1.
</event>
<event>
 5   0  0.5985183E-07  0.3253239E+04  0.7818609E-02  0.8174897E-01
       -1   -1    0    0    0  501  0.00000000000E+00  0.00000000000E+00  0.14059014234E+04  0.14059014234E+04  0.50400001928E-02 0. -1.
        1   -1    0    0  501    0  0.00000000000E+00  0.00000000000E+00 -0.18819892144E+04  0.18819892144E+04  0.50400001928E-02 0.  1.
    10030    2    1    2    0    0  0.00000000000E+00  0.00000000000E+00 -0.47608779099E+03  0.32878906379E+04  0.32532391953E+04 0.  0.
        2    1    3    3  502    0 -0.25251632274E+03  0.13885849615E+04  0.57924670484E+03  0.15256013351E+04  0.25500000920E-02 0. -1.
       -2    1    3    3    0  502  0.25251632274E+03 -0.13885849615E+04 -0.10553344958E+04  0.17622893028E+04  0.25500000920E-02 0.  1.
</event>
<event>
 5   0  0.1696681E-06  0.3315062E+04  0.7818609E-02  0.8159073E-01
        2   -1    0    0  501    0  0.00000000000E+00  0.00000000000E+00  0.21828407129E+04  0.21828407129E+04  0.25500000920E-02 0.  1.
       -2   -1    0    0    0  501  0.00000000000E+00  0.00000000000E+00 -0.12586396029E+04  0.12586396029E+04  0.25500000920E-02 0. -1.
    10030    2    1    2    0    0  0.00000000000E+00  0.00000000000E+00  0.92420110998E+03  0.34414803158E+04  0.33150624537E+04 0.  0.
        4    1    3    3  502    0  0.84492373484E+03  0.43873812403E+02 -0.10175913614E+04  0.13233725178E+04  0.12699999809E+01 0. -1.
       -4    1    3    3    0  502 -0.84492373484E+03 -0.43873812403E+02  0.19417924714E+04  0.21181077980E+04  0.12699999809E+01 0.  1.
</event>
<event>
 5   0  0.1696681E-06  0.3299550E+04  0.7818609E-02  0.8163010E-01
        2   -1    0    0  501    0  0.00000000000E+00  0.00000000000E+00  0.13569696158E+04  0.13569696158E+04  0.25500000920E-02 0.  1.
       -2   -1    0    0    0  501  0.00000000000E+00  0.00000000000E+00 -0.20057611625E+04  0.20057611625E+04  0.25500000920E-02 0. -1.
    10030    2    1    2    0    0  0.00000000000E+00  0.00000000000E+00 -0.64879154670E+03  0.33627307783E+04  0.32995496384E+04 0.  0.
        4    1    3    3  502    0  0.45233186102E+03  0.12217039991E+04 -0.13559988038E+04  0.18803986659E+04  0.12699999809E+01 0. -1.
       -4    1    3    3    0  502 -0.45233186102E+03 -0.12217039991E+04  0.70720725706E+03  0.14823321124E+04  0.12699999809E+01 0.  1.
</event>
<event>
 5   0  0.6085351E-07  0.3233425E+04  0.7818609E-02  0.8180045E-01
        1   -1    0    0  501    0  0.00000000000E+00  0.00000000000E+00  0.11305954787E+04  0.11305954787E+04  0.50400001928E-02 0. -1.
       -1   -1    0    0    0  501  0.00000000000E+00  0.00000000000E+00 -0.23118424856E+04  0.23118424856E+04  0.50400001928E-02 0.  1.
    10030    2    1    2    0    0  0.00000000000E+00  0.00000000000E+00 -0.11812470068E+04  0.34424379643E+04  0.32334246005E+04 0.  0.
        1    1    3    3  502    0  0.20264100731E+03  0.11422013548E+02 -0.22982250825E+04  0.23071697749E+04  0.50400001928E-02 0.  1.
       -1    1    3    3    0  502 -0.20264100731E+03 -0.11422013548E+02  0.11169780757E+04  0.11352681894E+04  0.50400001928E-02 0. -1.
</event>
<event>
 5   0  0.5858859E-07  0.3297120E+04  0.7818609E-02  0.8163629E-01
        1   -1    0    0  501    0  0.00000000000E+00  0.00000000000E+00  0.20695772057E+04  0.20695772057E+04  0.50400001928E-02 0. -1.
       -1   -1    0    0    0  501  0.00000000000E+00  0.00000000000E+00 -0.13131911937E+04  0.13131911937E+04  0.50400001928E-02 0.  1.
    10030    2    1    2    0    0  0.00000000000E+00  0.00000000000E+00  0.75638601208E+03  0.33827683994E+04  0.32971202958E+04 0.  0.
        3    1    3    3  502    0 -0.98760304261E+03 -0.12523669433E+04  0.80612221761E+03  0.17870690447E+04  0.10100000352E+00 0. -1.
       -3    1    3    3    0  502  0.98760304261E+03  0.12523669433E+04 -0.49736205524E+02  0.15956993548E+04  0.10100000352E+00 0.  1.
</event>
<event>
 5   0  0.1832626E-06  0.3324558E+04  0.7818609E-02  0.8156675E-01
        2   -1    0    0  501    0  0.00000000000E+00  0.00000000000E+00  0.17139677401E+04  0.17139677401E+04  0.25500000920E-02 0.  1.
       -2   -1    0    0    0  501  0.00000000000E+00  0.00000000000E+00 -0.16121490375E+04  0.16121490375E+04  0.25500000920E-02 0. -1.
    10030    2    1    2    0    0  0.00000000000E+00  0.00000000000E+00  0.10181870253E+03  0.33261167776E+04  0.33245579812E+04 0.  0.
        3    1    3    3  502    0 -0.27418508578E+03 -0.13100031507E+04  0.10372142293E+04  0.16932510398E+04  0.10100000352E+00 0.  1.
       -3    1    3    3    0  502  0.27418508578E+03  0.13100031507E+04 -0.93539552676E+03  0.16328657378E+04  0.10100000352E+00 0. -1.
</event>
<event>
 5   0  0.6023446E-07  0.3271084E+04  0.7818609E-02  0.8170292E-01
       -1   -1    0    0    0  501  0.00000000000E+00  0.00000000000E+00  0.91059824773E+03  0.91059824775E+03  0.50400001928E-02 0.  1.
        1   -1    0    0  501    0  0.00000000000E+00  0.00000000000E+00 -0.29376270291E+04  0.29376270291E+04  0.50400001928E-02 0. -1.
    10030    2    1    2    0    0  0.00000000000E+00  0.00000000000E+00 -0.20270287814E+04  0.38482252769E+04  0.32710842394E+04 0.  0.
        5    1    3    3  502    0 -0.12527061588E+04  0.68318345919E+03 -0.19539018099E+04  0.24194558752E+04  0.46999998093E+01 0.  1.
       -5    1    3    3    0  502  0.12527061588E+04 -0.68318345919E+03 -0.73126971529E+02  0.14287694017E+04  0.46999998093E+01 0. -1.
</event>
<event>
 5   0  0.5988516E-07  0.3294523E+04  0.7818609E-02  0.8164290E-01
       -1   -1    0    0    0  501  0.00000000000E+00  0.00000000000E+00  0.12812337762E+04  0.12812337762E+04  0.50400001928E-02 0.  1.
        1   -1    0    0  501    0  0.00000000000E+00  0.00000000000E+00 -0.21178576966E+04  0.21178576966E+04  0.50400001928E-02 0. -1.
    10030    2    1    2    0    0  0.00000000000E+00  0.00000000000E+00 -0.83662392042E+03  0.33990914728E+04  0.32945232214E+04 0.  0.
        4    1    3    3  502    0  0.26002655974E+03  0.14526737513E+04 -0.11733838063E+04  0.18853927997E+04  0.12699999809E+01 0. -1.
       -4    1    3    3    0  502 -0.26002655974E+03 -0.14526737513E+04  0.33675988587E+03  0.15136986731E+04  0.12699999809E+01 0.  1.
</event>
<event>
 5   0  0.1696681E-06  0.3311502E+04  0.7818609E-02  0.8159975E-01
       -2   -1    0    0    0  501  0.00000000000E+00  0.00000000000E+00  0.20299708651E+04  0.20299708651E+04  0.25500000920E-02 0.  1.
        2   -1    0    0  501    0  0.00000000000E+00  0.00000000000E+00 -0.13505175424E+04  0.13505175424E+04  0.25500000920E-02 0. -1.
    10030    2    1    2    0    0  0.00000000000E+00  0.00000000000E+00  0.67945332275E+03  0.33804884075E+04  0.33115019335E+04 0.  0.
        4    1    3    3  502    0 -0.15026255526E+03 -0.93299589378E+03 -0.10481735133E+04  0.14112864699E+04  0.12699999809E+01 0. -1.
       -4    1    3    3    0  502  0.15026255526E+03  0.93299589378E+03  0.17276268361E+04  0.19692019376E+04  0.12699999809E+01 0.  1.
</event>
<event>
 5   0  0.1728937E-06  0.3284539E+04  0.7818609E-02  0.8166841E-01
       -2   -1    0    0    0  501  0.00000000000E+00  0.00000000000E+00  0.16510040855E+04  0.16510040855E+04  0.25500000920E-02 0.  1.
        2   -1    0    0  501    0  0.00000000000E+00  0.00000000000E+00 -0.16335814736E+04  0.16335814736E+04  0.25500000920E-02 0. -1.
    10030    2    1    2    0    0  0.00000000000E+00  0.00000000000E+00  0.17422611899E+02  0.32845855592E+04  0.32845393510E+04 0.  0.
        1    1    3    3  502    0 -0.20360514551E+02 -0.79237581839E+03 -0.14296328490E+04  0.16346632898E+04  0.50400001928E-02 0. -1.
       -1    1    3    3    0  502  0.20360514551E+02  0.79237581839E+03  0.14470554609E+04  0.16499222694E+04  0.50400001928E-02 0.  1.
</event>
<event>
 5   0  0.5985183E-07  0.3291787E+04  0.7818609E-02  0.8164988E-01
       -1   -1    0    0    0  501  0.00000000000E+00  0.00000000000E+00  0.12998360548E+04  0.12998360548E+04  0.50400001928E-02 0.  1.
        1   -1    0    0  501    0  0.00000000000E+00  0.00000000000E+00 -0.20840827279E+04  0.20840827279E+04  0.50400001928E-02 0. -1.
    10030    2    1    2    0    0  0.00000000000E+00  0.00000000000E+00 -0.78424667311E+03  0.33839187827E+04  0.32917872780E+04 0.  0.
        2    1    3    3  502    0  0.42815354752E+03 -0.67831036217E+03  0.10853020177E+04  0.13495558074E+04  0.25500000920E-02 0.  1.
       -2    1    3    3    0  502 -0.42815354752E+03  0.67831036217E+03 -0.18695486908E+04  0.20343629752E+04  0.25500000920E-02 0. -1.
</event>
<event>
 5   0  0.1784626E-06  0.3300942E+04  0.7818609E-02  0.8162656E-01
       -2   -1    0    0    0  501  0.00000000000E+00  0.00000000000E+00  0.18099636522E+04  0.18099636522E+04  0.25500000920E-02 0.  1.
        2   -1    0    0  501    0  0.00000000000E+00  0.00000000000E+00 -0.15050326962E+04  0.15050326962E+04  0.25500000920E-02 0. -1.
    10030    2    1    2    0    0  0.00000000000E+00  0.00000000000E+00  0.30493095600E+03  0.33149963483E+04  0.33009419719E+04 0.  0.
        2    1    3    3  502    0 -0.69400678431E+03 -0.14954180980E+04  0.73813628490E+02  0.16502633597E+04  0.25500000920E-02 0. -1.
       -2    1    3    3    0  502  0.69400678431E+03  0.14954180980E+04  0.23111732751E+03  0.16647329887E+04  0.25500000920E-02 0.  1.
</event>
<event>
 5   0  0.1728937E-06  0.3432142E+04  0.7818609E-02  0.8130062E-01
        2   -1    0    0  501    0  0.00000000000E+00  0.00000000000E+00  0.31928492534E+04  0.31928492534E+04  0.25500000920E-02 0.  1.
       -2   -1    0    0    0  501  0.00000000000E+00  0.00000000000E+00 -0.92234246048E+03  0.92234246048E+03  0.25500000920E-02 0. -1.
    10030    2    1    2    0    0  0.00000000000E+00  0.00000000000E+00  0.22705067929E+04  0.41151917139E+04  0.34321424424E+04 0.  0.
        1    1    3    3  502    0  0.54890261612E+03  0.65998970113E+03 -0.64641249136E+03  0.10745834526E+04  0.50400001928E-02 0. -1.
       -1    1    3    3    0  502 -0.54890261612E+03 -0.65998970113E+03  0.29169192843E+04  0.30406082613E+04  0.50400001928E-02 0.  1.
</event>
<event>
 5   0  0.1832626E-06  0.3289948E+04  0.7818609E-02  0.8165458E-01
        2   -1    0    0  501    0  0.00000000000E+00  0.00000000000E+00  0.21564932821E+04  0.21564932821E+04  0.25500000920E-02 0. -1.
       -2   -1    0    0    0  501  0.00000000000E+00  0.00000000000E+00 -0.12547871985E+04  0.12547871985E+04  0.25500000920E-02 0.  1.
    10030    2    1    2    0    0  0.00000000000E+00  0.00000000000E+00  0.90170608357E+03  0.34112804806E+04  0.32899484276E+04 0.  0.
        3    1    3    3  502    0 -0.11174621917E+04  0.10189744859E+04 -0.22024874100E+03  0.15282474508E+04  0.10100000352E+00 0. -1.
       -3    1    3    3    0  502  0.11174621917E+04 -0.10189744859E+04  0.11219548246E+04  0.18830330298E+04  0.10100000352E+00 0.  1.
</event>
<event>
 5   0  0.1784626E-06  0.3314041E+04  0.7818609E-02  0.8159332E-01
        2   -1    0    0  501    0  0.00000000000E+00  0.00000000000E+00  0.19350697737E+04  0.19350697737E+04  0.25500000920E-02 0.  1.
       -2   -1    0    0    0  501  0.00000000000E+00  0.00000000000E+00 -0.14189243606E+04  0.14189243606E+04  0.25500000920E-02 0. -1.
    10030    2    1    2    0    0  0.00000000000E+00  0.00000000000E+00  0.51614541312E+03  0.33539941342E+04  0.33140414247E+04 0.  0.
        2    1    3    3  502    0  0.13147524810E+04  0.97775685513E+03  0.78367959066E+01  0.16384883183E+04  0.25500000920E-02 0. -1.
       -2    1    3    3    0  502 -0.13147524810E+04 -0.97775685513E+03  0.50830861721E+03  0.17155058159E+04  0.25500000920E-02 0.  1.
</event>
<event>
 5   0  0.6023446E-07  0.3263467E+04  0.7818609E-02  0.8172254E-01
       -1   -1    0    0    0  501  0.00000000000E+00  0.00000000000E+00  0.13101062860E+04  0.13101062861E+04  0.50400001928E-02 0. -1.
        1   -1    0    0  501    0  0.00000000000E+00  0.00000000000E+00 -0.20323196553E+04  0.20323196553E+04  0.50400001928E-02 0.  1.
    10030    2    1    2    0    0  0.00000000000E+00  0.00000000000E+00 -0.72221336926E+03  0.33424259414E+04  0.32634673314E+04 0.  0.
        5    1    3    3  502    0 -0.84679614769E+03 -0.13120333944E+03 -0.17833199187E+04  0.19785171353E+04  0.46999998093E+01 0.  1.
       -5    1    3    3    0  502  0.84679614769E+03  0.13120333944E+03  0.10611065495E+04  0.13639088061E+04  0.46999998093E+01 0. -1.
</event>
<event>
 5   0  0.1696681E-06  0.3308887E+04  0.7818609E-02  0.8160638E-01
       -2   -1    0    0    0  501  0.00000000000E+00  0.00000000000E+00  0.13762710437E+04  0.13762710437E+04  0.25500000920E-02 0. -1.
        2   -1    0    0  501    0  0.00000000000E+00  0.00000000000E+00 -0.19888401254E+04  0.19888401254E+04  0.25500000920E-02 0.  1.
    10030    2    1    2    0    0  0.00000000000E+00  0.00000000000E+00 -0.61256908166E+03  0.33651111691E+04  0.33088868673E+04 0.  0.
        4    1    3    3  502    0 -0.13501361606E+04  0.19568720162E+03  0.64557877498E+03  0.15092828432E+04  0.12699999809E+01 0. -1.
       -4    1    3    3    0  502  0.13501361606E+04 -0.19568720162E+03 -0.12581478566E+04  0.18558283259E+04  0.12699999809E+01 0.  1.
</event>
<event>
 5   0  0.5858859E-07  0.3290526E+04  0.7818609E-02  0.8165310E-01
        1   -1    0    0  501    0  0.00000000000E+00  0.00000000000E+00  0.15150458344E+04  0.15150458344E+04  0.50400001928E-02 0.  1.
       -1   -1    0    0    0  501  0.00000000000E+00  0.00000000000E+00 -0.17866720027E+04  0.17866720027E+04  0.50400001928E-02 0. -1.
    10030    2    1    2    0    0  0.00000000000E+00  0.00000000000E+00 -0.27162616825E+03  0.33017178371E+04  0.32905257788E+04 0.  0.
        3    1    3    3  502    0 -0.81314589497E+03  0.55160618495E+03 -0.14599281166E+04  0.17597913926E+04  0.10100000352E+00 0. -1.
       -3    1    3    3    0  502  0.81314589497E+03 -0.55160618495E+03  0.11883019483E+04  0.15419264445E+04  0.10100000352E+00 0.  1.
</event>
<event>
 5   0  0.5858859E-07  0.3308613E+04  0.7818609E-02  0.8160707E-01
        1   -1    0    0  501    0  0.00000000000E+00  0.00000000000E+00  0.15189802090E+04  0.15189802090E+04  0.50400001928E-02 0. -1.
       -1   -1    0    0    0  501  0.00000000000E+00  0.00000000000E+00 -0.18016893750E+04  0.18016893750E+04  0.50400001928E-02 0.  1.
    10030    2    1    2    0    0  0.00000000000E+00  0.00000000000E+00 -0.28270916604E+03  0.33206695840E+04  0.33086133067E+04 0.  0.
        3    1    3    3  502    0 -0.91812857463E+02 -0.11766482675E+04  0.10220932890E+04  0.15612832696E+04  0.10100000352E+00 0. -1.
       -3    1    3    3    0  502  0.91812857463E+02  0.11766482675E+04 -0.13048024551E+04  0.17593863144E+04  0.10100000352E+00 0.  1.
</event>
<event>
 5   0  0.1832626E-06  0.3268159E+04  0.7818609E-02  0.8171045E-01
        2   -1    0    0  501    0  0.00000000000E+00  0.00000000000E+00  0.21806550059E+04  0.21806550059E+04  0.25500000920E-02 0. -1.
       -2   -1    0    0    0  501  0.00000000000E+00  0.00000000000E+00 -0.12245014258E+04  0.12245014258E+04  0.25500000920E-02 0.  1.
    10030    2    1    2    0    0  0.00000000000E+00  0.00000000000E+00  0.95615358011E+03  0.34051564317E+04  0.32681586032E+04 0.  0.
        3    1    3    3  502    0 -0.93940823107E+03 -0.23900833018E+03 -0.89259220065E+03  0.13177001379E+04  0.10100000352E+00 0.  1.
       -3    1    3    3    0  502  0.93940823107E+03  0.23900833018E+03  0.18487457808E+04  0.20874562938E+04  0.10100000352E+00 0. -1.
</event>
<event>
 5   0  0.5685000E-07  0.3294718E+04  0.7818609E-02  0.8164241E-01
       -3   -1    0    0    0  501  0.00000000000E+00  0.00000000000E+00  0.20658962520E+04  0.20658962545E+04  0.10100000352E+00 0.  1.
        3   -1    0    0  501    0  0.00000000000E+00  0.00000000000E+00 -0.13136145390E+04  0.13136145429E+04  0.10100000352E+00 0. -1.
    10030    2    1    2    0    0  0.00000000000E+00  0.00000000000E+00  0.75228171303E+03  0.33795107973E+04  0.32947178109E+04 0.  0.
        5    1    3    3  502    0 -0.68205663779E+03  0.12910250994E+04 -0.40626260306E+03  0.15155917844E+04  0.46999998093E+01 0. -1.
       -5    1    3    3    0  502  0.68205663779E+03 -0.12910250994E+04  0.11585443161E+04  0.18639190129E+04  0.46999998093E+01 0.  1.
</event>
<event>
 5   0  0.5858859E-07  0.3254489E+04  0.7818609E-02  0.8174573E-01
        1   -1    0    0  501    0  0.00000000000E+00  0.00000000000E+00  0.19192579045E+04  0.19192579046E+04  0.50400001928E-02 0. -1.
       -1   -1    0    0    0  501  0.00000000000E+00  0.00000000000E+00 -0.13796606317E+04  0.13796606317E+04  0.50400001928E-02 0.  1.
    10030    2    1    2    0    0  0.00000000000E+00  0.00000000000E+00  0.53959727283E+03  0.32989185363E+04  0.32544889448E+04 0.  0.
        3    1    3    3  502    0 -0.24037490223E+03 -0.56406765034E+03 -0.12580850462E+04  0.13995464985E+04  0.10100000352E+00 0.  1.
       -3    1    3    3    0  502  0.24037490223E+03  0.56406765034E+03  0.17976823190E+04  0.18993720378E+04  0.10100000352E+00 0. -1.
</event>
<event>
 5   0  0.5988516E-07  0.3315969E+04  0.7818609E-02  0.8158844E-01
        1   -1    0    0  501    0  0.00000000000E+00  0.00000000000E+00  0.18757925301E+04  0.18757925301E+04  0.50400001928E-02 0. -1.
       -1   -1    0    0    0  501  0.00000000000E+00  0.00000000000E+00 -0.14654674342E+04  0.14654674342E+04  0.50400001928E-02 0.  1.
    10030    2    1    2    0    0  0.00000000000E+00  0.00000000000E+00  0.41032509599E+03  0.33412599643E+04  0.33159691592E+04 0.  0.
        4    1    3    3  502    0 -0.71162313550E+03  0.13048099052E+03 -0.12980191645E+04  0.14860310024E+04  0.12699999809E+01 0.  1.
       -4    1    3    3    0  502  0.71162313550E+03 -0.13048099052E+03  0.17083442605E+04  0.18552289619E+04  0.12699999809E+01 0. -1.
</event>
<event>
 5   0  0.6023446E-07  0.3321297E+04  0.7818609E-02  0.8157497E-01
        1   -1    0    0  501    0  0.00000000000E+00  0.00000000000E+00  0.29862169284E+04  0.29862169284E+04  0.50400001928E-02 0.  1.
       -1   -1    0    0    0  501  0.00000000000E+00  0.00000000000E+00 -0.92349404950E+03  0.92349404951E+03  0.50400001928E-02 0. -1.
    10030    2    1    2    0    0  0.00000000000E+00  0.00000000000E+00  0.20627228789E+04  0.39097109779E+04  0.33212970743E+04 0.  0.
        5    1    3    3  502    0 -0.24583477497E+03  0.10152733810E+04  0.25510051107E+04  0.27566036964E+04  0.46999998093E+01 0.  1.
       -5    1    3    3    0  502  0.24583477497E+03 -0.10152733810E+04 -0.48828223176E+03  0.11531072815E+04  0.46999998093E+01 0. -1.
</event>
<event>
 5   0  0.5988516E-07  0.3093548E+04  0.7818609E-02  0.8217511E-01
       -1   -1    0    0    0  501  0.00000000000E+00  0.00000000000E+00  0.13709785202E+04  0.13709785202E+04  0.50400001928E-02 0. -1.
        1   -1    0    0  501    0  0.00000000000E+00  0.00000000000E+00 -0.17451105849E+04  0.17451105849E+04  0.50400001928E-02 0.  1.
    10030    2    1    2    0    0  0.00000000000E+00  0.00000000000E+00 -0.37413206467E+03  0.31160891050E+04  0.30935475604E+04 0.  0.
        4    1    3    3  502    0 -0.13578038601E+04 -0.42665013940E+03  0.42302532958E+03  0.14847941630E+04  0.12699999809E+01 0. -1.
       -4    1    3    3    0  502  0.13578038601E+04  0.42665013940E+03 -0.79715739426E+03  0.16312949421E+04  0.12699999809E+01 0.  1.
</event>
<event>
 5   0  0.1728937E-06  0.3322649E+04  0.7818609E-02  0.8157156E-01
       -2   -1    0    0    0  501  0.00000000000E+00  0.00000000000E+00  0.14025246811E+04  0.14025246811E+04  0.25500000920E-02 0.  1.
        2   -1    0    0  501    0  0.00000000000E+00  0.00000000000E+00 -0.19678795095E+04  0.19678795095E+04  0.25500000920E-02 0. -1.
    10030    2    1    2    0    0  0.00000000000E+00  0.00000000000E+00 -0.56535482838E+03  0.33704041906E+04  0.33226492933E+04 0.  0.
        1    1    3    3  502    0 -0.16319757241E+04 -0.10985137468E+03 -0.57769680279E+03  0.17346889302E+04  0.50400001928E-02 0. -1.
       -1    1    3    3    0  502  0.16319757241E+04  0.10985137468E+03  0.12341974406E+02  0.16357152604E+04  0.50400001928E-02 0.  1.
</event>
<event>
 5   0  0.6085351E-07  0.3350715E+04  0.7818609E-02  0.8150109E-01
        1   -1    0    0  501    0  0.00000000000E+00  0.00000000000E+00  0.15495985078E+04  0.15495985078E+04  0.50400001928E-02 0. -1.
       -1   -1    0    0    0  501  0.00000000000E+00  0.00000000000E+00 -0.18113227706E+04  0.18113227706E+04  0.50400001928E-02 0.  1.
    10030    2    1    2    0    0  0.00000000000E+00  0.00000000000E+00 -0.26172426278E+03  0.33609212785E+04  0.33507151849E+04 0.  0.
        1    1    3    3  502    0  0.51945635760E+03  0.13048179470E+04  0.78539619896E+03  0.16091090614E+04  0.50400001928E-02 0. -1.
       -1    1    3    3    0  502 -0.51945635760E+03 -0.13048179470E+04 -0.10471204617E+04  0.17518122170E+04  0.50400001928E-02 0.  1.
</event>
<event>
 5   0  0.1832626E-06  0.3319861E+04  0.7818609E-02  0.8157860E-01
       -2   -1    0    0    0  501  0.00000000000E+00  0.00000000000E+00  0.16544028294E+04  0.16544028294E+04  0.25500000920E-02 0. -1.
        2   -1    0    0  501    0  0.00000000000E+00  0.00000000000E+00 -0.16654770604E+04  0.16654770604E+04  0.25500000920E-02 0.  1.
    10030    2    1    2    0    0  0.00000000000E+00  0.00000000000E+00 -0.11074230991E+02  0.33198798898E+04  0.33198614194E+04 0.  0.
        3    1    3    3  502    0 -0.10962115479E+04  0.81052808937E+03  0.94142876961E+03  0.16567811201E+04  0.10100000352E+00 0. -1.
       -3    1    3    3    0  502  0.10962115479E+04 -0.81052808937E+03 -0.95250300060E+03  0.16630987697E+04  0.10100000352E+00 0.  1.
</event>
<event>
 5   0  0.1696681E-06  0.3292164E+04  0.7818609E-02  0.8164892E-01
        2   -1    0    0  501    0  0.00000000000E+00  0.00000000000E+00  0.23584644280E+04  0.23584644280E+04  0.25500000920E-02 0.  1.
       -2   -1    0    0    0  501  0.00000000000E+00  0.00000000000E+00 -0.11488774643E+04  0.11488774643E+04  0.25500000920E-02 0. -1.
    10030    2    1    2    0    0  0.00000000000E+00  0.00000000000E+00  0.12095869636E+04  0.35073418923E+04  0.32921644137E+04 0.  0.
        4    1    3    3  502    0  0.14106657471E+04  0.76774478012E+03  0.22041365918E+03  0.16211087846E+04  0.12699999809E+01 0. -1.
       -4    1    3    3    0  502 -0.14106657471E+04 -0.76774478012E+03  0.98917330446E+03  0.18862331077E+04  0.12699999809E+01 0.  1.
</event>
<event>
 5   0  0.5988516E-07  0.3225550E+04  0.7818609E-02  0.8182102E-01
       -1   -1    0    0    0  501  0.00000000000E+00  0.00000000000E+00  0.23486782293E+04  0.23486782293E+04  0.50400001928E-02 0.  1.
        1   -1    0    0  501    0  0.00000000000E+00  0.00000000000E+00 -0.11074499246E+04  0.11074499246E+04  0.50400001928E-02 0. -1.
    10030    2    1    2    0    0  0.00000000000E+00  0.00000000000E+00  0.12412283048E+04  0.34561281539E+04  0.32255502029E+04 0.  0.
        4    1    3    3  502    0 -0.47952469587E+03 -0.48325053117E+03  0.21871700307E+04  0.22906744347E+04  0.12699999809E+01 0.  1.
       -4    1    3    3    0  502  0.47952469587E+03  0.48325053117E+03 -0.94594172592E+03  0.11654537192E+04  0.12699999809E+01 0. -1.
</event>
<event>
 5   0  0.6085351E-07  0.3399034E+04  0.7818609E-02  0.8138143E-01
        1   -1    0    0  501    0  0.00000000000E+00  0.00000000000E+00  0.18476652572E+04  0.18476652573E+04  0.50400001928E-02 0. -1.
       -1   -1    0    0    0  501  0.00000000000E+00  0.00000000000E+00 -0.15632475348E+04  0.15632475348E+04  0.50400001928E-02 0.  1.
    10030    2    1    2    0    0  0.00000000000E+00  0.00000000000E+00  0.28441772248E+03  0.34109127920E+04  0.33990340737E+04 0.  0.
        1    1    3    3  502    0  0.81574586547E+03 -0.73448988220E+01 -0.13539283882E+04  0.15807015357E+04  0.50400001928E-02 0.  1.
       -1    1    3    3    0  502 -0.81574586547E+03  0.73448988220E+01  0.16383461107E+04  0.18302112564E+04  0.50400001928E-02 0. -1.
</event>
<event>
 5   0  0.1784626E-06  0.3284323E+04  0.7818609E-02  0.8166896E-01
       -2   -1    0    0    0  501  0.00000000000E+00  0.00000000000E+00  0.90658786762E+03  0.90658786763E+03  0.25500000920E-02 0.  1.
        2   -1    0    0  501    0  0.00000000000E+00  0.00000000000E+00 -0.29745537725E+04  0.29745537725E+04  0.25500000920E-02 0. -1.
    10030    2    1    2    0    0  0.00000000000E+00  0.00000000000E+00 -0.20679659049E+04  0.38811416402E+04  0.32843229815E+04 0.  0.
        2    1    3    3  502    0 -0.29315465158E+03 -0.15577870626E+04 -0.15409578725E+04  0.22106992891E+04  0.25500000920E-02 0. -1.
       -2    1    3    3    0  502  0.29315465158E+03  0.15577870626E+04 -0.52700803241E+03  0.16704423511E+04  0.25500000920E-02 0.  1.
</event>
<event>
 5   0  0.1832626E-06  0.3290924E+04  0.7818609E-02  0.8165209E-01
        2   -1    0    0  501    0  0.00000000000E+00  0.00000000000E+00  0.18672156420E+04  0.18672156420E+04  0.25500000920E-02 0. -1.
       -2   -1    0    0    0  501  0.00000000000E+00  0.00000000000E+00 -0.14500441545E+04  0.14500441545E+04  0.25500000920E-02 0.  1.
    10030    2    1    2    0    0  0.00000000000E+00  0.00000000000E+00  0.41717148758E+03  0.33172597965E+04  0.32909239595E+04 0.  0.
        3    1    3    3  502    0 -0.37876632006E+03 -0.14943288529E+04 -0.37139905859E+03  0.15856922516E+04  0.10100000352E+00 0. -1.
       -3    1    3    3    0  502  0.37876632006E+03  0.14943288529E+04  0.78857054616E+03  0.17315675449E+04  0.10100000352E+00 0.  1.
</event>
<event>
 5   0  0.5988516E-07  0.3268647E+04  0.7818609E-02  0.8170919E-01
        1   -1    0    0  501    0  0.00000000000E+00  0.00000000000E+00  0.16538326881E+04  0.16538326882E+04  0.50400001928E-02 0.  1.
       -1   -1    0    0    0  501  0.00000000000E+00  0.00000000000E+00 -0.16150446706E+04  0.16150446706E+04  0.50400001928E-02 0. -1.
    10030    2    1    2    0    0  0.00000000000E+00  0.00000000000E+00  0.38788017547E+02  0.32688773588E+04  0.32686472242E+04 0.  0.
        4    1    3    3  502    0 -0.15128389775E+04  0.59471180200E+03  0.18866359023E+03  0.16364472073E+04  0.12699999809E+01 0.  1.
       -4    1    3    3    0  502  0.15128389775E+04 -0.59471180200E+03 -0.14987557269E+03  0.16324301514E+04  0.12699999809E+01 0. -1.
</event>
<event>
 5   0  0.5985183E-07  0.3346387E+04  0.7818609E-02  0.8151191E-01
       -1   -1    0    0    0  501  0.00000000000E+00  0.00000000000E+00  0.23260334508E+04  0.23260334508E+04  0.50400001928E-02 0.  1.
        1   -1    0    0  501    0  0.00000000000E+00  0.00000000000E+00 -0.12035841882E+04  0.12035841882E+04  0.50400001928E-02 0. -1.
    10030    2    1    2    0    0  0.00000000000E+00  0.00000000000E+00  0.11224492627E+04  0.35296176390E+04  0.33463873551E+04 0.  0.
        2    1    3    3  502    0  0.14170657385E+04 -0.68835358457E+03  0.11557088310E+04  0.19538599916E+04  0.25500000920E-02 0.  1.
       -2    1    3    3    0  502 -0.14170657385E+04  0.68835358457E+03 -0.33259568328E+02  0.15757576474E+04  0.25500000920E-02 0. -1.
</event>
<event>
 5   0  0.6085351E-07  0.2820090E+04  0.7818609E-02  0.8297058E-01
       -1   -1    0    0    0  501  0.00000000000E+00  0.00000000000E+00  0.13472990292E+04  0.13472990292E+04  0.50400001928E-02 0.  1.
        1   -1    0    0  501    0  0.00000000000E+00  0.00000000000E+00 -0.14757132703E+04  0.14757132704E+04  0.50400001928E-02 0. -1.
    10030    2    1    2    0    0  0.00000000000E+00  0.00000000000E+00 -0.12841424118E+03  0.28230122995E+04  0.28200901095E+04 0.  0.
        1    1    3    3  502    0 -0.13643364594E+04  0.21176507741E+03  0.22239119492E+03  0.13984692582E+04  0.50400001928E-02 0.  1.
       -1    1    3    3    0  502  0.13643364594E+04 -0.21176507741E+03 -0.35080543610E+03  0.14245430413E+04  0.50400001928E-02 0. -1.
</event>
<event>
 5   0  0.1784626E-06  0.3302436E+04  0.7818609E-02  0.8162276E-01
        2   -1    0    0  501    0  0.00000000000E+00  0.00000000000E+00  0.15643200226E+04  0.15643200226E+04  0.25500000920E-02 0.  1.
       -2   -1    0    0    0  501  0.00000000000E+00  0.00000000000E+00 -0.17429433614E+04  0.17429433614E+04  0.25500000920E-02 0. -1.
    10030    2    1    2    0    0  0.00000000000E+00  0.00000000000E+00 -0.17862333878E+03  0.33072633839E+04  0.33024361907E+04 0.  0.
        2    1    3    3  502    0  0.10745248506E+04  0.11816449548E+04 -0.50900985521E+03  0.16762993427E+04  0.25500000920E-02 0. -1.
       -2    1    3    3    0  502 -0.10745248506E+04 -0.11816449548E+04  0.33038651643E+03  0.16309640413E+04  0.25500000920E-02 0.  1.
</event>
<event>
 5   0  0.6023446E-07  0.3299363E+04  0.7818609E-02  0.8163057E-01
        1   -1    0    0  501    0  0.00000000000E+00  0.00000000000E+00  0.31388489550E+04  0.31388489550E+04  0.50400001928E-02 0.  1.
       -1   -1    0    0    0  501  0.00000000000E+00  0.00000000000E+00 -0.86702146723E+03  0.86702146724E+03  0.50400001928E-02 0. -1.
    10030    2    1    2    0    0  0.00000000000E+00  0.00000000000E+00  0.22718274878E+04  0.40058704222E+04  0.32993632273E+04 0.  0.
        5    1    3    3  502    0  0.51851005963E+02  0.12869921245E+04 -0.11552262171E+03  0.12932149169E+04  0.46999998093E+01 0. -1.
       -5    1    3    3    0  502 -0.51851005963E+02 -0.12869921245E+04  0.23873501095E+04  0.27126555053E+04  0.46999998093E+01 0.  1.
</event>
<event>
 5   0  0.5858859E-07  0.3135001E+04  0.7818609E-02  0.8206197E-01
        1   -1    0    0  501    0  0.00000000000E+00  0.00000000000E+00  0.74793752858E+03  0.74793752860E+03  0.50400001928E-02 0. -1.
       -1   -1    0    0    0  501  0.00000000000E+00  0.00000000000E+00 -0.32851104815E+04  0.32851104815E+04  0.50400001928E-02 0.  1.
    10030    2    1    2    0    0  0.00000000000E+00  0.00000000000E+00 -0.25371729529E+04  0.40330480101E+04  0.31350007430E+04 0.  0.
        3    1    3    3  502    0  0.11957595117E+04 -0.96178307545E+03 -0.85734230736E+03  0.17578120878E+04  0.10100000352E+00 0.  1.
       -3    1    3    3    0  502 -0.11957595117E+04  0.96178307545E+03 -0.16798306455E+04  0.22752359222E+04  0.10100000352E+00 0. -1.
</event>
<event>
 5   0  0.1832626E-06  0.3234947E+04  0.7818609E-02  0.8179648E-01
       -2   -1    0    0    0  501  0.00000000000E+00  0.00000000000E+00  0.11615703939E+04  0.11615703939E+04  0.25500000920E-02 0.  1.
        2   -1    0    0  501    0  0.00000000000E+00  0.00000000000E+00 -0.22523140245E+04  0.22523140245E+04  0.25500000920E-02 0. -1.
    10030    2    1    2    0    0  0.00000000000E+00  0.00000000000E+00 -0.10907436306E+04  0.34138844185E+04  0.32349474733E+04 0.  0.
        3    1    3    3  502    0  0.88044901620E+03  0.67746216803E+03 -0.17860167720E+04  0.21033310199E+04  0.10100000352E+00 0. -1.
       -3    1    3    3    0  502 -0.88044901620E+03 -0.67746216803E+03  0.69527314136E+03  0.13105533986E+04  0.10100000352E+00 0.  1.
</event>
<event>
 5   0  0.1832626E-06  0.3345758E+04  0.7818609E-02  0.8151349E-01
       -2   -1    0    0    0  501  0.00000000000E+00  0.00000000000E+00  0.16210941860E+04  0.16210941860E+04  0.25500000920E-02 0. -1.
        2   -1    0    0  501    0  0.00000000000E+00  0.00000000000E+00 -0.17263180946E+04  0.17263180946E+04  0.25500000920E-02 0.  1.
    10030    2    1    2    0    0  0.00000000000E+00  0.00000000000E+00 -0.10522390865E+03  0.33474122806E+04  0.33457580465E+04 0.  0.
        3    1    3    3  502    0  0.77420427539E+03 -0.14808927220E+04  0.25456761709E+02  0.16712520968E+04  0.10100000352E+00 0. -1.
       -3    1    3    3    0  502 -0.77420427539E+03  0.14808927220E+04 -0.13068067036E+03  0.16761601838E+04  0.10100000352E+00 0.  1.
</event>
<event>
 5   0  0.6085351E-07  0.3262621E+04  0.7818609E-02  0.8172472E-01
       -1   -1    0    0    0  501  0.00000000000E+00  0.00000000000E+00  0.19091984719E+04  0.19091984719E+04  0.50400001928E-02 0. -1.
        1   -1    0    0  501    0  0.00000000000E+00  0.00000000000E+00 -0.13938698951E+04  0.13938698951E+04  0.50400001928E-02 0.  1.
    10030    2    1    2    0    0  0.00000000000E+00  0.00000000000E+00  0.51532857675E+03  0.33030683670E+04  0.32626212000E+04 0.  0.
        1    1    3    3  502    0  0.11147676780E+04 -0.70513138116E+03 -0.71405610468E+03  0.14999311188E+04  0.50400001928E-02 0.  1.
       -1    1    3    3    0  502 -0.11147676780E+04  0.70513138116E+03  0.12293846814E+04  0.18031372481E+04  0.50400001928E-02 0. -1.
</event>
<event>
 5   0  0.1728937E-06  0.3288847E+04  0.7818609E-02  0.8165739E-01
       -2   -1    0    0    0  501  0.00000000000E+00  0.00000000000E+00  0.97231234229E+03  0.97231234230E+03  0.25500000920E-02 0. -1.
        2   -1    0    0  501    0  0.00000000000E+00  0.00000000000E+00 -0.27811322914E+04  0.27811322914E+04  0.25500000920E-02 0.  1.
    10030    2    1    2    0    0  0.00000000000E+00  0.00000000000E+00 -0.18088199491E+04  0.37534446337E+04  0.32888473680E+04 0.  0.
        1    1    3    3  502    0 -0.63063333643E+03  0.12726523395E+04  0.41385620883E+02  0.14209346051E+04  0.50400001928E-02 0. -1.
       -1    1    3    3    0  502  0.63063333643E+03 -0.12726523395E+04 -0.18502055700E+04  0.23325100286E+04  0.50400001928E-02 0.  1.
</event>
<event>
 5   0  0.5985183E-07  0.3291722E+04  0.7818609E-02  0.8165005E-01
        1   -1    0    0  501    0  0.00000000000E+00  0.00000000000E+00  0.24086025027E+04  0.24086025027E+04  0.50400001928E-02 0. -1.
       -1   -1    0    0    0  501  0.00000000000E+00  0.00000000000E+00 -0.11246596421E+04  0.11246596421E+04  0.50400001928E-02 0.  1.
    10030    2    1    2    0    0  0.00000000000E+00  0.00000000000E+00  0.12839428607E+04  0.35332621448E+04  0.32917217553E+04 0.  0.
        2    1    3    3  502    0 -0.12553402559E+03  0.12763378710E+03  0.23981206807E+04  0.24047935409E+04  0.25500000920E-02 0. -1.
       -2    1    3    3    0  502  0.12553402559E+03 -0.12763378710E+03 -0.11141778201E+04  0.11284686039E+04  0.25500000920E-02 0.  1.
</event>
<event>
 5   0  0.6085351E-07  0.3082634E+04  0.7818609E-02  0.8220520E-01
        1   -1    0    0  501    0  0.00000000000E+00  0.00000000000E+00  0.27040697903E+04  0.27040697903E+04  0.50400001928E-02 0. -1.
       -1   -1    0    0    0  501  0.00000000000E+00  0.00000000000E+00 -0.87854907934E+03  0.87854907936E+03  0.50400001928E-02 0.  1.
    10030    2    1    2    0    0  0.00000000000E+00  0.00000000000E+00  0.18255207109E+04  0.35826188696E+04  0.30826339548E+04 0.  0.
        1    1    3    3  502    0  0.16683994707E+03  0.14897404609E+04  0.13293640762E+04  0.20035895428E+04  0.50400001928E-02 0.  1.
       -1    1    3    3    0  502 -0.16683994707E+03 -0.14897404609E+04  0.49615663475E+03  0.15790293269E+04  0.50400001928E-02 0. -1.
</event>
<event>
 5   0  0.5685000E-07  0.2889591E+04  0.7818609E-02  0.8275981E-01
       -4   -1    0    0    0  501  0.00000000000E+00  0.00000000000E+00  0.16223872897E+04  0.16223877868E+04  0.12699999809E+01 0. -1.
        4   -1    0    0  501    0  0.00000000000E+00  0.00000000000E+00 -0.12866428535E+04  0.12866434803E+04  0.12699999809E+01 0.  1.
    10030    2    1    2    0    0  0.00000000000E+00  0.00000000000E+00  0.33574443620E+03  0.29090312671E+04  0.28895914221E+04 0.  0.
        3    1    3    3  502    0 -0.20982917136E+03  0.13053579370E+04 -0.41866820022E+03  0.13868203550E+04  0.10100000352E+00 0.  1.
       -3    1    3    3    0  502  0.20982917136E+03 -0.13053579370E+04  0.75441263642E+03  0.15222109122E+04  0.10100000352E+00 0. -1.
</event>
<event>
 5   0  0.1728937E-06  0.3248955E+04  0.7818609E-02  0.8176007E-01
        2   -1    0    0  501    0  0.00000000000E+00  0.00000000000E+00  0.20896725357E+04  0.20896725357E+04  0.25500000920E-02 0. -1.
       -2   -1    0    0    0  501  0.00000000000E+00  0.00000000000E+00 -0.12628424533E+04  0.12628424533E+04  0.25500000920E-02 0.  1.
    10030    2    1    2    0    0  0.00000000000E+00  0.00000000000E+00  0.82683008244E+03  0.33525149890E+04  0.32489550269E+04 0.  0.
        1    1    3    3  502    0 -0.37949886668E+03  0.10349794403E+04 -0.81781765222E+03  0.13725988285E+04  0.50400001928E-02 0.  1.
       -1    1    3    3    0  502  0.37949886668E+03 -0.10349794403E+04  0.16446477347E+04  0.19799161606E+04  0.50400001928E-02 0. -1.
</event>
<event>
 5   0  0.5988516E-07  0.3295273E+04  0.7818609E-02  0.8164099E-01
       -1   -1    0    0    0  501  0.00000000000E+00  0.00000000000E+00  0.16070228602E+04  0.16070228602E+04  0.50400001928E-02 0.  1.
        1   -1    0    0  501    0  0.00000000000E+00  0.00000000000E+00 -0.16892761406E+04  0.16892761406E+04  0.50400001928E-02 0. -1.
    10030    2    1    2    0    0  0.00000000000E+00  0.00000000000E+00 -0.82253280351E+02  0.32962990008E+04  0.32952725988E+04 0.  0.
        4    1    3    3  502    0 -0.87110709773E+03 -0.84775088544E+03  0.10715123212E+04  0.16203855735E+04  0.12699999809E+01 0.  1.
       -4    1    3    3    0  502  0.87110709773E+03  0.84775088544E+03 -0.11537656016E+04  0.16759134273E+04  0.12699999809E+01 0. -1.
</event>
<event>
 5   0  0.5985183E-07  0.3296711E+04  0.7818609E-02  0.8163733E-01
       -1   -1    0    0    0  501  0.00000000000E+00  0.00000000000E+00  0.12932125338E+04  0.12932125338E+04  0.50400001928E-02 0.  1.
        1   -1    0    0  501    0  0.00000000000E+00  0.00000000000E+00 -0.21010283835E+04  0.21010283836E+04  0.50400001928E-02 0. -1.
    10030    2    1    2    0    0  0.00000000000E+00  0.00000000000E+00 -0.80781584974E+03  0.33942409174E+04  0.32967112336E+04 0.  0.
        2    1    3    3  502    0 -0.81193007840E+03  0.11741168560E+04 -0.12524846038E+04  0.18990783361E+04  0.25500000920E-02 0. -1.
       -2    1    3    3    0  502  0.81193007840E+03 -0.11741168560E+04  0.44466875405E+03  0.14951625813E+04  0.25500000920E-02 0.  1.
</event>
<event>
 5   0  0.1784626E-06  0.3284683E+04  0.7818609E-02  0.8166804E-01
       -2   -1    0    0    0  501  0.00000000000E+00  0.00000000000E+00  0.15549269025E+04  0.15549269026E+04  0.25500000920E-02 0.  1.
        2   -1    0    0  501    0  0.00000000000E+00  0.00000000000E+00 -0.17346704492E+04  0.17346704492E+04  0.25500000920E-02 0. -1.
    10030    2    1    2    0    0  0.00000000000E+00  0.00000000000E+00 -0.17974354668E+03  0.32895973518E+04  0.32846830889E+04 0.  0.
        2    1    3    3  502    0  0.67261138954E+03  0.75724944598E+03 -0.13846528575E+04  0.17155454936E+04  0.25500000920E-02 0. -1.
       -2    1    3    3    0  502 -0.67261138954E+03 -0.75724944598E+03  0.12049093109E+04  0.15740518582E+04  0.25500000920E-02 0.  1.
</event>
<event>
 5   0  0.5858859E-07  0.2728567E+04  0.7818609E-02  0.8325795E-01
       -1   -1    0    0    0  501  0.00000000000E+00  0.00000000000E+00  0.11025809780E+04  0.11025809780E+04  0.50400001928E-02 0.  1.
        1   -1    0    0  501    0  0.00000000000E+00  0.00000000000E+00 -0.16881017548E+04  0.16881017548E+04  0.50400001928E-02 0. -1.
    10030    2    1    2    0    0  0.00000000000E+00  0.00000000000E+00 -0.58552077675E+03  0.27906827328E+04  0.27285665715E+04 0.  0.
        3    1    3    3  502    0 -0.10395053581E+04  0.15708896995E+03 -0.11820489542E+04  0.15819254326E+04  0.10100000352E+00 0. -1.
       -3    1    3    3    0  502  0.10395053581E+04 -0.15708896995E+03  0.59652817747E+03  0.12087573002E+04  0.10100000352E+00 0.  1.
</event>
<event>
 5   0  0.1743810E-06  0.3333282E+04  0.7818609E-02  0.8154478E-01
        2   -1    0    0  501    0  0.00000000000E+00  0.00000000000E+00  0.15076099429E+04  0.15076099429E+04  0.25500000920E-02 0. -1.
       -2   -1    0    0    0  501  0.00000000000E+00  0.00000000000E+00 -0.18424477308E+04  0.18424477308E+04  0.25500000920E-02 0.  1.
    10030    2    1    2    0    0  0.00000000000E+00  0.00000000000E+00 -0.33483778788E+03  0.33500576737E+04  0.33332821772E+04 0.  0.
        5    1    3    3  502    0  0.14469560373E+04  0.81073797677E+03 -0.33161979652E+03  0.16914406937E+04  0.46999998093E+01 0.  1.
       -5    1    3    3    0  502 -0.14469560373E+04 -0.81073797677E+03 -0.32179913603E+01  0.16586169800E+04  0.46999998093E+01 0. -1.
</event>
<event>
 5   0  0.5858859E-07  0.3283975E+04  0.7818609E-02  0.8166985E-01
        1   -1    0    0  501    0  0.00000000000E+00  0.00000000000E+00  0.16391364604E+04  0.16391364604E+04  0.50400001928E-02 0. -1.
       -1   -1    0    0    0  501  0.00000000000E+00  0.00000000000E+00 -0.16448432472E+04  0.16448432472E+04  0.50400001928E-02 0.  1.
    10030    2    1    2    0    0  0.00000000000E+00  0.00000000000E+00 -0.57067867997E+01  0.32839797076E+04  0.32839747490E+04 0.  0.
        3    1    3    3  502    0  0.11452331320E+04 -0.96799952042E+03  0.66613231737E+03  0.16408273135E+04  0.10100000352E+00 0.  1.
       -3    1    3    3    0  502 -0.11452331320E+04  0.96799952042E+03 -0.67183910417E+03  0.16431523941E+04  0.10100000352E+00 0. -1.
</event>
<event>
 5   0  0.1784626E-06  0.3339690E+04  0.7818609E-02  0.8152869E-01
       -2   -1    0    0    0  501  0.00000000000E+00  0.00000000000E+00  0.17985680292E+04  0.17985680292E+04  0.25500000920E-02 0. -1.
        2   -1    0    0  501    0  0.00000000000E+00  0.00000000000E+00 -0.15503348129E+04  0.15503348129E+04  0.25500000920E-02 0.  1.
    10030    2    1    2    0    0  0.00000000000E+00  0.00000000000E+00  0.24823321632E+03  0.33489028420E+04  0.33396901826E+04 0.  0.
        2    1    3    3  502    0  0.10853640911E+04  0.72924501444E+03  0.11655232919E+04  0.17516443833E+04  0.25500000920E-02 0. -1.
       -2    1    3    3    0  502 -0.10853640911E+04 -0.72924501444E+03 -0.91729007557E+03  0.15972584588E+04  0.25500000920E-02 0.  1.
</event>
<event>
 5   0  0.1784626E-06  0.3273543E+04  0.7818609E-02  0.8169660E-01
        2   -1    0    0  501    0  0.00000000000E+00  0.00000000000E+00  0.18980202204E+04  0.18980202204E+04  0.25500000920E-02 0.  1.
       -2   -1    0    0    0  501  0.00000000000E+00  0.00000000000E+00 -0.14114820667E+04  0.14114820667E+04  0.25500000920E-02 0. -1.
    10030    2    1    2    0    0  0.00000000000E+00  0.00000000000E+00  0.48653815362E+03  0.33095022871E+04  0.32735433422E+04 0.  0.
        2    1    3    3  502    0  0.33443045978E+03  0.15839797674E+04 -0.59809749619E+00  0.16188996244E+04  0.25500000920E-02 0. -1.
       -2    1    3    3    0  502 -0.33443045978E+03 -0.15839797674E+04  0.48713625111E+03  0.16906026627E+04  0.25500000920E-02 0.  1.
</event>
<event>
 5   0  0.6085351E-07  0.3270435E+04  0.7818609E-02  0.8170459E-01
       -1   -1    0    0    0  501  0.00000000000E+00  0.00000000000E+00  0.14905250920E+04  0.14905250920E+04  0.50400001928E-02 0.  1.
        1   -1    0    0  501    0  0.00000000000E+00  0.00000000000E+00 -0.17939559751E+04  0.17939559752E+04  0.50400001928E-02 0. -1.
    10030    2    1    2    0    0  0.00000000000E+00  0.00000000000E+00 -0.30343088312E+03  0.32844810672E+04  0.32704350750E+04 0.  0.
        1    1    3    3  502    0 -0.99953781483E+03  0.81225398767E+03 -0.11635662962E+04  0.17357185571E+04  0.50400001928E-02 0. -1.
       -1    1    3    3    0  502  0.99953781483E+03 -0.81225398767E+03  0.86013541310E+03  0.15487625101E+04  0.50400001928E-02 0.  1.
</event>
<event>
 5   0  0.1832626E-06  0.3302275E+04  0.7818609E-02  0.8162317E-01
        2   -1    0    0  501    0  0.00000000000E+00  0.00000000000E+00  0.24368497571E+04  0.24368497571E+04  0.25500000920E-02 0. -1.
       -2   -1    0    0    0  501  0.00000000000E+00  0.00000000000E+00 -0.11187623927E+04  0.11187623927E+04  0.25500000920E-02 0.  1.
    10030    2    1    2    0    0  0.00000000000E+00  0.00000000000E+00  0.13180873645E+04  0.35556121498E+04  0.33022754972E+04 0.  0.
        3    1    3    3  502    0 -0.87708958871E+02 -0.37046843011E+03 -0.10708590217E+04  0.11365204678E+04  0.10100000352E+00 0.  1.
       -3    1    3    3    0  502  0.87708958871E+02  0.37046843011E+03  0.23889463862E+04  0.24190916819E+04  0.10100000352E+00 0. -1.
</event>
<event>
 5   0  0.1784626E-06  0.3286700E+04  0.7818609E-02  0.8166288E-01
        2   -1    0    0  501    0  0.00000000000E+00  0.00000000000E+00  0.20920839195E+04  0.20920839195E+04  0.25500000920E-02 0. -1.
       -2   -1    0    0    0  501  0.00000000000E+00  0.00000000000E+00 -0.12908658257E+04  0.12908658257E+04  0.25500000920E-02 0.  1.
    10030    2    1    2    0    0  0.00000000000E+00  0.00000000000E+00  0.80121809389E+03  0.33829497452E+04  0.32867002517E+04 0.  0.
        2    1    3    3  502    0 -0.43961519449E+03 -0.14236459561E+04  0.11141418040E+04  0.18604680290E+04  0.25500000920E-02 0. -1.
       -2    1    3    3    0  502  0.43961519449E+03  0.14236459561E+04 -0.31292371010E+03  0.15224817162E+04  0.25500000920E-02 0.  1.
</event>
<event>
 5   0  0.5858859E-07  0.3535931E+04  0.7818609E-02  0.8105327E-01
       -1   -1    0    0    0  501  0.00000000000E+00  0.00000000000E+00  0.14202956912E+04  0.14202956912E+04  0.50400001928E-02 0. -1.
        1   -1    0    0  501    0  0.00000000000E+00  0.00000000000E+00 -0.22007403656E+04  0.22007403656E+04  0.50400001928E-02 0.  1.
    10030    2    1    2    0    0  0.00000000000E+00  0.00000000000E+00 -0.78044467444E+03  0.36210360568E+04  0.35359310280E+04 0.  0.
        3    1    3    3  502    0  0.72581143215E+03  0.11831696246E+04 -0.15115702211E+04  0.20522029966E+04  0.10100000352E+00 0.  1.
       -3    1    3    3    0  502 -0.72581143215E+03 -0.11831696246E+04  0.73112554669E+03  0.15688330602E+04  0.10100000352E+00 0. -1.
</event>
<event>
 5   0  0.5858859E-07  0.3815410E+04  0.7818609E-02  0.8042856E-01
        1   -1    0    0  501    0  0.00000000000E+00  0.00000000000E+00  0.22106767522E+04  0.22106767522E+04  0.50400001928E-02 0.  1.
       -1   -1    0    0    0  501  0.00000000000E+00  0.00000000000E+00 -0.16462556441E+04  0.16462556441E+04  0.50400001928E-02 0. -1.
    10030    2    1    2    0    0  0.00000000000E+00  0.00000000000E+00  0.56442110809E+03  0.38569323962E+04  0.38154103740E+04 0.  0.
        3    1    3    3  502    0 -0.53400469441E+03  0.55258269769E+03  0.20473027911E+04  0.21867687075E+04  0.10100000352E+00 0.  1.
       -3    1    3    3    0  502  0.53400469441E+03 -0.55258269769E+03 -0.14828816830E+04  0.16701636888E+04  0.10100000352E+00 0. -1.
</event>
<event>
 5   0  0.5988516E-07  0.3304098E+04  0.7818609E-02  0.8161853E-01
        1   -1    0    0  501    0  0.00000000000E+00  0.00000000000E+00  0.15403424346E+04  0.15403424346E+04  0.50400001928E-02 0.  1.
       -1   -1    0    0    0  501  0.00000000000E+00  0.00000000000E+00 -0.17718571220E+04  0.17718571220E+04  0.50400001928E-02 0. -1.
    10030    2    1    2    0    0  0.00000000000E+00  0.00000000000E+00 -0.23151468737E+03  0.33121995567E+04  0.33040984932E+04 0.  0.
        4    1    3    3  502    0  0.74371576245E+03 -0.34228387748E+03 -0.15541949212E+04  0.17566430639E+04  0.12699999809E+01 0. -1.
       -4    1    3    3    0  502 -0.74371576245E+03  0.34228387748E+03  0.13226802338E+04  0.15555564927E+04  0.12699999809E+01 0.  1.
</event>
<event>
 5   0  0.1832626E-06  0.3274023E+04  0.7818609E-02  0.8169537E-01
        2   -1    0    0  501    0  0.00000000000E+00  0.00000000000E+00  0.22917614297E+04  0.22917614297E+04  0.25500000920E-02 0. -1.
       -2   -1    0    0    0  501  0.00000000000E+00  0.00000000000E+00 -0.11693219995E+04  0.11693219995E+04  0.25500000920E-02 0.  1.
    10030    2    1    2    0    0  0.00000000000E+00  0.00000000000E+00  0.11224394302E+04  0.34610834292E+04  0.32740232481E+04 0.  0.
        3    1    3    3  502    0  0.56413928012E+03  0.78388084074E+03 -0.83607267954E+03  0.12773957239E+04  0.10100000352E+00 0. -1.
       -3    1    3    3    0  502 -0.56413928012E+03 -0.78388084074E+03  0.19585121098E+04  0.21836877053E+04  0.10100000352E+00 0.  1.
</event>
<event>
 5   0  0.1784626E-06  0.3410721E+04  0.7818609E-02  0.8135280E-01
        2   -1    0    0  501    0  0.00000000000E+00  0.00000000000E+00  0.28937437881E+04  0.28937437881E+04  0.25500000920E-02 0.  1.
       -2   -1    0    0    0  501  0.00000000000E+00  0.00000000000E+00 -0.10050146242E+04  0.10050146242E+04  0.25500000920E-02 0. -1.
    10030    2    1    2    0    0  0.00000000000E+00  0.00000000000E+00  0.18887291639E+04  0.38987584123E+04  0.34107212291E+04 0.  0.
        2    1    3    3  502    0  0.44932823798E+03 -0.16354199424E+04  0.11480801688E+04  0.20480679499E+04  0.25500000920E-02 0.  1.
       -2    1    3    3    0  502 -0.44932823798E+03  0.16354199424E+04  0.74064899510E+03  0.18506904624E+04  0.25500000920E-02 0. -1.
</event>
<event>
 5   0  0.1696681E-06  0.3479531E+04  0.7818609E-02  0.8118658E-01
        2   -1    0    0  501    0  0.00000000000E+00  0.00000000000E+00  0.24419159274E+04  0.24419159275E+04  0.25500000920E-02 0.  1.
       -2   -1    0    0    0  501  0.00000000000E+00  0.00000000000E+00 -0.12395117810E+04  0.12395117810E+04  0.25500000920E-02 0. -1.
    10030    2    1    2    0    0  0.00000000000E+00  0.00000000000E+00  0.12024041465E+04  0.36814277084E+04  0.34795307501E+04 0.  0.
        4    1    3    3  502    0 -0.90255602202E+03  0.51324936054E+03  0.20781787080E+04  0.23231144255E+04  0.12699999809E+01 0.  1.
       -4    1    3    3    0  502  0.90255602202E+03 -0.51324936054E+03 -0.87577456148E+03  0.13583132829E+04  0.12699999809E+01 0. -1.
</event>
<event>
 5   0  0.5985183E-07  0.3022152E+04  0.7818609E-02  0.8237433E-01
       -1   -1    0    0    0  501  0.00000000000E+00  0.00000000000E+00  0.18641083814E+04  0.18641083814E+04  0.50400001928E-02 0. -1.
        1   -1    0    0  501    0  0.00000000000E+00  0.00000000000E+00 -0.12249025728E+04  0.12249025728E+04  0.50400001928E-02 0.  1.
    10030    2    1    2    0    0  0.00000000000E+00  0.00000000000E+00  0.63920580862E+03  0.30890109542E+04  0.30221523141E+04 0.  0.
        2    1    3    3  502    0 -0.32936657724E+03 -0.15193758877E+03  0.18189507998E+04  0.18547639702E+04  0.25500000920E-02 0. -1.
       -2    1    3    3    0  502  0.32936657724E+03  0.15193758877E+03 -0.11797449912E+04  0.12342469840E+04  0.25500000920E-02 0.  1.
</event>
<event>
 5   0  0.1728937E-06  0.3324596E+04  0.7818609E-02  0.8156665E-01
       -2   -1    0    0    0  501  0.00000000000E+00  0.00000000000E+00  0.15503895864E+04  0.15503895864E+04  0.25500000920E-02 0.  1.
        2   -1    0    0  501    0  0.00000000000E+00  0.00000000000E+00 -0.17822840512E+04  0.17822840512E+04  0.25500000920E-02 0. -1.
    10030    2    1    2    0    0  0.00000000000E+00  0.00000000000E+00 -0.23189446475E+03  0.33326736376E+04  0.33245959953E+04 0.  0.
        1    1    3    3  502    0  0.82806092591E+03  0.10972322604E+04  0.82100608305E+03  0.16011416298E+04  0.50400001928E-02 0.  1.
       -1    1    3    3    0  502 -0.82806092591E+03 -0.10972322604E+04 -0.10529005478E+04  0.17315320077E+04  0.50400001928E-02 0. -1.
</event>
<event>
 5   0  0.1784626E-06  0.3273321E+04  0.7818609E-02  0.8169717E-01
        2   -1    0    0  501    0  0.00000000000E+00  0.00000000000E+00  0.27155905716E+04  0.27155905716E+04  0.25500000920E-02 0. -1.
       -2   -1    0    0    0  501  0.00000000000E+00  0.00000000000E+00 -0.98639962471E+03  0.98639962471E+03  0.25500000920E-02 0.  1.
    10030    2    1    2    0    0  0.00000000000E+00  0.00000000000E+00  0.17291909468E+04  0.37019901963E+04  0.32733209563E+04 0.  0.
        2    1    3    3  502    0  0.55882476571E+03  0.10608657416E+03 -0.87101800060E+03  0.10402941110E+04  0.25500000920E-02 0.  1.
       -2    1    3    3    0  502 -0.55882476571E+03 -0.10608657416E+03  0.26002089474E+04  0.26616960853E+04  0.25500000920E-02 0. -1.
</event>
<event>
 5   0  0.6085351E-07  0.3277335E+04  0.7818609E-02  0.8168687E-01
       -1   -1    0    0    0  501  0.00000000000E+00  0.00000000000E+00  0.24239955410E+04  0.24239955410E+04  0.50400001928E-02 0.  1.
        1   -1    0    0  501    0  0.00000000000E+00  0.00000000000E+00 -0.11077704293E+04  0.11077704293E+04  0.50400001928E-02 0. -1.
    10030    2    1    2    0    0  0.00000000000E+00  0.00000000000E+00  0.13162251117E+04  0.35317659703E+04  0.32773346372E+04 0.  0.
        1    1    3    3  502    0  0.54052034018E+03  0.95484669870E+03  0.19697020724E+04  0.22546886060E+04  0.50400001928E-02 0.  1.
       -1    1    3    3    0  502 -0.54052034018E+03 -0.95484669870E+03 -0.65347696072E+03  0.12770773643E+04  0.50400001928E-02 0. -1.
</event>
<event>
 5   0  0.5858859E-07  0.3340269E+04  0.7818609E-02  0.8152724E-01
       -1   -1    0    0    0  501  0.00000000000E+00  0.00000000000E+00  0.19031713066E+04  0.19031713066E+04  0.50400001928E-02 0. -1.
        1   -1    0    0  501    0  0.00000000000E+00  0.00000000000E+00 -0.14656322772E+04  0.14656322772E+04  0.50400001928E-02 0.  1.
    10030    2    1    2    0    0  0.00000000000E+00  0.00000000000E+00  0.43753902937E+03  0.33688035838E+04  0.33402690286E+04 0.  0.
        3    1    3    3  502    0 -0.15876825265E+04 -0.28047915423E+03  0.65831931866E+03  0.17414903664E+04  0.10100000352E+00 0. -1.
       -3    1    3    3    0  502  0.15876825265E+04  0.28047915423E+03 -0.22078028929E+03  0.16273132173E+04  0.10100000352E+00 0.  1.
</event>
<event>
 5   0  0.5988516E-07  0.3552943E+04  0.7818609E-02  0.8101356E-01
        1   -1    0    0  501    0  0.00000000000E+00  0.00000000000E+00  0.23387575344E+04  0.23387575345E+04  0.50400001928E-02 0. -1.
       -1   -1    0    0    0  501  0.00000000000E+00  0.00000000000E+00 -0.13493710302E+04  0.13493710303E+04  0.50400001928E-02 0.  1.
    10030    2    1    2    0    0  0.00000000000E+00  0.00000000000E+00  0.98938650420E+03  0.36881285647E+04  0.35529433791E+04 0.  0.
        4    1    3    3  502    0 -0.10082080554E+04  0.30044279146E+03 -0.99124039132E+03  0.14454440425E+04  0.12699999809E+01 0.  1.
       -4    1    3    3    0  502  0.10082080554E+04 -0.30044279146E+03  0.19806268955E+04  0.22426845222E+04  0.12699999809E+01 0. -1.
</event>
<event>
 5   0  0.5858859E-07  0.3319351E+04  0.7818609E-02  0.8157989E-01
       -1   -1    0    0    0  501  0.00000000000E+00  0.00000000000E+00  0.10955928332E+04  0.10955928332E+04  0.50400001928E-02 0.  1.
        1   -1    0    0  501    0  0.00000000000E+00  0.00000000000E+00 -0.25141844628E+04  0.25141844628E+04  0.50400001928E-02 0. -1.
    10030    2    1    2    0    0  0.00000000000E+00  0.00000000000E+00 -0.14185916297E+04  0.36097772960E+04  0.33193508273E+04 0.  0.
        3    1    3    3  502    0  0.64515408573E+03  0.83507671799E+03  0.68377867082E+03  0.12574299981E+04  0.10100000352E+00 0.  1.
       -3    1    3    3    0  502 -0.64515408573E+03 -0.83507671799E+03 -0.21023703005E+04  0.23523472979E+04  0.10100000352E+00 0. -1.
</event>
<event>
 5   0  0.1832626E-06  0.3299369E+04  0.7818609E-02  0.8163056E-01
       -2   -1    0    0    0  501  0.00000000000E+00  0.00000000000E+00  0.13572662850E+04  0.13572662850E+04  0.25500000920E-02 0.  1.
        2   -1    0    0  501    0  0.00000000000E+00  0.00000000000E+00 -0.20051028041E+04  0.20051028041E+04  0.25500000920E-02 0. -1.
    10030    2    1    2    0    0  0.00000000000E+00  0.00000000000E+00 -0.64783651909E+03  0.33623690891E+04  0.32993686874E+04 0.  0.
        3    1    3    3  502    0 -0.56134020571E+03 -0.15308689173E+04 -0.68542087979E+02  0.16319805441E+04  0.10100000352E+00 0.  1.
       -3    1    3    3    0  502  0.56134020571E+03  0.15308689173E+04 -0.57929443111E+03  0.17303885449E+04  0.10100000352E+00 0. -1.
</event>
<event>
 5   0  0.5985183E-07  0.3280197E+04  0.7818609E-02  0.8167953E-01
       -1   -1    0    0    0  501  0.00000000000E+00  0.00000000000E+00  0.10852899115E+04  0.10852899115E+04  0.50400001928E-02 0. -1.
        1   -1    0    0  501    0  0.00000000000E+00  0.00000000000E+00 -0.24785298093E+04  0.24785298093E+04  0.50400001928E-02 0.  1.
    10030    2    1    2    0    0  0.00000000000E+00  0.00000000000E+00 -0.13932398979E+04  0.35638197208E+04  0.32801971876E+04 0.  0.
        2    1    3    3  502    0  0.63872680652E+03 -0.82832572164E+03 -0.20691087522E+04  0.23184707164E+04  0.25500000920E-02 0.  1.
       -2    1    3    3    0  502 -0.63872680652E+03  0.82832572164E+03  0.67586885430E+03  0.12453490044E+04  0.25500000920E-02 0. -1.
</event>
<event>
 5   0  0.1728937E-06  0.3349755E+04  0.7818609E-02  0.8150349E-01
       -2   -1    0    0    0  501  0.00000000000E+00  0.00000000000E+00  0.28538617968E+04  0.28538617968E+04  0.25500000920E-02 0. -1.
        2   -1    0    0  501    0  0.00000000000E+00  0.00000000000E+00 -0.98295391270E+03  0.98295391271E+03  0.25500000920E-02 0.  1.
    10030    2    1    2    0    0  0.00000000000E+00  0.00000000000E+00  0.18709078841E+04  0.38368157095E+04  0.33497549878E+04 0.  0.
        1    1    3    3  502    0  0.38906624614E+03  0.13223873151E+04 -0.15426450801E+03  0.13870393987E+04  0.50400001928E-02 0.  1.
       -1    1    3    3    0  502 -0.38906624614E+03 -0.13223873151E+04  0.20251723921E+04  0.24497763108E+04  0.50400001928E-02 0. -1.
</event>
<event>
 5   0  0.5985183E-07  0.3312938E+04  0.7818609E-02  0.8159611E-01
        1   -1    0    0  501    0  0.00000000000E+00  0.00000000000E+00  0.17348590919E+04  0.17348590920E+04  0.50400001928E-02 0. -1.
       -1   -1    0    0    0  501  0.00000000000E+00  0.00000000000E+00 -0.15816209112E+04  0.15816209112E+04  0.50400001928E-02 0.  1.
    10030    2    1    2    0    0  0.00000000000E+00  0.00000000000E+00  0.15323818077E+03  0.33164800031E+04  0.33129379214E+04 0.  0.
        2    1    3    3  502    0 -0.45276248102E+03 -0.13702576033E+04 -0.73744753301E+03  0.16206259987E+04  0.25500000920E-02 0. -1.
       -2    1    3    3    0  502  0.45276248102E+03  0.13702576033E+04  0.89068571379E+03  0.16958540045E+04  0.25500000920E-02 0.  1.
</event>
<event>
 5   0  0.5858859E-07  0.3288525E+04  0.7818609E-02  0.8165821E-01
       -1   -1    0    0    0  501  0.00000000000E+00  0.00000000000E+00  0.11568228193E+04  0.11568228193E+04  0.50400001928E-02 0. -1.
        1   -1    0    0  501    0  0.00000000000E+00  0.00000000000E+00 -0.23370905114E+04  0.23370905114E+04  0.50400001928E-02 0.  1.
    10030    2    1    2    0    0  0.00000000000E+00  0.00000000000E+00 -0.11802676920E+04  0.34939133307E+04  0.32885252831E+04 0.  0.
        3    1    3    3  502    0 -0.10778024125E+04 -0.39968954760E+03 -0.18392268968E+04  0.21689087954E+04  0.10100000352E+00 0.  1.
       -3    1    3    3    0  502  0.10778024125E+04  0.39968954760E+03  0.65895920472E+03  0.13250045353E+04  0.10100000352E+00 0. -1.
</event>
<event>
 5   0  0.1696681E-06  0.3304747E+04  0.7818609E-02  0.8161689E-01
       -2   -1    0    0    0  501  0.00000000000E+00  0.00000000000E+00  0.15373981618E+04  0.15373981618E+04  0.25500000920E-02 0.  1.
        2   -1    0    0  501    0  0.00000000000E+00  0.00000000000E+00 -0.17759473158E+04  0.17759473158E+04  0.25500000920E-02 0. -1.
    10030    2    1    2    0    0  0.00000000000E+00  0.00000000000E+00 -0.23854915403E+03  0.33133454776E+04  0.33047469730E+04 0.  0.
        4    1    3    3  502    0 -0.24850793868E+03 -0.36359351061E+03  0.14774708303E+04  0.15417127177E+04  0.12699999809E+01 0.  1.
       -4    1    3    3    0  502  0.24850793868E+03  0.36359351061E+03 -0.17160199843E+04  0.17716327599E+04  0.12699999809E+01 0. -1.
</event>
<event>
 5   0  0.5988516E-07  0.3307401E+04  0.7818609E-02  0.8161015E-01
        1   -1    0    0  501    0  0.00000000000E+00  0.00000000000E+00  0.13608552483E+04  0.13608552483E+04  0.50400001928E-02 0.  1.
       -1   -1    0    0    0  501  0.00000000000E+00  0.00000000000E+00 -0.20095642484E+04  0.20095642484E+04  0.50400001928E-02 0. -1.
    10030    2    1    2    0    0  0.00000000000E+00  0.00000000000E+00 -0.64870900011E+03  0.33704194967E+04  0.33074014297E+04 0.  0.
        4    1    3    3  502    0 -0.27245275085E+01  0.97071731472E+03 -0.16886785486E+04  0.19478029627E+04  0.12699999809E+01 0. -1.
       -4    1    3    3    0  502  0.27245275085E+01 -0.97071731472E+03  0.10399695485E+04  0.14226165340E+04  0.12699999809E+01 0.  1.
</event>
<event>
 5   0  0.1784626E-06  0.3327540E+04  0.7818609E-02  0.8155923E-01
        2   -1    0    0  501    0  0.00000000000E+00  0.00000000000E+00  0.28531130444E+04  0.28531130444E+04  0.25500000920E-02 0. -1.
       -2   -1    0    0    0  501  0.00000000000E+00  0.00000000000E+00 -0.97021435585E+03  0.97021435585E+03  0.25500000920E-02 0.  1.
    10030    2    1    2    0    0  0.00000000000E+00  0.00000000000E+00  0.18828986885E+04  0.38233274002E+04  0.33275403736E+04 0.  0.
        2    1    3    3  502    0 -0.13443872856E+04 -0.92586335619E+03  0.57174582620E+03  0.17295934256E+04  0.25500000920E-02 0. -1.
       -2    1    3    3    0  502  0.13443872856E+04  0.92586335619E+03  0.13111528623E+04  0.20937339746E+04  0.25500000920E-02 0.  1.
</event>
<event>
 5   0  0.6023446E-07  0.3253434E+04  0.7818609E-02  0.8174846E-01
        1   -1    0    0  501    0  0.00000000000E+00  0.00000000000E+00  0.26276007140E+04  0.26276007140E+04  0.50400001928E-02 0. -1.
       -1   -1    0    0    0  501  0.00000000000E+00  0.00000000000E+00 -0.10070815875E+04  0.10070815875E+04  0.50400001928E-02 0.  1.
    10030    2    1    2    0    0  0.00000000000E+00  0.00000000000E+00  0.16205191264E+04  0.36346823015E+04  0.32534340617E+04 0.  0.
        5    1    3    3  502    0  0.14895635060E+04 -0.35621683125E+03  0.14226720539E+04  0.20903845895E+04  0.46999998093E+01 0.  1.
       -5    1    3    3    0  502 -0.14895635060E+04  0.35621683125E+03  0.19784707256E+03  0.15442977120E+04  0.46999998093E+01 0. -1.
</event>
<event>
 5   0  0.1832626E-06  0.3259685E+04  0.7818609E-02  0.8173230E-01
        2   -1    0    0  501    0  0.00000000000E+00  0.00000000000E+00  0.25027826209E+04  0.25027826209E+04  0.25500000920E-02 0.  1.
       -2   -1    0    0    0  501  0.00000000000E+00  0.00000000000E+00 -0.10613733098E+04  0.10613733098E+04  0.25500000920E-02 0. -1.
    10030    2    1    2    0    0  0.00000000000E+00  0.00000000000E+00  0.14414093111E+04  0.35641559306E+04  0.32596850608E+04 0.  0.
        3    1    3    3  502    0  0.71571395553E+03  0.13009160493E+04 -0.14204744256E+02  0.14848672730E+04  0.10100000352E+00 0. -1.
       -3    1    3    3    0  502 -0.71571395553E+03 -0.13009160493E+04  0.14556140554E+04  0.20792886576E+04  0.10100000352E+00 0.  1.
</event>
<event>
 5   0  0.5985183E-07  0.3148247E+04  0.7818609E-02  0.8202620E-01
       -1   -1    0    0    0  501  0.00000000000E+00  0.00000000000E+00  0.14419572533E+04  0.14419572533E+04  0.50400001928E-02 0. -1.
        1   -1    0    0  501    0  0.00000000000E+00  0.00000000000E+00 -0.17184042073E+04  0.17184042073E+04  0.50400001928E-02 0.  1.
    10030    2    1    2    0    0  0.00000000000E+00  0.00000000000E+00 -0.27644695396E+03  0.31603614607E+04  0.31482473924E+04 0.  0.
        2    1    3    3  502    0  0.17445443172E+03 -0.34272881698E+02  0.14318460878E+04  0.14428417094E+04  0.25500000920E-02 0. -1.
       -2    1    3    3    0  502 -0.17445443172E+03  0.34272881698E+02 -0.17082930418E+04  0.17175197512E+04  0.25500000920E-02 0.  1.
</event>
<event>
 5   0  0.1784626E-06  0.3315235E+04  0.7818609E-02  0.8159030E-01
        2   -1    0    0  501    0  0.00000000000E+00  0.00000000000E+00  0.16761770931E+04  0.16761770931E+04  0.25500000920E-02 0. -1.
       -2   -1    0    0    0  501  0.00000000000E+00  0.00000000000E+00 -0.16392634655E+04  0.16392634655E+04  0.25500000920E-02 0.  1.
    10030    2    1    2    0    0  0.00000000000E+00  0.00000000000E+00  0.36913627624E+02  0.33154405586E+04  0.33152350568E+04 0.  0.
        2    1    3    3  502    0 -0.11918328957E+04 -0.91176129842E+02 -0.11300555497E+04  0.16449329115E+04  0.25500000920E-02 0.  1.
       -2    1    3    3    0  502  0.11918328957E+04  0.91176129842E+02  0.11669691774E+04  0.16705076470E+04  0.25500000920E-02 0. -1.
</event>
<event>
 5   0  0.1728937E-06  0.3288451E+04  0.7818609E-02  0.8165840E-01
       -2   -1    0    0    0  501  0.00000000000E+00  0.00000000000E+00  0.16306047430E+04  0.16306047430E+04  0.25500000920E-02 0.  1.
        2   -1    0    0  501    0  0.00000000000E+00  0.00000000000E+00 -0.16579603631E+04  0.16579603631E+04  0.25500000920E-02 0. -1.
    10030    2    1    2    0    0  0.00000000000E+00  0.00000000000E+00 -0.27355620145E+02  0.32885651061E+04  0.32884513265E+04 0.  0.
        1    1    3    3  502    0 -0.91296250581E+00 -0.10851530964E+04  0.12216462568E+04  0.16340066257E+04  0.50400001928E-02 0.  1.
       -1    1    3    3    0  502  0.91296250581E+00  0.10851530964E+04 -0.12490018769E+04  0.16545584803E+04  0.50400001928E-02 0. -1.
</event>
<event>
 5   0  0.5858859E-07  0.3315680E+04  0.7818609E-02  0.8158917E-01
        1   -1    0    0  501    0  0.00000000000E+00  0.00000000000E+00  0.15387701935E+04  0.15387701935E+04  0.50400001928E-02 0.  1.
       -1   -1    0    0    0  501  0.00000000000E+00  0.00000000000E+00 -0.17861231599E+04  0.17861231599E+04  0.50400001928E-02 0. -1.
    10030    2    1    2    0    0  0.00000000000E+00  0.00000000000E+00 -0.24735296634E+03  0.33248933534E+04  0.33156797677E+04 0.  0.
        3    1    3    3  502    0 -0.13351165082E+04  0.35945917277E+03  0.79357075575E+03  0.15942087511E+04  0.10100000352E+00 0.  1.
       -3    1    3    3    0  502  0.13351165082E+04 -0.35945917277E+03 -0.10409237221E+04  0.17306846024E+04  0.10100000352E+00 0. -1.
</event>
<event>
 5   0  0.5988516E-07  0.3312879E+04  0.7818609E-02  0.8159626E-01
        1   -1    0    0  501    0  0.00000000000E+00  0.00000000000E+00  0.18585256857E+04  0.18585256857E+04  0.50400001928E-02 0.  1.
       -1   -1    0    0    0  501  0.00000000000E+00  0.00000000000E+00 -0.14763271651E+04  0.14763271651E+04  0.50400001928E-02 0. -1.
    10030    2    1    2    0    0  0.00000000000E+00  0.00000000000E+00  0.38219852063E+03  0.33348528509E+04  0.33128790844E+04 0.  0.
        4    1    3    3  502    0  0.17527093486E+03  0.84748877180E+03 -0.12306545050E+04  0.15044830483E+04  0.12699999809E+01 0. -1.
       -4    1    3    3    0  502 -0.17527093486E+03 -0.84748877180E+03  0.16128530257E+04  0.18303698026E+04  0.12699999809E+01 0.  1.
</event>
<event>
 5   0  0.1784626E-06  0.3270624E+04  0.7818609E-02  0.8170411E-01
        2   -1    0    0  501    0  0.00000000000E+00  0.00000000000E+00  0.12031522259E+04  0.12031522259E+04  0.25500000920E-02 0.  1.
       -2   -1    0    0    0  501  0.00000000000E+00  0.00000000000E+00 -0.22226994153E+04  0.22226994153E+04  0.25500000920E-02 0. -1.
    10030    2    1    2    0    0  0.00000000000E+00  0.00000000000E+00 -0.10195471894E+04  0.34258516413E+04  0.32706242518E+04 0.  0.
        2    1    3    3  502    0 -0.90522672046E+03  0.13252062478E+04 -0.18079954210E+03  0.16150218231E+04  0.25500000920E-02 0.  1.
       -2    1    3    3    0  502  0.90522672046E+03 -0.13252062478E+04 -0.83874764728E+03  0.18108298182E+04  0.25500000920E-02 0. -1.
</event>
<event>
 5   0  0.1696681E-06  0.3247452E+04  0.7818609E-02  0.8176397E-01
        2   -1    0    0  501    0  0.00000000000E+00  0.00000000000E+00  0.15110616748E+04  0.15110616748E+04  0.25500000920E-02 0.  1.
       -2   -1    0    0    0  501  0.00000000000E+00  0.00000000000E+00 -0.17447900304E+04  0.17447900304E+04  0.25500000920E-02 0. -1.
    10030    2    1    2    0    0  0.00000000000E+00  0.00000000000E+00 -0.23372835554E+03  0.32558517052E+04  0.32474515211E+04 0.  0.
        4    1    3    3  502    0  0.58876197361E+03 -0.90600921472E+03  0.10982900836E+04  0.15406933761E+04  0.12699999809E+01 0.  1.
       -4    1    3    3    0  502 -0.58876197361E+03  0.90600921472E+03 -0.13320184391E+04  0.17151583291E+04  0.12699999809E+01 0. -1.
</event>
<event>
 5   0  0.1832626E-06  0.3292285E+04  0.7818609E-02  0.8164861E-01
        2   -1    0    0  501    0  0.00000000000E+00  0.00000000000E+00  0.18486112349E+04  0.18486112349E+04  0.25500000920E-02 0. -1.
       -2   -1    0    0    0  501  0.00000000000E+00  0.00000000000E+00 -0.14658493388E+04  0.14658493388E+04  0.25500000920E-02 0.  1.
    10030    2    1    2    0    0  0.00000000000E+00  0.00000000000E+00  0.38276189611E+03  0.33144605737E+04  0.32922852588E+04 0.  0.
        3    1    3    3  502    0  0.12422144571E+04 -0.77553412555E+03 -0.56550450219E+03  0.15698233307E+04  0.10100000352E+00 0.  1.
       -3    1    3    3    0  502 -0.12422144571E+04  0.77553412555E+03  0.94826639830E+03  0.17446372430E+04  0.10100000352E+00 0. -1.
</event>
<event>
 5   0  0.1743810E-06  0.3297932E+04  0.7818609E-02  0.8163422E-01
       -2   -1    0    0    0  501  0.00000000000E+00  0.00000000000E+00  0.13762415952E+04  0.13762415952E+04  0.25500000920E-02 0. -1.
        2   -1    0    0  501    0  0.00000000000E+00  0.00000000000E+00 -0.19757356441E+04  0.19757356441E+04  0.25500000920E-02 0.  1.
    10030    2    1    2    0    0  0.00000000000E+00  0.00000000000E+00 -0.59949404888E+03  0.33519772393E+04  0.32979324278E+04 0.  0.
        5    1    3    3  502    0  0.38903543718E+03 -0.95302955789E+03 -0.16090551452E+04  0.19101556114E+04  0.46999998093E+01 0.  1.
       -5    1    3    3    0  502 -0.38903543718E+03  0.95302955789E+03  0.10095610963E+04  0.14418216279E+04  0.46999998093E+01 0. -1.
</event>
<event>
 5   0  0.5988516E-07  0.3280993E+04  0.7818609E-02  0.8167749E-01
        1   -1    0    0  501    0  0.00000000000E+00  0.00000000000E+00  0.31867654096E+04  0.31867654096E+04  0.50400001928E-02 0.  1.
       -1   -1    0    0    0  501  0.00000000000E+00  0.00000000000E+00 -0.84450154217E+03  0.84450154218E+03  0.50400001928E-02 0. -1.
    10030    2    1    2    0    0  0.00000000000E+00  0.00000000000E+00  0.23422638674E+04  0.40312669518E+04  0.32809927174E+04 0.  0.
        4    1    3    3  502    0 -0.10039087313E+04 -0.16214949498E+03 -0.41051974197E+03  0.10966554933E+04  0.12699999809E+01 0. -1.
       -4    1    3    3    0  502  0.10039087313E+04  0.16214949498E+03  0.27527836094E+04  0.29346114585E+04  0.12699999809E+01 0.  1.
</event>
<event>
 5   0  0.6023446E-07  0.3253639E+04  0.7818609E-02  0.8174793E-01
        1   -1    0    0  501    0  0.00000000000E+00  0.00000000000E+00  0.19216236434E+04  0.19216236434E+04  0.50400001928E-02 0.  1.
       -1   -1    0    0    0  501  0.00000000000E+00  0.00000000000E+00 -0.13772425360E+04  0.13772425360E+04  0.50400001928E-02 0. -1.
    10030    2    1    2    0    0  0.00000000000E+00  0.00000000000E+00  0.54438110738E+03  0.32988661794E+04  0.32536390825E+04 0.  0.
        5    1    3    3  502    0 -0.22930428389E+03  0.77121211855E+03 -0.11613840858E+04  0.14128636421E+04  0.46999998093E+01 0. -1.
       -5    1    3    3    0  502  0.22930428389E+03 -0.77121211855E+03  0.17057651932E+04  0.18860025373E+04  0.46999998093E+01 0.  1.
</event>
<event>
 5   0  0.6085351E-07  0.3311260E+04  0.7818609E-02  0.8160036E-01
       -1   -1    0    0    0  501  0.00000000000E+00  0.00000000000E+00  0.12602573152E+04  0.12602573152E+04  0.50400001928E-02 0. -1.
        1   -1    0    0  501    0  0.00000000000E+00  0.00000000000E+00 -0.21750406206E+04  0.21750406206E+04  0.50400001928E-02 0.  1.
    10030    2    1    2    0    0  0.00000000000E+00  0.00000000000E+00 -0.91478330547E+03  0.34352979358E+04  0.33112600942E+04 0.  0.
        1    1    3    3  502    0  0.13420445544E+02  0.17491834418E+03  0.12505874203E+04  0.12628323053E+04  0.50400001928E-02 0. -1.
       -1    1    3    3    0  502 -0.13420445544E+02 -0.17491834418E+03 -0.21653707258E+04  0.21724656305E+04  0.50400001928E-02 0.  1.
</event>
<event>
 5   0  0.1696681E-06  0.3319049E+04  0.7818609E-02  0.8158065E-01
       -2   -1    0    0    0  501  0.00000000000E+00  0.00000000000E+00  0.13277885421E+04  0.13277885421E+04  0.25500000920E-02 0.  1.
        2   -1    0    0  501    0  0.00000000000E+00  0.00000000000E+00 -0.20741418499E+04  0.20741418499E+04  0.25500000920E-02 0. -1.
    10030    2    1    2    0    0  0.00000000000E+00  0.00000000000E+00 -0.74635330779E+03  0.34019303920E+04  0.33190491307E+04 0.  0.
        4    1    3    3  502    0 -0.12780151466E+04 -0.98431619065E+03 -0.77254619274E+03  0.17885833251E+04  0.12699999809E+01 0. -1.
       -4    1    3    3    0  502  0.12780151466E+04  0.98431619065E+03  0.26192884948E+02  0.16133470669E+04  0.12699999809E+01 0.  1.
</event>
<event>
 5   0  0.1696681E-06  0.3325269E+04  0.7818609E-02  0.8156495E-01
       -2   -1    0    0    0  501  0.00000000000E+00  0.00000000000E+00  0.10672932306E+04  0.10672932306E+04  0.25500000920E-02 0. -1.
        2   -1    0    0  501    0  0.00000000000E+00  0.00000000000E+00 -0.25900606828E+04  0.25900606828E+04  0.25500000920E-02 0.  1.
    10030    2    1    2    0    0  0.00000000000E+00  0.00000000000E+00 -0.15227674522E+04  0.36573539133E+04  0.33252694528E+04 0.  0.
        4    1    3    3  502    0  0.45153176819E+03 -0.27474407547E+02 -0.25210734911E+04  0.25613373345E+04  0.12699999809E+01 0.  1.
       -4    1    3    3    0  502 -0.45153176819E+03  0.27474407547E+02  0.99830603892E+03  0.10960165788E+04  0.12699999809E+01 0. -1.
</event>
<event>
 5   0  0.5685000E-07  0.3314128E+04  0.7818609E-02  0.8159310E-01
       -3   -1    0    0    0  501  0.00000000000E+00  0.00000000000E+00  0.20385375961E+04  0.20385375986E+04  0.10100000352E+00 0.  1.
        3   -1    0    0  501    0  0.00000000000E+00  0.00000000000E+00 -0.13469760724E+04  0.13469760762E+04  0.10100000352E+00 0. -1.
    10030    2    1    2    0    0  0.00000000000E+00  0.00000000000E+00  0.69156152375E+03  0.33855136748E+04  0.33141281661E+04 0.  0.
        1    1    3    3  502    0  0.25114492661E+03  0.18901159683E+03  0.20078049778E+04  0.20322598227E+04  0.50400001928E-02 0.  1.
       -1    1    3    3    0  502 -0.25114492661E+03 -0.18901159683E+03 -0.13162434541E+04  0.13532538521E+04  0.50400001928E-02 0. -1.
</event>
<event>
 5   0  0.1784626E-06  0.3187752E+04  0.7818609E-02  0.8192059E-01
       -2   -1    0    0    0  501  0.00000000000E+00  0.00000000000E+00  0.10295585205E+04  0.10295585205E+04  0.25500000920E-02 0. -1.
        2   -1    0    0  501    0  0.00000000000E+00  0.00000000000E+00 -0.24675042799E+04  0.24675042799E+04  0.25500000920E-02 0.  1.
    10030    2    1    2    0    0  0.00000000000E+00  0.00000000000E+00 -0.14379457594E+04  0.34970628004E+04  0.31877515937E+04 0.  0.
        2    1    3    3  502    0 -0.50784659921E+03  0.18214427818E+03 -0.23642838556E+04  0.24250614129E+04  0.25500000920E-02 0.  1.
       -2    1    3    3    0  502  0.50784659921E+03 -0.18214427818E+03  0.92633809620E+03  0.10720013875E+04  0.25500000920E-02 0. -1.
</event>
<event>
 5   0  0.5985183E-07  0.3229308E+04  0.7818609E-02  0.8181120E-01
       -1   -1    0    0    0  501  0.00000000000E+00  0.00000000000E+00  0.97226032785E+03  0.97226032786E+03  0.50400001928E-02 0.  1.
        1   -1    0    0  501    0  0.00000000000E+00  0.00000000000E+00 -0.26814904735E+04  0.26814904735E+04  0.50400001928E-02 0. -1.
    10030    2    1    2    0    0  0.00000000000E+00  0.00000000000E+00 -0.17092301457E+04  0.36537508014E+04  0.32293075462E+04 0.  0.
        2    1    3    3  502    0  0.76133009437E+03  0.10709378658E+04 -0.19163418879E+04  0.23235528091E+04  0.25500000920E-02 0. -1.
       -2    1    3    3    0  502 -0.76133009437E+03 -0.10709378658E+04  0.20711174223E+03  0.13301979923E+04  0.25500000920E-02 0.  1.
</event>
<event>
 5   0  0.5858859E-07  0.3257663E+04  0.7818609E-02  0.8173752E-01
       -1   -1    0    0    0  501  0.00000000000E+00  0.00000000000E+00  0.12523971137E+04  0.12523971137E+04  0.50400001928E-02 0.  1.
        1   -1    0    0  501    0  0.00000000000E+00  0.00000000000E+00 -0.21184106210E+04  0.21184106210E+04  0.50400001928E-02 0. -1.
    10030    2    1    2    0    0  0.00000000000E+00  0.00000000000E+00 -0.86601350727E+03  0.33708077347E+04  0.32576625653E+04 0.  0.
        3    1    3    3  502    0 -0.38789358315E+03 -0.15078805705E+04  0.62073414981E+02  0.15582099877E+04  0.10100000352E+00 0.  1.
       -3    1    3    3    0  502  0.38789358315E+03  0.15078805705E+04 -0.92808692225E+03  0.18125977469E+04  0.10100000352E+00 0. -1.
</event>
<event>
 5   0  0.1743810E-06  0.2778322E+04  0.7818609E-02  0.8310030E-01
       -2   -1    0    0    0  501  0.00000000000E+00  0.00000000000E+00  0.10734858933E+04  0.10734858933E+04  0.25500000920E-02 0.  1.
        2   -1    0    0  501    0  0.00000000000E+00  0.00000000000E+00 -0.17976650881E+04  0.17976650881E+04  0.25500000920E-02 0. -1.
    10030    2    1    2    0    0  0.00000000000E+00  0.00000000000E+00 -0.72417919476E+03  0.28711509814E+04  0.27783218770E+04 0.  0.
        5    1    3    3  502    0  0.18940075194E+03 -0.97670886773E+03 -0.13639733612E+04  0.16882767182E+04  0.46999998093E+01 0. -1.
       -5    1    3    3    0  502 -0.18940075194E+03  0.97670886773E+03  0.63979416647E+03  0.11828742632E+04  0.46999998093E+01 0.  1.
</event>
<event>
 5   0  0.1728937E-06  0.3304102E+04  0.7818609E-02  0.8161852E-01
        2   -1    0    0  501    0  0.00000000000E+00  0.00000000000E+00  0.29209930267E+04  0.29209930267E+04  0.25500000920E-02 0.  1.
       -2   -1    0    0    0  501  0.00000000000E+00  0.00000000000E+00 -0.93436462987E+03  0.93436462987E+03  0.25500000920E-02 0. -1.
    10030    2    1    2    0    0  0.00000000000E+00  0.00000000000E+00  0.19866283969E+04  0.38553576566E+04  0.33041020373E+04 0.  0.
        1    1    3    3  502    0  0.72561636474E+03 -0.54742455116E+03 -0.61636645566E+03  0.10982260039E+04  0.50400001928E-02 0. -1.
       -1    1    3    3    0  502 -0.72561636474E+03  0.54742455116E+03  0.26029948525E+04  0.27571316527E+04  0.50400001928E-02 0.  1.
</event>
<event>
 5   0  0.5988516E-07  0.3350060E+04  0.7818609E-02  0.8150273E-01
       -1   -1    0    0    0  501  0.00000000000E+00  0.00000000000E+00  0.13360503697E+04  0.13360503697E+04  0.50400001928E-02 0. -1.
        1   -1    0    0  501    0  0.00000000000E+00  0.00000000000E+00 -0.21000142082E+04  0.21000142082E+04  0.50400001928E-02 0.  1.
    10030    2    1    2    0    0  0.00000000000E+00  0.00000000000E+00 -0.76396383849E+03  0.34360645780E+04  0.33500595573E+04 0.  0.
        4    1    3    3  502    0 -0.13398227730E+04  0.34520047251E+03 -0.13503792002E+04  0.19333427080E+04  0.12699999809E+01 0.  1.
       -4    1    3    3    0  502  0.13398227730E+04 -0.34520047251E+03  0.58641536174E+03  0.15027218700E+04  0.12699999809E+01 0. -1.
</event>
<event>
 5   0  0.5988516E-07  0.3291423E+04  0.7818609E-02  0.8165081E-01
        1   -1    0    0  501    0  0.00000000000E+00  0.00000000000E+00  0.24700309752E+04  0.24700309753E+04  0.50400001928E-02 0.  1.
       -1   -1    0    0    0  501  0.00000000000E+00  0.00000000000E+00 -0.10964905262E+04  0.10964905262E+04  0.50400001928E-02 0. -1.
    10030    2    1    2    0    0  0.00000000000E+00  0.00000000000E+00  0.13735404490E+04  0.35665215015E+04  0.32914225276E+04 0.  0.
        4    1    3    3  502    0  0.64886911926E+03 -0.27476291428E+03  0.22982983235E+04  0.24038932151E+04  0.12699999809E+01 0.  1.
       -4    1    3    3    0  502 -0.64886911926E+03  0.27476291428E+03 -0.92475787447E+03  0.11626282864E+04  0.12699999809E+01 0. -1.
</event>
<event>
 5   0  0.6023446E-07  0.3269362E+04  0.7818609E-02  0.8170735E-01
       -1   -1    0    0    0  501  0.00000000000E+00  0.00000000000E+00  0.17394916670E+04  0.17394916670E+04  0.50400001928E-02 0.  1.
        1   -1    0    0  501    0  0.00000000000E+00  0.00000000000E+00 -0.15361859195E+04  0.15361859195E+04  0.50400001928E-02 0. -1.
    10030    2    1    2    0    0  0.00000000000E+00  0.00000000000E+00  0.20330574752E+03  0.32756775866E+04  0.32693623880E+04 0.  0.
        5    1    3    3  502    0 -0.78719265439E+03  0.13702262280E+04 -0.31744726452E+03  0.16118272385E+04  0.46999998093E+01 0. -1.
       -5    1    3    3    0  502  0.78719265439E+03 -0.13702262280E+04  0.52075301204E+03  0.16638503480E+04  0.46999998093E+01 0.  1.
</event>
<event>
 5   0  0.1696681E-06  0.3348109E+04  0.7818609E-02  0.8150761E-01
        2   -1    0    0  501    0  0.00000000000E+00  0.00000000000E+00  0.15652257805E+04  0.15652257805E+04  0.25500000920E-02 0. -1.
       -2   -1    0    0    0  501  0.00000000000E+00  0.00000000000E+00 -0.17904502842E+04  0.17904502842E+04  0.25500000920E-02 0.  1.
    10030    2    1    2    0    0  0.00000000000E+00  0.00000000000E+00 -0.22522450366E+03  0.33556760647E+04  0.33481092835E+04 0.  0.
        4    1    3    3  502    0  0.96748075936E+03  0.20512442705E+03 -0.14663543895E+04  0.17686977861E+04  0.12699999809E+01 0.  1.
       -4    1    3    3    0  502 -0.96748075936E+03 -0.20512442705E+03  0.12411298858E+04  0.15869782786E+04  0.12699999809E+01 0. -1.
</event>
<event>
 5   0  0.6023446E-07  0.3268483E+04  0.7818609E-02  0.8170962E-01
       -1   -1    0    0    0  501  0.00000000000E+00  0.00000000000E+00  0.12640153902E+04  0.12640153902E+04  0.50400001928E-02 0. -1.
        1   -1    0    0  501    0  0.00000000000E+00  0.00000000000E+00 -0.21129053407E+04  0.21129053407E+04  0.50400001928E-02 0.  1.
    10030    2    1    2    0    0  0.00000000000E+00  0.00000000000E+00 -0.84888995052E+03  0.33769207310E+04  0.32684827482E+04 0.  0.
        5    1    3    3  502    0  0.70517899352E+03  0.10983145701E+03  0.10944945255E+04  0.13066295260E+04  0.46999998093E+01 0. -1.
       -5    1    3    3    0  502 -0.70517899352E+03 -0.10983145701E+03 -0.19433844760E+04  0.20702912050E+04  0.46999998093E+01 0.  1.
</event>
<event>
 5   0  0.1832626E-06  0.3302088E+04  0.7818609E-02  0.8162364E-01
        2   -1    0    0  501    0  0.00000000000E+00  0.00000000000E+00  0.31203536248E+04  0.31203536248E+04  0.25500000920E-02 0. -1.
       -2   -1    0    0    0  501  0.00000000000E+00  0.00000000000E+00 -0.87360163029E+03  0.87360163030E+03  0.25500000920E-02 0.  1.
    10030    2    1    2    0    0  0.00000000000E+00  0.00000000000E+00  0.22467519945E+04  0.39939552551E+04  0.33020878327E+04 0.  0.
        3    1    3    3  502    0  0.10726010009E+04 -0.98761490871E+03  0.18641237730E+03  0.14698998945E+04  0.10100000352E+00 0.  1.
       -3    1    3    3    0  502 -0.10726010009E+04  0.98761490871E+03  0.20603396172E+04  0.25240553606E+04  0.10100000352E+00 0. -1.
</event>
<event>
 5   0  0.1832626E-06  0.3245746E+04  0.7818609E-02  0.8176839E-01
       -2   -1    0    0    0  501  0.00000000000E+00  0.00000000000E+00  0.11076601748E+04  0.11076601748E+04  0.25500000920E-02 0.  1.
        2   -1    0    0  501    0  0.00000000000E+00  0.00000000000E+00 -0.23777293113E+04  0.23777293113E+04  0.25500000920E-02 0. -1.
    10030    2    1    2    0    0  0.00000000000E+00  0.00000000000E+00 -0.12700691366E+04  0.34853894861E+04  0.32457455627E+04 0.  0.
        3    1    3    3  502    0 -0.40722376028E+03 -0.13895670669E+04 -0.14219339936E+04  0.20294393601E+04  0.10100000352E+00 0. -1.
       -3    1    3    3    0  502  0.40722376028E+03  0.13895670669E+04  0.15186485700E+03  0.14559501259E+04  0.10100000352E+00 0.  1.
</event>
<event>
 5   0  0.5685000E-07  0.3274234E+04  0.7818609E-02  0.8169483E-01
        3   -1    0    0  501    0  0.00000000000E+00  0.00000000000E+00  0.23229743377E+04  0.23229743399E+04  0.10100000352E+00 0.  1.
       -3   -1    0    0    0  501  0.00000000000E+00  0.00000000000E+00 -0.11537589003E+04  0.11537589047E+04  0.10100000352E+00 0. -1.
    10030    2    1    2    0    0  0.00000000000E+00  0.00000000000E+00  0.11692154374E+04  0.34767332446E+04  0.32742341570E+04 0.  0.
        5    1    3    3  502    0 -0.34891193448E+02 -0.47838640090E+03  0.22466801007E+04  0.22973168064E+04  0.46999998093E+01 0.  1.
       -5    1    3    3    0  502  0.34891193448E+02  0.47838640090E+03 -0.10774646633E+04  0.11794164382E+04  0.46999998093E+01 0. -1.
</event>
<event>
 5   0  0.6023446E-07  0.3319803E+04  0.7818609E-02  0.8157875E-01
        1   -1    0    0  501    0  0.00000000000E+00  0.00000000000E+00  0.22125281704E+04  0.22125281704E+04  0.50400001928E-02 0.  1.
       -1   -1    0    0    0  501  0.00000000000E+00  0.00000000000E+00 -0.12453051269E+04  0.12453051269E+04  0.50400001928E-02 0. -1.
    10030    2    1    2    0    0  0.00000000000E+00  0.00000000000E+00  0.96722304356E+03  0.34578332973E+04  0.33198028098E+04 0.  0.
        5    1    3    3  502    0 -0.72171588321E+03 -0.12082207740E+04  0.14003062112E+04  0.19853339341E+04  0.46999998093E+01 0.  1.
       -5    1    3    3    0  502  0.72171588321E+03  0.12082207740E+04 -0.43308316760E+03  0.14724993633E+04  0.46999998093E+01 0. -1.
</event>
<event>
 5   0  0.1832626E-06  0.3282249E+04  0.7818609E-02  0.8167427E-01
        2   -1    0    0  501    0  0.00000000000E+00  0.00000000000E+00  0.16735497655E+04  0.16735497655E+04  0.25500000920E-02 0.  1.
       -2   -1    0    0    0  501  0.00000000000E+00  0.00000000000E+00 -0.16093270607E+04  0.16093270607E+04  0.25500000920E-02 0. -1.
    10030    2    1    2    0    0  0.00000000000E+00  0.00000000000E+00  0.64222704763E+02  0.32828768262E+04  0.32822485738E+04 0.  0.
        3    1    3    3  502    0  0.18433745843E+03 -0.14516635913E+04 -0.71098538605E+03  0.16269012602E+04  0.10100000352E+00 0.  1.
       -3    1    3    3    0  502 -0.18433745843E+03  0.14516635913E+04  0.77520809081E+03  0.16559755660E+04  0.10100000352E+00 0. -1.
</event>
<event>
 5   0  0.1784626E-06  0.3297471E+04  0.7818609E-02  0.8163539E-01
       -2   -1    0    0    0  501  0.00000000000E+00  0.00000000000E+00  0.22694359897E+04  0.22694359897E+04  0.25500000920E-02 0.  1.
        2   -1    0    0  501    0  0.00000000000E+00  0.00000000000E+00 -0.11977993346E+04  0.11977993346E+04  0.25500000920E-02 0. -1.
    10030    2    1    2    0    0  0.00000000000E+00  0.00000000000E+00  0.10716366551E+04  0.34672353243E+04  0.32974711028E+04 0.  0.
        2    1    3    3  502    0  0.60892158800E+03  0.45058136694E+03  0.20756291068E+04  0.22095350772E+04  0.25500000920E-02 0.  1.
       -2    1    3    3    0  502 -0.60892158800E+03 -0.45058136694E+03 -0.10039924517E+04  0.12577002471E+04  0.25500000920E-02 0. -1.
</event>
<event>
 5   0  0.1728937E-06  0.3316115E+04  0.7818609E-02  0.8158807E-01
       -2   -1    0    0    0  501  0.00000000000E+00  0.00000000000E+00  0.97486380102E+03  0.97486380102E+03  0.25500000920E-02 0. -1.
        2   -1    0    0  501    0  0.00000000000E+00  0.00000000000E+00 -0.28200391438E+04  0.28200391438E+04  0.25500000920E-02 0.  1.
    10030    2    1    2    0    0  0.00000000000E+00  0.00000000000E+00 -0.18451753428E+04  0.37949029448E+04  0.33161146414E+04 0.  0.
        1    1    3    3  502    0 -0.14640601730E+04 -0.47759369343E+03 -0.21938717845E+03  0.15555380613E+04  0.50400001928E-02 0. -1.
       -1    1    3    3    0  502  0.14640601730E+04  0.47759369343E+03 -0.16257881643E+04  0.22393648835E+04  0.50400001928E-02 0.  1.
</event>
<event>
 5   0  0.6085351E-07  0.3235314E+04  0.7818609E-02  0.8179553E-01
       -1   -1    0    0    0  501  0.00000000000E+00  0.00000000000E+00  0.16529535349E+04  0.16529535349E+04  0.50400001928E-02 0.  1.
        1   -1    0    0  501    0  0.00000000000E+00  0.00000000000E+00 -0.15831143897E+04  0.15831143897E+04  0.50400001928E-02 0. -1.
    10030    2    1    2    0    0  0.00000000000E+00  0.00000000000E+00  0.69839145194E+02  0.32360679245E+04  0.32353142206E+04 0.  0.
        1    1    3    3  502    0  0.58057575057E+02 -0.10800693134E+04 -0.11682297709E+04  0.15920682150E+04  0.50400001928E-02 0. -1.
       -1    1    3    3    0  502 -0.58057575057E+02  0.10800693134E+04  0.12380689161E+04  0.16439997095E+04  0.50400001928E-02 0.  1.
</event>
<event>
 5   0  0.1696681E-06  0.3274232E+04  0.7818609E-02  0.8169483E-01
       -2   -1    0    0    0  501  0.00000000000E+00  0.00000000000E+00  0.10787653164E+04  0.10787653164E+04  0.25500000920E-02 0.  1.
        2   -1    0    0  501    0  0.00000000000E+00  0.00000000000E+00 -0.24844602571E+04  0.24844602571E+04  0.25500000920E-02 0. -1.
    10030    2    1    2    0    0  0.00000000000E+00  0.00000000000E+00 -0.14056949407E+04  0.35632255736E+04  0.32742324630E+04 0.  0.
        4    1    3    3  502    0  0.10530912557E+04  0.56083431067E+03  0.51708093369E+03  0.13003501919E+04  0.12699999809E+01 0.  1.
       -4    1    3    3    0  502 -0.10530912557E+04 -0.56083431067E+03 -0.19227758744E+04  0.22628753816E+04  0.12699999809E+01 0. -1.
</event>
<event>
 5   0  0.1696681E-06  0.3256132E+04  0.7818609E-02  0.8174148E-01
       -2   -1    0    0    0  501  0.00000000000E+00  0.00000000000E+00  0.11520088035E+04  0.11520088035E+04  0.25500000920E-02 0.  1.
        2   -1    0    0  501    0  0.00000000000E+00  0.00000000000E+00 -0.23008494139E+04  0.23008494139E+04  0.25500000920E-02 0. -1.
    10030    2    1    2    0    0  0.00000000000E+00  0.00000000000E+00 -0.11488406104E+04  0.34528582174E+04  0.32561319263E+04 0.  0.
        4    1    3    3  502    0 -0.12347878802E+04  0.49970690740E+02  0.54952135000E+03  0.13524694104E+04  0.12699999809E+01 0.  1.
       -4    1    3    3    0  502  0.12347878802E+04 -0.49970690740E+02 -0.16983619604E+04  0.21003888070E+04  0.12699999809E+01 0. -1.
</event>
<event>
 5   0  0.1743810E-06  0.3316127E+04  0.7818609E-02  0.8158804E-01
        2   -1    0    0  501    0  0.00000000000E+00  0.00000000000E+00  0.18458097721E+04  0.18458097721E+04  0.25500000920E-02 0. -1.
       -2   -1    0    0    0  501  0.00000000000E+00  0.00000000000E+00 -0.14894140040E+04  0.14894140040E+04  0.25500000920E-02 0.  1.
    10030    2    1    2    0    0  0.00000000000E+00  0.00000000000E+00  0.35639576809E+03  0.33352237762E+04  0.33161272131E+04 0.  0.
        5    1    3    3  502    0  0.13778035926E+04  0.15538469345E+03 -0.73624956387E+03  0.15698957459E+04  0.46999998093E+01 0.  1.
       -5    1    3    3    0  502 -0.13778035926E+04 -0.15538469345E+03  0.10926453320E+04  0.17653280302E+04  0.46999998093E+01 0. -1.
</event>
<event>
 5   0  0.5988516E-07  0.3281645E+04  0.7818609E-02  0.8167581E-01
        1   -1    0    0  501    0  0.00000000000E+00  0.00000000000E+00  0.23698711766E+04  0.23698711766E+04  0.50400001928E-02 0.  1.
       -1   -1    0    0    0  501  0.00000000000E+00  0.00000000000E+00 -0.11360529319E+04  0.11360529319E+04  0.50400001928E-02 0. -1.
    10030    2    1    2    0    0  0.00000000000E+00  0.00000000000E+00  0.12338182447E+04  0.35059241085E+04  0.32816453790E+04 0.  0.
        4    1    3    3  502    0  0.26079418419E+03  0.76646461324E+03  0.21416173645E+04  0.22895432205E+04  0.12699999809E+01 0.  1.
       -4    1    3    3    0  502 -0.26079418419E+03 -0.76646461324E+03 -0.90779911979E+03  0.12163808880E+04  0.12699999809E+01 0. -1.
</event>
<event>
 5   0  0.5985183E-07  0.3254677E+04  0.7818609E-02  0.8174524E-01
        1   -1    0    0  501    0  0.00000000000E+00  0.00000000000E+00  0.25532493103E+04  0.25532493103E+04  0.50400001928E-02 0. -1.
       -1   -1    0    0    0  501  0.00000000000E+00  0.00000000000E+00 -0.10372003906E+04  0.10372003906E+04  0.50400001928E-02 0.  1.
    10030    2    1    2    0    0  0.00000000000E+00  0.00000000000E+00  0.15160489197E+04  0.35904497009E+04  0.32546773616E+04 0.  0.
        2    1    3    3  502    0 -0.36986638275E+03 -0.15450170407E+04  0.36900801271E+03  0.16309646564E+04  0.25500000920E-02 0.  1.
       -2    1    3    3    0  502  0.36986638275E+03  0.15450170407E+04  0.11470409070E+04  0.19594850444E+04  0.25500000920E-02 0. -1.
</event>
<event>
 5   0  0.1832626E-06  0.3246880E+04  0.7818609E-02  0.8176545E-01
        2   -1    0    0  501    0  0.00000000000E+00  0.00000000000E+00  0.22428873342E+04  0.22428873342E+04  0.25500000920E-02 0. -1.
       -2   -1    0    0    0  501  0.00000000000E+00  0.00000000000E+00 -0.11750732852E+04  0.11750732852E+04  0.25500000920E-02 0.  1.
    10030    2    1    2    0    0  0.00000000000E+00  0.00000000000E+00  0.10678140490E+04  0.34179606193E+04  0.32468797255E+04 0.  0.
        3    1    3    3  502    0  0.60702992153E+03 -0.57775747155E+03 -0.92977547290E+03  0.12517074186E+04  0.10100000352E+00 0.  1.
       -3    1    3    3    0  502 -0.60702992153E+03  0.57775747155E+03  0.19975895219E+04  0.21662532007E+04  0.10100000352E+00 0. -1.
</event>
<event>
 5   0  0.1696681E-06  0.3352651E+04  0.7818609E-02  0.8149626E-01
       -2   -1    0    0    0  501  0.00000000000E+00  0.00000000000E+00  0.15842176960E+04  0.15842176960E+04  0.25500000920E-02 0. -1.
        2   -1    0    0  501    0  0.00000000000E+00  0.00000000000E+00 -0.17737885833E+04  0.17737885833E+04  0.25500000920E-02 0.  1.
    10030    2    1    2    0    0  0.00000000000E+00  0.00000000000E+00 -0.18957088728E+03  0.33580062792E+04  0.33526510481E+04 0.  0.
        4    1    3    3  502    0  0.16245100682E+04  0.34188984074E+03 -0.32784580640E+03  0.16921601906E+04  0.12699999809E+01 0.  1.
       -4    1    3    3    0  502 -0.16245100682E+04 -0.34188984074E+03  0.13827491912E+03  0.16658460887E+04  0.12699999809E+01 0. -1.
</event>
<event>
 5   0  0.1696681E-06  0.3306467E+04  0.7818609E-02  0.8161252E-01
       -2   -1    0    0    0  501  0.00000000000E+00  0.00000000000E+00  0.21362353836E+04  0.21362353836E+04  0.25500000920E-02 0.  1.
        2   -1    0    0  501    0  0.00000000000E+00  0.00000000000E+00 -0.12794381168E+04  0.12794381168E+04  0.25500000920E-02 0. -1.
    10030    2    1    2    0    0  0.00000000000E+00  0.00000000000E+00  0.85679726680E+03  0.34156735004E+04  0.33064669822E+04 0.  0.
        4    1    3    3  502    0 -0.15566906657E+04 -0.52110245310E+03  0.63068698737E+03  0.17585793369E+04  0.12699999809E+01 0.  1.
       -4    1    3    3    0  502  0.15566906657E+04  0.52110245310E+03  0.22611027943E+03  0.16570941635E+04  0.12699999809E+01 0. -1.
</event>
<event>
 5   0  0.5858859E-07  0.3103384E+04  0.7818609E-02  0.8214810E-01
       -1   -1    0    0    0  501  0.00000000000E+00  0.00000000000E+00  0.80005251719E+03  0.80005251721E+03  0.50400001928E-02 0. -1.
        1   -1    0    0  501    0  0.00000000000E+00  0.00000000000E+00 -0.30094866056E+04  0.30094866056E+04  0.50400001928E-02 0.  1.
    10030    2    1    2    0    0  0.00000000000E+00  0.00000000000E+00 -0.22094340884E+04  0.38095391228E+04  0.31033835305E+04 0.  0.
        3    1    3    3  502    0  0.56552130595E+03 -0.55409638842E+03  0.53344927984E+03  0.95467549435E+03  0.10100000352E+00 0. -1.
       -3    1    3    3    0  502 -0.56552130595E+03  0.55409638842E+03 -0.27428833682E+04  0.28548636285E+04  0.10100000352E+00 0.  1.
</event>
<event>
 5   0  0.6085351E-07  0.3272964E+04  0.7818609E-02  0.8169809E-01
        1   -1    0    0  501    0  0.00000000000E+00  0.00000000000E+00  0.21811670267E+04  0.21811670267E+04  0.50400001928E-02 0. -1.
       -1   -1    0    0    0  501  0.00000000000E+00  0.00000000000E+00 -0.12278167793E+04  0.12278167793E+04  0.50400001928E-02 0.  1.
    10030    2    1    2    0    0  0.00000000000E+00  0.00000000000E+00  0.95335024741E+03  0.34089838059E+04  0.32729640840E+04 0.  0.
        1    1    3    3  502    0 -0.78351559532E+03  0.11710988123E+03 -0.10147778612E+04  0.12873948579E+04  0.50400001928E-02 0.  1.
       -1    1    3    3    0  502  0.78351559532E+03 -0.11710988123E+03  0.19681281087E+04  0.21215889481E+04  0.50400001928E-02 0. -1.
</event>
<event>
 5   0  0.5988516E-07  0.3302091E+04  0.7818609E-02  0.8162364E-01
        1   -1    0    0  501    0  0.00000000000E+00  0.00000000000E+00  0.15712307517E+04  0.15712307518E+04  0.50400001928E-02 0.  1.
       -1   -1    0    0    0  501  0.00000000000E+00  0.00000000000E+00 -0.17349147854E+04  0.17349147854E+04  0.50400001928E-02 0. -1.
    10030    2    1    2    0    0  0.00000000000E+00  0.00000000000E+00 -0.16368403361E+03  0.33061455371E+04  0.33020911329E+04 0.  0.
        4    1    3    3  502    0  0.61141919525E+03  0.13845706788E+04  0.57857415317E+03  0.16203762096E+04  0.12699999809E+01 0. -1.
       -4    1    3    3    0  502 -0.61141919525E+03 -0.13845706788E+04 -0.74225818678E+03  0.16857693275E+04  0.12699999809E+01 0.  1.
</event>
<event>
 5   0  0.1728937E-06  0.3262005E+04  0.7818609E-02  0.8172631E-01
       -2   -1    0    0    0  501  0.00000000000E+00  0.00000000000E+00  0.20152419906E+04  0.20152419906E+04  0.25500000920E-02 0.  1.
        2   -1    0    0  501    0  0.00000000000E+00  0.00000000000E+00 -0.13200250211E+04  0.13200250211E+04  0.25500000920E-02 0. -1.
    10030    2    1    2    0    0  0.00000000000E+00  0.00000000000E+00  0.69521696944E+03  0.33352670117E+04  0.32620054268E+04 0.  0.
        1    1    3    3  502    0 -0.90971221840E+03  0.12045847699E+04 -0.28397753246E+03  0.15359830817E+04  0.50400001928E-02 0. -1.
       -1    1    3    3    0  502  0.90971221840E+03 -0.12045847699E+04  0.97919450190E+03  0.17992839300E+04  0.50400001928E-02 0.  1.
</event>
<event>
 5   0  0.1696681E-06  0.3285793E+04  0.7818609E-02  0.8166520E-01
       -2   -1    0    0    0  501  0.00000000000E+00  0.00000000000E+00  0.13577120830E+04  0.13577120830E+04  0.25500000920E-02 0. -1.
        2   -1    0    0  501    0  0.00000000000E+00  0.00000000000E+00 -0.19879828854E+04  0.19879828854E+04  0.25500000920E-02 0.  1.
    10030    2    1    2    0    0  0.00000000000E+00  0.00000000000E+00 -0.63027080242E+03  0.33456949685E+04  0.32857926802E+04 0.  0.
        4    1    3    3  502    0 -0.63674416976E+03  0.89242820507E+03  0.93078772785E+03  0.14381372139E+04  0.12699999809E+01 0. -1.
       -4    1    3    3    0  502  0.63674416976E+03 -0.89242820507E+03 -0.15610585303E+04  0.19075577545E+04  0.12699999809E+01 0.  1.
</event>
<event>
 5   0  0.6023446E-07  0.3313879E+04  0.7818609E-02  0.8159373E-01
       -1   -1    0    0    0  501  0.00000000000E+00  0.00000000000E+00  0.15901099753E+04  0.15901099753E+04  0.50400001928E-02 0. -1.
        1   -1    0    0  501    0  0.00000000000E+00  0.00000000000E+00 -0.17265774144E+04  0.17265774144E+04  0.50400001928E-02 0.  1.
    10030    2    1    2    0    0  0.00000000000E+00  0.00000000000E+00 -0.13646743914E+03  0.33166873897E+04  0.33138786759E+04 0.  0.
        5    1    3    3  502    0 -0.54636264292E+03  0.12455628731E+04  0.87887000957E+03  0.16193744447E+04  0.46999998093E+01 0.  1.
       -5    1    3    3    0  502  0.54636264292E+03 -0.12455628731E+04 -0.10153374487E+04  0.16973129450E+04  0.46999998093E+01 0. -1.
</event>
<event>
 5   0  0.1728937E-06  0.3349579E+04  0.7818609E-02  0.8150393E-01
        2   -1    0    0  501    0  0.00000000000E+00  0.00000000000E+00  0.22468205634E+04  0.22468205634E+04  0.25500000920E-02 0. -1.
       -2   -1    0    0    0  501  0.00000000000E+00  0.00000000000E+00 -0.12483949478E+04  0.12483949478E+04  0.25500000920E-02 0.  1.
    10030    2    1    2    0    0  0.00000000000E+00  0.00000000000E+00  0.99842561561E+03  0.34952155112E+04  0.33495787436E+04 0.  0.
        1    1    3    3  502    0 -0.34313574183E+03 -0.11009296078E+04  0.17665702120E+04  0.21096346728E+04  0.50400001928E-02 0. -1.
       -1    1    3    3    0  502  0.34313574183E+03  0.11009296078E+04 -0.76814459638E+03  0.13855808384E+04  0.50400001928E-02 0.  1.
</event>
<event>
 5   0  0.5858859E-07  0.3296551E+04  0.7818609E-02  0.8163774E-01
        1   -1    0    0  501    0  0.00000000000E+00  0.00000000000E+00  0.26456234517E+04  0.26456234517E+04  0.50400001928E-02 0.  1.
       -1   -1    0    0    0  501  0.00000000000E+00  0.00000000000E+00 -0.10269081373E+04  0.10269081373E+04  0.50400001928E-02 0. -1.
    10030    2    1    2    0    0  0.00000000000E+00  0.00000000000E+00  0.16187153144E+04  0.36725315890E+04  0.32965510770E+04 0.  0.
        3    1    3    3  502    0 -0.69954776762E+03  0.11845101007E+04 -0.20215125424E+03  0.13904302922E+04  0.10100000352E+00 0. -1.
       -3    1    3    3    0  502  0.69954776762E+03 -0.11845101007E+04  0.18208665687E+04  0.22821012968E+04  0.10100000352E+00 0.  1.
</event>
<event>
 5   0  0.5685000E-07  0.3287508E+04  0.7818609E-02  0.8166081E-01
       -3   -1    0    0    0  501  0.00000000000E+00  0.00000000000E+00  0.21032857425E+04  0.21032857450E+04  0.10100000352E+00 0. -1.
        3   -1    0    0  501    0  0.00000000000E+00  0.00000000000E+00 -0.12846219317E+04  0.12846219357E+04  0.10100000352E+00 0.  1.
    10030    2    1    2    0    0  0.00000000000E+00  0.00000000000E+00  0.81866381081E+03  0.33879076806E+04  0.32875078734E+04 0.  0.
        4    1    3    3  502    0  0.10770488724E+04 -0.39912666338E+03 -0.80241332321E+03  0.14011442185E+04  0.12699999809E+01 0.  1.
       -4    1    3    3    0  502 -0.10770488724E+04  0.39912666338E+03  0.16210771340E+04  0.19867634621E+04  0.12699999809E+01 0. -1.
</event>
<event>
 5   0  0.6023446E-07  0.3288984E+04  0.7818609E-02  0.8165704E-01
        1   -1    0    0  501    0  0.00000000000E+00  0.00000000000E+00  0.19229038622E+04  0.19229038622E+04  0.50400001928E-02 0. -1.
       -1   -1    0    0    0  501  0.00000000000E+00  0.00000000000E+00 -0.14063906653E+04  0.14063906653E+04  0.50400001928E-02 0.  1.
    10030    2    1    2    0    0  0.00000000000E+00  0.00000000000E+00  0.51651319687E+03  0.33292945275E+04  0.32889840632E+04 0.  0.
        5    1    3    3  502    0 -0.72338573673E+03  0.98155126509E+03  0.13752308181E+04  0.18379368061E+04  0.46999998093E+01 0. -1.
       -5    1    3    3    0  502  0.72338573673E+03 -0.98155126509E+03 -0.85871762125E+03  0.14913577214E+04  0.46999998093E+01 0.  1.
</event>
<event>
 5   0  0.1743810E-06  0.3296346E+04  0.7818609E-02  0.8163826E-01
        2   -1    0    0  501    0  0.00000000000E+00  0.00000000000E+00  0.23263833943E+04  0.23263833943E+04  0.25500000920E-02 0. -1.
       -2   -1    0    0    0  501  0.00000000000E+00  0.00000000000E+00 -0.11676808866E+04  0.11676808866E+04  0.25500000920E-02 0.  1.
    10030    2    1    2    0    0  0.00000000000E+00  0.00000000000E+00  0.11587025076E+04  0.34940642809E+04  0.32963455064E+04 0.  0.
        5    1    3    3  502    0 -0.12448209545E+04 -0.93011467279E+03  0.11616262642E+04  0.19401263312E+04  0.46999998093E+01 0. -1.
       -5    1    3    3    0  502  0.12448209545E+04  0.93011467279E+03 -0.29237565723E+01  0.15539379497E+04  0.46999998093E+01 0.  1.
</event>
<event>
 5   0  0.1743810E-06  0.3300223E+04  0.7818609E-02  0.8162839E-01
       -2   -1    0    0    0  501  0.00000000000E+00  0.00000000000E+00  0.12306975596E+04  0.12306975596E+04  0.25500000920E-02 0. -1.
        2   -1    0    0  501    0  0.00000000000E+00  0.00000000000E+00 -0.22124596463E+04  0.22124596463E+04  0.25500000920E-02 0.  1.
    10030    2    1    2    0    0  0.00000000000E+00  0.00000000000E+00 -0.98176208678E+03  0.34431572059E+04  0.33002234393E+04 0.  0.
        5    1    3    3  502    0  0.13848789985E+04  0.87746274384E+03 -0.68611083585E+03  0.17772453056E+04  0.46999998093E+01 0. -1.
       -5    1    3    3    0  502 -0.13848789985E+04 -0.87746274384E+03 -0.29565125092E+03  0.16659119003E+04  0.46999998093E+01 0.  1.
</event>
<event>
 5   0  0.1696681E-06  0.3306955E+04  0.7818609E-02  0.8161128E-01
        2   -1    0    0  501    0  0.00000000000E+00  0.00000000000E+00  0.22071777484E+04  0.22071777484E+04  0.25500000920E-02 0. -1.
       -2   -1    0    0    0  501  0.00000000000E+00  0.00000000000E+00 -0.12386800995E+04  0.12386800995E+04  0.25500000920E-02 0.  1.
    10030    2    1    2    0    0  0.00000000000E+00  0.00000000000E+00  0.96849764894E+03  0.34458578479E+04  0.33069545827E+04 0.  0.
        4    1    3    3  502    0 -0.12588032117E+04 -0.27079181535E+03 -0.59666172039E+03  0.14191266873E+04  0.12699999809E+01 0. -1.
       -4    1    3    3    0  502  0.12588032117E+04  0.27079181535E+03  0.15651593693E+04  0.20267311606E+04  0.12699999809E+01 0.  1.
</event>
<event>
 5   0  0.6085351E-07  0.3293251E+04  0.7818609E-02  0.8164615E-01
        1   -1    0    0  501    0  0.00000000000E+00  0.00000000000E+00  0.22566957278E+04  0.22566957278E+04  0.50400001928E-02 0. -1.
       -1   -1    0    0    0  501  0.00000000000E+00  0.00000000000E+00 -0.12014804824E+04  0.12014804824E+04  0.50400001928E-02 0.  1.
    10030    2    1    2    0    0  0.00000000000E+00  0.00000000000E+00  0.10552152454E+04  0.34581762102E+04  0.32932512030E+04 0.  0.
        1    1    3    3  502    0 -0.81961308121E+03  0.11788740129E+04  0.13741218819E+04  0.19873903712E+04  0.50400001928E-02 0. -1.
       -1    1    3    3    0  502  0.81961308121E+03 -0.11788740129E+04 -0.31890663651E+03  0.14707858389E+04  0.50400001928E-02 0.  1.
</event>
<event>
 5   0  0.1743810E-06  0.3289480E+04  0.7818609E-02  0.8165577E-01
       -2   -1    0    0    0  501  0.00000000000E+00  0.00000000000E+00  0.34255216892E+04  0.34255216892E+04  0.25500000920E-02 0.  1.
        2   -1    0    0  501    0  0.00000000000E+00  0.00000000000E+00 -0.78971036456E+03  0.78971036457E+03  0.25500000920E-02 0. -1.
    10030    2    1    2    0    0  0.00000000000E+00  0.00000000000E+00  0.26358113246E+04  0.42152320537E+04  0.32894801912E+04 0.  0.
        5    1    3    3  502    0  0.16358448259E+04 -0.97515211723E+02  0.14975360060E+04  0.22199400195E+04  0.46999998093E+01 0. -1.
       -5    1    3    3    0  502 -0.16358448259E+04  0.97515211723E+02  0.11382753186E+04  0.19952920342E+04  0.46999998093E+01 0.  1.
</event>
<event>
 5   0  0.6023446E-07  0.3293179E+04  0.7818609E-02  0.8164633E-01
        1   -1    0    0  501    0  0.00000000000E+00  0.00000000000E+00  0.14700116155E+04  0.14700116155E+04  0.50400001928E-02 0. -1.
       -1   -1    0    0    0  501  0.00000000000E+00  0.00000000000E+00 -0.18443774289E+04  0.18443774289E+04  0.50400001928E-02 0.  1.
    10030    2    1    2    0    0  0.00000000000E+00  0.00000000000E+00 -0.37436581340E+03  0.33143890445E+04  0.32931785521E+04 0.  0.
        5    1    3    3  502    0  0.10683283618E+04 -0.47231038697E+03 -0.13551883033E+04  0.17891226950E+04  0.46999998093E+01 0.  1.
       -5    1    3    3    0  502 -0.10683283618E+04  0.47231038697E+03  0.98082248991E+03  0.15252663495E+04  0.46999998093E+01 0. -1.
</event>
<event>
 5   0  0.1832626E-06  0.3266955E+04  0.7818609E-02  0.8171355E-01
       -2   -1    0    0    0  501  0.00000000000E+00  0.00000000000E+00  0.12060254224E+04  0.12060254224E+04  0.25500000920E-02 0. -1.
        2   -1    0    0  501    0  0.00000000000E+00  0.00000000000E+00 -0.22124319509E+04  0.22124319509E+04  0.25500000920E-02 0.  1.
    10030    2    1    2    0    0  0.00000000000E+00  0.00000000000E+00 -0.10064065285E+04  0.34184573733E+04  0.32669552663E+04 0.  0.
        3    1    3    3  502    0 -0.14331857587E+04  0.51968533474E+03  0.11064913943E+03  0.15285082624E+04  0.10100000352E+00 0.  1.
       -3    1    3    3    0  502  0.14331857587E+04 -0.51968533474E+03 -0.11170556679E+04  0.18899491108E+04  0.10100000352E+00 0. -1.
</event>
<event>
 5   0  0.1743810E-06  0.3308658E+04  0.7818609E-02  0.8160696E-01
       -2   -1    0    0    0  501  0.00000000000E+00  0.00000000000E+00  0.15394502531E+04  0.15394502531E+04  0.25500000920E-02 0.  1.
        2   -1    0    0  501    0  0.00000000000E+00  0.00000000000E+00 -0.17777799928E+04  0.17777799928E+04  0.25500000920E-02 0. -1.
    10030    2    1    2    0    0  0.00000000000E+00  0.00000000000E+00 -0.23832973967E+03  0.33172302460E+04  0.33086576492E+04 0.  0.
        5    1    3    3  502    0  0.64694175625E+03 -0.16853721869E+02  0.14072659825E+04  0.15489471649E+04  0.46999998093E+01 0.  1.
       -5    1    3    3    0  502 -0.64694175625E+03  0.16853721869E+02 -0.16455957222E+04  0.17682830811E+04  0.46999998093E+01 0. -1.
</event>
<event>
 5   0  0.5988516E-07  0.3258043E+04  0.7818609E-02  0.8173654E-01
        1   -1    0    0  501    0  0.00000000000E+00  0.00000000000E+00  0.17196397644E+04  0.17196397644E+04  0.50400001928E-02 0. -1.
       -1   -1    0    0    0  501  0.00000000000E+00  0.00000000000E+00 -0.15431782702E+04  0.15431782703E+04  0.50400001928E-02 0.  1.
    10030    2    1    2    0    0  0.00000000000E+00  0.00000000000E+00  0.17646149414E+03  0.32628180347E+04  0.32580427972E+04 0.  0.
        4    1    3    3  502    0 -0.15498633645E+04 -0.50066566619E+03  0.57095852123E+02  0.16297251631E+04  0.12699999809E+01 0. -1.
       -4    1    3    3    0  502  0.15498633645E+04  0.50066566619E+03  0.11936564202E+03  0.16330928716E+04  0.12699999809E+01 0.  1.
</event>
<event>
 5   0  0.1832626E-06  0.3309662E+04  0.7818609E-02  0.8160441E-01
        2   -1    0    0  501    0  0.00000000000E+00  0.00000000000E+00  0.11898368638E+04  0.11898368638E+04  0.25500000920E-02 0.  1.
       -2   -1    0    0    0  501  0.00000000000E+00  0.00000000000E+00 -0.23015473907E+04  0.23015473907E+04  0.25500000920E-02 0. -1.
    10030    2    1    2    0    0  0.00000000000E+00  0.00000000000E+00 -0.11117105269E+04  0.34913842545E+04  0.33096621756E+04 0.  0.
        3    1    3    3  502    0  0.43979786645E+03 -0.71430917905E+03  0.94893337449E+03  0.12665442456E+04  0.10100000352E+00 0.  1.
       -3    1    3    3    0  502 -0.43979786645E+03  0.71430917905E+03 -0.20606439014E+04  0.22248400089E+04  0.10100000352E+00 0. -1.
</event>
<event>
 5   0  0.1784626E-06  0.3321008E+04  0.7818609E-02  0.8157570E-01
       -2   -1    0    0    0  501  0.00000000000E+00  0.00000000000E+00  0.13942070679E+04  0.13942070679E+04  0.25500000920E-02 0. -1.
        2   -1    0    0  501    0  0.00000000000E+00  0.00000000000E+00 -0.19776644173E+04  0.19776644173E+04  0.25500000920E-02 0.  1.
    10030    2    1    2    0    0  0.00000000000E+00  0.00000000000E+00 -0.58345734941E+03  0.33718714851E+04  0.33210081050E+04 0.  0.
        2    1    3    3  502    0 -0.59790946440E+03 -0.62950695335E+02  0.12798196329E+04  0.14140002865E+04  0.25500000920E-02 0. -1.
       -2    1    3    3    0  502  0.59790946440E+03  0.62950695335E+02 -0.18632769823E+04  0.19578711986E+04  0.25500000920E-02 0.  1.
</event>
<event>
 5   0  0.1696681E-06  0.3251481E+04  0.7818609E-02  0.8175352E-01
       -2   -1    0    0    0  501  0.00000000000E+00  0.00000000000E+00  0.30195917716E+04  0.30195917716E+04  0.25500000920E-02 0. -1.
        2   -1    0    0  501    0  0.00000000000E+00  0.00000000000E+00 -0.87529464086E+03  0.87529464086E+03  0.25500000920E-02 0.  1.
    10030    2    1    2    0    0  0.00000000000E+00  0.00000000000E+00  0.21442971307E+04  0.38948864125E+04  0.32514811980E+04 0.  0.
        4    1    3    3  502    0  0.35026037959E+02  0.47124866664E+03  0.29355090970E+04  0.29733007585E+04  0.12699999809E+01 0. -1.
       -4    1    3    3    0  502 -0.35026037959E+02 -0.47124866664E+03 -0.79121196625E+03  0.92158565396E+03  0.12699999809E+01 0.  1.
</event>
<event>
 5   0  0.1832626E-06  0.3326798E+04  0.7818609E-02  0.8156110E-01
       -2   -1    0    0    0  501  0.00000000000E+00  0.00000000000E+00  0.11618657835E+04  0.11618657835E+04  0.25500000920E-02 0. -1.
        2   -1    0    0  501    0  0.00000000000E+00  0.00000000000E+00 -0.23814250749E+04  0.23814250749E+04  0.25500000920E-02 0.  1.
    10030    2    1    2    0    0  0.00000000000E+00  0.00000000000E+00 -0.12195592914E+04  0.35432908584E+04  0.33267980465E+04 0.  0.
        3    1    3    3  502    0  0.13644413036E+04 -0.57257975375E+03 -0.14190608337E+04  0.20501905534E+04  0.10100000352E+00 0.  1.
       -3    1    3    3    0  502 -0.13644413036E+04  0.57257975375E+03  0.19950154234E+03  0.14931003050E+04  0.10100000352E+00 0. -1.
</event>
<event>
 5   0  0.1728937E-06  0.3308586E+04  0.7818609E-02  0.8160714E-01
        2   -1    0    0  501    0  0.00000000000E+00  0.00000000000E+00  0.18339121851E+04  0.18339121851E+04  0.25500000920E-02 0. -1.
       -2   -1    0    0    0  501  0.00000000000E+00  0.00000000000E+00 -0.14922663953E+04  0.14922663953E+04  0.25500000920E-02 0.  1.
    10030    2    1    2    0    0  0.00000000000E+00  0.00000000000E+00  0.34164578985E+03  0.33261785804E+04  0.33085861184E+04 0.  0.
        1    1    3    3  502    0 -0.13642120550E+04  0.75548372049E+03 -0.38425000526E+03  0.16060754183E+04  0.50400001928E-02 0.  1.
       -1    1    3    3    0  502  0.13642120550E+04 -0.75548372049E+03  0.72589579511E+03  0.17201031621E+04  0.50400001928E-02 0. -1.
</event>
<event>
 5   0  0.1728937E-06  0.3279580E+04  0.7818609E-02  0.8168111E-01
        2   -1    0    0  501    0  0.00000000000E+00  0.00000000000E+00  0.23851082135E+04  0.23851082135E+04  0.25500000920E-02 0. -1.
       -2   -1    0    0    0  501  0.00000000000E+00  0.00000000000E+00 -0.11273749117E+04  0.11273749117E+04  0.25500000920E-02 0.  1.
    10030    2    1    2    0    0  0.00000000000E+00  0.00000000000E+00  0.12577333018E+04  0.35124831251E+04  0.32795799496E+04 0.  0.
        1    1    3    3  502    0  0.70228178234E+03 -0.16514590959E+03  0.22060041479E+04  0.23209754790E+04  0.50400001928E-02 0. -1.
       -1    1    3    3    0  502 -0.70228178234E+03  0.16514590959E+03 -0.94827084612E+03  0.11915076462E+04  0.50400001928E-02 0.  1.
</event>
<event>
 5   0  0.6085351E-07  0.3228849E+04  0.7818609E-02  0.8181240E-01
        1   -1    0    0  501    0  0.00000000000E+00  0.00000000000E+00  0.14357043631E+04  0.14357043631E+04  0.50400001928E-02 0.  1.
       -1   -1    0    0    0  501  0.00000000000E+00  0.00000000000E+00 -0.18153920073E+04  0.18153920073E+04  0.50400001928E-02 0. -1.
    10030    2    1    2    0    0  0.00000000000E+00  0.00000000000E+00 -0.37968764424E+03  0.32510963704E+04  0.32288488509E+04 0.  0.
        1    1    3    3  502    0  0.15352699574E+04  0.55776602119E+02  0.30976183397E+03  0.15672004548E+04  0.50400001928E-02 0.  1.
       -1    1    3    3    0  502 -0.15352699574E+04 -0.55776602119E+02 -0.68944947821E+03  0.16838959156E+04  0.50400001928E-02 0. -1.
</event>
<event>
 5   0  0.5985183E-07  0.3360580E+04  0.7818609E-02  0.8147650E-01
       -1   -1    0    0    0  501  0.00000000000E+00  0.00000000000E+00  0.10155079571E+04  0.10155079571E+04  0.50400001928E-02 0.  1.
        1   -1    0    0  501    0  0.00000000000E+00  0.00000000000E+00 -0.27802580332E+04  0.27802580332E+04  0.50400001928E-02 0. -1.
    10030    2    1    2    0    0  0.00000000000E+00  0.00000000000E+00 -0.17647500762E+04  0.37957659903E+04  0.33605798044E+04 0.  0.
        2    1    3    3  502    0 -0.13421819396E+04 -0.29881798036E+03  0.20841161993E+03  0.13907479814E+04  0.25500000920E-02 0.  1.
       -2    1    3    3    0  502  0.13421819396E+04  0.29881798036E+03 -0.19731616961E+04  0.24050180089E+04  0.25500000920E-02 0. -1.
</event>
<event>
 5   0  0.1728937E-06  0.3318149E+04  0.7818609E-02  0.8158293E-01
        2   -1    0    0  501    0  0.00000000000E+00  0.00000000000E+00  0.21670302894E+04  0.21670302894E+04  0.25500000920E-02 0.  1.
       -2   -1    0    0    0  501  0.00000000000E+00  0.00000000000E+00 -0.12701845403E+04  0.12701845403E+04  0.25500000920E-02 0. -1.
    10030    2    1    2    0    0  0.00000000000E+00  0.00000000000E+00  0.89684574915E+03  0.34372148297E+04  0.33181491057E+04 0.  0.
        1    1    3    3  502    0  0.65297721045E+02 -0.14253996950E+04 -0.42841432039E+03  0.14898211009E+04  0.50400001928E-02 0. -1.
       -1    1    3    3    0  502 -0.65297721045E+02  0.14253996950E+04  0.13252600695E+04  0.19473937288E+04  0.50400001928E-02 0.  1.
</event>
<event>
 5   0  0.6023446E-07  0.3280410E+04  0.7818609E-02  0.8167898E-01
       -1   -1    0    0    0  501  0.00000000000E+00  0.00000000000E+00  0.10916967931E+04  0.10916967932E+04  0.50400001928E-02 0.  1.
        1   -1    0    0  501    0  0.00000000000E+00  0.00000000000E+00 -0.24643036204E+04  0.24643036204E+04  0.50400001928E-02 0. -1.
    10030    2    1    2    0    0  0.00000000000E+00  0.00000000000E+00 -0.13726068273E+04  0.35560004136E+04  0.32804099499E+04 0.  0.
        5    1    3    3  502    0  0.74645082899E+03  0.13663107739E+04 -0.12456533945E+04  0.19939078315E+04  0.46999998093E+01 0.  1.
       -5    1    3    3    0  502 -0.74645082899E+03 -0.13663107739E+04 -0.12695343274E+03  0.15620925821E+04  0.46999998093E+01 0. -1.
</event>
<event>
 5   0  0.1743810E-06  0.3272863E+04  0.7818609E-02  0.8169835E-01
       -2   -1    0    0    0  501  0.00000000000E+00  0.00000000000E+00  0.13272642683E+04  0.13272642683E+04  0.25500000920E-02 0. -1.
        2   -1    0    0  501    0  0.00000000000E+00  0.00000000000E+00 -0.20176145085E+04  0.20176145085E+04  0.25500000920E-02 0.  1.
    10030    2    1    2    0    0  0.00000000000E+00  0.00000000000E+00 -0.69035024015E+03  0.33448787768E+04  0.32728627496E+04 0.  0.
        5    1    3    3  502    0  0.14623871929E+04 -0.26444222478E+03  0.35501290268E+03  0.15279274339E+04  0.46999998093E+01 0. -1.
       -5    1    3    3    0  502 -0.14623871929E+04  0.26444222478E+03 -0.10453631428E+04  0.18169513429E+04  0.46999998093E+01 0.  1.
</event>
<event>
 5   0  0.5858859E-07  0.3344459E+04  0.7818609E-02  0.8151674E-01
       -1   -1    0    0    0  501  0.00000000000E+00  0.00000000000E+00  0.99049008904E+03  0.99049008905E+03  0.50400001928E-02 0.  1.
        1   -1    0    0  501    0  0.00000000000E+00  0.00000000000E+00 -0.28232005952E+04  0.28232005952E+04  0.50400001928E-02 0. -1.
    10030    2    1    2    0    0  0.00000000000E+00  0.00000000000E+00 -0.18327105062E+04  0.38136906843E+04  0.33444594236E+04 0.  0.
        3    1    3    3  502    0  0.46298394611E+03 -0.20713292473E+03  0.90066147529E+03  0.10336582057E+04  0.10100000352E+00 0.  1.
       -3    1    3    3    0  502 -0.46298394611E+03  0.20713292473E+03 -0.27333719815E+04  0.27800324786E+04  0.10100000352E+00 0. -1.
</event>
<event>
 5   0  0.1784626E-06  0.3306120E+04  0.7818609E-02  0.8161340E-01
       -2   -1    0    0    0  501  0.00000000000E+00  0.00000000000E+00  0.12679483165E+04  0.12679483165E+04  0.25500000920E-02 0. -1.
        2   -1    0    0  501    0  0.00000000000E+00  0.00000000000E+00 -0.21551415934E+04  0.21551415934E+04  0.25500000920E-02 0.  1.
    10030    2    1    2    0    0  0.00000000000E+00  0.00000000000E+00 -0.88719327685E+03  0.34230899099E+04  0.33061204789E+04 0.  0.
        2    1    3    3  502    0  0.66038020367E+03 -0.29132945333E+03 -0.19833678302E+04  0.21106214283E+04  0.25500000920E-02 0.  1.
       -2    1    3    3    0  502 -0.66038020367E+03  0.29132945333E+03  0.10961745533E+04  0.13124684816E+04  0.25500000920E-02 0. -1.
</event>
<event>
 5   0  0.5988516E-07  0.3279242E+04  0.7818609E-02  0.8168197E-01
       -1   -1    0    0    0  501  0.00000000000E+00  0.00000000000E+00  0.11470366829E+04  0.11470366829E+04  0.50400001928E-02 0.  1.
        1   -1    0    0  501    0  0.00000000000E+00  0.00000000000E+00 -0.23437414526E+04  0.23437414526E+04  0.50400001928E-02 0. -1.
    10030    2    1    2    0    0  0.00000000000E+00  0.00000000000E+00 -0.11967047697E+04  0.34907781355E+04  0.32792422425E+04 0.  0.
        4    1    3    3  502    0 -0.68539477523E+03 -0.55684065704E+03 -0.20689603395E+04  0.22495412898E+04  0.12699999809E+01 0. -1.
       -4    1    3    3    0  502  0.68539477523E+03  0.55684065704E+03  0.87225556974E+03  0.12412368457E+04  0.12699999809E+01 0.  1.
</event>
<event>
 5   0  0.6023446E-07  0.3298406E+04  0.7818609E-02  0.8163301E-01
       -1   -1    0    0    0  501  0.00000000000E+00  0.00000000000E+00  0.12900949664E+04  0.12900949665E+04  0.50400001928E-02 0. -1.
        1   -1    0    0  501    0  0.00000000000E+00  0.00000000000E+00 -0.21082718779E+04  0.21082718779E+04  0.50400001928E-02 0.  1.
    10030    2    1    2    0    0  0.00000000000E+00  0.00000000000E+00 -0.81817691147E+03  0.33983668444E+04  0.32984062440E+04 0.  0.
        5    1    3    3  502    0  0.16404664010E+04 -0.14993967465E+03 -0.49045605661E+03  0.17187731532E+04  0.46999998093E+01 0.  1.
       -5    1    3    3    0  502 -0.16404664010E+04  0.14993967465E+03 -0.32772085486E+03  0.16795936912E+04  0.46999998093E+01 0. -1.
</event>
<event>
 5   0  0.6085351E-07  0.3242169E+04  0.7818609E-02  0.8177769E-01
        1   -1    0    0  501    0  0.00000000000E+00  0.00000000000E+00  0.15701081794E+04  0.15701081795E+04  0.50400001928E-02 0. -1.
       -1   -1    0    0    0  501  0.00000000000E+00  0.00000000000E+00 -0.16737153904E+04  0.16737153904E+04  0.50400001928E-02 0.  1.
    10030    2    1    2    0    0  0.00000000000E+00  0.00000000000E+00 -0.10360721097E+03  0.32438235699E+04  0.32421685487E+04 0.  0.
        1    1    3    3  502    0 -0.15416718661E+04 -0.33741958483E+03  0.31893933252E+03  0.16100703142E+04  0.50400001928E-02 0. -1.
       -1    1    3    3    0  502  0.15416718661E+04  0.33741958483E+03 -0.42254654349E+03  0.16337532557E+04  0.50400001928E-02 0.  1.
</event>
<event>
 5   0  0.5985183E-07  0.3247641E+04  0.7818609E-02  0.8176347E-01
        1   -1    0    0  501    0  0.00000000000E+00  0.00000000000E+00  0.22508114007E+04  0.22508114007E+04  0.50400001928E-02 0.  1.
       -1   -1    0    0    0  501  0.00000000000E+00  0.00000000000E+00 -0.11714856638E+04  0.11714856638E+04  0.50400001928E-02 0. -1.
    10030    2    1    2    0    0  0.00000000000E+00  0.00000000000E+00  0.10793257369E+04  0.34222970645E+04  0.32476411672E+04 0.  0.
        2    1    3    3  502    0 -0.12392341238E+04  0.92669396514E+03  0.20918268411E+02  0.15475466043E+04  0.25500000920E-02 0. -1.
       -2    1    3    3    0  502  0.12392341238E+04 -0.92669396514E+03  0.10584074685E+04  0.18747504602E+04  0.25500000920E-02 0.  1.
</event>
<event>
 5   0  0.1832626E-06  0.2961711E+04  0.7818609E-02  0.8254750E-01
       -2   -1    0    0    0  501  0.00000000000E+00  0.00000000000E+00  0.14322184628E+04  0.14322184628E+04  0.25500000920E-02 0.  1.
        2   -1    0    0  501    0  0.00000000000E+00  0.00000000000E+00 -0.15311445559E+04  0.15311445559E+04  0.25500000920E-02 0. -1.
    10030    2    1    2    0    0  0.00000000000E+00  0.00000000000E+00 -0.98926093127E+02  0.29633630187E+04  0.29617113311E+04 0.  0.
        3    1    3    3  502    0  0.96621260867E+03 -0.25631575768E+03 -0.11426239045E+04  0.15181745519E+04  0.10100000352E+00 0. -1.
       -3    1    3    3    0  502 -0.96621260867E+03  0.25631575768E+03  0.10436978114E+04  0.14451884668E+04  0.10100000352E+00 0.  1.
</event>
<event>
 5   0  0.1728937E-06  0.3248183E+04  0.7818609E-02  0.8176207E-01
        2   -1    0    0  501    0  0.00000000000E+00  0.00000000000E+00  0.15777801047E+04  0.15777801047E+04  0.25500000920E-02 0. -1.
       -2   -1    0    0    0  501  0.00000000000E+00  0.00000000000E+00 -0.16717627422E+04  0.16717627422E+04  0.25500000920E-02 0.  1.
    10030    2    1    2    0    0  0.00000000000E+00  0.00000000000E+00 -0.93982637502E+02  0.32495428468E+04  0.32481834889E+04 0.  0.
        1    1    3    3  502    0 -0.12406930114E+04  0.99259936153E+03 -0.38343750838E+03  0.16345020538E+04  0.50400001928E-02 0.  1.
       -1    1    3    3    0  502  0.12406930114E+04 -0.99259936153E+03  0.28945487087E+03  0.16150407931E+04  0.50400001928E-02 0. -1.
</event>
<event>
 5   0  0.5985183E-07  0.3329313E+04  0.7818609E-02  0.8155477E-01
        1   -1    0    0  501    0  0.00000000000E+00  0.00000000000E+00  0.26079993909E+04  0.26079993909E+04  0.50400001928E-02 0. -1.
       -1   -1    0    0    0  501  0.00000000000E+00  0.00000000000E+00 -0.10625313084E+04  0.10625313085E+04  0.50400001928E-02 0.  1.
    10030    2    1    2    0    0  0.00000000000E+00  0.00000000000E+00  0.15454680825E+04  0.36705306994E+04  0.33293128452E+04 0.  0.
        2    1    3    3  502    0  0.34986826438E+03  0.99495589293E+03  0.21926508037E+04  0.24331178718E+04  0.25500000920E-02 0. -1.
       -2    1    3    3    0  502 -0.34986826438E+03 -0.99495589293E+03 -0.64718272117E+03  0.12374128276E+04  0.25500000920E-02 0.  1.
</event>
<event>
 5   0  0.5988516E-07  0.3334272E+04  0.7818609E-02  0.8154229E-01
        1   -1    0    0  501    0  0.00000000000E+00  0.00000000000E+00  0.19785472697E+04  0.19785472697E+04  0.50400001928E-02 0.  1.
       -1   -1    0    0    0  501  0.00000000000E+00  0.00000000000E+00 -0.14047388667E+04  0.14047388667E+04  0.50400001928E-02 0. -1.
    10030    2    1    2    0    0  0.00000000000E+00  0.00000000000E+00  0.57380840305E+03  0.33832861364E+04  0.33342718841E+04 0.  0.
        4    1    3    3  502    0  0.45376016093E+03  0.10228446481E+04 -0.96707435420E+03  0.14789671657E+04  0.12699999809E+01 0. -1.
       -4    1    3    3    0  502 -0.45376016093E+03 -0.10228446481E+04  0.15408827573E+04  0.19043189707E+04  0.12699999809E+01 0.  1.
</event>
<event>
 5   0  0.5858859E-07  0.3090499E+04  0.7818609E-02  0.8218350E-01
        1   -1    0    0  501    0  0.00000000000E+00  0.00000000000E+00  0.21592773840E+04  0.21592773840E+04  0.50400001928E-02 0.  1.
       -1   -1    0    0    0  501  0.00000000000E+00  0.00000000000E+00 -0.11058308117E+04  0.11058308117E+04  0.50400001928E-02 0. -1.
    10030    2    1    2    0    0  0.00000000000E+00  0.00000000000E+00  0.10534465723E+04  0.32651081956E+04  0.30904986408E+04 0.  0.
        3    1    3    3  502    0  0.14595823241E+04 -0.50735035854E+03  0.53014754249E+03  0.16336588916E+04  0.10100000352E+00 0.  1.
       -3    1    3    3    0  502 -0.14595823241E+04  0.50735035854E+03  0.52329902979E+03  0.16314493041E+04  0.10100000352E+00 0. -1.
</event>
<event>
 5   0  0.5988516E-07  0.3286030E+04  0.7818609E-02  0.8166459E-01
        1   -1    0    0  501    0  0.00000000000E+00  0.00000000000E+00  0.20882758929E+04  0.20882758929E+04  0.50400001928E-02 0. -1.
       -1   -1    0    0    0  501  0.00000000000E+00  0.00000000000E+00 -0.12926923981E+04  0.12926923981E+04  0.50400001928E-02 0.  1.
    10030    2    1    2    0    0  0.00000000000E+00  0.00000000000E+00  0.79558349478E+03  0.33809682910E+04  0.32860300497E+04 0.  0.
        4    1    3    3  502    0 -0.13715898700E+04  0.17140555781E+03  0.13116293360E+04  0.19055213892E+04  0.12699999809E+01 0. -1.
       -4    1    3    3    0  502  0.13715898700E+04 -0.17140555781E+03 -0.51604584120E+03  0.14754469018E+04  0.12699999809E+01 0.  1.
</event>
<event>
 5   0  0.1784626E-06  0.3287774E+04  0.7818609E-02  0.8166013E-01
       -2   -1    0    0    0  501  0.00000000000E+00  0.00000000000E+00  0.13494754121E+04  0.13494754121E+04  0.25500000920E-02 0. -1.
        2   -1    0    0  501    0  0.00000000000E+00  0.00000000000E+00 -0.20025300075E+04  0.20025300075E+04  0.25500000920E-02 0.  1.
    10030    2    1    2    0    0  0.00000000000E+00  0.00000000000E+00 -0.65305459538E+03  0.33520054195E+04  0.32877743274E+04 0.  0.
        2    1    3    3  502    0 -0.13552932663E+03  0.13837031822E+04 -0.12207962774E+04  0.18502287010E+04  0.25500000920E-02 0.  1.
       -2    1    3    3    0  502  0.13552932663E+03 -0.13837031822E+04  0.56774168206E+03  0.15017767186E+04  0.25500000920E-02 0. -1.
</event>
<event>
 5   0  0.1728937E-06  0.3383130E+04  0.7818609E-02  0.8142059E-01
        2   -1    0    0  501    0  0.00000000000E+00  0.00000000000E+00  0.21693289398E+04  0.21693289398E+04  0.25500000920E-02 0. -1.
       -2   -1    0    0    0  501  0.00000000000E+00  0.00000000000E+00 -0.13190221272E+04  0.13190221272E+04  0.25500000920E-02 0.  1.
    10030    2    1    2    0    0  0.00000000000E+00  0.00000000000E+00  0.85030681263E+03  0.34883510670E+04  0.33831304277E+04 0.  0.
        1    1    3    3  502    0  0.95007463643E+03 -0.77513042653E+03 -0.77638915036E+03  0.14512922193E+04  0.50400001928E-02 0.  1.
       -1    1    3    3    0  502 -0.95007463643E+03  0.77513042653E+03  0.16266959630E+04  0.20370588477E+04  0.50400001928E-02 0. -1.
</event>
<event>
 5   0  0.6085351E-07  0.3145889E+04  0.7818609E-02  0.8203256E-01
        1   -1    0    0  501    0  0.00000000000E+00  0.00000000000E+00  0.16313376635E+04  0.16313376635E+04  0.50400001928E-02 0.  1.
       -1   -1    0    0    0  501  0.00000000000E+00  0.00000000000E+00 -0.15166412943E+04  0.15166412943E+04  0.50400001928E-02 0. -1.
    10030    2    1    2    0    0  0.00000000000E+00  0.00000000000E+00  0.11469636913E+03  0.31479789578E+04  0.31458887872E+04 0.  0.
        1    1    3    3  502    0 -0.44514108599E+03  0.12478608819E+04 -0.79106341275E+03  0.15430776682E+04  0.50400001928E-02 0. -1.
       -1    1    3    3    0  502  0.44514108599E+03 -0.12478608819E+04  0.90575978189E+03  0.16049012896E+04  0.50400001928E-02 0.  1.
</event>
<event>
 5   0  0.1784626E-06  0.3296331E+04  0.7818609E-02  0.8163830E-01
        2   -1    0    0  501    0  0.00000000000E+00  0.00000000000E+00  0.19296808886E+04  0.19296808886E+04  0.25500000920E-02 0. -1.
       -2   -1    0    0    0  501  0.00000000000E+00  0.00000000000E+00 -0.14077193825E+04  0.14077193825E+04  0.25500000920E-02 0.  1.
    10030    2    1    2    0    0  0.00000000000E+00  0.00000000000E+00  0.52196150610E+03  0.33374002711E+04  0.32963308020E+04 0.  0.
        2    1    3    3  502    0 -0.21222239160E+03  0.78517026017E+03 -0.11903781124E+04  0.14417110429E+04  0.25500000920E-02 0.  1.
       -2    1    3    3    0  502  0.21222239160E+03 -0.78517026017E+03  0.17123396185E+04  0.18956892282E+04  0.25500000920E-02 0. -1.
</event>
<event>
 5   0  0.5858859E-07  0.3341989E+04  0.7818609E-02  0.8152293E-01
       -1   -1    0    0    0  501  0.00000000000E+00  0.00000000000E+00  0.14793413767E+04  0.14793413767E+04  0.50400001928E-02 0.  1.
        1   -1    0    0  501    0  0.00000000000E+00  0.00000000000E+00 -0.18874770949E+04  0.18874770949E+04  0.50400001928E-02 0. -1.
    10030    2    1    2    0    0  0.00000000000E+00  0.00000000000E+00 -0.40813571821E+03  0.33668184716E+04  0.33419892065E+04 0.  0.
        3    1    3    3  502    0 -0.13494511929E+04 -0.22539427346E+03  0.76243557301E+03  0.15662468240E+04  0.10100000352E+00 0.  1.
       -3    1    3    3    0  502  0.13494511929E+04  0.22539427346E+03 -0.11705712912E+04  0.18005716477E+04  0.10100000352E+00 0. -1.
</event>
<event>
 5   0  0.1728937E-06  0.3453737E+04  0.7818609E-02  0.8124842E-01
        2   -1    0    0  501    0  0.00000000000E+00  0.00000000000E+00  0.23300073270E+04  0.23300073270E+04  0.25500000920E-02 0. -1.
       -2   -1    0    0    0  501  0.00000000000E+00  0.00000000000E+00 -0.12798562598E+04  0.12798562598E+04  0.25500000920E-02 0.  1.
    10030    2    1    2    0    0  0.00000000000E+00  0.00000000000E+00  0.10501510672E+04  0.36098635868E+04  0.34537367954E+04 0.  0.
        1    1    3    3  502    0  0.80109537357E+03 -0.12743738758E+04 -0.35952372329E+03  0.15475916388E+04  0.50400001928E-02 0. -1.
       -1    1    3    3    0  502 -0.80109537357E+03  0.12743738758E+04  0.14096747905E+04  0.20622719480E+04  0.50400001928E-02 0.  1.
</event>
<event>
 5   0  0.5858859E-07  0.3298587E+04  0.7818609E-02  0.8163255E-01
        1   -1    0    0  501    0  0.00000000000E+00  0.00000000000E+00  0.19726634453E+04  0.19726634453E+04  0.50400001928E-02 0.  1.
       -1   -1    0    0    0  501  0.00000000000E+00  0.00000000000E+00 -0.13789320843E+04  0.13789320843E+04  0.50400001928E-02 0. -1.
    10030    2    1    2    0    0  0.00000000000E+00  0.00000000000E+00  0.59373136092E+03  0.33515955296E+04  0.32985869194E+04 0.  0.
        3    1    3    3  502    0 -0.11305171223E+04 -0.10167726784E+04  0.94609651766E+03  0.17908082740E+04  0.10100000352E+00 0. -1.
       -3    1    3    3    0  502  0.11305171223E+04  0.10167726784E+04 -0.35236515673E+03  0.15607872556E+04  0.10100000352E+00 0.  1.
</event>
<event>
 5   0  0.1743810E-06  0.3311901E+04  0.7818609E-02  0.8159874E-01
       -2   -1    0    0    0  501  0.00000000000E+00  0.00000000000E+00  0.12127110521E+04  0.12127110521E+04  0.25500000920E-02 0.  1.
        2   -1    0    0  501    0  0.00000000000E+00  0.00000000000E+00 -0.22611914785E+04  0.22611914785E+04  0.25500000920E-02 0. -1.
    10030    2    1    2    0    0  0.00000000000E+00  0.00000000000E+00 -0.10484804264E+04  0.34739025306E+04  0.33119009025E+04 0.  0.
        5    1    3    3  502    0 -0.51248626047E+03 -0.10039964983E+04  0.74814974410E+03  0.13529232297E+04  0.46999998093E+01 0.  1.
       -5    1    3    3    0  502  0.51248626047E+03  0.10039964983E+04 -0.17966301705E+04  0.21209793010E+04  0.46999998093E+01 0. -1.
</event>
<event>
 5   0  0.1728937E-06  0.3299655E+04  0.7818609E-02  0.8162983E-01
       -2   -1    0    0    0  501  0.00000000000E+00  0.00000000000E+00  0.22850902200E+04  0.22850902200E+04  0.25500000920E-02 0. -1.
        2   -1    0    0  501    0  0.00000000000E+00  0.00000000000E+00 -0.11911701589E+04  0.11911701589E+04  0.25500000920E-02 0.  1.
    10030    2    1    2    0    0  0.00000000000E+00  0.00000000000E+00  0.10939200611E+04  0.34762603789E+04  0.32996553034E+04 0.  0.
        1    1    3    3  502    0  0.80506240769E+03  0.12040584645E+04 -0.28528857337E+03  0.14762356981E+04  0.50400001928E-02 0.  1.
       -1    1    3    3    0  502 -0.80506240769E+03 -0.12040584645E+04  0.13792086345E+04  0.20000246808E+04  0.50400001928E-02 0. -1.
</event>
<event>
 5   0  0.5985183E-07  0.3301931E+04  0.7818609E-02  0.8162404E-01
       -1   -1    0    0    0  501  0.00000000000E+00  0.00000000000E+00  0.16586213033E+04  0.16586213033E+04  0.50400001928E-02 0.  1.
        1   -1    0    0  501    0  0.00000000000E+00  0.00000000000E+00 -0.16433445427E+04  0.16433445427E+04  0.50400001928E-02 0. -1.
    10030    2    1    2    0    0  0.00000000000E+00  0.00000000000E+00  0.15276760568E+02  0.33019658460E+04  0.33019305064E+04 0.  0.
        2    1    3    3  502    0  0.75548460795E+03 -0.61908368354E+03  0.13386915688E+04  0.16571411275E+04  0.25500000920E-02 0.  1.
       -2    1    3    3    0  502 -0.75548460795E+03  0.61908368354E+03 -0.13234148082E+04  0.16448247185E+04  0.25500000920E-02 0. -1.
</event>
<event>
 5   0  0.1784626E-06  0.3297995E+04  0.7818609E-02  0.8163406E-01
        2   -1    0    0  501    0  0.00000000000E+00  0.00000000000E+00  0.19327865481E+04  0.19327865481E+04  0.25500000920E-02 0.  1.
       -2   -1    0    0    0  501  0.00000000000E+00  0.00000000000E+00 -0.14068771886E+04  0.14068771886E+04  0.25500000920E-02 0. -1.
    10030    2    1    2    0    0  0.00000000000E+00  0.00000000000E+00  0.52590935950E+03  0.33396637366E+04  0.32979953334E+04 0.  0.
        2    1    3    3  502    0 -0.14792678216E+04  0.71290451336E+03  0.41561472958E+03  0.16938718182E+04  0.25500000920E-02 0. -1.
       -2    1    3    3    0  502  0.14792678216E+04 -0.71290451336E+03  0.11029462992E+03  0.16457919184E+04  0.25500000920E-02 0.  1.
</event>
<event>
 5   0  0.1728937E-06  0.3254383E+04  0.7818609E-02  0.8174601E-01
       -2   -1    0    0    0  501  0.00000000000E+00  0.00000000000E+00  0.19067424572E+04  0.19067424572E+04  0.25500000920E-02 0. -1.
        2   -1    0    0  501    0  0.00000000000E+00  0.00000000000E+00 -0.13886259339E+04  0.13886259339E+04  0.25500000920E-02 0.  1.
    10030    2    1    2    0    0  0.00000000000E+00  0.00000000000E+00  0.51811652333E+03  0.32953683911E+04  0.32543829064E+04 0.  0.
        1    1    3    3  502    0  0.23632155847E+03  0.14640277321E+04 -0.41909771104E+03  0.15410606642E+04  0.50400001928E-02 0.  1.
       -1    1    3    3    0  502 -0.23632155847E+03 -0.14640277321E+04  0.93721423437E+03  0.17543077269E+04  0.50400001928E-02 0. -1.
</event>
<event>
 5   0  0.5985183E-07  0.2714548E+04  0.7818609E-02  0.8330300E-01
       -1   -1    0    0    0  501  0.00000000000E+00  0.00000000000E+00  0.22443488368E+04  0.22443488368E+04  0.50400001928E-02 0. -1.
        1   -1    0    0  501    0  0.00000000000E+00  0.00000000000E+00 -0.82081402342E+03  0.82081402344E+03  0.50400001928E-02 0.  1.
    10030    2    1    2    0    0  0.00000000000E+00  0.00000000000E+00  0.14235348134E+04  0.30651628603E+04  0.27145482119E+04 0.  0.
        2    1    3    3  502    0 -0.12304658087E+04  0.49683346249E+03  0.38980115116E+03  0.13830526141E+04  0.25500000920E-02 0. -1.
       -2    1    3    3    0  502  0.12304658087E+04 -0.49683346249E+03  0.10337336623E+04  0.16821102462E+04  0.25500000920E-02 0.  1.
</event>
<event>
 5   0  0.5988516E-07  0.3320095E+04  0.7818609E-02  0.8157801E-01
       -1   -1    0    0    0  501  0.00000000000E+00  0.00000000000E+00  0.12568807471E+04  0.12568807471E+04  0.50400001928E-02 0. -1.
        1   -1    0    0  501    0  0.00000000000E+00  0.00000000000E+00 -0.21925372816E+04  0.21925372816E+04  0.50400001928E-02 0.  1.
    10030    2    1    2    0    0  0.00000000000E+00  0.00000000000E+00 -0.93565653452E+03  0.34494180287E+04  0.33200951171E+04 0.  0.
        4    1    3    3  502    0 -0.12893742498E+03  0.14961870296E+04  0.26722963434E+03  0.15253241549E+04  0.12699999809E+01 0. -1.
       -4    1    3    3    0  502  0.12893742498E+03 -0.14961870296E+04 -0.12028861689E+04  0.19240938738E+04  0.12699999809E+01 0.  1.
</event>
<event>
 5   0  0.1743810E-06  0.3288128E+04  0.7818609E-02  0.8165923E-01
       -2   -1    0    0    0  501  0.00000000000E+00  0.00000000000E+00  0.14002395854E+04  0.14002395854E+04  0.25500000920E-02 0.  1.
        2   -1    0    0  501    0  0.00000000000E+00  0.00000000000E+00 -0.19303452121E+04  0.19303452121E+04  0.25500000920E-02 0. -1.
    10030    2    1    2    0    0  0.00000000000E+00  0.00000000000E+00 -0.53010562677E+03  0.33305847975E+04  0.32881276006E+04 0.  0.
        5    1    3    3  502    0 -0.37485176910E+02  0.77018890360E+03  0.12057040380E+04  0.14312024326E+04  0.46999998093E+01 0.  1.
       -5    1    3    3    0  502  0.37485176910E+02 -0.77018890360E+03 -0.17358096648E+04  0.18993823649E+04  0.46999998093E+01 0. -1.
</event>
<event>
 5   0  0.6023446E-07  0.3159512E+04  0.7818609E-02  0.8199593E-01
        1   -1    0    0  501    0  0.00000000000E+00  0.00000000000E+00  0.27165221777E+04  0.27165221777E+04  0.50400001928E-02 0. -1.
       -1   -1    0    0    0  501  0.00000000000E+00  0.00000000000E+00 -0.91868535358E+03  0.91868535360E+03  0.50400001928E-02 0.  1.
    10030    2    1    2    0    0  0.00000000000E+00  0.00000000000E+00  0.17978368241E+04  0.36352075313E+04  0.31595120746E+04 0.  0.
        5    1    3    3  502    0  0.23152916503E+03 -0.55002916712E+03  0.25818335240E+04  0.26499102390E+04  0.46999998093E+01 0. -1.
       -5    1    3    3    0  502 -0.23152916503E+03  0.55002916712E+03 -0.78399669986E+03  0.98529729236E+03  0.46999998093E+01 0.  1.
</event>
<event>
 5   0  0.5858859E-07  0.3287373E+04  0.7818609E-02  0.8166116E-01
        1   -1    0    0  501    0  0.00000000000E+00  0.00000000000E+00  0.13770143113E+04  0.13770143113E+04  0.50400001928E-02 0.  1.
       -1   -1    0    0    0  501  0.00000000000E+00  0.00000000000E+00 -0.19620020858E+04  0.19620020858E+04  0.50400001928E-02 0. -1.
    10030    2    1    2    0    0  0.00000000000E+00  0.00000000000E+00 -0.58498777444E+03  0.33390163971E+04  0.32873727814E+04 0.  0.
        3    1    3    3  502    0 -0.59831616266E+03 -0.22287690019E+03 -0.18308996700E+04  0.19390332526E+04  0.10100000352E+00 0. -1.
       -3    1    3    3    0  502  0.59831616266E+03  0.22287690019E+03  0.12459118955E+04  0.13999831445E+04  0.10100000352E+00 0.  1.
</event>
<event>
 5   0  0.1832626E-06  0.3248281E+04  0.7818609E-02  0.8176182E-01
       -2   -1    0    0    0  501  0.00000000000E+00  0.00000000000E+00  0.16442600037E+04  0.16442600037E+04  0.25500000920E-02 0.  1.
        2   -1    0    0  501    0  0.00000000000E+00  0.00000000000E+00 -0.16042667414E+04  0.16042667414E+04  0.25500000920E-02 0. -1.
    10030    2    1    2    0    0  0.00000000000E+00  0.00000000000E+00  0.39993262276E+02  0.32485267450E+04  0.32482805532E+04 0.  0.
        3    1    3    3  502    0  0.12467329284E+04 -0.15317041905E+00 -0.10209898502E+04  0.16114475798E+04  0.10100000352E+00 0. -1.
       -3    1    3    3    0  502 -0.12467329284E+04  0.15317041905E+00  0.10609831124E+04  0.16370791652E+04  0.10100000352E+00 0.  1.
</event>
<event>
 5   0  0.1743810E-06  0.3341359E+04  0.7818609E-02  0.8152451E-01
        2   -1    0    0  501    0  0.00000000000E+00  0.00000000000E+00  0.17286793615E+04  0.17286793615E+04  0.25500000920E-02 0.  1.
       -2   -1    0    0    0  501  0.00000000000E+00  0.00000000000E+00 -0.16146252808E+04  0.16146252808E+04  0.25500000920E-02 0. -1.
    10030    2    1    2    0    0  0.00000000000E+00  0.00000000000E+00  0.11405408063E+03  0.33433046423E+04  0.33413586455E+04 0.  0.
        5    1    3    3  502    0  0.53993616365E+03 -0.15661891423E+04 -0.15912613055E+03  0.16642784340E+04  0.46999998093E+01 0. -1.
       -5    1    3    3    0  502 -0.53993616365E+03  0.15661891423E+04  0.27318021118E+03  0.16790262083E+04  0.46999998093E+01 0.  1.
</event>
<event>
 5   0  0.6023446E-07  0.3309061E+04  0.7818609E-02  0.8160594E-01
        1   -1    0    0  501    0  0.00000000000E+00  0.00000000000E+00  0.16625936710E+04  0.16625936711E+04  0.50400001928E-02 0.  1.
       -1   -1    0    0    0  501  0.00000000000E+00  0.00000000000E+00 -0.16465062393E+04  0.16465062394E+04  0.50400001928E-02 0. -1.
    10030    2    1    2    0    0  0.00000000000E+00  0.00000000000E+00  0.16087431706E+02  0.33090999104E+04  0.33090608051E+04 0.  0.
        5    1    3    3  502    0 -0.45630668710E+03  0.23211176055E+02  0.15982493561E+04  0.16622808565E+04  0.46999998093E+01 0.  1.
       -5    1    3    3    0  502  0.45630668710E+03 -0.23211176055E+02 -0.15821619244E+04  0.16468190540E+04  0.46999998093E+01 0. -1.
</event>
<event>
 5   0  0.5985183E-07  0.3288469E+04  0.7818609E-02  0.8165836E-01
        1   -1    0    0  501    0  0.00000000000E+00  0.00000000000E+00  0.24676511543E+04  0.24676511543E+04  0.50400001928E-02 0.  1.
       -1   -1    0    0    0  501  0.00000000000E+00  0.00000000000E+00 -0.10955789963E+04  0.10955789963E+04  0.50400001928E-02 0. -1.
    10030    2    1    2    0    0  0.00000000000E+00  0.00000000000E+00  0.13720721580E+04  0.35632301506E+04  0.32884688077E+04 0.  0.
        2    1    3    3  502    0  0.10226381219E+04  0.12766433187E+04  0.86702472929E+03  0.18513073145E+04  0.25500000920E-02 0.  1.
       -2    1    3    3    0  502 -0.10226381219E+04 -0.12766433187E+04  0.50504742873E+03  0.17119228361E+04  0.25500000920E-02 0. -1.
</event>
<event>
 5   0  0.1696681E-06  0.2795619E+04  0.7818609E-02  0.8304630E-01
       -2   -1    0    0    0  501  0.00000000000E+00  0.00000000000E+00  0.17063140855E+04  0.17063140855E+04  0.25500000920E-02 0. -1.
        2   -1    0    0  501    0  0.00000000000E+00  0.00000000000E+00 -0.11450833396E+04  0.11450833396E+04  0.25500000920E-02 0.  1.
    10030    2    1    2    0    0  0.00000000000E+00  0.00000000000E+00  0.56123074586E+03  0.28513974251E+04  0.27956193098E+04 0.  0.
        4    1    3    3  502    0 -0.33548119147E+03  0.73729164286E+03  0.14425209239E+04  0.16543925850E+04  0.12699999809E+01 0. -1.
       -4    1    3    3    0  502  0.33548119147E+03 -0.73729164286E+03 -0.88129017801E+03  0.11970048401E+04  0.12699999809E+01 0.  1.
</event>
<event>
 5   0  0.1743810E-06  0.3340717E+04  0.7818609E-02  0.8152612E-01
       -2   -1    0    0    0  501  0.00000000000E+00  0.00000000000E+00  0.20106796514E+04  0.20106796514E+04  0.25500000920E-02 0. -1.
        2   -1    0    0  501    0  0.00000000000E+00  0.00000000000E+00 -0.13876388998E+04  0.13876388998E+04  0.25500000920E-02 0.  1.
    10030    2    1    2    0    0  0.00000000000E+00  0.00000000000E+00  0.62304075161E+03  0.33983185511E+04  0.33407168687E+04 0.  0.
        5    1    3    3  502    0  0.71617015218E+03 -0.99164518967E+03  0.14685928556E+04  0.19112945703E+04  0.46999998093E+01 0. -1.
       -5    1    3    3    0  502 -0.71617015218E+03  0.99164518967E+03 -0.84555210395E+03  0.14870239808E+04  0.46999998093E+01 0.  1.
</event>
<event>
 5   0  0.6085351E-07  0.3324334E+04  0.7818609E-02  0.8156731E-01
       -1   -1    0    0    0  501  0.00000000000E+00  0.00000000000E+00  0.12005915755E+04  0.12005915755E+04  0.50400001928E-02 0. -1.
        1   -1    0    0  501    0  0.00000000000E+00  0.00000000000E+00 -0.23011975984E+04  0.23011975984E+04  0.50400001928E-02 0.  1.
    10030    2    1    2    0    0  0.00000000000E+00  0.00000000000E+00 -0.11006060229E+04  0.35017891739E+04  0.33243335875E+04 0.  0.
        1    1    3    3  502    0 -0.53854098314E+03  0.78382494721E+03  0.88569516348E+03  0.12995629500E+04  0.50400001928E-02 0. -1.
       -1    1    3    3    0  502  0.53854098314E+03 -0.78382494721E+03 -0.19863011864E+04  0.22022262239E+04  0.50400001928E-02 0.  1.
</event>
<event>
 5   0  0.1784626E-06  0.3304291E+04  0.7818609E-02  0.8161804E-01
       -2   -1    0    0    0  501  0.00000000000E+00  0.00000000000E+00  0.16370384770E+04  0.16370384770E+04  0.25500000920E-02 0.  1.
        2   -1    0    0  501    0  0.00000000000E+00  0.00000000000E+00 -0.16673922402E+04  0.16673922402E+04  0.25500000920E-02 0. -1.
    10030    2    1    2    0    0  0.00000000000E+00  0.00000000000E+00 -0.30353763153E+02  0.33044307172E+04  0.33042913028E+04 0.  0.
        2    1    3    3  502    0  0.24954072904E+03 -0.14767579908E+04  0.68234843581E+03  0.16458080467E+04  0.25500000920E-02 0.  1.
       -2    1    3    3    0  502 -0.24954072904E+03  0.14767579908E+04 -0.71270219896E+03  0.16586226705E+04  0.25500000920E-02 0. -1.
</event>
<event>
 5   0  0.5985183E-07  0.3238710E+04  0.7818609E-02  0.8178668E-01
       -1   -1    0    0    0  501  0.00000000000E+00  0.00000000000E+00  0.10522524635E+04  0.10522524635E+04  0.50400001928E-02 0.  1.
        1   -1    0    0  501    0  0.00000000000E+00  0.00000000000E+00 -0.24920928821E+04  0.24920928821E+04  0.50400001928E-02 0. -1.
    10030    2    1    2    0    0  0.00000000000E+00  0.00000000000E+00 -0.14398404186E+04  0.35443453456E+04  0.32387101596E+04 0.  0.
        2    1    3    3  502    0 -0.95297895876E+03 -0.88587087743E+03  0.33509661640E+03  0.13435869342E+04  0.25500000920E-02 0.  1.
       -2    1    3    3    0  502  0.95297895876E+03  0.88587087743E+03 -0.17749370350E+04  0.22007584115E+04  0.25500000920E-02 0. -1.
</event>
<event>
 5   0  0.1728937E-06  0.3329062E+04  0.7818609E-02  0.8155540E-01
       -2   -1    0    0    0  501  0.00000000000E+00  0.00000000000E+00  0.16286264552E+04  0.16286264552E+04  0.25500000920E-02 0.  1.
        2   -1    0    0  501    0  0.00000000000E+00  0.00000000000E+00 -0.17012270291E+04  0.17012270291E+04  0.25500000920E-02 0. -1.
    10030    2    1    2    0    0  0.00000000000E+00  0.00000000000E+00 -0.72600573847E+02  0.33298534843E+04  0.33290619375E+04 0.  0.
        1    1    3    3  502    0  0.68291252494E+03  0.13426828583E+04  0.67203231848E+03  0.16494830135E+04  0.50400001928E-02 0.  1.
       -1    1    3    3    0  502 -0.68291252494E+03 -0.13426828583E+04 -0.74463289233E+03  0.16803704708E+04  0.50400001928E-02 0. -1.
</event>
<event>
 5   0  0.5858859E-07  0.3287759E+04  0.7818609E-02  0.8166017E-01
       -1   -1    0    0    0  501  0.00000000000E+00  0.00000000000E+00  0.12217952144E+04  0.12217952144E+04  0.50400001928E-02 0.  1.
        1   -1    0    0  501    0  0.00000000000E+00  0.00000000000E+00 -0.22117779793E+04  0.22117779793E+04  0.50400001928E-02 0. -1.
    10030    2    1    2    0    0  0.00000000000E+00  0.00000000000E+00 -0.98998276496E+03  0.34335731937E+04  0.32877589634E+04 0.  0.
        3    1    3    3  502    0  0.83310412386E+03  0.14005996926E+04 -0.26955248102E+03  0.16517870717E+04  0.10100000352E+00 0. -1.
       -3    1    3    3    0  502 -0.83310412386E+03 -0.14005996926E+04 -0.72043028394E+03  0.17817861220E+04  0.10100000352E+00 0.  1.
</event>
<event>
 5   0  0.5858859E-07  0.3297853E+04  0.7818609E-02  0.8163442E-01
       -1   -1    0    0    0  501  0.00000000000E+00  0.00000000000E+00  0.99229956399E+03  0.99229956400E+03  0.50400001928E-02 0. -1.
        1   -1    0    0  501    0  0.00000000000E+00  0.00000000000E+00 -0.27400587905E+04  0.27400587905E+04  0.50400001928E-02 0.  1.
    10030    2    1    2    0    0  0.00000000000E+00  0.00000000000E+00 -0.17477592265E+04  0.37323583545E+04  0.32978533280E+04 0.  0.
        3    1    3    3  502    0 -0.13295924702E+03  0.51108245141E+03  0.89400391075E+03  0.10383286744E+04  0.10100000352E+00 0. -1.
       -3    1    3    3    0  502  0.13295924702E+03 -0.51108245141E+03 -0.26417631373E+04  0.26940296801E+04  0.10100000352E+00 0.  1.
</event>
<event>
 5   0  0.1696681E-06  0.3146115E+04  0.7818609E-02  0.8203195E-01
        2   -1    0    0  501    0  0.00000000000E+00  0.00000000000E+00  0.12736704130E+04  0.12736704130E+04  0.25500000920E-02 0.  1.
       -2   -1    0    0    0  501  0.00000000000E+00  0.00000000000E+00 -0.19428176163E+04  0.19428176163E+04  0.25500000920E-02 0. -1.
    10030    2    1    2    0    0  0.00000000000E+00  0.00000000000E+00 -0.66914720336E+03  0.32164880293E+04  0.31461146296E+04 0.  0.
        4    1    3    3  502    0  0.15115561084E+04  0.34790752335E+03 -0.60247739920E+03  0.16639778073E+04  0.12699999809E+01 0. -1.
       -4    1    3    3    0  502 -0.15115561084E+04 -0.34790752335E+03 -0.66669804164E+02  0.15525102220E+04  0.12699999809E+01 0.  1.
</event>
<event>
 5   0  0.1728937E-06  0.3312267E+04  0.7818609E-02  0.8159781E-01
       -2   -1    0    0    0  501  0.00000000000E+00  0.00000000000E+00  0.24949917722E+04  0.24949917722E+04  0.25500000920E-02 0.  1.
        2   -1    0    0  501    0  0.00000000000E+00  0.00000000000E+00 -0.10993137140E+04  0.10993137140E+04  0.25500000920E-02 0. -1.
    10030    2    1    2    0    0  0.00000000000E+00  0.00000000000E+00  0.13956780581E+04  0.35943054862E+04  0.33122673029E+04 0.  0.
        1    1    3    3  502    0 -0.76308270226E+03  0.83959339667E+03  0.20070378865E+04  0.23055180243E+04  0.50400001928E-02 0.  1.
       -1    1    3    3    0  502  0.76308270226E+03 -0.83959339667E+03 -0.61135982837E+03  0.12887874619E+04  0.50400001928E-02 0. -1.
</event>
<event>
 5   0  0.5685000E-07  0.3280935E+04  0.7818609E-02  0.8167763E-01
       -4   -1    0    0    0  501  0.00000000000E+00  0.00000000000E+00  0.17351479201E+04  0.17351483848E+04  0.12699999809E+01 0.  1.
        4   -1    0    0  501    0  0.00000000000E+00  0.00000000000E+00 -0.15509529597E+04  0.15509534796E+04  0.12699999809E+01 0. -1.
    10030    2    1    2    0    0  0.00000000000E+00  0.00000000000E+00  0.18419496042E+03  0.32861018645E+04  0.32809354886E+04 0.  0.
        5    1    3    3  502    0 -0.13487688648E+04  0.20481253171E+03 -0.82037315878E+03  0.15919044675E+04  0.46999998093E+01 0. -1.
       -5    1    3    3    0  502  0.13487688648E+04 -0.20481253171E+03  0.10045681192E+04  0.16941973970E+04  0.46999998093E+01 0.  1.
</event>
<event>
 5   0  0.5988516E-07  0.2738149E+04  0.7818609E-02  0.8322732E-01
       -1   -1    0    0    0  501  0.00000000000E+00  0.00000000000E+00  0.10077331812E+04  0.10077331812E+04  0.50400001928E-02 0.  1.
        1   -1    0    0  501    0  0.00000000000E+00  0.00000000000E+00 -0.18599818748E+04  0.18599818748E+04  0.50400001928E-02 0. -1.
    10030    2    1    2    0    0  0.00000000000E+00  0.00000000000E+00 -0.85224869356E+03  0.28677150560E+04  0.27381493397E+04 0.  0.
        4    1    3    3  502    0 -0.11409949384E+04  0.74024736888E+03 -0.26209864588E+03  0.13851111614E+04  0.12699999809E+01 0. -1.
       -4    1    3    3    0  502  0.11409949384E+04 -0.74024736888E+03 -0.59015004768E+03  0.14826038946E+04  0.12699999809E+01 0.  1.
</event>
<event>
 5   0  0.6023446E-07  0.3293041E+04  0.7818609E-02  0.8164668E-01
        1   -1    0    0  501    0  0.00000000000E+00  0.00000000000E+00  0.19966574372E+04  0.19966574372E+04  0.50400001928E-02 0.  1.
       -1   -1    0    0    0  501  0.00000000000E+00  0.00000000000E+00 -0.13577839779E+04  0.13577839779E+04  0.50400001928E-02 0. -1.
    10030    2    1    2    0    0  0.00000000000E+00  0.00000000000E+00  0.63887345926E+03  0.33544414151E+04  0.32930408304E+04 0.  0.
        5    1    3    3  502    0 -0.56246126891E+03 -0.13524353474E+04 -0.44662491947E+03  0.15313196781E+04  0.46999998093E+01 0. -1.
       -5    1    3    3    0  502  0.56246126891E+03  0.13524353474E+04  0.10854983787E+04  0.18231217370E+04  0.46999998093E+01 0.  1.
</event>
<event>
 5   0  0.1784626E-06  0.3290580E+04  0.7818609E-02  0.8165296E-01
        2   -1    0    0  501    0  0.00000000000E+00  0.00000000000E+00  0.14182269293E+04  0.14182269293E+04  0.25500000920E-02 0.  1.
       -2   -1    0    0    0  501  0.00000000000E+00  0.00000000000E+00 -0.19087070429E+04  0.19087070429E+04  0.25500000920E-02 0. -1.
    10030    2    1    2    0    0  0.00000000000E+00  0.00000000000E+00 -0.49048011365E+03  0.33269339722E+04  0.32905803308E+04 0.  0.
        2    1    3    3  502    0 -0.12816526931E+04  0.99388147946E+03  0.34485472807E+02  0.16222278720E+04  0.25500000920E-02 0.  1.
       -2    1    3    3    0  502  0.12816526931E+04 -0.99388147946E+03 -0.52496558646E+03  0.17047061001E+04  0.25500000920E-02 0. -1.
</event>
<event>
 5   0  0.5988516E-07  0.3315464E+04  0.7818609E-02  0.8158972E-01
       -1   -1    0    0    0  501  0.00000000000E+00  0.00000000000E+00  0.15808995239E+04  0.15808995239E+04  0.50400001928E-02 0. -1.
        1   -1    0    0  501    0  0.00000000000E+00  0.00000000000E+00 -0.17382986420E+04  0.17382986420E+04  0.50400001928E-02 0.  1.
    10030    2    1    2    0    0  0.00000000000E+00  0.00000000000E+00 -0.15739911816E+03  0.33191981659E+04  0.33154640674E+04 0.  0.
        4    1    3    3  502    0 -0.16252674545E+04  0.23968214810E+03  0.14320759688E+03  0.16490760624E+04  0.12699999809E+01 0. -1.
       -4    1    3    3    0  502  0.16252674545E+04 -0.23968214810E+03 -0.30060671503E+03  0.16701221035E+04  0.12699999809E+01 0.  1.
</event>
<event>
 5   0  0.1743810E-06  0.3208561E+04  0.7818609E-02  0.8186560E-01
        2   -1    0    0  501    0  0.00000000000E+00  0.00000000000E+00  0.10144950549E+04  0.10144950549E+04  0.25500000920E-02 0.  1.
       -2   -1    0    0    0  501  0.00000000000E+00  0.00000000000E+00 -0.25369432525E+04  0.25369432525E+04  0.25500000920E-02 0. -1.
    10030    2    1    2    0    0  0.00000000000E+00  0.00000000000E+00 -0.15224481976E+04  0.35514383074E+04  0.32085612876E+04 0.  0.
        5    1    3    3  502    0 -0.65737885600E+03 -0.53010964996E+03 -0.22709996967E+04  0.24229372493E+04  0.46999998093E+01 0. -1.
       -5    1    3    3    0  502  0.65737885600E+03  0.53010964996E+03  0.74855149912E+03  0.11285010581E+04  0.46999998093E+01 0.  1.
</event>
<event>
 5   0  0.6023446E-07  0.2773770E+04  0.7818609E-02  0.8311458E-01
        1   -1    0    0  501    0  0.00000000000E+00  0.00000000000E+00  0.17583929566E+04  0.17583929566E+04  0.50400001928E-02 0.  1.
       -1   -1    0    0    0  501  0.00000000000E+00  0.00000000000E+00 -0.10938681921E+04  0.10938681921E+04  0.50400001928E-02 0. -1.
    10030    2    1    2    0    0  0.00000000000E+00  0.00000000000E+00  0.66452476444E+03  0.28522611487E+04  0.27737700874E+04 0.  0.
        5    1    3    3  502    0  0.10085220002E+04 -0.13176743571E+02 -0.64658716823E+03  0.11980765032E+04  0.46999998093E+01 0. -1.
       -5    1    3    3    0  502 -0.10085220002E+04  0.13176743571E+02  0.13111119327E+04  0.16541846455E+04  0.46999998093E+01 0.  1.
</event>
<event>
 5   0  0.6085351E-07  0.3286563E+04  0.7818609E-02  0.8166323E-01
       -1   -1    0    0    0  501  0.00000000000E+00  0.00000000000E+00  0.16996118029E+04  0.16996118029E+04  0.50400001928E-02 0. -1.
        1   -1    0    0  501    0  0.00000000000E+00  0.00000000000E+00 -0.15888176963E+04  0.15888176963E+04  0.50400001928E-02 0.  1.
    10030    2    1    2    0    0  0.00000000000E+00  0.00000000000E+00  0.11079410658E+03  0.32884294993E+04  0.32865625260E+04 0.  0.
        1    1    3    3  502    0 -0.12704516909E+04  0.47193779015E+03  0.98522605348E+03  0.16755426444E+04  0.50400001928E-02 0. -1.
       -1    1    3    3    0  502  0.12704516909E+04 -0.47193779015E+03 -0.87443194690E+03  0.16128868549E+04  0.50400001928E-02 0.  1.
</event>
<event>
 5   0  0.1784626E-06  0.3307187E+04  0.7818609E-02  0.8161069E-01
        2   -1    0    0  501    0  0.00000000000E+00  0.00000000000E+00  0.18242562383E+04  0.18242562383E+04  0.25500000920E-02 0. -1.
       -2   -1    0    0    0  501  0.00000000000E+00  0.00000000000E+00 -0.14988963750E+04  0.14988963750E+04  0.25500000920E-02 0.  1.
    10030    2    1    2    0    0  0.00000000000E+00  0.00000000000E+00  0.32535986336E+03  0.33231526133E+04  0.33071867578E+04 0.  0.
        2    1    3    3  502    0 -0.32071034903E+03 -0.34121651034E+00 -0.14673461688E+04  0.15019853606E+04  0.25500000920E-02 0.  1.
       -2    1    3    3    0  502  0.32071034903E+03  0.34121651034E+00  0.17927060322E+04  0.18211672527E+04  0.25500000920E-02 0. -1.
</event>
<event>
 5   0  0.6023446E-07  0.3442291E+04  0.7818609E-02  0.8127604E-01
       -1   -1    0    0    0  501  0.00000000000E+00  0.00000000000E+00  0.14053347728E+04  0.14053347728E+04  0.50400001928E-02 0. -1.
        1   -1    0    0  501    0  0.00000000000E+00  0.00000000000E+00 -0.21079256997E+04  0.21079256997E+04  0.50400001928E-02 0.  1.
    10030    2    1    2    0    0  0.00000000000E+00  0.00000000000E+00 -0.70259092689E+03  0.35132604726E+04  0.34422906817E+04 0.  0.
        5    1    3    3  502    0 -0.44751638822E+02 -0.16511356632E+04 -0.84507532431E+03  0.18553776115E+04  0.46999998093E+01 0.  1.
       -5    1    3    3    0  502  0.44751638822E+02  0.16511356632E+04  0.14248439742E+03  0.16578828611E+04  0.46999998093E+01 0. -1.
</event>
<event>
 5   0  0.1728937E-06  0.3452596E+04  0.7818609E-02  0.8125117E-01
       -2   -1    0    0    0  501  0.00000000000E+00  0.00000000000E+00  0.16982671254E+04  0.16982671254E+04  0.25500000920E-02 0. -1.
        2   -1    0    0  501    0  0.00000000000E+00  0.00000000000E+00 -0.17547911327E+04  0.17547911327E+04  0.25500000920E-02 0.  1.
    10030    2    1    2    0    0  0.00000000000E+00  0.00000000000E+00 -0.56524007329E+02  0.34530582580E+04  0.34525955990E+04 0.  0.
        1    1    3    3  502    0 -0.48799811281E+03  0.16011380250E+04  0.39407287898E+03  0.17196158197E+04  0.50400001928E-02 0.  1.
       -1    1    3    3    0  502  0.48799811281E+03 -0.16011380250E+04 -0.45059688631E+03  0.17334424384E+04  0.50400001928E-02 0. -1.
</event>
<event>
 5   0  0.6085351E-07  0.3301588E+04  0.7818609E-02  0.8162491E-01
        1   -1    0    0  501    0  0.00000000000E+00  0.00000000000E+00  0.10450217594E+04  0.10450217594E+04  0.50400001928E-02 0.  1.
       -1   -1    0    0    0  501  0.00000000000E+00  0.00000000000E+00 -0.26077173733E+04  0.26077173733E+04  0.50400001928E-02 0. -1.
    10030    2    1    2    0    0  0.00000000000E+00  0.00000000000E+00 -0.15626956139E+04  0.36527391327E+04  0.33015883435E+04 0.  0.
        1    1    3    3  502    0 -0.70863975228E+03  0.11979145471E+04 -0.17634248766E+04  0.22465166049E+04  0.50400001928E-02 0. -1.
       -1    1    3    3    0  502  0.70863975228E+03 -0.11979145471E+04  0.20072926268E+03  0.14062225278E+04  0.50400001928E-02 0.  1.
</event>
<event>
 5   0  0.5985183E-07  0.3271674E+04  0.7818609E-02  0.8170141E-01
       -1   -1    0    0    0  501  0.00000000000E+00  0.00000000000E+00  0.20317622291E+04  0.20317622291E+04  0.50400001928E-02 0.  1.
        1   -1    0    0  501    0  0.00000000000E+00  0.00000000000E+00 -0.13170647040E+04  0.13170647040E+04  0.50400001928E-02 0. -1.
    10030    2    1    2    0    0  0.00000000000E+00  0.00000000000E+00  0.71469752505E+03  0.33488269331E+04  0.32716737728E+04 0.  0.
        2    1    3    3  502    0 -0.31991131243E+03  0.15378504335E+04  0.82488622400E+03  0.17741940384E+04  0.25500000920E-02 0.  1.
       -2    1    3    3    0  502  0.31991131243E+03 -0.15378504335E+04 -0.11018869895E+03  0.15746328946E+04  0.25500000920E-02 0. -1.
</event>
<event>
 5   0  0.1696681E-06  0.3285489E+04  0.7818609E-02  0.8166597E-01
       -2   -1    0    0    0  501  0.00000000000E+00  0.00000000000E+00  0.15187318402E+04  0.15187318402E+04  0.25500000920E-02 0.  1.
        2   -1    0    0  501    0  0.00000000000E+00  0.00000000000E+00 -0.17768837727E+04  0.17768837727E+04  0.25500000920E-02 0. -1.
    10030    2    1    2    0    0  0.00000000000E+00  0.00000000000E+00 -0.25815193248E+03  0.32956156129E+04  0.32854892859E+04 0.  0.
        4    1    3    3  502    0  0.54540675487E+03 -0.12121526405E+04  0.83921049850E+03  0.15719600586E+04  0.12699999809E+01 0.  1.
       -4    1    3    3    0  502 -0.54540675487E+03  0.12121526405E+04 -0.10973624310E+04  0.17236555543E+04  0.12699999809E+01 0. -1.
</event>
<event>
 5   0  0.1784626E-06  0.3317140E+04  0.7818609E-02  0.8158548E-01
        2   -1    0    0  501    0  0.00000000000E+00  0.00000000000E+00  0.23927112970E+04  0.23927112970E+04  0.25500000920E-02 0. -1.
       -2   -1    0    0    0  501  0.00000000000E+00  0.00000000000E+00 -0.11496807965E+04  0.11496807965E+04  0.25500000920E-02 0.  1.
    10030    2    1    2    0    0  0.00000000000E+00  0.00000000000E+00  0.12430305006E+04  0.35423920935E+04  0.33171398702E+04 0.  0.
        2    1    3    3  502    0 -0.63337246436E+03 -0.14132254916E+04 -0.12507086529E+02  0.15487166933E+04  0.25500000920E-02 0.  1.
       -2    1    3    3    0  502  0.63337246436E+03  0.14132254916E+04  0.12555375871E+04  0.19936754002E+04  0.25500000920E-02 0. -1.
</event>
<event>
 5   0  0.1696681E-06  0.3322091E+04  0.7818609E-02  0.8157297E-01
        2   -1    0    0  501    0  0.00000000000E+00  0.00000000000E+00  0.16566860653E+04  0.16566860653E+04  0.25500000920E-02 0. -1.
       -2   -1    0    0    0  501  0.00000000000E+00  0.00000000000E+00 -0.16654159957E+04  0.16654159957E+04  0.25500000920E-02 0.  1.
    10030    2    1    2    0    0  0.00000000000E+00  0.00000000000E+00 -0.87299304852E+01  0.33221020610E+04  0.33220905906E+04 0.  0.
        4    1    3    3  502    0 -0.27944982622E+03  0.83084788520E+03 -0.14152806938E+04  0.16647586819E+04  0.12699999809E+01 0.  1.
       -4    1    3    3    0  502  0.27944982622E+03 -0.83084788520E+03  0.14065507633E+04  0.16573433791E+04  0.12699999809E+01 0. -1.
</event>
<event>
 5   0  0.5985183E-07  0.3254555E+04  0.7818609E-02  0.8174556E-01
        1   -1    0    0  501    0  0.00000000000E+00  0.00000000000E+00  0.78037993247E+03  0.78037993249E+03  0.50400001928E-02 0. -1.
       -1   -1    0    0    0  501  0.00000000000E+00  0.00000000000E+00 -0.33932602725E+04  0.33932602725E+04  0.50400001928E-02 0.  1.
    10030    2    1    2    0    0  0.00000000000E+00  0.00000000000E+00 -0.26128803400E+04  0.41736402050E+04  0.32545550985E+04 0.  0.
        2    1    3    3  502    0 -0.14691680178E+04  0.68309900426E+03 -0.15007281903E+04  0.22084528556E+04  0.25500000920E-02 0.  1.
       -2    1    3    3    0  502  0.14691680178E+04 -0.68309900426E+03 -0.11121521497E+04  0.19651873494E+04  0.25500000920E-02 0. -1.
</event>
<event>
 5   0  0.1728937E-06  0.3140258E+04  0.7818609E-02  0.8204776E-01
        2   -1    0    0  501    0  0.00000000000E+00  0.00000000000E+00  0.14867376285E+04  0.14867376285E+04  0.25500000920E-02 0. -1.
       -2   -1    0    0    0  501  0.00000000000E+00  0.00000000000E+00 -0.16581974454E+04  0.16581974454E+04  0.25500000920E-02 0.  1.
    10030    2    1    2    0    0  0.00000000000E+00  0.00000000000E+00 -0.17145981694E+03  0.31449350739E+04  0.31402576567E+04 0.  0.
        1    1    3    3  502    0  0.12616813571E+04 -0.90788036851E+03 -0.30791149341E+03  0.15845807326E+04  0.50400001928E-02 0.  1.
       -1    1    3    3    0  502 -0.12616813571E+04  0.90788036851E+03  0.13645167647E+03  0.15603543413E+04  0.50400001928E-02 0. -1.
</event>
<event>
 5   0  0.5988516E-07  0.3296745E+04  0.7818609E-02  0.8163724E-01
        1   -1    0    0  501    0  0.00000000000E+00  0.00000000000E+00  0.20005330465E+04  0.20005330465E+04  0.50400001928E-02 0.  1.
       -1   -1    0    0    0  501  0.00000000000E+00  0.00000000000E+00 -0.13582035914E+04  0.13582035914E+04  0.50400001928E-02 0. -1.
    10030    2    1    2    0    0  0.00000000000E+00  0.00000000000E+00  0.64232945513E+03  0.33587366379E+04  0.32967445570E+04 0.  0.
        4    1    3    3  502    0  0.15489019224E+03 -0.10636783359E+04  0.15943547035E+04  0.19228549366E+04  0.12699999809E+01 0.  1.
       -4    1    3    3    0  502 -0.15489019224E+03  0.10636783359E+04 -0.95202524835E+03  0.14358817013E+04  0.12699999809E+01 0. -1.
</event>
<event>
 5   0  0.5985183E-07  0.3352683E+04  0.7818609E-02  0.8149618E-01
        1   -1    0    0  501    0  0.00000000000E+00  0.00000000000E+00  0.14632279567E+04  0.14632279567E+04  0.50400001928E-02 0.  1.
       -1   -1    0    0    0  501  0.00000000000E+00  0.00000000000E+00 -0.19204945673E+04  0.19204945673E+04  0.50400001928E-02 0. -1.
    10030    2    1    2    0    0  0.00000000000E+00  0.00000000000E+00 -0.45726661056E+03  0.33837225240E+04  0.33526833084E+04 0.  0.
        2    1    3    3  502    0 -0.34716434320E+03 -0.61064531956E+03 -0.17647991283E+04  0.18994543298E+04  0.25500000920E-02 0. -1.
       -2    1    3    3    0  502  0.34716434320E+03  0.61064531956E+03  0.13075325178E+04  0.14842681943E+04  0.25500000920E-02 0.  1.
</event>
<event>
 5   0  0.6085351E-07  0.3274091E+04  0.7818609E-02  0.8169519E-01
        1   -1    0    0  501    0  0.00000000000E+00  0.00000000000E+00  0.22941543223E+04  0.22941543224E+04  0.50400001928E-02 0.  1.
       -1   -1    0    0    0  501  0.00000000000E+00  0.00000000000E+00 -0.11681504010E+04  0.11681504010E+04  0.50400001928E-02 0. -1.
    10030    2    1    2    0    0  0.00000000000E+00  0.00000000000E+00  0.11260039214E+04  0.34623047233E+04  0.32740905862E+04 0.  0.
        1    1    3    3  502    0  0.11930119523E+04  0.10505628882E+04  0.97658224834E+03  0.18656561281E+04  0.50400001928E-02 0. -1.
       -1    1    3    3    0  502 -0.11930119523E+04 -0.10505628882E+04  0.14942167302E+03  0.15966485953E+04  0.50400001928E-02 0.  1.
</event>
<event>
 5   0  0.1728937E-06  0.3292374E+04  0.7818609E-02  0.8164839E-01
       -2   -1    0    0    0  501  0.00000000000E+00  0.00000000000E+00  0.19487114579E+04  0.19487114579E+04  0.25500000920E-02 0. -1.
        2   -1    0    0  501    0  0.00000000000E+00  0.00000000000E+00 -0.13906273863E+04  0.13906273863E+04  0.25500000920E-02 0.  1.
    10030    2    1    2    0    0  0.00000000000E+00  0.00000000000E+00  0.55808407166E+03  0.33393388442E+04  0.32923739285E+04 0.  0.
        1    1    3    3  502    0 -0.73239442011E+03  0.10819378815E+04 -0.73671277650E+03  0.14999122911E+04  0.50400001928E-02 0.  1.
       -1    1    3    3    0  502  0.73239442011E+03 -0.10819378815E+04  0.12947968482E+04  0.18394265530E+04  0.50400001928E-02 0. -1.
</event>
<event>
 5   0  0.5858859E-07  0.3279899E+04  0.7818609E-02  0.8168029E-01
        1   -1    0    0  501    0  0.00000000000E+00  0.00000000000E+00  0.20121683647E+04  0.20121683647E+04  0.50400001928E-02 0.  1.
       -1   -1    0    0    0  501  0.00000000000E+00  0.00000000000E+00 -0.13365850088E+04  0.13365850088E+04  0.50400001928E-02 0. -1.
    10030    2    1    2    0    0  0.00000000000E+00  0.00000000000E+00  0.67558335586E+03  0.33487533735E+04  0.32798988225E+04 0.  0.
        3    1    3    3  502    0 -0.46556750651E+03 -0.12966043053E+04 -0.57054675940E+03  0.14911269035E+04  0.10100000352E+00 0. -1.
       -3    1    3    3    0  502  0.46556750651E+03  0.12966043053E+04  0.12461301153E+04  0.18576264700E+04  0.10100000352E+00 0.  1.
</event>
<event>
 5   0  0.6023446E-07  0.3274112E+04  0.7818609E-02  0.8169514E-01
       -1   -1    0    0    0  501  0.00000000000E+00  0.00000000000E+00  0.95758474327E+03  0.95758474328E+03  0.50400001928E-02 0.  1.
        1   -1    0    0  501    0  0.00000000000E+00  0.00000000000E+00 -0.27986579105E+04  0.27986579105E+04  0.50400001928E-02 0. -1.
    10030    2    1    2    0    0  0.00000000000E+00  0.00000000000E+00 -0.18410731673E+04  0.37562426538E+04  0.32741118593E+04 0.  0.
        5    1    3    3  502    0  0.62858479140E+03 -0.15082280764E+04 -0.10356015376E+04  0.19345189079E+04  0.46999998093E+01 0. -1.
       -5    1    3    3    0  502 -0.62858479140E+03  0.15082280764E+04 -0.80547162971E+03  0.18217237460E+04  0.46999998093E+01 0.  1.
</event>
<event>
 5   0  0.5858859E-07  0.3295388E+04  0.7818609E-02  0.8164070E-01
        1   -1    0    0  501    0  0.00000000000E+00  0.00000000000E+00  0.19391117582E+04  0.19391117582E+04  0.50400001928E-02 0. -1.
       -1   -1    0    0    0  501  0.00000000000E+00  0.00000000000E+00 -0.14000719737E+04  0.14000719737E+04  0.50400001928E-02 0.  1.
    10030    2    1    2    0    0  0.00000000000E+00  0.00000000000E+00  0.53903978445E+03  0.33391837319E+04  0.32953883089E+04 0.  0.
        3    1    3    3  502    0 -0.29975584622E+03 -0.14145311544E+03 -0.13659417874E+04  0.14055815622E+04  0.10100000352E+00 0.  1.
       -3    1    3    3    0  502  0.29975584622E+03  0.14145311544E+03  0.19049815719E+04  0.19336021697E+04  0.10100000352E+00 0. -1.
</event>
<event>
 5   0  0.1784626E-06  0.3205621E+04  0.7818609E-02  0.8187334E-01
       -2   -1    0    0    0  501  0.00000000000E+00  0.00000000000E+00  0.13668401537E+04  0.13668401537E+04  0.25500000920E-02 0. -1.
        2   -1    0    0  501    0  0.00000000000E+00  0.00000000000E+00 -0.18795183655E+04  0.18795183656E+04  0.25500000920E-02 0.  1.
    10030    2    1    2    0    0  0.00000000000E+00  0.00000000000E+00 -0.51267821187E+03  0.32463585192E+04  0.32056207958E+04 0.  0.
        2    1    3    3  502    0  0.12376941250E+04  0.42024490283E+03  0.68308554664E+03  0.14748214771E+04  0.25500000920E-02 0. -1.
       -2    1    3    3    0  502 -0.12376941250E+04 -0.42024490283E+03 -0.11957637585E+04  0.17715370421E+04  0.25500000920E-02 0.  1.
</event>
<event>
 5   0  0.1784626E-06  0.3301310E+04  0.7818609E-02  0.8162562E-01
        2   -1    0    0  501    0  0.00000000000E+00  0.00000000000E+00  0.16593074636E+04  0.16593074636E+04  0.25500000920E-02 0.  1.
       -2   -1    0    0    0  501  0.00000000000E+00  0.00000000000E+00 -0.16420476454E+04  0.16420476454E+04  0.25500000920E-02 0. -1.
    10030    2    1    2    0    0  0.00000000000E+00  0.00000000000E+00  0.17259818211E+02  0.33013551091E+04  0.33013099907E+04 0.  0.
        2    1    3    3  502    0 -0.56857967802E+03 -0.29634143823E+03  0.15296900834E+04  0.16586298109E+04  0.25500000920E-02 0.  1.
       -2    1    3    3    0  502  0.56857967802E+03  0.29634143823E+03 -0.15124302652E+04  0.16427252982E+04  0.25500000920E-02 0. -1.
</event>
<event>
 5   0  0.1696681E-06  0.3212587E+04  0.7818609E-02  0.8185501E-01
       -2   -1    0    0    0  501  0.00000000000E+00  0.00000000000E+00  0.14719369497E+04  0.14719369497E+04  0.25500000920E-02 0. -1.
        2   -1    0    0  501    0  0.00000000000E+00  0.00000000000E+00 -0.17529139958E+04  0.17529139958E+04  0.25500000920E-02 0.  1.
    10030    2    1    2    0    0  0.00000000000E+00  0.00000000000E+00 -0.28097704613E+03  0.32248509455E+04  0.32125870448E+04 0.  0.
        4    1    3    3  502    0  0.17846611723E+03  0.84168730621E+02 -0.17407016092E+04  0.17518499466E+04  0.12699999809E+01 0.  1.
       -4    1    3    3    0  502 -0.17846611723E+03 -0.84168730621E+02  0.14597245630E+04  0.14730009990E+04  0.12699999809E+01 0. -1.
</event>
<event>
 5   0  0.5685000E-07  0.3318247E+04  0.7818609E-02  0.8158268E-01
       -3   -1    0    0    0  501  0.00000000000E+00  0.00000000000E+00  0.18982355086E+04  0.18982355113E+04  0.10100000352E+00 0.  1.
        3   -1    0    0  501    0  0.00000000000E+00  0.00000000000E+00 -0.14501315102E+04  0.14501315137E+04  0.10100000352E+00 0. -1.
    10030    2    1    2    0    0  0.00000000000E+00  0.00000000000E+00  0.44810399844E+03  0.33483670250E+04  0.33182472091E+04 0.  0.
        5    1    3    3  502    0 -0.96464896018E+03  0.23412441246E+03  0.15655200709E+04  0.18537089953E+04  0.46999998093E+01 0.  1.
       -5    1    3    3    0  502  0.96464896018E+03 -0.23412441246E+03 -0.11174160724E+04  0.14946580297E+04  0.46999998093E+01 0. -1.
</event>
<event>
 5   0  0.5858859E-07  0.3280949E+04  0.7818609E-02  0.8167760E-01
       -1   -1    0    0    0  501  0.00000000000E+00  0.00000000000E+00  0.13549138127E+04  0.13549138127E+04  0.50400001928E-02 0. -1.
        1   -1    0    0  501    0  0.00000000000E+00  0.00000000000E+00 -0.19862191866E+04  0.19862191866E+04  0.50400001928E-02 0.  1.
    10030    2    1    2    0    0  0.00000000000E+00  0.00000000000E+00 -0.63130537389E+03  0.33411329993E+04  0.32809485281E+04 0.  0.
        3    1    3    3  502    0  0.10198316933E+04 -0.11166466183E+04 -0.96308177043E+03  0.17928978943E+04  0.10100000352E+00 0. -1.
       -3    1    3    3    0  502 -0.10198316933E+04  0.11166466183E+04  0.33177639654E+03  0.15482351050E+04  0.10100000352E+00 0.  1.
</event>
<event>
 5   0  0.5988516E-07  0.3197906E+04  0.7818609E-02  0.8189370E-01
        1   -1    0    0  501    0  0.00000000000E+00  0.00000000000E+00  0.17623868316E+04  0.17623868316E+04  0.50400001928E-02 0. -1.
       -1   -1    0    0    0  501  0.00000000000E+00  0.00000000000E+00 -0.14506748508E+04  0.14506748508E+04  0.50400001928E-02 0.  1.
    10030    2    1    2    0    0  0.00000000000E+00  0.00000000000E+00  0.31171198077E+03  0.32130616824E+04  0.31979057234E+04 0.  0.
        4    1    3    3  502    0 -0.11332864447E+04  0.90014861702E+03  0.83881490340E+03  0.16727874203E+04  0.12699999809E+01 0.  1.
       -4    1    3    3    0  502  0.11332864447E+04 -0.90014861702E+03 -0.52710292262E+03  0.15402742621E+04  0.12699999809E+01 0. -1.
</event>
<event>
 5   0  0.1743810E-06  0.3278189E+04  0.7818609E-02  0.8168467E-01
       -2   -1    0    0    0  501  0.00000000000E+00  0.00000000000E+00  0.12182496348E+04  0.12182496348E+04  0.25500000920E-02 0.  1.
        2   -1    0    0  501    0  0.00000000000E+00  0.00000000000E+00 -0.22053210329E+04  0.22053210329E+04  0.25500000920E-02 0. -1.
    10030    2    1    2    0    0  0.00000000000E+00  0.00000000000E+00 -0.98707139808E+03  0.34235706677E+04  0.32781894655E+04 0.  0.
        5    1    3    3  502    0 -0.11252830209E+04  0.80395197273E+03 -0.14123297954E+04  0.19766886939E+04  0.46999998093E+01 0. -1.
       -5    1    3    3    0  502  0.11252830209E+04 -0.80395197273E+03  0.42525839731E+03  0.14468819738E+04  0.46999998093E+01 0.  1.
</event>
<event>
 5   0  0.6023446E-07  0.3218955E+04  0.7818609E-02  0.8183829E-01
       -1   -1    0    0    0  501  0.00000000000E+00  0.00000000000E+00  0.14237140787E+04  0.14237140788E+04  0.50400001928E-02 0.  1.
        1   -1    0    0  501    0  0.00000000000E+00  0.00000000000E+00 -0.18194795310E+04  0.18194795310E+04  0.50400001928E-02 0. -1.
    10030    2    1    2    0    0  0.00000000000E+00  0.00000000000E+00 -0.39576545222E+03  0.32431936097E+04  0.32189554978E+04 0.  0.
        5    1    3    3  502    0  0.11434050882E+04  0.34468027649E+03 -0.12849961099E+04  0.17542567604E+04  0.46999998093E+01 0. -1.
       -5    1    3    3    0  502 -0.11434050882E+04 -0.34468027649E+03  0.88923065771E+03  0.14889368494E+04  0.46999998093E+01 0.  1.
</event>
<event>
 5   0  0.5985183E-07  0.3237613E+04  0.7818609E-02  0.8178954E-01
       -1   -1    0    0    0  501  0.00000000000E+00  0.00000000000E+00  0.20773863139E+04  0.20773863139E+04  0.50400001928E-02 0. -1.
        1   -1    0    0  501    0  0.00000000000E+00  0.00000000000E+00 -0.12614576053E+04  0.12614576053E+04  0.50400001928E-02 0.  1.
    10030    2    1    2    0    0  0.00000000000E+00  0.00000000000E+00  0.81592870855E+03  0.33388439192E+04  0.32376131732E+04 0.  0.
        2    1    3    3  502    0  0.14340263933E+04  0.64445637678E+03  0.10185177252E+02  0.15722148250E+04  0.25500000920E-02 0.  1.
       -2    1    3    3    0  502 -0.14340263933E+04 -0.64445637678E+03  0.80574353130E+03  0.17666290942E+04  0.25500000920E-02 0. -1.
</event>
<event>
 5   0  0.1832626E-06  0.3251436E+04  0.7818609E-02  0.8175363E-01
        2   -1    0    0  501    0  0.00000000000E+00  0.00000000000E+00  0.21870920251E+04  0.21870920251E+04  0.25500000920E-02 0.  1.
       -2   -1    0    0    0  501  0.00000000000E+00  0.00000000000E+00 -0.12084355683E+04  0.12084355683E+04  0.25500000920E-02 0. -1.
    10030    2    1    2    0    0  0.00000000000E+00  0.00000000000E+00  0.97865645683E+03  0.33955275934E+04  0.32514364790E+04 0.  0.
        3    1    3    3  502    0 -0.15809916035E+04 -0.36976656547E+03  0.57479656082E+03  0.17223974164E+04  0.10100000352E+00 0.  1.
       -3    1    3    3    0  502  0.15809916035E+04  0.36976656547E+03  0.40385989601E+03  0.16731301770E+04  0.10100000352E+00 0. -1.
</event>
<event>
 5   0  0.5858859E-07  0.3393428E+04  0.7818609E-02  0.8139521E-01
        1   -1    0    0  501    0  0.00000000000E+00  0.00000000000E+00  0.95098520942E+03  0.95098520944E+03  0.50400001928E-02 0. -1.
       -1   -1    0    0    0  501  0.00000000000E+00  0.00000000000E+00 -0.30272164555E+04  0.30272164555E+04  0.50400001928E-02 0.  1.
    10030    2    1    2    0    0  0.00000000000E+00  0.00000000000E+00 -0.20762312461E+04  0.39782016649E+04  0.33934278097E+04 0.  0.
        3    1    3    3  502    0  0.75404809739E+03 -0.44093407262E+02  0.74301103938E+03  0.10595273364E+04  0.10100000352E+00 0. -1.
       -3    1    3    3    0  502 -0.75404809739E+03  0.44093407262E+02 -0.28192422855E+04  0.29186743285E+04  0.10100000352E+00 0.  1.
</event>
<event>
 5   0  0.5858859E-07  0.3128308E+04  0.7818609E-02  0.8208012E-01
        1   -1    0    0  501    0  0.00000000000E+00  0.00000000000E+00  0.73652658319E+03  0.73652658321E+03  0.50400001928E-02 0.  1.
       -1   -1    0    0    0  501  0.00000000000E+00  0.00000000000E+00 -0.33217769746E+04  0.33217769746E+04  0.50400001928E-02 0. -1.
    10030    2    1    2    0    0  0.00000000000E+00  0.00000000000E+00 -0.25852503914E+04  0.40583035578E+04  0.31283075586E+04 0.  0.
        3    1    3    3  502    0 -0.36719731982E+03 -0.14559006582E+04 -0.18612093330E+04  0.23913554294E+04  0.10100000352E+00 0. -1.
       -3    1    3    3    0  502  0.36719731982E+03  0.14559006582E+04 -0.72404105838E+03  0.16669481284E+04  0.10100000352E+00 0.  1.
</event>
<event>
 5   0  0.5858859E-07  0.3302227E+04  0.7818609E-02  0.8162329E-01
       -1   -1    0    0    0  501  0.00000000000E+00  0.00000000000E+00  0.23508647996E+04  0.23508647996E+04  0.50400001928E-02 0. -1.
        1   -1    0    0  501    0  0.00000000000E+00  0.00000000000E+00 -0.11596477882E+04  0.11596477882E+04  0.50400001928E-02 0.  1.
    10030    2    1    2    0    0  0.00000000000E+00  0.00000000000E+00  0.11912170114E+04  0.35105125877E+04  0.33022266216E+04 0.  0.
        3    1    3    3  502    0  0.10466743026E+04 -0.59962217497E+03 -0.60293483415E+03  0.13485563662E+04  0.10100000352E+00 0.  1.
       -3    1    3    3    0  502 -0.10466743026E+04  0.59962217497E+03  0.17941518456E+04  0.21619562215E+04  0.10100000352E+00 0. -1.
</event>
<event>
 5   0  0.5985183E-07  0.3318654E+04  0.7818609E-02  0.8158165E-01
        1   -1    0    0  501    0  0.00000000000E+00  0.00000000000E+00  0.19570848759E+04  0.19570848759E+04  0.50400001928E-02 0.  1.
       -1   -1    0    0    0  501  0.00000000000E+00  0.00000000000E+00 -0.14068712154E+04  0.14068712154E+04  0.50400001928E-02 0. -1.
    10030    2    1    2    0    0  0.00000000000E+00  0.00000000000E+00  0.55021366042E+03  0.33639560913E+04  0.33186541718E+04 0.  0.
        2    1    3    3  502    0  0.44452823335E+03  0.84227142554E+03  0.16524562955E+04  0.19072593723E+04  0.25500000920E-02 0.  1.
       -2    1    3    3    0  502 -0.44452823335E+03 -0.84227142554E+03 -0.11022426351E+04  0.14566967190E+04  0.25500000920E-02 0. -1.
</event>
<event>
 5   0  0.5988516E-07  0.3291473E+04  0.7818609E-02  0.8165069E-01
        1   -1    0    0  501    0  0.00000000000E+00  0.00000000000E+00  0.23704312230E+04  0.23704312230E+04  0.50400001928E-02 0.  1.
       -1   -1    0    0    0  501  0.00000000000E+00  0.00000000000E+00 -0.11425972100E+04  0.11425972100E+04  0.50400001928E-02 0. -1.
    10030    2    1    2    0    0  0.00000000000E+00  0.00000000000E+00  0.12278340130E+04  0.35130284330E+04  0.32914726806E+04 0.  0.
        4    1    3    3  502    0 -0.18544945617E+03 -0.96998295031E+03 -0.79120570923E+03  0.12654115978E+04  0.12699999809E+01 0. -1.
       -4    1    3    3    0  502  0.18544945617E+03  0.96998295031E+03  0.20190397223E+04  0.22476168352E+04  0.12699999809E+01 0.  1.
</event>
<event>
 5   0  0.5988516E-07  0.3281136E+04  0.7818609E-02  0.8167712E-01
       -1   -1    0    0    0  501  0.00000000000E+00  0.00000000000E+00  0.15718529723E+04  0.15718529723E+04  0.50400001928E-02 0.  1.
        1   -1    0    0  501    0  0.00000000000E+00  0.00000000000E+00 -0.17122865127E+04  0.17122865127E+04  0.50400001928E-02 0. -1.
    10030    2    1    2    0    0  0.00000000000E+00  0.00000000000E+00 -0.14043354042E+03  0.32841394850E+04  0.32811355622E+04 0.  0.
        4    1    3    3  502    0 -0.27478031934E+03 -0.61035783929E+03  0.14289595894E+04  0.15779632559E+04  0.12699999809E+01 0.  1.
       -4    1    3    3    0  502  0.27478031934E+03  0.61035783929E+03 -0.15693931298E+04  0.17061762291E+04  0.12699999809E+01 0. -1.
</event>
<event>
 5   0  0.1832626E-06  0.3265991E+04  0.7818609E-02  0.8171603E-01
       -2   -1    0    0    0  501  0.00000000000E+00  0.00000000000E+00  0.98317170016E+03  0.98317170017E+03  0.25500000920E-02 0. -1.
        2   -1    0    0  501    0  0.00000000000E+00  0.00000000000E+00 -0.27123187717E+04  0.27123187717E+04  0.25500000920E-02 0.  1.
    10030    2    1    2    0    0  0.00000000000E+00  0.00000000000E+00 -0.17291470715E+04  0.36954904719E+04  0.32659914624E+04 0.  0.
        3    1    3    3  502    0 -0.36062749980E+03  0.15884268187E+04 -0.99615511827E+03  0.19093132226E+04  0.10100000352E+00 0. -1.
       -3    1    3    3    0  502  0.36062749980E+03 -0.15884268187E+04 -0.73299195325E+03  0.17861772493E+04  0.10100000352E+00 0.  1.
</event>
<event>
 5   0  0.1696681E-06  0.3272664E+04  0.7818609E-02  0.8169886E-01
       -2   -1    0    0    0  501  0.00000000000E+00  0.00000000000E+00  0.12885872576E+04  0.12885872576E+04  0.25500000920E-02 0. -1.
        2   -1    0    0  501    0  0.00000000000E+00  0.00000000000E+00 -0.20779204235E+04  0.20779204235E+04  0.25500000920E-02 0.  1.
    10030    2    1    2    0    0  0.00000000000E+00  0.00000000000E+00 -0.78933316587E+03  0.33665076811E+04  0.32726636124E+04 0.  0.
        4    1    3    3  502    0 -0.12516324716E+04  0.96367176050E+03  0.44582591071E+02  0.15802646381E+04  0.12699999809E+01 0. -1.
       -4    1    3    3    0  502  0.12516324716E+04 -0.96367176050E+03 -0.83391575694E+03  0.17862430430E+04  0.12699999809E+01 0.  1.
</event>
<event>
 5   0  0.1696681E-06  0.3281240E+04  0.7818609E-02  0.8167685E-01
       -2   -1    0    0    0  501  0.00000000000E+00  0.00000000000E+00  0.13870411824E+04  0.13870411824E+04  0.25500000920E-02 0.  1.
        2   -1    0    0  501    0  0.00000000000E+00  0.00000000000E+00 -0.19405578627E+04  0.19405578627E+04  0.25500000920E-02 0. -1.
    10030    2    1    2    0    0  0.00000000000E+00  0.00000000000E+00 -0.55351668033E+03  0.33275990451E+04  0.32812398098E+04 0.  0.
        4    1    3    3  502    0  0.42486085776E+03  0.15685360790E+04 -0.48140648057E+02  0.16257709908E+04  0.12699999809E+01 0.  1.
       -4    1    3    3    0  502 -0.42486085776E+03 -0.15685360790E+04 -0.50537603227E+03  0.17018280543E+04  0.12699999809E+01 0. -1.
</event>
<event>
 5   0  0.6023446E-07  0.3311507E+04  0.7818609E-02  0.8159973E-01
        1   -1    0    0  501    0  0.00000000000E+00  0.00000000000E+00  0.12508139087E+04  0.12508139087E+04  0.50400001928E-02 0.  1.
       -1   -1    0    0    0  501  0.00000000000E+00  0.00000000000E+00 -0.21917891874E+04  0.21917891874E+04  0.50400001928E-02 0. -1.
    10030    2    1    2    0    0  0.00000000000E+00  0.00000000000E+00 -0.94097527872E+03  0.34426030961E+04  0.33115074517E+04 0.  0.
        5    1    3    3  502    0 -0.10373159841E+04  0.38314739015E+03  0.81064236419E+03  0.13711270933E+04  0.46999998093E+01 0.  1.
       -5    1    3    3    0  502  0.10373159841E+04 -0.38314739015E+03 -0.17516176429E+04  0.20714760028E+04  0.46999998093E+01 0. -1.
</event>
<event>
 5   0  0.5858859E-07  0.3300516E+04  0.7818609E-02  0.8162764E-01
       -1   -1    0    0    0  501  0.00000000000E+00  0.00000000000E+00  0.21274368232E+04  0.21274368232E+04  0.50400001928E-02 0. -1.
        1   -1    0    0  501    0  0.00000000000E+00  0.00000000000E+00 -0.12801095564E+04  0.12801095564E+04  0.50400001928E-02 0.  1.
    10030    2    1    2    0    0  0.00000000000E+00  0.00000000000E+00  0.84732726685E+03  0.34075463796E+04  0.33005164493E+04 0.  0.
        3    1    3    3  502    0 -0.12272403514E+03 -0.13404017801E+04 -0.56208318836E+03  0.14586554226E+04  0.10100000352E+00 0.  1.
       -3    1    3    3    0  502  0.12272403514E+03  0.13404017801E+04  0.14094104552E+04  0.19488909570E+04  0.10100000352E+00 0. -1.
</event>
<event>
 5   0  0.1696681E-06  0.2918756E+04  0.7818609E-02  0.8267319E-01
        2   -1    0    0  501    0  0.00000000000E+00  0.00000000000E+00  0.13424419400E+04  0.13424419400E+04  0.25500000920E-02 0.  1.
       -2   -1    0    0    0  501  0.00000000000E+00  0.00000000000E+00 -0.15865003887E+04  0.15865003887E+04  0.25500000920E-02 0. -1.
    10030    2    1    2    0    0  0.00000000000E+00  0.00000000000E+00 -0.24405844866E+03  0.29289423287E+04  0.29187563513E+04 0.  0.
        4    1    3    3  502    0 -0.69402541717E+03 -0.11408707168E+04  0.46868951616E+03  0.14152486522E+04  0.12699999809E+01 0.  1.
       -4    1    3    3    0  502  0.69402541717E+03  0.11408707168E+04 -0.71274796482E+03  0.15136936765E+04  0.12699999809E+01 0. -1.
</event>
<event>
 5   0  0.1743810E-06  0.3470673E+04  0.7818609E-02  0.8120775E-01
       -2   -1    0    0    0  501  0.00000000000E+00  0.00000000000E+00  0.12954867390E+04  0.12954867390E+04  0.25500000920E-02 0.  1.
        2   -1    0    0  501    0  0.00000000000E+00  0.00000000000E+00 -0.23245265910E+04  0.23245265910E+04  0.25500000920E-02 0. -1.
    10030    2    1    2    0    0  0.00000000000E+00  0.00000000000E+00 -0.10290398519E+04  0.36200133300E+04  0.34706733486E+04 0.  0.
        5    1    3    3  502    0  0.10275758898E+04  0.41018343093E+03  0.87986941721E+03  0.14136318253E+04  0.46999998093E+01 0.  1.
       -5    1    3    3    0  502 -0.10275758898E+04 -0.41018343093E+03 -0.19089092692E+04  0.22063815047E+04  0.46999998093E+01 0. -1.
</event>
<event>
 5   0  0.6023446E-07  0.3184377E+04  0.7818609E-02  0.8192955E-01
        1   -1    0    0  501    0  0.00000000000E+00  0.00000000000E+00  0.19195236236E+04  0.19195236236E+04  0.50400001928E-02 0.  1.
       -1   -1    0    0    0  501  0.00000000000E+00  0.00000000000E+00 -0.13206740198E+04  0.13206740198E+04  0.50400001928E-02 0. -1.
    10030    2    1    2    0    0  0.00000000000E+00  0.00000000000E+00  0.59884960384E+03  0.32401976434E+04  0.31843774777E+04 0.  0.
        5    1    3    3  502    0  0.68703530463E+03  0.10543575153E+04  0.12918971147E+04  0.18035264137E+04  0.46999998093E+01 0.  1.
       -5    1    3    3    0  502 -0.68703530463E+03 -0.10543575153E+04 -0.69304751086E+03  0.14366712297E+04  0.46999998093E+01 0. -1.
</event>
<event>
 5   0  0.5858859E-07  0.3304638E+04  0.7818609E-02  0.8161716E-01
       -1   -1    0    0    0  501  0.00000000000E+00  0.00000000000E+00  0.22607786728E+04  0.22607786728E+04  0.50400001928E-02 0.  1.
        1   -1    0    0  501    0  0.00000000000E+00  0.00000000000E+00 -0.12076181310E+04  0.12076181310E+04  0.50400001928E-02 0. -1.
    10030    2    1    2    0    0  0.00000000000E+00  0.00000000000E+00  0.10531605418E+04  0.34683968037E+04  0.33046375386E+04 0.  0.
        3    1    3    3  502    0 -0.74477207159E+03  0.47433171624E+03  0.19923840592E+04  0.21792820527E+04  0.10100000352E+00 0.  1.
       -3    1    3    3    0  502  0.74477207159E+03 -0.47433171624E+03 -0.93922351738E+03  0.12891147511E+04  0.10100000352E+00 0. -1.
</event>
<event>
 5   0  0.1784626E-06  0.3658734E+04  0.7818609E-02  0.8077169E-01
       -2   -1    0    0    0  501  0.00000000000E+00  0.00000000000E+00  0.13926040904E+04  0.13926040904E+04  0.25500000920E-02 0. -1.
        2   -1    0    0  501    0  0.00000000000E+00  0.00000000000E+00 -0.24031116102E+04  0.24031116102E+04  0.25500000920E-02 0.  1.
    10030    2    1    2    0    0  0.00000000000E+00  0.00000000000E+00 -0.10105075198E+04  0.37957157006E+04  0.36587336925E+04 0.  0.
        2    1    3    3  502    0 -0.66289643859E+03  0.16718713957E+04 -0.85244348090E+03  0.19902878033E+04  0.25500000920E-02 0. -1.
       -2    1    3    3    0  502  0.66289643859E+03 -0.16718713957E+04 -0.15806403893E+03  0.18054278973E+04  0.25500000920E-02 0.  1.
</event>
<event>
 5   0  0.1743810E-06  0.3303679E+04  0.7818609E-02  0.8161960E-01
       -2   -1    0    0    0  501  0.00000000000E+00  0.00000000000E+00  0.12859143472E+04  0.12859143472E+04  0.25500000920E-02 0.  1.
        2   -1    0    0  501    0  0.00000000000E+00  0.00000000000E+00 -0.21218932007E+04  0.21218932007E+04  0.25500000920E-02 0. -1.
    10030    2    1    2    0    0  0.00000000000E+00  0.00000000000E+00 -0.83597885346E+03  0.34078075479E+04  0.33036785014E+04 0.  0.
        5    1    3    3  502    0 -0.87821431665E+03 -0.91937113882E+03  0.66978509578E+03  0.14370587467E+04  0.46999998093E+01 0.  1.
       -5    1    3    3    0  502  0.87821431665E+03  0.91937113882E+03 -0.15057639492E+04  0.19707488013E+04  0.46999998093E+01 0. -1.
</event>
<event>
 5   0  0.1728937E-06  0.3331631E+04  0.7818609E-02  0.8154893E-01
        2   -1    0    0  501    0  0.00000000000E+00  0.00000000000E+00  0.11702435721E+04  0.11702435721E+04  0.25500000920E-02 0. -1.
       -2   -1    0    0    0  501  0.00000000000E+00  0.00000000000E+00 -0.23712514204E+04  0.23712514204E+04  0.25500000920E-02 0.  1.
    10030    2    1    2    0    0  0.00000000000E+00  0.00000000000E+00 -0.12010078484E+04  0.35414949925E+04  0.33316312716E+04 0.  0.
        1    1    3    3  502    0  0.13416626641E+04  0.82149110936E+03 -0.18245285203E+02  0.15732893051E+04  0.50400001928E-02 0. -1.
       -1    1    3    3    0  502 -0.13416626641E+04 -0.82149110936E+03 -0.11827625632E+04  0.19682056874E+04  0.50400001928E-02 0.  1.
</event>
<event>
 5   0  0.1696681E-06  0.3364157E+04  0.7818609E-02  0.8146760E-01
       -2   -1    0    0    0  501  0.00000000000E+00  0.00000000000E+00  0.16749742179E+04  0.16749742179E+04  0.25500000920E-02 0.  1.
        2   -1    0    0  501    0  0.00000000000E+00  0.00000000000E+00 -0.16892124626E+04  0.16892124626E+04  0.25500000920E-02 0. -1.
    10030    2    1    2    0    0  0.00000000000E+00  0.00000000000E+00 -0.14238244670E+02  0.33641866805E+04  0.33641565501E+04 0.  0.
        4    1    3    3  502    0  0.63369313498E+03 -0.12045874892E+04 -0.99545368056E+03  0.16862762678E+04  0.12699999809E+01 0. -1.
       -4    1    3    3    0  502 -0.63369313498E+03  0.12045874892E+04  0.98121543589E+03  0.16779104127E+04  0.12699999809E+01 0.  1.
</event>
<event>
 5   0  0.1743810E-06  0.3301418E+04  0.7818609E-02  0.8162535E-01
       -2   -1    0    0    0  501  0.00000000000E+00  0.00000000000E+00  0.15338783631E+04  0.15338783631E+04  0.25500000920E-02 0. -1.
        2   -1    0    0  501    0  0.00000000000E+00  0.00000000000E+00 -0.17764377566E+04  0.17764377566E+04  0.25500000920E-02 0.  1.
    10030    2    1    2    0    0  0.00000000000E+00  0.00000000000E+00 -0.24255939355E+03  0.33103161197E+04  0.33014175369E+04 0.  0.
        5    1    3    3  502    0 -0.88219182790E+03 -0.10167750289E+04  0.83666099882E+03  0.15849661187E+04  0.46999998093E+01 0. -1.
       -5    1    3    3    0  502  0.88219182790E+03  0.10167750289E+04 -0.10792203924E+04  0.17253500010E+04  0.46999998093E+01 0.  1.
</event>
<event>
 5   0  0.1832626E-06  0.3257467E+04  0.7818609E-02  0.8173803E-01
        2   -1    0    0  501    0  0.00000000000E+00  0.00000000000E+00  0.25863139638E+04  0.25863139638E+04  0.25500000920E-02 0. -1.
       -2   -1    0    0    0  501  0.00000000000E+00  0.00000000000E+00 -0.10256962756E+04  0.10256962756E+04  0.25500000920E-02 0.  1.
    10030    2    1    2    0    0  0.00000000000E+00  0.00000000000E+00  0.15606176882E+04  0.36120102393E+04  0.32574668687E+04 0.  0.
        3    1    3    3  502    0  0.15212250266E+04 -0.56263887721E+03  0.61552570501E+03  0.17348083443E+04  0.10100000352E+00 0. -1.
       -3    1    3    3    0  502 -0.15212250266E+04  0.56263887721E+03  0.94509198322E+03  0.18772018950E+04  0.10100000352E+00 0.  1.
</event>
<event>
 5   0  0.5988516E-07  0.3332193E+04  0.7818609E-02  0.8154752E-01
        1   -1    0    0  501    0  0.00000000000E+00  0.00000000000E+00  0.29590715889E+04  0.29590715889E+04  0.50400001928E-02 0. -1.
       -1   -1    0    0    0  501  0.00000000000E+00  0.00000000000E+00 -0.93809088051E+03  0.93809088052E+03  0.50400001928E-02 0.  1.
    10030    2    1    2    0    0  0.00000000000E+00  0.00000000000E+00  0.20209807084E+04  0.38971624694E+04  0.33321933151E+04 0.  0.
        4    1    3    3  502    0 -0.36956469205E+03 -0.69003087291E+03  0.27306241245E+04  0.28406038775E+04  0.12699999809E+01 0. -1.
       -4    1    3    3    0  502  0.36956469205E+03  0.69003087291E+03 -0.70964341607E+03  0.10565585919E+04  0.12699999809E+01 0.  1.
</event>
<event>
 5   0  0.1743810E-06  0.3345404E+04  0.7818609E-02  0.8151437E-01
        2   -1    0    0  501    0  0.00000000000E+00  0.00000000000E+00  0.17076262164E+04  0.17076262164E+04  0.25500000920E-02 0.  1.
       -2   -1    0    0    0  501  0.00000000000E+00  0.00000000000E+00 -0.16384924531E+04  0.16384924531E+04  0.25500000920E-02 0. -1.
    10030    2    1    2    0    0  0.00000000000E+00  0.00000000000E+00  0.69133763301E+02  0.33461186694E+04  0.33454044109E+04 0.  0.
        5    1    3    3  502    0  0.83018063976E+03  0.28880195221E+03  0.14580025250E+04  0.17024687707E+04  0.46999998093E+01 0.  1.
       -5    1    3    3    0  502 -0.83018063976E+03 -0.28880195221E+03 -0.13888687617E+04  0.16436498987E+04  0.46999998093E+01 0. -1.
</event>
<event>
 5   0  0.6023446E-07  0.3350904E+04  0.7818609E-02  0.8150062E-01
       -1   -1    0    0    0  501  0.00000000000E+00  0.00000000000E+00  0.18396198757E+04  0.18396198757E+04  0.50400001928E-02 0. -1.
        1   -1    0    0  501    0  0.00000000000E+00  0.00000000000E+00 -0.15259342061E+04  0.15259342061E+04  0.50400001928E-02 0.  1.
    10030    2    1    2    0    0  0.00000000000E+00  0.00000000000E+00  0.31368566963E+03  0.33655540819E+04  0.33509036958E+04 0.  0.
        5    1    3    3  502    0 -0.12497632169E+04 -0.10574653876E+04  0.51473720533E+03  0.17161345008E+04  0.46999998093E+01 0. -1.
       -5    1    3    3    0  502  0.12497632169E+04  0.10574653876E+04 -0.20105153570E+03  0.16494195810E+04  0.46999998093E+01 0.  1.
</event>
<event>
 5   0  0.6023446E-07  0.3174178E+04  0.7818609E-02  0.8195670E-01
       -1   -1    0    0    0  501  0.00000000000E+00  0.00000000000E+00  0.18253603532E+04  0.18253603532E+04  0.50400001928E-02 0.  1.
        1   -1    0    0  501    0  0.00000000000E+00  0.00000000000E+00 -0.13799204129E+04  0.13799204129E+04  0.50400001928E-02 0. -1.
    10030    2    1    2    0    0  0.00000000000E+00  0.00000000000E+00  0.44543994036E+03  0.32052807661E+04  0.31741783266E+04 0.  0.
        5    1    3    3  502    0  0.79692686550E+02 -0.14896226555E+04 -0.32434799085E+03  0.15266139948E+04  0.46999998093E+01 0. -1.
       -5    1    3    3    0  502 -0.79692686550E+02  0.14896226555E+04  0.76978793121E+03  0.16786667713E+04  0.46999998093E+01 0.  1.
</event>
<event>
 5   0  0.6023446E-07  0.3367755E+04  0.7818609E-02  0.8145866E-01
       -1   -1    0    0    0  501  0.00000000000E+00  0.00000000000E+00  0.12861367590E+04  0.12861367590E+04  0.50400001928E-02 0.  1.
        1   -1    0    0  501    0  0.00000000000E+00  0.00000000000E+00 -0.22046207174E+04  0.22046207174E+04  0.50400001928E-02 0. -1.
    10030    2    1    2    0    0  0.00000000000E+00  0.00000000000E+00 -0.91848395844E+03  0.34907574764E+04  0.33677551837E+04 0.  0.
        5    1    3    3  502    0  0.36137239465E+03 -0.10073943384E+03  0.12422622073E+04  0.12976809789E+04  0.46999998093E+01 0.  1.
       -5    1    3    3    0  502 -0.36137239465E+03  0.10073943384E+03 -0.21607461658E+04  0.21930764975E+04  0.46999998093E+01 0. -1.
</event>
<event>
 5   0  0.6085351E-07  0.3305473E+04  0.7818609E-02  0.8161504E-01
        1   -1    0    0  501    0  0.00000000000E+00  0.00000000000E+00  0.20396534382E+04  0.20396534382E+04  0.50400001928E-02 0.  1.
       -1   -1    0    0    0  501  0.00000000000E+00  0.00000000000E+00 -0.13392165765E+04  0.13392165765E+04  0.50400001928E-02 0. -1.
    10030    2    1    2    0    0  0.00000000000E+00  0.00000000000E+00  0.70043686176E+03  0.33788700147E+04  0.33054728526E+04 0.  0.
        1    1    3    3  502    0 -0.15962965912E+04 -0.31212939870E+03  0.50536092002E+02  0.16273111150E+04  0.50400001928E-02 0. -1.
       -1    1    3    3    0  502  0.15962965912E+04  0.31212939870E+03  0.64990076975E+03  0.17515588997E+04  0.50400001928E-02 0.  1.
</event>
<event>
 5   0  0.1832626E-06  0.3311617E+04  0.7818609E-02  0.8159946E-01
       -2   -1    0    0    0  501  0.00000000000E+00  0.00000000000E+00  0.17150129401E+04  0.17150129401E+04  0.25500000920E-02 0.  1.
        2   -1    0    0  501    0  0.00000000000E+00  0.00000000000E+00 -0.15986478450E+04  0.15986478450E+04  0.25500000920E-02 0. -1.
    10030    2    1    2    0    0  0.00000000000E+00  0.00000000000E+00  0.11636509512E+03  0.33136607851E+04  0.33116169711E+04 0.  0.
        3    1    3    3  502    0 -0.13919587640E+04 -0.54684526882E+03  0.76933404362E+03  0.16818037428E+04  0.10100000352E+00 0.  1.
       -3    1    3    3    0  502  0.13919587640E+04  0.54684526882E+03 -0.65296894850E+03  0.16318570423E+04  0.10100000352E+00 0. -1.
</event>
<event>
 5   0  0.5685000E-07  0.3248071E+04  0.7818609E-02  0.8176236E-01
       -4   -1    0    0    0  501  0.00000000000E+00  0.00000000000E+00  0.13363558867E+04  0.13363564902E+04  0.12699999809E+01 0.  1.
        4   -1    0    0  501    0  0.00000000000E+00  0.00000000000E+00 -0.19736430666E+04  0.19736434752E+04  0.12699999809E+01 0. -1.
    10030    2    1    2    0    0  0.00000000000E+00  0.00000000000E+00 -0.63728717990E+03  0.33099999654E+04  0.32480709385E+04 0.  0.
        2    1    3    3  502    0 -0.16498814411E+02  0.51524638451E+03 -0.18880522221E+04  0.19571643367E+04  0.25500000920E-02 0. -1.
       -2    1    3    3    0  502  0.16498814411E+02 -0.51524638451E+03  0.12507650422E+04  0.13528356287E+04  0.25500000920E-02 0.  1.
</event>
<event>
 5   0  0.5988516E-07  0.2743093E+04  0.7818609E-02  0.8321157E-01
        1   -1    0    0  501    0  0.00000000000E+00  0.00000000000E+00  0.28008307567E+04  0.28008307567E+04  0.50400001928E-02 0.  1.
       -1   -1    0    0    0  501  0.00000000000E+00  0.00000000000E+00 -0.67163623381E+03  0.67163623383E+03  0.50400001928E-02 0. -1.
    10030    2    1    2    0    0  0.00000000000E+00  0.00000000000E+00  0.21291945229E+04  0.34724669906E+04  0.27430927225E+04 0.  0.
        4    1    3    3  502    0  0.12680947898E+04  0.70100754717E+02  0.17201295181E+04  0.21381827994E+04  0.12699999809E+01 0.  1.
       -4    1    3    3    0  502 -0.12680947898E+04 -0.70100754717E+02  0.40906500478E+03  0.13342841911E+04  0.12699999809E+01 0. -1.
</event>
<event>
 5   0  0.1696681E-06  0.3322070E+04  0.7818609E-02  0.8157302E-01
        2   -1    0    0  501    0  0.00000000000E+00  0.00000000000E+00  0.24947473052E+04  0.24947473052E+04  0.25500000920E-02 0. -1.
       -2   -1    0    0    0  501  0.00000000000E+00  0.00000000000E+00 -0.11059384665E+04  0.11059384665E+04  0.25500000920E-02 0.  1.
    10030    2    1    2    0    0  0.00000000000E+00  0.00000000000E+00  0.13888088387E+04  0.36006857718E+04  0.33220698422E+04 0.  0.
        4    1    3    3  502    0 -0.75534880384E+03 -0.16991258206E+03 -0.89840736493E+03  0.11859846151E+04  0.12699999809E+01 0.  1.
       -4    1    3    3    0  502  0.75534880384E+03  0.16991258206E+03  0.22872162036E+04  0.24147011567E+04  0.12699999809E+01 0. -1.
</event>
<event>
 5   0  0.1784626E-06  0.3230466E+04  0.7818609E-02  0.8180817E-01
        2   -1    0    0  501    0  0.00000000000E+00  0.00000000000E+00  0.22572228131E+04  0.22572228131E+04  0.25500000920E-02 0. -1.
       -2   -1    0    0    0  501  0.00000000000E+00  0.00000000000E+00 -0.11558353642E+04  0.11558353642E+04  0.25500000920E-02 0.  1.
    10030    2    1    2    0    0  0.00000000000E+00  0.00000000000E+00  0.11013874488E+04  0.34130581773E+04  0.32304661907E+04 0.  0.
        2    1    3    3  502    0 -0.52481232919E+03  0.20806230745E+03 -0.10482047550E+04  0.11905675592E+04  0.25500000920E-02 0.  1.
       -2    1    3    3    0  502  0.52481232919E+03 -0.20806230745E+03  0.21495922038E+04  0.22224906181E+04  0.25500000920E-02 0. -1.
</event>
<event>
 5   0  0.6085351E-07  0.3296470E+04  0.7818609E-02  0.8163794E-01
       -1   -1    0    0    0  501  0.00000000000E+00  0.00000000000E+00  0.11256610469E+04  0.11256610470E+04  0.50400001928E-02 0.  1.
        1   -1    0    0  501    0  0.00000000000E+00  0.00000000000E+00 -0.24134077629E+04  0.24134077630E+04  0.50400001928E-02 0. -1.
    10030    2    1    2    0    0  0.00000000000E+00  0.00000000000E+00 -0.12877467160E+04  0.35390688099E+04  0.32964702997E+04 0.  0.
        1    1    3    3  502    0  0.39494038790E+03 -0.15946840734E+04 -0.78664071736E+03  0.18214825891E+04  0.50400001928E-02 0. -1.
       -1    1    3    3    0  502 -0.39494038790E+03  0.15946840734E+04 -0.50110599865E+03  0.17175862208E+04  0.50400001928E-02 0.  1.
</event>
<event>
 5   0  0.1743810E-06  0.3306494E+04  0.7818609E-02  0.8161245E-01
       -2   -1    0    0    0  501  0.00000000000E+00  0.00000000000E+00  0.10062072548E+04  0.10062072548E+04  0.25500000920E-02 0. -1.
        2   -1    0    0  501    0  0.00000000000E+00  0.00000000000E+00 -0.27163650810E+04  0.27163650810E+04  0.25500000920E-02 0.  1.
    10030    2    1    2    0    0  0.00000000000E+00  0.00000000000E+00 -0.17101578262E+04  0.37225723358E+04  0.33064943678E+04 0.  0.
        5    1    3    3  502    0  0.37153485543E+03 -0.64462191737E+03 -0.25172151079E+04  0.26248751503E+04  0.46999998093E+01 0.  1.
       -5    1    3    3    0  502 -0.37153485543E+03  0.64462191737E+03  0.80705728167E+03  0.10976971855E+04  0.46999998093E+01 0. -1.
</event>
<event>
 5   0  0.5858859E-07  0.3299127E+04  0.7818609E-02  0.8163118E-01
        1   -1    0    0  501    0  0.00000000000E+00  0.00000000000E+00  0.14877834836E+04  0.14877834836E+04  0.50400001928E-02 0. -1.
       -1   -1    0    0    0  501  0.00000000000E+00  0.00000000000E+00 -0.18289349681E+04  0.18289349681E+04  0.50400001928E-02 0.  1.
    10030    2    1    2    0    0  0.00000000000E+00  0.00000000000E+00 -0.34115148452E+03  0.33167184518E+04  0.32991266955E+04 0.  0.
        3    1    3    3  502    0 -0.41750851568E+02  0.47349591407E+03  0.14174412040E+04  0.14950187595E+04  0.10100000352E+00 0. -1.
       -3    1    3    3    0  502  0.41750851568E+02 -0.47349591407E+03 -0.17585926886E+04  0.18216996922E+04  0.10100000352E+00 0.  1.
</event>
<event>
 5   0  0.1696681E-06  0.3311764E+04  0.7818609E-02  0.8159908E-01
        2   -1    0    0  501    0  0.00000000000E+00  0.00000000000E+00  0.13652493383E+04  0.13652493383E+04  0.25500000920E-02 0.  1.
       -2   -1    0    0    0  501  0.00000000000E+00  0.00000000000E+00 -0.20083845523E+04  0.20083845523E+04  0.25500000920E-02 0. -1.
    10030    2    1    2    0    0  0.00000000000E+00  0.00000000000E+00 -0.64313521403E+03  0.33736338906E+04  0.33117642918E+04 0.  0.
        4    1    3    3  502    0 -0.14135895194E+04  0.39218111028E+02  0.55601989126E+03  0.15195173978E+04  0.12699999809E+01 0.  1.
       -4    1    3    3    0  502  0.14135895194E+04 -0.39218111028E+02 -0.11991551053E+04  0.18541164929E+04  0.12699999809E+01 0. -1.
</event>
<event>
 5   0  0.5685000E-07  0.3282248E+04  0.7818609E-02  0.8167427E-01
        4   -1    0    0  501    0  0.00000000000E+00  0.00000000000E+00  0.17208876254E+04  0.17208880941E+04  0.12699999809E+01 0. -1.
       -4   -1    0    0    0  501  0.00000000000E+00  0.00000000000E+00 -0.15650561025E+04  0.15650566178E+04  0.12699999809E+01 0.  1.
    10030    2    1    2    0    0  0.00000000000E+00  0.00000000000E+00  0.15583152294E+03  0.32859447118E+04  0.32822475814E+04 0.  0.
        2    1    3    3  502    0 -0.34990039983E+03 -0.79001100616E+03  0.14747434923E+04  0.17092150385E+04  0.25500000920E-02 0. -1.
       -2    1    3    3    0  502  0.34990039983E+03  0.79001100616E+03 -0.13189119694E+04  0.15767296733E+04  0.25500000920E-02 0.  1.
</event>
<event>
 5   0  0.6085351E-07  0.3302566E+04  0.7818609E-02  0.8162243E-01
       -1   -1    0    0    0  501  0.00000000000E+00  0.00000000000E+00  0.21195173473E+04  0.21195173473E+04  0.50400001928E-02 0.  1.
        1   -1    0    0  501    0  0.00000000000E+00  0.00000000000E+00 -0.12864892720E+04  0.12864892720E+04  0.50400001928E-02 0. -1.
    10030    2    1    2    0    0  0.00000000000E+00  0.00000000000E+00  0.83302807524E+03  0.34060066193E+04  0.33025664742E+04 0.  0.
        1    1    3    3  502    0  0.36717021960E+03  0.41383394944E+03 -0.11880651671E+04  0.13105614633E+04  0.50400001928E-02 0. -1.
       -1    1    3    3    0  502 -0.36717021960E+03 -0.41383394944E+03  0.20210932423E+04  0.20954451560E+04  0.50400001928E-02 0.  1.
</event>
<event>
 5   0  0.6085351E-07  0.3320718E+04  0.7818609E-02  0.8157644E-01
       -1   -1    0    0    0  501  0.00000000000E+00  0.00000000000E+00  0.16094691375E+04  0.16094691375E+04  0.50400001928E-02 0.  1.
        1   -1    0    0  501    0  0.00000000000E+00  0.00000000000E+00 -0.17128582799E+04  0.17128582799E+04  0.50400001928E-02 0. -1.
    10030    2    1    2    0    0  0.00000000000E+00  0.00000000000E+00 -0.10338914239E+03  0.33223274174E+04  0.33207183190E+04 0.  0.
        1    1    3    3  502    0  0.65330528694E+03 -0.31248262173E+03  0.14431309355E+04  0.16146454979E+04  0.50400001928E-02 0.  1.
       -1    1    3    3    0  502 -0.65330528694E+03  0.31248262173E+03 -0.15465200779E+04  0.17076819195E+04  0.50400001928E-02 0. -1.
</event>
<event>
 5   0  0.5858859E-07  0.3259331E+04  0.7818609E-02  0.8173321E-01
       -1   -1    0    0    0  501  0.00000000000E+00  0.00000000000E+00  0.15637228270E+04  0.15637228270E+04  0.50400001928E-02 0.  1.
        1   -1    0    0  501    0  0.00000000000E+00  0.00000000000E+00 -0.16983888229E+04  0.16983888229E+04  0.50400001928E-02 0. -1.
    10030    2    1    2    0    0  0.00000000000E+00  0.00000000000E+00 -0.13466599589E+03  0.32621116499E+04  0.32593308341E+04 0.  0.
        3    1    3    3  502    0 -0.44426858002E+03  0.15290866998E+04  0.27984716817E+03  0.16167235863E+04  0.10100000352E+00 0. -1.
       -3    1    3    3    0  502  0.44426858002E+03 -0.15290866998E+04 -0.41451316406E+03  0.16453880637E+04  0.10100000352E+00 0.  1.
</event>
<event>
 5   0  0.1696681E-06  0.3302942E+04  0.7818609E-02  0.8162147E-01
       -2   -1    0    0    0  501  0.00000000000E+00  0.00000000000E+00  0.13015191520E+04  0.13015191520E+04  0.25500000920E-02 0. -1.
        2   -1    0    0  501    0  0.00000000000E+00  0.00000000000E+00 -0.20955181990E+04  0.20955181990E+04  0.25500000920E-02 0.  1.
    10030    2    1    2    0    0  0.00000000000E+00  0.00000000000E+00 -0.79399904701E+03  0.33970373510E+04  0.33029423667E+04 0.  0.
        4    1    3    3  502    0  0.15040968854E+04 -0.55104887075E+03 -0.81018199198E+03  0.17950929702E+04  0.12699999809E+01 0. -1.
       -4    1    3    3    0  502 -0.15040968854E+04  0.55104887075E+03  0.16182944967E+02  0.16019443808E+04  0.12699999809E+01 0.  1.
</event>
<event>
 5   0  0.1728937E-06  0.3316537E+04  0.7818609E-02  0.8158700E-01
        2   -1    0    0  501    0  0.00000000000E+00  0.00000000000E+00  0.13958484165E+04  0.13958484165E+04  0.25500000920E-02 0.  1.
       -2   -1    0    0    0  501  0.00000000000E+00  0.00000000000E+00 -0.19700234612E+04  0.19700234612E+04  0.25500000920E-02 0. -1.
    10030    2    1    2    0    0  0.00000000000E+00  0.00000000000E+00 -0.57417504476E+03  0.33658718777E+04  0.33165368255E+04 0.  0.
        1    1    3    3  502    0  0.15517173387E+04 -0.19654629057E+03  0.27192094591E+03  0.15875761854E+04  0.50400001928E-02 0.  1.
       -1    1    3    3    0  502 -0.15517173387E+04  0.19654629057E+03 -0.84609599067E+03  0.17782956923E+04  0.50400001928E-02 0. -1.
</event>
<event>
 5   0  0.5685000E-07  0.3295836E+04  0.7818609E-02  0.8163956E-01
        4   -1    0    0  501    0  0.00000000000E+00  0.00000000000E+00  0.17614555777E+04  0.17614560355E+04  0.12699999809E+01 0.  1.
       -4   -1    0    0    0  501  0.00000000000E+00  0.00000000000E+00 -0.15416980884E+04  0.15416986115E+04  0.12699999809E+01 0. -1.
    10030    2    1    2    0    0  0.00000000000E+00  0.00000000000E+00  0.21975748930E+03  0.33031546470E+04  0.32958363533E+04 0.  0.
        4    1    3    3  502    0 -0.15371783047E+04  0.56908663997E+03  0.28012635688E+03  0.16629038255E+04  0.12699999809E+01 0. -1.
       -4    1    3    3    0  502  0.15371783047E+04 -0.56908663997E+03 -0.60368867581E+02  0.16402508215E+04  0.12699999809E+01 0.  1.
</event>
<event>
 5   0  0.5985183E-07  0.3153831E+04  0.7818609E-02  0.8201118E-01
       -1   -1    0    0    0  501  0.00000000000E+00  0.00000000000E+00  0.16496135287E+04  0.16496135287E+04  0.50400001928E-02 0. -1.
        1   -1    0    0  501    0  0.00000000000E+00  0.00000000000E+00 -0.15074215568E+04  0.15074215568E+04  0.50400001928E-02 0.  1.
    10030    2    1    2    0    0  0.00000000000E+00  0.00000000000E+00  0.14219197190E+03  0.31570350856E+04  0.31538313168E+04 0.  0.
        2    1    3    3  502    0  0.63769486900E+02  0.65946752520E+03 -0.13613359973E+04  0.15140012093E+04  0.25500000920E-02 0.  1.
       -2    1    3    3    0  502 -0.63769486900E+02 -0.65946752520E+03  0.15035279692E+04  0.16430338762E+04  0.25500000920E-02 0. -1.
</event>
<event>
 5   0  0.5685000E-07  0.3127406E+04  0.7818609E-02  0.8208257E-01
        3   -1    0    0  501    0  0.00000000000E+00  0.00000000000E+00  0.20805345256E+04  0.20805345281E+04  0.10100000352E+00 0.  1.
       -3   -1    0    0    0  501  0.00000000000E+00  0.00000000000E+00 -0.11752590376E+04  0.11752590420E+04  0.10100000352E+00 0. -1.
    10030    2    1    2    0    0  0.00000000000E+00  0.00000000000E+00  0.90527548799E+03  0.32557935700E+04  0.31274059636E+04 0.  0.
        4    1    3    3  502    0 -0.52351472270E+03  0.91248910814E+03  0.16570509839E+04  0.19627846580E+04  0.12699999809E+01 0.  1.
       -4    1    3    3    0  502  0.52351472270E+03 -0.91248910814E+03 -0.75177549595E+03  0.12930089120E+04  0.12699999809E+01 0. -1.
</event>
<event>
 5   0  0.1696681E-06  0.3258820E+04  0.7818609E-02  0.8173454E-01
        2   -1    0    0  501    0  0.00000000000E+00  0.00000000000E+00  0.21273899825E+04  0.21273899825E+04  0.25500000920E-02 0. -1.
       -2   -1    0    0    0  501  0.00000000000E+00  0.00000000000E+00 -0.12479969430E+04  0.12479969430E+04  0.25500000920E-02 0.  1.
    10030    2    1    2    0    0  0.00000000000E+00  0.00000000000E+00  0.87939303950E+03  0.33753869255E+04  0.32588195376E+04 0.  0.
        4    1    3    3  502    0  0.16094676433E+04  0.55016937153E+02  0.18270530049E+03  0.16207392751E+04  0.12699999809E+01 0.  1.
       -4    1    3    3    0  502 -0.16094676433E+04 -0.55016937153E+02  0.69668773901E+03  0.17546476503E+04  0.12699999809E+01 0. -1.
</event>
<event>
 5   0  0.5858859E-07  0.3293090E+04  0.7818609E-02  0.8164656E-01
       -1   -1    0    0    0  501  0.00000000000E+00  0.00000000000E+00  0.13234383214E+04  0.13234383214E+04  0.50400001928E-02 0. -1.
        1   -1    0    0  501    0  0.00000000000E+00  0.00000000000E+00 -0.20485355082E+04  0.20485355082E+04  0.50400001928E-02 0.  1.
    10030    2    1    2    0    0  0.00000000000E+00  0.00000000000E+00 -0.72509718680E+03  0.33719738297E+04  0.32930899741E+04 0.  0.
        3    1    3    3  502    0 -0.57422715386E+02  0.10300062601E+03 -0.20442058554E+04  0.20476044752E+04  0.10100000352E+00 0.  1.
       -3    1    3    3    0  502  0.57422715386E+02 -0.10300062601E+03  0.13191086686E+04  0.13243693545E+04  0.10100000352E+00 0. -1.
</event>
<event>
 5   0  0.1696681E-06  0.3259172E+04  0.7818609E-02  0.8173362E-01
       -2   -1    0    0    0  501  0.00000000000E+00  0.00000000000E+00  0.17038486576E+04  0.17038486576E+04  0.25500000920E-02 0.  1.
        2   -1    0    0  501    0  0.00000000000E+00  0.00000000000E+00 -0.15585602937E+04  0.15585602937E+04  0.25500000920E-02 0. -1.
    10030    2    1    2    0    0  0.00000000000E+00  0.00000000000E+00  0.14528836390E+03  0.32624089512E+04  0.32591722042E+04 0.  0.
        4    1    3    3  502    0 -0.39099785265E+03 -0.15286449385E+04  0.48037484293E+03  0.16493623833E+04  0.12699999809E+01 0.  1.
       -4    1    3    3    0  502  0.39099785265E+03  0.15286449385E+04 -0.33508647902E+03  0.16130465679E+04  0.12699999809E+01 0. -1.
</event>
<event>
 5   0  0.5858859E-07  0.3323588E+04  0.7818609E-02  0.8156919E-01
       -1   -1    0    0    0  501  0.00000000000E+00  0.00000000000E+00  0.12153604657E+04  0.12153604657E+04  0.50400001928E-02 0.  1.
        1   -1    0    0  501    0  0.00000000000E+00  0.00000000000E+00 -0.22722138088E+04  0.22722138088E+04  0.50400001928E-02 0. -1.
    10030    2    1    2    0    0  0.00000000000E+00  0.00000000000E+00 -0.10568533431E+04  0.34875742746E+04  0.33235877199E+04 0.  0.
        3    1    3    3  502    0  0.34258643402E+03  0.81377847681E+03 -0.20057091191E+04  0.21914538450E+04  0.10100000352E+00 0. -1.
       -3    1    3    3    0  502 -0.34258643402E+03 -0.81377847681E+03  0.94885577601E+03  0.12961204296E+04  0.10100000352E+00 0.  1.
</event>
<event>
 5   0  0.5858859E-07  0.3298037E+04  0.7818609E-02  0.8163395E-01
       -1   -1    0    0    0  501  0.00000000000E+00  0.00000000000E+00  0.12016185536E+04  0.12016185537E+04  0.50400001928E-02 0.  1.
        1   -1    0    0  501    0  0.00000000000E+00  0.00000000000E+00 -0.22629995510E+04  0.22629995510E+04  0.50400001928E-02 0. -1.
    10030    2    1    2    0    0  0.00000000000E+00  0.00000000000E+00 -0.10613809973E+04  0.34646181046E+04  0.32980371419E+04 0.  0.
        3    1    3    3  502    0 -0.12669735311E+04  0.10553637399E+04 -0.51415756316E+03  0.17272442102E+04  0.10100000352E+00 0. -1.
       -3    1    3    3    0  502  0.12669735311E+04 -0.10553637399E+04 -0.54722343416E+03  0.17373738944E+04  0.10100000352E+00 0.  1.
</event>
<event>
 5   0  0.1696681E-06  0.3293983E+04  0.7818609E-02  0.8164428E-01
        2   -1    0    0  501    0  0.00000000000E+00  0.00000000000E+00  0.30304681859E+04  0.30304681859E+04  0.25500000920E-02 0. -1.
       -2   -1    0    0    0  501  0.00000000000E+00  0.00000000000E+00 -0.89510302331E+03  0.89510302331E+03  0.25500000920E-02 0.  1.
    10030    2    1    2    0    0  0.00000000000E+00  0.00000000000E+00  0.21353651626E+04  0.39255712092E+04  0.32939831422E+04 0.  0.
        4    1    3    3  502    0 -0.13902703623E+04 -0.71860062712E+03  0.45612015604E+03  0.16301183243E+04  0.12699999809E+01 0.  1.
       -4    1    3    3    0  502  0.13902703623E+04  0.71860062712E+03  0.16792450066E+04  0.22954528849E+04  0.12699999809E+01 0. -1.
</event>
<event>
 5   0  0.1728937E-06  0.3337414E+04  0.7818609E-02  0.8153440E-01
       -2   -1    0    0    0  501  0.00000000000E+00  0.00000000000E+00  0.11998429864E+04  0.11998429864E+04  0.25500000920E-02 0. -1.
        2   -1    0    0  501    0  0.00000000000E+00  0.00000000000E+00 -0.23207891160E+04  0.23207891160E+04  0.25500000920E-02 0.  1.
    10030    2    1    2    0    0  0.00000000000E+00  0.00000000000E+00 -0.11209461296E+04  0.35206321024E+04  0.33374136955E+04 0.  0.
        1    1    3    3  502    0  0.16309992674E+04 -0.32228573370E+03 -0.40922904586E+03  0.17121609493E+04  0.50400001928E-02 0.  1.
       -1    1    3    3    0  502 -0.16309992674E+04  0.32228573370E+03 -0.71171708379E+03  0.18084711531E+04  0.50400001928E-02 0. -1.
</event>
<event>
 5   0  0.1696681E-06  0.3281114E+04  0.7818609E-02  0.8167718E-01
        2   -1    0    0  501    0  0.00000000000E+00  0.00000000000E+00  0.21084515409E+04  0.21084515409E+04  0.25500000920E-02 0. -1.
       -2   -1    0    0    0  501  0.00000000000E+00  0.00000000000E+00 -0.12764949777E+04  0.12764949777E+04  0.25500000920E-02 0.  1.
    10030    2    1    2    0    0  0.00000000000E+00  0.00000000000E+00  0.83195656314E+03  0.33849465186E+04  0.32811143245E+04 0.  0.
        4    1    3    3  502    0  0.10917532558E+04 -0.10124989111E+04 -0.29454533096E+03  0.15178398406E+04  0.12699999809E+01 0.  1.
       -4    1    3    3    0  502 -0.10917532558E+04  0.10124989111E+04  0.11265018941E+04  0.18671066780E+04  0.12699999809E+01 0. -1.
</event>
<event>
 5   0  0.1696681E-06  0.3307017E+04  0.7818609E-02  0.8161112E-01
        2   -1    0    0  501    0  0.00000000000E+00  0.00000000000E+00  0.20523110053E+04  0.20523110053E+04  0.25500000920E-02 0. -1.
       -2   -1    0    0    0  501  0.00000000000E+00  0.00000000000E+00 -0.13322010412E+04  0.13322010412E+04  0.25500000920E-02 0.  1.
    10030    2    1    2    0    0  0.00000000000E+00  0.00000000000E+00  0.72010996405E+03  0.33845120465E+04  0.33070173016E+04 0.  0.
        4    1    3    3  502    0  0.82437520278E+03  0.67045060310E+03 -0.93651470935E+03  0.14163897415E+04  0.12699999809E+01 0.  1.
       -4    1    3    3    0  502 -0.82437520278E+03 -0.67045060310E+03  0.16566246734E+04  0.19681223050E+04  0.12699999809E+01 0. -1.
</event>
<event>
 5   0  0.6085351E-07  0.3301258E+04  0.7818609E-02  0.8162575E-01
        1   -1    0    0  501    0  0.00000000000E+00  0.00000000000E+00  0.25523435054E+04  0.25523435054E+04  0.50400001928E-02 0. -1.
       -1   -1    0    0    0  501  0.00000000000E+00  0.00000000000E+00 -0.10674802999E+04  0.10674802999E+04  0.50400001928E-02 0.  1.
    10030    2    1    2    0    0  0.00000000000E+00  0.00000000000E+00  0.14848632055E+04  0.36198238053E+04  0.33012581908E+04 0.  0.
        1    1    3    3  502    0 -0.13424326132E+04 -0.89428679029E+03  0.35834057568E+03  0.16523565452E+04  0.50400001928E-02 0. -1.
       -1    1    3    3    0  502  0.13424326132E+04  0.89428679029E+03  0.11265226298E+04  0.19674672601E+04  0.50400001928E-02 0.  1.
</event>
<event>
 5   0  0.5858859E-07  0.3263131E+04  0.7818609E-02  0.8172341E-01
       -1   -1    0    0    0  501  0.00000000000E+00  0.00000000000E+00  0.32851186364E+04  0.32851186364E+04  0.50400001928E-02 0. -1.
        1   -1    0    0  501    0  0.00000000000E+00  0.00000000000E+00 -0.81032260487E+03  0.81032260489E+03  0.50400001928E-02 0.  1.
    10030    2    1    2    0    0  0.00000000000E+00  0.00000000000E+00  0.24747960315E+04  0.40954412413E+04  0.32631309448E+04 0.  0.
        3    1    3    3  502    0 -0.77463912814E+03 -0.87139473950E+03  0.26698287143E+04  0.29133108219E+04  0.10100000352E+00 0. -1.
       -3    1    3    3    0  502  0.77463912814E+03  0.87139473950E+03 -0.19503268282E+03  0.11821304194E+04  0.10100000352E+00 0.  1.
</event>
<event>
 5   0  0.1784626E-06  0.3214710E+04  0.7818609E-02  0.8184943E-01
       -2   -1    0    0    0  501  0.00000000000E+00  0.00000000000E+00  0.13259144944E+04  0.13259144944E+04  0.25500000920E-02 0. -1.
        2   -1    0    0  501    0  0.00000000000E+00  0.00000000000E+00 -0.19485346488E+04  0.19485346488E+04  0.25500000920E-02 0.  1.
    10030    2    1    2    0    0  0.00000000000E+00  0.00000000000E+00 -0.62262015435E+03  0.32744491432E+04  0.32147101479E+04 0.  0.
        2    1    3    3  502    0  0.14550425452E+04 -0.35018228743E+03 -0.90856279976E+03  0.17507891946E+04  0.25500000920E-02 0. -1.
       -2    1    3    3    0  502 -0.14550425452E+04  0.35018228743E+03  0.28594264542E+03  0.15236599487E+04  0.25500000920E-02 0.  1.
</event>
<event>
 5   0  0.5985183E-07  0.3304087E+04  0.7818609E-02  0.8161856E-01
       -1   -1    0    0    0  501  0.00000000000E+00  0.00000000000E+00  0.13604699032E+04  0.13604699032E+04  0.50400001928E-02 0. -1.
        1   -1    0    0  501    0  0.00000000000E+00  0.00000000000E+00 -0.20061060517E+04  0.20061060517E+04  0.50400001928E-02 0.  1.
    10030    2    1    2    0    0  0.00000000000E+00  0.00000000000E+00 -0.64563614852E+03  0.33665759549E+04  0.33040865037E+04 0.  0.
        2    1    3    3  502    0  0.87189621979E+03  0.10530901757E+04 -0.12677436160E+04  0.18645041733E+04  0.25500000920E-02 0.  1.
       -2    1    3    3    0  502 -0.87189621979E+03 -0.10530901757E+04  0.62210746748E+03  0.15020717817E+04  0.25500000920E-02 0. -1.
</event>
<event>
 5   0  0.5988516E-07  0.3300296E+04  0.7818609E-02  0.8162820E-01
        1   -1    0    0  501    0  0.00000000000E+00  0.00000000000E+00  0.25016435600E+04  0.25016435600E+04  0.50400001928E-02 0.  1.
       -1   -1    0    0    0  501  0.00000000000E+00  0.00000000000E+00 -0.10884794468E+04  0.10884794468E+04  0.50400001928E-02 0. -1.
    10030    2    1    2    0    0  0.00000000000E+00  0.00000000000E+00  0.14131641132E+04  0.35901230068E+04  0.33002955009E+04 0.  0.
        4    1    3    3  502    0  0.15971440516E+04 -0.38004331372E+02  0.25717662141E+03  0.16181640455E+04  0.12699999809E+01 0. -1.
       -4    1    3    3    0  502 -0.15971440516E+04  0.38004331372E+02  0.11559874918E+04  0.19719589613E+04  0.12699999809E+01 0.  1.
</event>
<event>
 5   0  0.5988516E-07  0.3294639E+04  0.7818609E-02  0.8164261E-01
       -1   -1    0    0    0  501  0.00000000000E+00  0.00000000000E+00  0.12966348741E+04  0.12966348742E+04  0.50400001928E-02 0.  1.
        1   -1    0    0  501    0  0.00000000000E+00  0.00000000000E+00 -0.20928500446E+04  0.20928500446E+04  0.50400001928E-02 0. -1.
    10030    2    1    2    0    0  0.00000000000E+00  0.00000000000E+00 -0.79621517044E+03  0.33894849187E+04  0.32946394972E+04 0.  0.
        4    1    3    3  502    0  0.10786724676E+04 -0.10913414710E+04  0.21839322917E+03  0.15499218413E+04  0.12699999809E+01 0.  1.
       -4    1    3    3    0  502 -0.10786724676E+04  0.10913414710E+04 -0.10146083996E+04  0.18395630775E+04  0.12699999809E+01 0. -1.
</event>
<event>
 5   0  0.1784626E-06  0.3291722E+04  0.7818609E-02  0.8165005E-01
       -2   -1    0    0    0  501  0.00000000000E+00  0.00000000000E+00  0.19112492387E+04  0.19112492387E+04  0.25500000920E-02 0.  1.
        2   -1    0    0  501    0  0.00000000000E+00  0.00000000000E+00 -0.14173233647E+04  0.14173233647E+04  0.25500000920E-02 0. -1.
    10030    2    1    2    0    0  0.00000000000E+00  0.00000000000E+00  0.49392587402E+03  0.33285726034E+04  0.32917218605E+04 0.  0.
        2    1    3    3  502    0 -0.66080628916E+02  0.10286713943E+02 -0.14159488854E+04  0.14175273232E+04  0.25500000920E-02 0. -1.
       -2    1    3    3    0  502  0.66080628916E+02 -0.10286713943E+02  0.19098747595E+04  0.19110452802E+04  0.25500000920E-02 0.  1.
</event>
<event>
 5   0  0.6085351E-07  0.3285346E+04  0.7818609E-02  0.8166634E-01
        1   -1    0    0  501    0  0.00000000000E+00  0.00000000000E+00  0.17794014683E+04  0.17794014683E+04  0.50400001928E-02 0. -1.
       -1   -1    0    0    0  501  0.00000000000E+00  0.00000000000E+00 -0.15164509987E+04  0.15164509987E+04  0.50400001928E-02 0.  1.
    10030    2    1    2    0    0  0.00000000000E+00  0.00000000000E+00  0.26295046957E+03  0.32958524670E+04  0.32853463341E+04 0.  0.
        1    1    3    3  502    0  0.60759498506E+03 -0.21311455511E+03  0.16475278525E+04  0.17688802967E+04  0.50400001928E-02 0. -1.
       -1    1    3    3    0  502 -0.60759498506E+03  0.21311455511E+03 -0.13845773829E+04  0.15269721703E+04  0.50400001928E-02 0.  1.
</event>
<event>
 5   0  0.1784626E-06  0.2789201E+04  0.7818609E-02  0.8306629E-01
       -2   -1    0    0    0  501  0.00000000000E+00  0.00000000000E+00  0.14486928458E+04  0.14486928458E+04  0.25500000920E-02 0. -1.
        2   -1    0    0  501    0  0.00000000000E+00  0.00000000000E+00 -0.13425283469E+04  0.13425283469E+04  0.25500000920E-02 0.  1.
    10030    2    1    2    0    0  0.00000000000E+00  0.00000000000E+00  0.10616449889E+03  0.27912211928E+04  0.27892014710E+04 0.  0.
        2    1    3    3  502    0 -0.60107831220E+03 -0.12402748280E+04 -0.15999075246E+03  0.13875063342E+04  0.25500000920E-02 0.  1.
       -2    1    3    3    0  502  0.60107831220E+03  0.12402748280E+04  0.26615525135E+03  0.14037148586E+04  0.25500000920E-02 0. -1.
</event>
<event>
 5   0  0.1784626E-06  0.3301115E+04  0.7818609E-02  0.8162612E-01
       -2   -1    0    0    0  501  0.00000000000E+00  0.00000000000E+00  0.20735493887E+04  0.20735493887E+04  0.25500000920E-02 0. -1.
        2   -1    0    0  501    0  0.00000000000E+00  0.00000000000E+00 -0.13138534828E+04  0.13138534828E+04  0.25500000920E-02 0.  1.
    10030    2    1    2    0    0  0.00000000000E+00  0.00000000000E+00  0.75969590595E+03  0.33874028715E+04  0.33011150153E+04 0.  0.
        2    1    3    3  502    0 -0.79298818044E+03  0.82248022048E+03  0.16022186214E+04  0.19678436112E+04  0.25500000920E-02 0. -1.
       -2    1    3    3    0  502  0.79298818044E+03 -0.82248022048E+03 -0.84252271547E+03  0.14195592603E+04  0.25500000920E-02 0.  1.
</event>
<event>
 5   0  0.1784626E-06  0.3426608E+04  0.7818609E-02  0.8131407E-01
        2   -1    0    0  501    0  0.00000000000E+00  0.00000000000E+00  0.21394958677E+04  0.21394958677E+04  0.25500000920E-02 0. -1.
       -2   -1    0    0    0  501  0.00000000000E+00  0.00000000000E+00 -0.13720102638E+04  0.13720102638E+04  0.25500000920E-02 0.  1.
    10030    2    1    2    0    0  0.00000000000E+00  0.00000000000E+00  0.76748560385E+03  0.35115061315E+04  0.34266078211E+04 0.  0.
        2    1    3    3  502    0  0.81240891449E+03  0.64135565282E+03 -0.10153919767E+04  0.14499538559E+04  0.25500000920E-02 0.  1.
       -2    1    3    3    0  502 -0.81240891449E+03 -0.64135565282E+03  0.17828775806E+04  0.20615522756E+04  0.25500000920E-02 0. -1.
</event>
<event>
 5   0  0.1728937E-06  0.3330812E+04  0.7818609E-02  0.8155099E-01
        2   -1    0    0  501    0  0.00000000000E+00  0.00000000000E+00  0.15990698230E+04  0.15990698230E+04  0.25500000920E-02 0. -1.
       -2   -1    0    0    0  501  0.00000000000E+00  0.00000000000E+00 -0.17344940615E+04  0.17344940615E+04  0.25500000920E-02 0.  1.
    10030    2    1    2    0    0  0.00000000000E+00  0.00000000000E+00 -0.13542423851E+03  0.33335638846E+04  0.33308119803E+04 0.  0.
        1    1    3    3  502    0 -0.14846762104E+04  0.10927936840E+03 -0.81490222842E+03  0.16971361383E+04  0.50400001928E-02 0.  1.
       -1    1    3    3    0  502  0.14846762104E+04 -0.10927936840E+03  0.67947798991E+03  0.16364277463E+04  0.50400001928E-02 0. -1.
</event>
<event>
 5   0  0.5985183E-07  0.2813611E+04  0.7818609E-02  0.8299055E-01
       -1   -1    0    0    0  501  0.00000000000E+00  0.00000000000E+00  0.94245634489E+03  0.94245634491E+03  0.50400001928E-02 0. -1.
        1   -1    0    0  501    0  0.00000000000E+00  0.00000000000E+00 -0.20999394938E+04  0.20999394938E+04  0.50400001928E-02 0.  1.
    10030    2    1    2    0    0  0.00000000000E+00  0.00000000000E+00 -0.11574831489E+04  0.30423958388E+04  0.28136107051E+04 0.  0.
        2    1    3    3  502    0  0.13250373520E+04  0.92399819342E+02 -0.10799390412E+04  0.17118790972E+04  0.25500000920E-02 0.  1.
       -2    1    3    3    0  502 -0.13250373520E+04 -0.92399819342E+02 -0.77544107738E+02  0.13305167415E+04  0.25500000920E-02 0. -1.
</event>
<event>
 5   0  0.1696681E-06  0.3329343E+04  0.7818609E-02  0.8155469E-01
        2   -1    0    0  501    0  0.00000000000E+00  0.00000000000E+00  0.14034928387E+04  0.14034928387E+04  0.25500000920E-02 0.  1.
       -2   -1    0    0    0  501  0.00000000000E+00  0.00000000000E+00 -0.19744530909E+04  0.19744530909E+04  0.25500000920E-02 0. -1.
    10030    2    1    2    0    0  0.00000000000E+00  0.00000000000E+00 -0.57096025217E+03  0.33779459295E+04  0.33293427419E+04 0.  0.
        4    1    3    3  502    0  0.81105337222E+02  0.61636859490E+03 -0.18522516732E+04  0.19537978898E+04  0.12699999809E+01 0. -1.
       -4    1    3    3    0  502 -0.81105337222E+02 -0.61636859490E+03  0.12812914210E+04  0.14241480397E+04  0.12699999809E+01 0.  1.
</event>
<event>
 5   0  0.1743810E-06  0.3293112E+04  0.7818609E-02  0.8164650E-01
       -2   -1    0    0    0  501  0.00000000000E+00  0.00000000000E+00  0.15349490459E+04  0.15349490459E+04  0.25500000920E-02 0.  1.
        2   -1    0    0  501    0  0.00000000000E+00  0.00000000000E+00 -0.17662777392E+04  0.17662777392E+04  0.25500000920E-02 0. -1.
    10030    2    1    2    0    0  0.00000000000E+00  0.00000000000E+00 -0.23132869329E+03  0.33012267852E+04  0.32931117993E+04 0.  0.
        5    1    3    3  502    0  0.90276318740E+03 -0.37413272602E+03 -0.14441346844E+04  0.17437040305E+04  0.46999998093E+01 0. -1.
       -5    1    3    3    0  502 -0.90276318740E+03  0.37413272602E+03  0.12128059911E+04  0.15575227547E+04  0.46999998093E+01 0.  1.
</event>
<event>
 5   0  0.5858859E-07  0.3228027E+04  0.7818609E-02  0.8181454E-01
        1   -1    0    0  501    0  0.00000000000E+00  0.00000000000E+00  0.28012261131E+04  0.28012261131E+04  0.50400001928E-02 0.  1.
       -1   -1    0    0    0  501  0.00000000000E+00  0.00000000000E+00 -0.92996414851E+03  0.92996414852E+03  0.50400001928E-02 0. -1.
    10030    2    1    2    0    0  0.00000000000E+00  0.00000000000E+00  0.18712619646E+04  0.37311902616E+04  0.32280271728E+04 0.  0.
        3    1    3    3  502    0  0.69320969893E+03  0.53330067443E+03  0.25035723229E+04  0.26519471493E+04  0.10100000352E+00 0.  1.
       -3    1    3    3    0  502 -0.69320969893E+03 -0.53330067443E+03 -0.63231035837E+03  0.10792431123E+04  0.10100000352E+00 0. -1.
</event>
<event>
 5   0  0.1743810E-06  0.3319940E+04  0.7818609E-02  0.8157840E-01
       -2   -1    0    0    0  501  0.00000000000E+00  0.00000000000E+00  0.35024408974E+04  0.35024408974E+04  0.25500000920E-02 0.  1.
        2   -1    0    0  501    0  0.00000000000E+00  0.00000000000E+00 -0.78673729947E+03  0.78673729947E+03  0.25500000920E-02 0. -1.
    10030    2    1    2    0    0  0.00000000000E+00  0.00000000000E+00  0.27157035979E+04  0.42891781968E+04  0.33199402965E+04 0.  0.
        5    1    3    3  502    0 -0.13394538952E+04  0.82324361964E+03  0.66982378138E+03  0.17089624872E+04  0.46999998093E+01 0. -1.
       -5    1    3    3    0  502  0.13394538952E+04 -0.82324361964E+03  0.20458798165E+04  0.25802157096E+04  0.46999998093E+01 0.  1.
</event>
<event>
 5   0  0.6023446E-07  0.3048032E+04  0.7818609E-02  0.8230146E-01
       -1   -1    0    0    0  501  0.00000000000E+00  0.00000000000E+00  0.95101873890E+03  0.95101873891E+03  0.50400001928E-02 0. -1.
        1   -1    0    0  501    0  0.00000000000E+00  0.00000000000E+00 -0.24422494279E+04  0.24422494279E+04  0.50400001928E-02 0.  1.
    10030    2    1    2    0    0  0.00000000000E+00  0.00000000000E+00 -0.14912306890E+04  0.33932681669E+04  0.30480321331E+04 0.  0.
        5    1    3    3  502    0 -0.53229201514E+03 -0.19128196061E+02 -0.23352482328E+04  0.23952258925E+04  0.46999998093E+01 0.  1.
       -5    1    3    3    0  502  0.53229201514E+03  0.19128196061E+02  0.84401754375E+03  0.99804227437E+03  0.46999998093E+01 0. -1.
</event>
<event>
 5   0  0.1743810E-06  0.3254189E+04  0.7818609E-02  0.8174651E-01
        2   -1    0    0  501    0  0.00000000000E+00  0.00000000000E+00  0.11524505166E+04  0.11524505166E+04  0.25500000920E-02 0. -1.
       -2   -1    0    0    0  501  0.00000000000E+00  0.00000000000E+00 -0.22972233630E+04  0.22972233630E+04  0.25500000920E-02 0.  1.
    10030    2    1    2    0    0  0.00000000000E+00  0.00000000000E+00 -0.11447728465E+04  0.34496738796E+04  0.32541888399E+04 0.  0.
        5    1    3    3  502    0 -0.44590722603E+03  0.32447886048E+03  0.10503527270E+04  0.11863316257E+04  0.46999998093E+01 0. -1.
       -5    1    3    3    0  502  0.44590722603E+03 -0.32447886048E+03 -0.21951255734E+04  0.22633422539E+04  0.46999998093E+01 0.  1.
</event>
<event>
 5   0  0.1784626E-06  0.3287322E+04  0.7818609E-02  0.8166129E-01
        2   -1    0    0  501    0  0.00000000000E+00  0.00000000000E+00  0.27791395799E+04  0.27791395799E+04  0.25500000920E-02 0. -1.
       -2   -1    0    0    0  501  0.00000000000E+00  0.00000000000E+00 -0.97210701344E+03  0.97210701344E+03  0.25500000920E-02 0.  1.
    10030    2    1    2    0    0  0.00000000000E+00  0.00000000000E+00  0.18070325664E+04  0.37512465933E+04  0.32873217530E+04 0.  0.
        2    1    3    3  502    0 -0.19854689892E+02 -0.39840508428E+03 -0.91603333552E+03  0.99911855737E+03  0.25500000920E-02 0.  1.
       -2    1    3    3    0  502  0.19854689892E+02  0.39840508428E+03  0.27230659020E+04  0.27521280360E+04  0.25500000920E-02 0. -1.
</event>
<event>
 5   0  0.6085351E-07  0.3296599E+04  0.7818609E-02  0.8163761E-01
       -1   -1    0    0    0  501  0.00000000000E+00  0.00000000000E+00  0.12076579072E+04  0.12076579073E+04  0.50400001928E-02 0. -1.
        1   -1    0    0  501    0  0.00000000000E+00  0.00000000000E+00 -0.22497197992E+04  0.22497197992E+04  0.50400001928E-02 0.  1.
    10030    2    1    2    0    0  0.00000000000E+00  0.00000000000E+00 -0.10420618919E+04  0.34573777064E+04  0.32965994022E+04 0.  0.
        1    1    3    3  502    0  0.38295151449E+03 -0.11460911163E+04 -0.16967378944E+04  0.20830497334E+04  0.50400001928E-02 0.  1.
       -1    1    3    3    0  502 -0.38295151449E+03  0.11460911163E+04  0.65467600251E+03  0.13743279731E+04  0.50400001928E-02 0. -1.
</event>
<event>
 5   0  0.5858859E-07  0.3364338E+04  0.7818609E-02  0.8146715E-01
        1   -1    0    0  501    0  0.00000000000E+00  0.00000000000E+00  0.18470054885E+04  0.18470054886E+04  0.50400001928E-02 0.  1.
       -1   -1    0    0    0  501  0.00000000000E+00  0.00000000000E+00 -0.15320436559E+04  0.15320436559E+04  0.50400001928E-02 0. -1.
    10030    2    1    2    0    0  0.00000000000E+00  0.00000000000E+00  0.31496183263E+03  0.33790491445E+04  0.33643382952E+04 0.  0.
        3    1    3    3  502    0  0.16287412342E+04 -0.24423755310E+03 -0.18642400114E+03  0.16574691275E+04  0.10100000352E+00 0.  1.
       -3    1    3    3    0  502 -0.16287412342E+04  0.24423755310E+03  0.50138583377E+03  0.17215800170E+04  0.10100000352E+00 0. -1.
</event>
<event>
 5   0  0.1696681E-06  0.2808678E+04  0.7818609E-02  0.8300579E-01
       -2   -1    0    0    0  501  0.00000000000E+00  0.00000000000E+00  0.99925297206E+03  0.99925297206E+03  0.25500000920E-02 0.  1.
        2   -1    0    0  501    0  0.00000000000E+00  0.00000000000E+00 -0.19736425303E+04  0.19736425303E+04  0.25500000920E-02 0. -1.
    10030    2    1    2    0    0  0.00000000000E+00  0.00000000000E+00 -0.97438955826E+03  0.29728955024E+04  0.28086780978E+04 0.  0.
        4    1    3    3  502    0 -0.73397108890E+03 -0.10449696475E+04  0.13134492102E+03  0.12837165672E+04  0.12699999809E+01 0.  1.
       -4    1    3    3    0  502  0.73397108890E+03  0.10449696475E+04 -0.11057344793E+04  0.16891789352E+04  0.12699999809E+01 0. -1.
</event>
<event>
 5   0  0.1696681E-06  0.3370106E+04  0.7818609E-02  0.8145283E-01
        2   -1    0    0  501    0  0.00000000000E+00  0.00000000000E+00  0.20503921230E+04  0.20503921230E+04  0.25500000920E-02 0.  1.
       -2   -1    0    0    0  501  0.00000000000E+00  0.00000000000E+00 -0.13848096444E+04  0.13848096444E+04  0.25500000920E-02 0. -1.
    10030    2    1    2    0    0  0.00000000000E+00  0.00000000000E+00  0.66558247855E+03  0.34352017674E+04  0.33701055097E+04 0.  0.
        4    1    3    3  502    0  0.62647430195E+03 -0.12781228517E+04  0.12520610034E+04  0.18957126481E+04  0.12699999809E+01 0.  1.
       -4    1    3    3    0  502 -0.62647430195E+03  0.12781228517E+04 -0.58647852486E+03  0.15394891192E+04  0.12699999809E+01 0. -1.
</event>
<event>
 5   0  0.1728937E-06  0.3306925E+04  0.7818609E-02  0.8161136E-01
       -2   -1    0    0    0  501  0.00000000000E+00  0.00000000000E+00  0.13097921349E+04  0.13097921349E+04  0.25500000920E-02 0.  1.
        2   -1    0    0  501    0  0.00000000000E+00  0.00000000000E+00 -0.20873070892E+04  0.20873070892E+04  0.25500000920E-02 0. -1.
    10030    2    1    2    0    0  0.00000000000E+00  0.00000000000E+00 -0.77751495425E+03  0.33970992241E+04  0.33069251026E+04 0.  0.
        1    1    3    3  502    0 -0.16217025796E+04 -0.25420245510E+03 -0.18484986600E+03  0.16518800253E+04  0.50400001928E-02 0.  1.
       -1    1    3    3    0  502  0.16217025796E+04  0.25420245510E+03 -0.59266508825E+03  0.17452191988E+04  0.50400001928E-02 0. -1.
</event>
<event>
 5   0  0.1743810E-06  0.3286685E+04  0.7818609E-02  0.8166292E-01
        2   -1    0    0  501    0  0.00000000000E+00  0.00000000000E+00  0.30164930410E+04  0.30164930410E+04  0.25500000920E-02 0.  1.
       -2   -1    0    0    0  501  0.00000000000E+00  0.00000000000E+00 -0.89526952541E+03  0.89526952541E+03  0.25500000920E-02 0. -1.
    10030    2    1    2    0    0  0.00000000000E+00  0.00000000000E+00  0.21212235156E+04  0.39117625664E+04  0.32866848302E+04 0.  0.
        5    1    3    3  502    0  0.95193515317E+03 -0.54977406000E+03  0.25144507876E+04  0.27442516113E+04  0.46999998093E+01 0.  1.
       -5    1    3    3    0  502 -0.95193515317E+03  0.54977406000E+03 -0.39322727200E+03  0.11675109551E+04  0.46999998093E+01 0. -1.
</event>
<event>
 5   0  0.5858859E-07  0.3213089E+04  0.7818609E-02  0.8185369E-01
       -1   -1    0    0    0  501  0.00000000000E+00  0.00000000000E+00  0.11263940579E+04  0.11263940579E+04  0.50400001928E-02 0.  1.
        1   -1    0    0  501    0  0.00000000000E+00  0.00000000000E+00 -0.22913692837E+04  0.22913692837E+04  0.50400001928E-02 0. -1.
    10030    2    1    2    0    0  0.00000000000E+00  0.00000000000E+00 -0.11649752258E+04  0.34177633417E+04  0.32130886983E+04 0.  0.
        3    1    3    3  502    0  0.33360397551E+02  0.84261775884E+03 -0.20370241892E+04  0.22046734817E+04  0.10100000352E+00 0. -1.
       -3    1    3    3    0  502 -0.33360397551E+02 -0.84261775884E+03  0.87204896335E+03  0.12130898600E+04  0.10100000352E+00 0.  1.
</event>
<event>
 5   0  0.6085351E-07  0.3286499E+04  0.7818609E-02  0.8166339E-01
        1   -1    0    0  501    0  0.00000000000E+00  0.00000000000E+00  0.15574570689E+04  0.15574570689E+04  0.50400001928E-02 0. -1.
       -1   -1    0    0    0  501  0.00000000000E+00  0.00000000000E+00 -0.17337675571E+04  0.17337675571E+04  0.50400001928E-02 0.  1.
    10030    2    1    2    0    0  0.00000000000E+00  0.00000000000E+00 -0.17631048827E+03  0.32912246260E+04  0.32864987678E+04 0.  0.
        1    1    3    3  502    0  0.10965062368E+04 -0.49766891663E+03  0.10316065697E+04  0.15856268138E+04  0.50400001928E-02 0. -1.
       -1    1    3    3    0  502 -0.10965062368E+04  0.49766891663E+03 -0.12079170580E+04  0.17055978122E+04  0.50400001928E-02 0.  1.
</event>
<event>
 5   0  0.1784626E-06  0.3300430E+04  0.7818609E-02  0.8162786E-01
       -2   -1    0    0    0  501  0.00000000000E+00  0.00000000000E+00  0.15687805153E+04  0.15687805153E+04  0.25500000920E-02 0.  1.
        2   -1    0    0  501    0  0.00000000000E+00  0.00000000000E+00 -0.17358768392E+04  0.17358768392E+04  0.25500000920E-02 0. -1.
    10030    2    1    2    0    0  0.00000000000E+00  0.00000000000E+00 -0.16709632392E+03  0.33046573545E+04  0.33004301310E+04 0.  0.
        2    1    3    3  502    0 -0.18418746721E+03  0.99339735913E+03 -0.13899976403E+04  0.17183878422E+04  0.25500000920E-02 0. -1.
       -2    1    3    3    0  502  0.18418746721E+03 -0.99339735913E+03  0.12229013164E+04  0.15862695123E+04  0.25500000920E-02 0.  1.
</event>
<event>
 5   0  0.6023446E-07  0.3288964E+04  0.7818609E-02  0.8165709E-01
        1   -1    0    0  501    0  0.00000000000E+00  0.00000000000E+00  0.20592994800E+04  0.20592994800E+04  0.50400001928E-02 0. -1.
       -1   -1    0    0    0  501  0.00000000000E+00  0.00000000000E+00 -0.13132236764E+04  0.13132236764E+04  0.50400001928E-02 0.  1.
    10030    2    1    2    0    0  0.00000000000E+00  0.00000000000E+00  0.74607580358E+03  0.33725231564E+04  0.32889638696E+04 0.  0.
        5    1    3    3  502    0  0.10984693585E+04  0.14488493128E+03  0.16190948251E+04  0.19619165929E+04  0.46999998093E+01 0. -1.
       -5    1    3    3    0  502 -0.10984693585E+04 -0.14488493128E+03 -0.87301902154E+03  0.14106065635E+04  0.46999998093E+01 0.  1.
</event>
<event>
 5   0  0.5858859E-07  0.3296525E+04  0.7818609E-02  0.8163780E-01
       -1   -1    0    0    0  501  0.00000000000E+00  0.00000000000E+00  0.12170639031E+04  0.12170639031E+04  0.50400001928E-02 0.  1.
        1   -1    0    0  501    0  0.00000000000E+00  0.00000000000E+00 -0.22322319842E+04  0.22322319842E+04  0.50400001928E-02 0. -1.
    10030    2    1    2    0    0  0.00000000000E+00  0.00000000000E+00 -0.10151680812E+04  0.34492958873E+04  0.32965248194E+04 0.  0.
        3    1    3    3  502    0  0.48879127690E+03 -0.83264608587E+03 -0.19053638749E+04  0.21360308805E+04  0.10100000352E+00 0. -1.
       -3    1    3    3    0  502 -0.48879127690E+03  0.83264608587E+03  0.89019579371E+03  0.13132650068E+04  0.10100000352E+00 0.  1.
</event>
<event>
 5   0  0.5985183E-07  0.3295122E+04  0.7818609E-02  0.8164138E-01
        1   -1    0    0  501    0  0.00000000000E+00  0.00000000000E+00  0.14689140375E+04  0.14689140375E+04  0.50400001928E-02 0.  1.
       -1   -1    0    0    0  501  0.00000000000E+00  0.00000000000E+00 -0.18479352767E+04  0.18479352767E+04  0.50400001928E-02 0. -1.
    10030    2    1    2    0    0  0.00000000000E+00  0.00000000000E+00 -0.37902123923E+03  0.33168493142E+04  0.32951224974E+04 0.  0.
        2    1    3    3  502    0  0.16053118616E+03  0.32897883582E+03 -0.18064837560E+04  0.18431985506E+04  0.25500000920E-02 0. -1.
       -2    1    3    3    0  502 -0.16053118616E+03 -0.32897883582E+03  0.14274625168E+04  0.14736507636E+04  0.25500000920E-02 0.  1.
</event>
<event>
 5   0  0.1784626E-06  0.3311414E+04  0.7818609E-02  0.8159997E-01
        2   -1    0    0  501    0  0.00000000000E+00  0.00000000000E+00  0.19869458936E+04  0.19869458936E+04  0.25500000920E-02 0. -1.
       -2   -1    0    0    0  501  0.00000000000E+00  0.00000000000E+00 -0.13796884126E+04  0.13796884126E+04  0.25500000920E-02 0.  1.
    10030    2    1    2    0    0  0.00000000000E+00  0.00000000000E+00  0.60725748100E+03  0.33666343062E+04  0.33114143358E+04 0.  0.
        2    1    3    3  502    0 -0.54950761640E+03  0.33848025988E+03 -0.12465395002E+04  0.14037051800E+04  0.25500000920E-02 0.  1.
       -2    1    3    3    0  502  0.54950761640E+03 -0.33848025988E+03  0.18537969812E+04  0.19629291262E+04  0.25500000920E-02 0. -1.
</event>
<event>
 5   0  0.1832626E-06  0.3263861E+04  0.7818609E-02  0.8172152E-01
        2   -1    0    0  501    0  0.00000000000E+00  0.00000000000E+00  0.33181441739E+04  0.33181441739E+04  0.25500000920E-02 0.  1.
       -2   -1    0    0    0  501  0.00000000000E+00  0.00000000000E+00 -0.80261632488E+03  0.80261632489E+03  0.25500000920E-02 0. -1.
    10030    2    1    2    0    0  0.00000000000E+00  0.00000000000E+00  0.25155278490E+04  0.41207604988E+04  0.32638607092E+04 0.  0.
        3    1    3    3  502    0  0.83127838802E+03 -0.10948973478E+04  0.23680635147E+04  0.27381652215E+04  0.10100000352E+00 0.  1.
       -3    1    3    3    0  502 -0.83127838802E+03  0.10948973478E+04  0.14746433434E+03  0.13825952773E+04  0.10100000352E+00 0. -1.
</event>
<event>
 5   0  0.6023446E-07  0.3312804E+04  0.7818609E-02  0.8159645E-01
       -1   -1    0    0    0  501  0.00000000000E+00  0.00000000000E+00  0.11841552534E+04  0.11841552534E+04  0.50400001928E-02 0. -1.
        1   -1    0    0  501    0  0.00000000000E+00  0.00000000000E+00 -0.23169824429E+04  0.23169824429E+04  0.50400001928E-02 0.  1.
    10030    2    1    2    0    0  0.00000000000E+00  0.00000000000E+00 -0.11328271896E+04  0.35011376963E+04  0.33128036053E+04 0.  0.
        5    1    3    3  502    0  0.13031812868E+04  0.65371457224E+03  0.26442179801E+03  0.14817439676E+04  0.46999998093E+01 0. -1.
       -5    1    3    3    0  502 -0.13031812868E+04 -0.65371457224E+03 -0.13972489876E+04  0.20193937287E+04  0.46999998093E+01 0.  1.
</event>
<event>
 5   0  0.6085351E-07  0.3199237E+04  0.7818609E-02  0.8189019E-01
       -1   -1    0    0    0  501  0.00000000000E+00  0.00000000000E+00  0.10984156408E+04  0.10984156408E+04  0.50400001928E-02 0. -1.
        1   -1    0    0  501    0  0.00000000000E+00  0.00000000000E+00 -0.23295187049E+04  0.23295187049E+04  0.50400001928E-02 0.  1.
    10030    2    1    2    0    0  0.00000000000E+00  0.00000000000E+00 -0.12311030640E+04  0.34279343457E+04  0.31992372722E+04 0.  0.
        1    1    3    3  502    0  0.10446197089E+04  0.10270674561E+04 -0.13038768557E+04  0.19611712700E+04  0.50400001928E-02 0.  1.
       -1    1    3    3    0  502 -0.10446197089E+04 -0.10270674561E+04  0.72773791636E+02  0.14667630757E+04  0.50400001928E-02 0. -1.
</event>
<event>
 5   0  0.6023446E-07  0.3313387E+04  0.7818609E-02  0.8159497E-01
       -1   -1    0    0    0  501  0.00000000000E+00  0.00000000000E+00  0.99787839552E+03  0.99787839554E+03  0.50400001928E-02 0.  1.
        1   -1    0    0  501    0  0.00000000000E+00  0.00000000000E+00 -0.27504688810E+04  0.27504688810E+04  0.50400001928E-02 0. -1.
    10030    2    1    2    0    0  0.00000000000E+00  0.00000000000E+00 -0.17525904855E+04  0.37483472765E+04  0.33133870730E+04 0.  0.
        5    1    3    3  502    0  0.97855968972E+03 -0.10443880436E+04  0.67681853922E+02  0.14328043744E+04  0.46999998093E+01 0.  1.
       -5    1    3    3    0  502 -0.97855968972E+03  0.10443880436E+04 -0.18202723394E+04  0.23155429021E+04  0.46999998093E+01 0. -1.
</event>
<event>
 5   0  0.1743810E-06  0.3292954E+04  0.7818609E-02  0.8164690E-01
        2   -1    0    0  501    0  0.00000000000E+00  0.00000000000E+00  0.16409193881E+04  0.16409193881E+04  0.25500000920E-02 0. -1.
       -2   -1    0    0    0  501  0.00000000000E+00  0.00000000000E+00 -0.16520538551E+04  0.16520538551E+04  0.25500000920E-02 0.  1.
    10030    2    1    2    0    0  0.00000000000E+00  0.00000000000E+00 -0.11134467052E+02  0.32929732432E+04  0.32929544188E+04 0.  0.
        5    1    3    3  502    0  0.97155006244E+03  0.11834408643E+04 -0.61089978445E+03  0.16485334209E+04  0.46999998093E+01 0.  1.
       -5    1    3    3    0  502 -0.97155006244E+03 -0.11834408643E+04  0.59976531740E+03  0.16444398223E+04  0.46999998093E+01 0. -1.
</event>
<event>
 5   0  0.5685000E-07  0.3390412E+04  0.7818609E-02  0.8140264E-01
       -3   -1    0    0    0  501  0.00000000000E+00  0.00000000000E+00  0.20196082473E+04  0.20196082498E+04  0.10100000352E+00 0. -1.
        3   -1    0    0  501    0  0.00000000000E+00  0.00000000000E+00 -0.14229112294E+04  0.14229112330E+04  0.10100000352E+00 0.  1.
    10030    2    1    2    0    0  0.00000000000E+00  0.00000000000E+00  0.59669701791E+03  0.34425194828E+04  0.33904119305E+04 0.  0.
        5    1    3    3  502    0 -0.14282711590E+04 -0.84449322003E+03  0.65092272060E+03  0.17823719535E+04  0.46999998093E+01 0. -1.
       -5    1    3    3    0  502  0.14282711590E+04  0.84449322003E+03 -0.54225702692E+02  0.16601475293E+04  0.46999998093E+01 0.  1.
</event>
<event>
 5   0  0.1784626E-06  0.3321353E+04  0.7818609E-02  0.8157483E-01
        2   -1    0    0  501    0  0.00000000000E+00  0.00000000000E+00  0.12373675902E+04  0.12373675902E+04  0.25500000920E-02 0. -1.
       -2   -1    0    0    0  501  0.00000000000E+00  0.00000000000E+00 -0.22288016532E+04  0.22288016532E+04  0.25500000920E-02 0.  1.
    10030    2    1    2    0    0  0.00000000000E+00  0.00000000000E+00 -0.99143406302E+03  0.34661692433E+04  0.33213532968E+04 0.  0.
        2    1    3    3  502    0  0.86558161675E+03 -0.74673602805E+02 -0.19727133721E+04  0.21555523029E+04  0.25500000920E-02 0.  1.
       -2    1    3    3    0  502 -0.86558161675E+03  0.74673602805E+02  0.98127930904E+03  0.13106169404E+04  0.25500000920E-02 0. -1.
</event>
<event>
 5   0  0.1784626E-06  0.3276854E+04  0.7818609E-02  0.8168810E-01
        2   -1    0    0  501    0  0.00000000000E+00  0.00000000000E+00  0.20556064807E+04  0.20556064807E+04  0.25500000920E-02 0. -1.
       -2   -1    0    0    0  501  0.00000000000E+00  0.00000000000E+00 -0.13059126402E+04  0.13059126402E+04  0.25500000920E-02 0.  1.
    10030    2    1    2    0    0  0.00000000000E+00  0.00000000000E+00  0.74969384045E+03  0.33615191209E+04  0.32768536656E+04 0.  0.
        2    1    3    3  502    0 -0.30868635424E+03  0.12352219381E+04  0.14326947214E+04  0.19166832462E+04  0.25500000920E-02 0. -1.
       -2    1    3    3    0  502  0.30868635424E+03 -0.12352219381E+04 -0.68300088090E+03  0.14448358747E+04  0.25500000920E-02 0.  1.
</event>
<event>
 5   0  0.1743810E-06  0.3303035E+04  0.7818609E-02  0.8162124E-01
       -2   -1    0    0    0  501  0.00000000000E+00  0.00000000000E+00  0.12814664674E+04  0.12814664674E+04  0.25500000920E-02 0. -1.
        2   -1    0    0  501    0  0.00000000000E+00  0.00000000000E+00 -0.21284281821E+04  0.21284281821E+04  0.25500000920E-02 0.  1.
    10030    2    1    2    0    0  0.00000000000E+00  0.00000000000E+00 -0.84696171466E+03  0.34098946495E+04  0.33030345707E+04 0.  0.
        5    1    3    3  502    0 -0.38109643364E+03 -0.15570131024E+04 -0.83378459670E+03  0.18068600213E+04  0.46999998093E+01 0.  1.
       -5    1    3    3    0  502  0.38109643364E+03  0.15570131024E+04 -0.13177117965E+02  0.16030346282E+04  0.46999998093E+01 0. -1.
</event>
<event>
 5   0  0.1728937E-06  0.3241378E+04  0.7818609E-02  0.8177974E-01
        2   -1    0    0  501    0  0.00000000000E+00  0.00000000000E+00  0.15115350356E+04  0.15115350356E+04  0.25500000920E-02 0.  1.
       -2   -1    0    0    0  501  0.00000000000E+00  0.00000000000E+00 -0.17377258776E+04  0.17377258776E+04  0.25500000920E-02 0. -1.
    10030    2    1    2    0    0  0.00000000000E+00  0.00000000000E+00 -0.22619084194E+03  0.32492609132E+04  0.32413784390E+04 0.  0.
        1    1    3    3  502    0 -0.89993842912E+03  0.25417426587E+03 -0.14399985745E+04  0.17170001830E+04  0.50400001928E-02 0. -1.
       -1    1    3    3    0  502  0.89993842912E+03 -0.25417426587E+03  0.12138077326E+04  0.15322607302E+04  0.50400001928E-02 0.  1.
</event>
<event>
 5   0  0.1784626E-06  0.3227460E+04  0.7818609E-02  0.8181603E-01
       -2   -1    0    0    0  501  0.00000000000E+00  0.00000000000E+00  0.12408574881E+04  0.12408574881E+04  0.25500000920E-02 0.  1.
        2   -1    0    0  501    0  0.00000000000E+00  0.00000000000E+00 -0.20986490090E+04  0.20986490090E+04  0.25500000920E-02 0. -1.
    10030    2    1    2    0    0  0.00000000000E+00  0.00000000000E+00 -0.85779152093E+03  0.33395064970E+04  0.32274598914E+04 0.  0.
        2    1    3    3  502    0  0.10901970608E+04  0.44263859119E+03 -0.15716211033E+04  0.19632756928E+04  0.25500000920E-02 0. -1.
       -2    1    3    3    0  502 -0.10901970608E+04 -0.44263859119E+03  0.71382958239E+03  0.13762308042E+04  0.25500000920E-02 0.  1.
</event>
<event>
 5   0  0.1728937E-06  0.3303848E+04  0.7818609E-02  0.8161917E-01
       -2   -1    0    0    0  501  0.00000000000E+00  0.00000000000E+00  0.14294904092E+04  0.14294904092E+04  0.25500000920E-02 0. -1.
        2   -1    0    0  501    0  0.00000000000E+00  0.00000000000E+00 -0.19089684628E+04  0.19089684628E+04  0.25500000920E-02 0.  1.
    10030    2    1    2    0    0  0.00000000000E+00  0.00000000000E+00 -0.47947805361E+03  0.33384588720E+04  0.33038475201E+04 0.  0.
        1    1    3    3  502    0 -0.14158082745E+03 -0.14722525971E+04  0.50368523751E+03  0.15624569302E+04  0.50400001928E-02 0. -1.
       -1    1    3    3    0  502  0.14158082745E+03  0.14722525971E+04 -0.98316329112E+03  0.17760019418E+04  0.50400001928E-02 0.  1.
</event>
<event>
 5   0  0.5988516E-07  0.3287431E+04  0.7818609E-02  0.8166101E-01
       -1   -1    0    0    0  501  0.00000000000E+00  0.00000000000E+00  0.97097789934E+03  0.97097789935E+03  0.50400001928E-02 0.  1.
        1   -1    0    0  501    0  0.00000000000E+00  0.00000000000E+00 -0.27825566429E+04  0.27825566429E+04  0.50400001928E-02 0. -1.
    10030    2    1    2    0    0  0.00000000000E+00  0.00000000000E+00 -0.18115787435E+04  0.37535345422E+04  0.32874312184E+04 0.  0.
        4    1    3    3  502    0 -0.66533023205E+03  0.13481152803E+04 -0.16646419317E+04  0.22430143781E+04  0.12699999809E+01 0. -1.
       -4    1    3    3    0  502  0.66533023205E+03 -0.13481152803E+04 -0.14693681179E+03  0.15105201641E+04  0.12699999809E+01 0.  1.
</event>
<event>
 5   0  0.5988516E-07  0.3289265E+04  0.7818609E-02  0.8165632E-01
       -1   -1    0    0    0  501  0.00000000000E+00  0.00000000000E+00  0.11178279429E+04  0.11178279429E+04  0.50400001928E-02 0.  1.
        1   -1    0    0  501    0  0.00000000000E+00  0.00000000000E+00 -0.24197076093E+04  0.24197076093E+04  0.50400001928E-02 0. -1.
    10030    2    1    2    0    0  0.00000000000E+00  0.00000000000E+00 -0.13018796664E+04  0.35375355522E+04  0.32892654373E+04 0.  0.
        4    1    3    3  502    0 -0.10605729441E+04  0.39276905933E+03  0.63322549836E+03  0.12961707636E+04  0.12699999809E+01 0.  1.
       -4    1    3    3    0  502  0.10605729441E+04 -0.39276905933E+03 -0.19351051648E+04  0.22413647886E+04  0.12699999809E+01 0. -1.
</event>
<event>
 5   0  0.5988516E-07  0.3412148E+04  0.7818609E-02  0.8134931E-01
       -1   -1    0    0    0  501  0.00000000000E+00  0.00000000000E+00  0.16336855239E+04  0.16336855239E+04  0.50400001928E-02 0.  1.
        1   -1    0    0  501    0  0.00000000000E+00  0.00000000000E+00 -0.17816704361E+04  0.17816704361E+04  0.50400001928E-02 0. -1.
    10030    2    1    2    0    0  0.00000000000E+00  0.00000000000E+00 -0.14798491224E+03  0.34153559601E+04  0.34121484141E+04 0.  0.
        4    1    3    3  502    0  0.99917710842E+03  0.42016598886E+03  0.12447410987E+04  0.16505382055E+04  0.12699999809E+01 0.  1.
       -4    1    3    3    0  502 -0.99917710842E+03 -0.42016598886E+03 -0.13927260110E+04  0.17648177545E+04  0.12699999809E+01 0. -1.
</event>
<event>
 5   0  0.1696681E-06  0.3288351E+04  0.7818609E-02  0.8165866E-01
        2   -1    0    0  501    0  0.00000000000E+00  0.00000000000E+00  0.83855258641E+03  0.83855258642E+03  0.25500000920E-02 0.  1.
       -2   -1    0    0    0  501  0.00000000000E+00  0.00000000000E+00 -0.32237850655E+04  0.32237850655E+04  0.25500000920E-02 0. -1.
    10030    2    1    2    0    0  0.00000000000E+00  0.00000000000E+00 -0.23852324790E+04  0.40623376519E+04  0.32883511398E+04 0.  0.
        4    1    3    3  502    0 -0.88687586510E+02  0.12735293814E+04  0.87392210562E+02  0.12796021197E+04  0.12699999809E+01 0.  1.
       -4    1    3    3    0  502  0.88687586510E+02 -0.12735293814E+04 -0.24726246896E+04  0.27827355322E+04  0.12699999809E+01 0. -1.
</event>
<event>
 5   0  0.6023446E-07  0.3246800E+04  0.7818609E-02  0.8176566E-01
        1   -1    0    0  501    0  0.00000000000E+00  0.00000000000E+00  0.35128383067E+04  0.35128383067E+04  0.50400001928E-02 0.  1.
       -1   -1    0    0    0  501  0.00000000000E+00  0.00000000000E+00 -0.75022726288E+03  0.75022726289E+03  0.50400001928E-02 0. -1.
    10030    2    1    2    0    0  0.00000000000E+00  0.00000000000E+00  0.27626110438E+04  0.42630655696E+04  0.32467996968E+04 0.  0.
        5    1    3    3  502    0  0.15121479276E+04  0.58995897610E+03  0.14175508798E+04  0.21550210057E+04  0.46999998093E+01 0. -1.
       -5    1    3    3    0  502 -0.15121479276E+04 -0.58995897610E+03  0.13450601640E+04  0.21080445638E+04  0.46999998093E+01 0.  1.
</event>
<event>
 5   0  0.5985183E-07  0.2873699E+04  0.7818609E-02  0.8280746E-01
       -1   -1    0    0    0  501  0.00000000000E+00  0.00000000000E+00  0.14332629866E+04  0.14332629866E+04  0.50400001928E-02 0. -1.
        1   -1    0    0  501    0  0.00000000000E+00  0.00000000000E+00 -0.14404445608E+04  0.14404445608E+04  0.50400001928E-02 0.  1.
    10030    2    1    2    0    0  0.00000000000E+00  0.00000000000E+00 -0.71815741814E+01  0.28737075474E+04  0.28736985738E+04 0.  0.
        2    1    3    3  502    0  0.49760736245E+03 -0.78722067079E+03 -0.10977634785E+04  0.14395881794E+04  0.25500000920E-02 0.  1.
       -2    1    3    3    0  502 -0.49760736245E+03  0.78722067079E+03  0.10905819043E+04  0.14341193680E+04  0.25500000920E-02 0. -1.
</event>
<event>
 5   0  0.5988516E-07  0.3329354E+04  0.7818609E-02  0.8155466E-01
        1   -1    0    0  501    0  0.00000000000E+00  0.00000000000E+00  0.19907854070E+04  0.19907854070E+04  0.50400001928E-02 0. -1.
       -1   -1    0    0    0  501  0.00000000000E+00  0.00000000000E+00 -0.13919881642E+04  0.13919881642E+04  0.50400001928E-02 0.  1.
    10030    2    1    2    0    0  0.00000000000E+00  0.00000000000E+00  0.59879724273E+03  0.33827735712E+04  0.33293541260E+04 0.  0.
        4    1    3    3  502    0  0.94891837173E+03 -0.40804688171E+03 -0.10269973366E+04  0.14565965386E+04  0.12699999809E+01 0.  1.
       -4    1    3    3    0  502 -0.94891837173E+03  0.40804688171E+03  0.16257945794E+04  0.19261770326E+04  0.12699999809E+01 0. -1.
</event>
<event>
 5   0  0.5988516E-07  0.3340619E+04  0.7818609E-02  0.8152636E-01
       -1   -1    0    0    0  501  0.00000000000E+00  0.00000000000E+00  0.19146690562E+04  0.19146690562E+04  0.50400001928E-02 0.  1.
        1   -1    0    0  501    0  0.00000000000E+00  0.00000000000E+00 -0.14571366438E+04  0.14571366438E+04  0.50400001928E-02 0. -1.
    10030    2    1    2    0    0  0.00000000000E+00  0.00000000000E+00  0.45753241241E+03  0.33718056999E+04  0.33406193692E+04 0.  0.
        4    1    3    3  502    0  0.54717281394E+03 -0.97867303634E+03  0.14783601654E+04  0.18554647374E+04  0.12699999809E+01 0.  1.
       -4    1    3    3    0  502 -0.54717281394E+03  0.97867303634E+03 -0.10208277530E+04  0.15163409625E+04  0.12699999809E+01 0. -1.
</event>
<event>
 5   0  0.1832626E-06  0.3290823E+04  0.7818609E-02  0.8165234E-01
        2   -1    0    0  501    0  0.00000000000E+00  0.00000000000E+00  0.17689399419E+04  0.17689399419E+04  0.25500000920E-02 0. -1.
       -2   -1    0    0    0  501  0.00000000000E+00  0.00000000000E+00 -0.15305097311E+04  0.15305097311E+04  0.25500000920E-02 0.  1.
    10030    2    1    2    0    0  0.00000000000E+00  0.00000000000E+00  0.23843021085E+03  0.32994496730E+04  0.32908234804E+04 0.  0.
        3    1    3    3  502    0 -0.93711321867E+03  0.19939213136E+02 -0.12366614443E+04  0.15517442750E+04  0.10100000352E+00 0.  1.
       -3    1    3    3    0  502  0.93711321867E+03 -0.19939213136E+02  0.14750916552E+04  0.17477053980E+04  0.10100000352E+00 0. -1.
</event>
<event>
 5   0  0.5985183E-07  0.3356179E+04  0.7818609E-02  0.8148746E-01
       -1   -1    0    0    0  501  0.00000000000E+00  0.00000000000E+00  0.14123374627E+04  0.14123374627E+04  0.50400001928E-02 0.  1.
        1   -1    0    0  501    0  0.00000000000E+00  0.00000000000E+00 -0.19938469148E+04  0.19938469148E+04  0.50400001928E-02 0. -1.
    10030    2    1    2    0    0  0.00000000000E+00  0.00000000000E+00 -0.58150945217E+03  0.34061843775E+04  0.33561791923E+04 0.  0.
        2    1    3    3  502    0 -0.14681822870E+04  0.55874857482E+03  0.30814386922E+03  0.16008472262E+04  0.25500000920E-02 0.  1.
       -2    1    3    3    0  502  0.14681822870E+04 -0.55874857482E+03 -0.88965332139E+03  0.18053371513E+04  0.25500000920E-02 0. -1.
</event>
<event>
 5   0  0.1832626E-06  0.3242429E+04  0.7818609E-02  0.8177701E-01
        2   -1    0    0  501    0  0.00000000000E+00  0.00000000000E+00  0.14558227574E+04  0.14558227574E+04  0.25500000920E-02 0. -1.
       -2   -1    0    0    0  501  0.00000000000E+00  0.00000000000E+00 -0.18053964343E+04  0.18053964343E+04  0.25500000920E-02 0.  1.
    10030    2    1    2    0    0  0.00000000000E+00  0.00000000000E+00 -0.34957367690E+03  0.32612191917E+04  0.32424294689E+04 0.  0.
        3    1    3    3  502    0  0.65120662368E+03  0.13787372876E+04  0.37917762033E+03  0.15712295354E+04  0.10100000352E+00 0. -1.
       -3    1    3    3    0  502 -0.65120662368E+03 -0.13787372876E+04 -0.72875129723E+03  0.16899896563E+04  0.10100000352E+00 0.  1.
</event>
<event>
 5   0  0.6023446E-07  0.3304783E+04  0.7818609E-02  0.8161679E-01
       -1   -1    0    0    0  501  0.00000000000E+00  0.00000000000E+00  0.14716725941E+04  0.14716725941E+04  0.50400001928E-02 0.  1.
        1   -1    0    0  501    0  0.00000000000E+00  0.00000000000E+00 -0.18553021078E+04  0.18553021078E+04  0.50400001928E-02 0. -1.
    10030    2    1    2    0    0  0.00000000000E+00  0.00000000000E+00 -0.38362951364E+03  0.33269747019E+04  0.33047827558E+04 0.  0.
        5    1    3    3  502    0 -0.67393143623E+03  0.57277477979E+03  0.12133087757E+04  0.15014642201E+04  0.46999998093E+01 0.  1.
       -5    1    3    3    0  502  0.67393143623E+03 -0.57277477979E+03 -0.15969382893E+04  0.18255104818E+04  0.46999998093E+01 0. -1.
</event>
<event>
 5   0  0.1832626E-06  0.3296855E+04  0.7818609E-02  0.8163696E-01
        2   -1    0    0  501    0  0.00000000000E+00  0.00000000000E+00  0.27579033900E+04  0.27579033900E+04  0.25500000920E-02 0. -1.
       -2   -1    0    0    0  501  0.00000000000E+00  0.00000000000E+00 -0.98528204535E+03  0.98528204536E+03  0.25500000920E-02 0.  1.
    10030    2    1    2    0    0  0.00000000000E+00  0.00000000000E+00  0.17726213447E+04  0.37431854354E+04  0.32968546786E+04 0.  0.
        3    1    3    3  502    0  0.48456374503E+03 -0.14470067713E+04  0.15941566816E+04  0.22067999807E+04  0.10100000352E+00 0. -1.
       -3    1    3    3    0  502 -0.48456374503E+03  0.14470067713E+04  0.17846466304E+03  0.15363854547E+04  0.10100000352E+00 0.  1.
</event>
<event>
 5   0  0.5858859E-07  0.3287859E+04  0.7818609E-02  0.8165991E-01
       -1   -1    0    0    0  501  0.00000000000E+00  0.00000000000E+00  0.17073748027E+04  0.17073748028E+04  0.50400001928E-02 0. -1.
        1   -1    0    0  501    0  0.00000000000E+00  0.00000000000E+00 -0.15828419772E+04  0.15828419772E+04  0.50400001928E-02 0.  1.
    10030    2    1    2    0    0  0.00000000000E+00  0.00000000000E+00  0.12453282552E+03  0.32902167800E+04  0.32878591872E+04 0.  0.
        3    1    3    3  502    0 -0.23970499051E+03 -0.16263007489E+04  0.76128786311E+02  0.16456330729E+04  0.10100000352E+00 0.  1.
       -3    1    3    3    0  502  0.23970499051E+03  0.16263007489E+04  0.48404039210E+02  0.16445837071E+04  0.10100000352E+00 0. -1.
</event>
<event>
 5   0  0.6023446E-07  0.3337639E+04  0.7818609E-02  0.8153384E-01
        1   -1    0    0  501    0  0.00000000000E+00  0.00000000000E+00  0.16353118437E+04  0.16353118437E+04  0.50400001928E-02 0. -1.
       -1   -1    0    0    0  501  0.00000000000E+00  0.00000000000E+00 -0.17030139155E+04  0.17030139155E+04  0.50400001928E-02 0.  1.
    10030    2    1    2    0    0  0.00000000000E+00  0.00000000000E+00 -0.67702071812E+02  0.33383257592E+04  0.33376391812E+04 0.  0.
        5    1    3    3  502    0 -0.51718164932E+03 -0.31099755416E+03  0.15223418927E+04  0.16376029022E+04  0.46999998093E+01 0. -1.
       -5    1    3    3    0  502  0.51718164932E+03  0.31099755416E+03 -0.15900439645E+04  0.17007228570E+04  0.46999998093E+01 0.  1.
</event>
<event>
 5   0  0.1743810E-06  0.3361959E+04  0.7818609E-02  0.8147306E-01
       -2   -1    0    0    0  501  0.00000000000E+00  0.00000000000E+00  0.10683738297E+04  0.10683738297E+04  0.25500000920E-02 0. -1.
        2   -1    0    0  501    0  0.00000000000E+00  0.00000000000E+00 -0.26448536892E+04  0.26448536892E+04  0.25500000920E-02 0.  1.
    10030    2    1    2    0    0  0.00000000000E+00  0.00000000000E+00 -0.15764798595E+04  0.37132275189E+04  0.33619592294E+04 0.  0.
        5    1    3    3  502    0 -0.36631114832E+03 -0.15929561447E+04 -0.35484145199E+03  0.16726110373E+04  0.46999998093E+01 0. -1.
       -5    1    3    3    0  502  0.36631114832E+03  0.15929561447E+04 -0.12216384075E+04  0.20406164816E+04  0.46999998093E+01 0.  1.
</event>
<event>
 5   0  0.5858859E-07  0.3274741E+04  0.7818609E-02  0.8169352E-01
        1   -1    0    0  501    0  0.00000000000E+00  0.00000000000E+00  0.13078890703E+04  0.13078890703E+04  0.50400001928E-02 0. -1.
       -1   -1    0    0    0  501  0.00000000000E+00  0.00000000000E+00 -0.20498547454E+04  0.20498547455E+04  0.50400001928E-02 0.  1.
    10030    2    1    2    0    0  0.00000000000E+00  0.00000000000E+00 -0.74196567513E+03  0.33577438158E+04  0.32747412828E+04 0.  0.
        3    1    3    3  502    0  0.25923480326E+03  0.40062147325E+03  0.12350126886E+04  0.13239926734E+04  0.10100000352E+00 0. -1.
       -3    1    3    3    0  502 -0.25923480326E+03 -0.40062147325E+03 -0.19769783637E+04  0.20337511423E+04  0.10100000352E+00 0.  1.
</event>
<event>
 5   0  0.5985183E-07  0.3240626E+04  0.7818609E-02  0.8178169E-01
       -1   -1    0    0    0  501  0.00000000000E+00  0.00000000000E+00  0.14183558420E+04  0.14183558420E+04  0.50400001928E-02 0.  1.
        1   -1    0    0  501    0  0.00000000000E+00  0.00000000000E+00 -0.18510270135E+04  0.18510270135E+04  0.50400001928E-02 0. -1.
    10030    2    1    2    0    0  0.00000000000E+00  0.00000000000E+00 -0.43267117151E+03  0.32693828554E+04  0.32406264692E+04 0.  0.
        2    1    3    3  502    0 -0.22502112685E+03  0.34043587266E+02  0.14021511493E+04  0.14205003762E+04  0.25500000920E-02 0.  1.
       -2    1    3    3    0  502  0.22502112685E+03 -0.34043587266E+02 -0.18348223208E+04  0.18488824793E+04  0.25500000920E-02 0. -1.
</event>
<event>
 5   0  0.1784626E-06  0.3292321E+04  0.7818609E-02  0.8164852E-01
        2   -1    0    0  501    0  0.00000000000E+00  0.00000000000E+00  0.23642955617E+04  0.23642955617E+04  0.25500000920E-02 0. -1.
       -2   -1    0    0    0  501  0.00000000000E+00  0.00000000000E+00 -0.11461526856E+04  0.11461526856E+04  0.25500000920E-02 0.  1.
    10030    2    1    2    0    0  0.00000000000E+00  0.00000000000E+00  0.12181428761E+04  0.35104482474E+04  0.32923205845E+04 0.  0.
        2    1    3    3  502    0 -0.12739036582E+04  0.36315330011E+03 -0.43298766158E+03  0.13936244705E+04  0.25500000920E-02 0. -1.
       -2    1    3    3    0  502  0.12739036582E+04 -0.36315330011E+03  0.16511305377E+04  0.21168237768E+04  0.25500000920E-02 0.  1.
</event>
<event>
 5   0  0.1784626E-06  0.3279682E+04  0.7818609E-02  0.8168085E-01
       -2   -1    0    0    0  501  0.00000000000E+00  0.00000000000E+00  0.90357691719E+03  0.90357691720E+03  0.25500000920E-02 0. -1.
        2   -1    0    0  501    0  0.00000000000E+00  0.00000000000E+00 -0.29760379877E+04  0.29760379877E+04  0.25500000920E-02 0.  1.
    10030    2    1    2    0    0  0.00000000000E+00  0.00000000000E+00 -0.20724610705E+04  0.38796149049E+04  0.32796824422E+04 0.  0.
        2    1    3    3  502    0 -0.83241775753E+03 -0.83266062706E+03  0.31398074144E+03  0.12185347549E+04  0.25500000920E-02 0. -1.
       -2    1    3    3    0  502  0.83241775753E+03  0.83266062706E+03 -0.23864418120E+04  0.26610801500E+04  0.25500000920E-02 0.  1.
</event>
<event>
 5   0  0.1696681E-06  0.3260813E+04  0.7818609E-02  0.8172939E-01
       -2   -1    0    0    0  501  0.00000000000E+00  0.00000000000E+00  0.21405807232E+04  0.21405807232E+04  0.25500000920E-02 0. -1.
        2   -1    0    0  501    0  0.00000000000E+00  0.00000000000E+00 -0.12418240880E+04  0.12418240880E+04  0.25500000920E-02 0.  1.
    10030    2    1    2    0    0  0.00000000000E+00  0.00000000000E+00  0.89875663515E+03  0.33824048112E+04  0.32608126009E+04 0.  0.
        4    1    3    3  502    0  0.21436919720E+03 -0.13811242121E+04  0.13201852153E+04  0.19225891026E+04  0.12699999809E+01 0. -1.
       -4    1    3    3    0  502 -0.21436919720E+03  0.13811242121E+04 -0.42142858011E+03  0.14598157086E+04  0.12699999809E+01 0.  1.
</event>
<event>
 5   0  0.1728937E-06  0.3305266E+04  0.7818609E-02  0.8161557E-01
        2   -1    0    0  501    0  0.00000000000E+00  0.00000000000E+00  0.18006799713E+04  0.18006799713E+04  0.25500000920E-02 0. -1.
       -2   -1    0    0    0  501  0.00000000000E+00  0.00000000000E+00 -0.15167577934E+04  0.15167577934E+04  0.25500000920E-02 0.  1.
    10030    2    1    2    0    0  0.00000000000E+00  0.00000000000E+00  0.28392217782E+03  0.33174377647E+04  0.33052657260E+04 0.  0.
        1    1    3    3  502    0 -0.19955082588E+02  0.17077308022E+03 -0.15077566296E+04  0.15175281561E+04  0.50400001928E-02 0.  1.
       -1    1    3    3    0  502  0.19955082588E+02 -0.17077308022E+03  0.17916788074E+04  0.17999096086E+04  0.50400001928E-02 0. -1.
</event>
<event>
 5   0  0.5685000E-07  0.3261248E+04  0.7818609E-02  0.8172826E-01
       -4   -1    0    0    0  501  0.00000000000E+00  0.00000000000E+00  0.18453773199E+04  0.18453777569E+04  0.12699999809E+01 0. -1.
        4   -1    0    0  501    0  0.00000000000E+00  0.00000000000E+00 -0.14408611626E+04  0.14408617223E+04  0.12699999809E+01 0.  1.
    10030    2    1    2    0    0  0.00000000000E+00  0.00000000000E+00  0.40451615726E+03  0.32862394793E+04  0.32612477050E+04 0.  0.
        1    1    3    3  502    0 -0.71782678212E+03  0.14093013604E+04  0.60219825991E+03  0.16923499513E+04  0.50400001928E-02 0. -1.
       -1    1    3    3    0  502  0.71782678212E+03 -0.14093013604E+04 -0.19768210266E+03  0.15938895279E+04  0.50400001928E-02 0.  1.
</event>
<event>
 5   0  0.1696681E-06  0.3318759E+04  0.7818609E-02  0.8158138E-01
       -2   -1    0    0    0  501  0.00000000000E+00  0.00000000000E+00  0.10949764425E+04  0.10949764426E+04  0.25500000920E-02 0. -1.
        2   -1    0    0  501    0  0.00000000000E+00  0.00000000000E+00 -0.25147032216E+04  0.25147032216E+04  0.25500000920E-02 0.  1.
    10030    2    1    2    0    0  0.00000000000E+00  0.00000000000E+00 -0.14197267791E+04  0.36096796642E+04  0.33187592788E+04 0.  0.
        4    1    3    3  502    0  0.47102228665E+03  0.56228697569E+03  0.90907313078E+03  0.11680942631E+04  0.12699999809E+01 0. -1.
       -4    1    3    3    0  502 -0.47102228665E+03 -0.56228697569E+03 -0.23287999099E+04  0.24415854010E+04  0.12699999809E+01 0.  1.
</event>
<event>
 5   0  0.1728937E-06  0.3252100E+04  0.7818609E-02  0.8175192E-01
       -2   -1    0    0    0  501  0.00000000000E+00  0.00000000000E+00  0.16491442366E+04  0.16491442366E+04  0.25500000920E-02 0. -1.
        2   -1    0    0  501    0  0.00000000000E+00  0.00000000000E+00 -0.16032794194E+04  0.16032794194E+04  0.25500000920E-02 0.  1.
    10030    2    1    2    0    0  0.00000000000E+00  0.00000000000E+00  0.45864817176E+02  0.32524236560E+04  0.32521002531E+04 0.  0.
        1    1    3    3  502    0  0.90159167970E+03  0.40925668657E+03 -0.12670332209E+04  0.16080210743E+04  0.50400001928E-02 0.  1.
       -1    1    3    3    0  502 -0.90159167970E+03 -0.40925668657E+03  0.13128980381E+04  0.16444025817E+04  0.50400001928E-02 0. -1.
</event>
<event>
 5   0  0.5858859E-07  0.3307955E+04  0.7818609E-02  0.8160874E-01
       -1   -1    0    0    0  501  0.00000000000E+00  0.00000000000E+00  0.11111323361E+04  0.11111323361E+04  0.50400001928E-02 0. -1.
        1   -1    0    0  501    0  0.00000000000E+00  0.00000000000E+00 -0.24620309050E+04  0.24620309050E+04  0.50400001928E-02 0.  1.
    10030    2    1    2    0    0  0.00000000000E+00  0.00000000000E+00 -0.13508985689E+04  0.35731632410E+04  0.33079553509E+04 0.  0.
        3    1    3    3  502    0 -0.56448568625E+03  0.23382743728E+03  0.98475999704E+03  0.11589096696E+04  0.10100000352E+00 0. -1.
       -3    1    3    3    0  502  0.56448568625E+03 -0.23382743728E+03 -0.23356585659E+04  0.24142535714E+04  0.10100000352E+00 0.  1.
</event>
<event>
 5   0  0.1743810E-06  0.3277794E+04  0.7818609E-02  0.8168569E-01
        2   -1    0    0  501    0  0.00000000000E+00  0.00000000000E+00  0.24563846252E+04  0.24563846252E+04  0.25500000920E-02 0. -1.
       -2   -1    0    0    0  501  0.00000000000E+00  0.00000000000E+00 -0.10934702028E+04  0.10934702028E+04  0.25500000920E-02 0.  1.
    10030    2    1    2    0    0  0.00000000000E+00  0.00000000000E+00  0.13629144224E+04  0.35498548280E+04  0.32777940108E+04 0.  0.
        5    1    3    3  502    0  0.64604600755E+03 -0.59123555578E+03  0.21817271513E+04  0.23509339376E+04  0.46999998093E+01 0. -1.
       -5    1    3    3    0  502 -0.64604600755E+03  0.59123555578E+03 -0.81881272896E+03  0.11989208904E+04  0.46999998093E+01 0.  1.
</event>
<event>
 5   0  0.5988516E-07  0.3304752E+04  0.7818609E-02  0.8161687E-01
       -1   -1    0    0    0  501  0.00000000000E+00  0.00000000000E+00  0.11992391810E+04  0.11992391810E+04  0.50400001928E-02 0.  1.
        1   -1    0    0  501    0  0.00000000000E+00  0.00000000000E+00 -0.22767319241E+04  0.22767319241E+04  0.50400001928E-02 0. -1.
    10030    2    1    2    0    0  0.00000000000E+00  0.00000000000E+00 -0.10774927431E+04  0.34759711051E+04  0.33047518079E+04 0.  0.
        4    1    3    3  502    0 -0.13473961738E+03 -0.89420999895E+03  0.91586477974E+03  0.12870804926E+04  0.12699999809E+01 0.  1.
       -4    1    3    3    0  502  0.13473961738E+03  0.89420999895E+03 -0.19933575228E+04  0.21888906125E+04  0.12699999809E+01 0. -1.
</event>
<event>
 5   0  0.1728937E-06  0.3176150E+04  0.7818609E-02  0.8195144E-01
       -2   -1    0    0    0  501  0.00000000000E+00  0.00000000000E+00  0.13941802163E+04  0.13941802163E+04  0.25500000920E-02 0. -1.
        2   -1    0    0  501    0  0.00000000000E+00  0.00000000000E+00 -0.18089357452E+04  0.18089357452E+04  0.25500000920E-02 0.  1.
    10030    2    1    2    0    0  0.00000000000E+00  0.00000000000E+00 -0.41475552889E+03  0.32031159614E+04  0.31761501403E+04 0.  0.
        1    1    3    3  502    0 -0.13984451458E+04 -0.38117258170E+03 -0.86176356309E+03  0.16862911378E+04  0.50400001928E-02 0.  1.
       -1    1    3    3    0  502  0.13984451458E+04  0.38117258170E+03  0.44700803420E+03  0.15168248236E+04  0.50400001928E-02 0. -1.
</event>
<event>
 5   0  0.1784626E-06  0.3302155E+04  0.7818609E-02  0.8162347E-01
       -2   -1    0    0    0  501  0.00000000000E+00  0.00000000000E+00  0.11636076548E+04  0.11636076548E+04  0.25500000920E-02 0. -1.
        2   -1    0    0  501    0  0.00000000000E+00  0.00000000000E+00 -0.23427628094E+04  0.23427628094E+04  0.25500000920E-02 0.  1.
    10030    2    1    2    0    0  0.00000000000E+00  0.00000000000E+00 -0.11791551546E+04  0.35063704642E+04  0.33021548955E+04 0.  0.
        2    1    3    3  502    0 -0.29211522353E+03  0.79791434730E+03 -0.20927732454E+04  0.22586939735E+04  0.25500000920E-02 0.  1.
       -2    1    3    3    0  502  0.29211522353E+03 -0.79791434730E+03  0.91361809083E+03  0.12476764907E+04  0.25500000920E-02 0. -1.
</event>
<event>
 5   0  0.6023446E-07  0.3297621E+04  0.7818609E-02  0.8163501E-01
        1   -1    0    0  501    0  0.00000000000E+00  0.00000000000E+00  0.17336902419E+04  0.17336902419E+04  0.50400001928E-02 0.  1.
       -1   -1    0    0    0  501  0.00000000000E+00  0.00000000000E+00 -0.15680866706E+04  0.15680866706E+04  0.50400001928E-02 0. -1.
    10030    2    1    2    0    0  0.00000000000E+00  0.00000000000E+00  0.16560357138E+03  0.33017769125E+04  0.32976212998E+04 0.  0.
        5    1    3    3  502    0  0.29362261622E+03  0.14075567821E+04 -0.72513771777E+03  0.16103655285E+04  0.46999998093E+01 0. -1.
       -5    1    3    3    0  502 -0.29362261622E+03 -0.14075567821E+04  0.89074128915E+03  0.16914113840E+04  0.46999998093E+01 0.  1.
</event>
<event>
 5   0  0.1696681E-06  0.3306582E+04  0.7818609E-02  0.8161223E-01
        2   -1    0    0  501    0  0.00000000000E+00  0.00000000000E+00  0.14233978768E+04  0.14233978768E+04  0.25500000920E-02 0. -1.
       -2   -1    0    0    0  501  0.00000000000E+00  0.00000000000E+00 -0.19203144341E+04  0.19203144341E+04  0.25500000920E-02 0.  1.
    10030    2    1    2    0    0  0.00000000000E+00  0.00000000000E+00 -0.49691655732E+03  0.33437123109E+04  0.33065822163E+04 0.  0.
        4    1    3    3  502    0 -0.54578356984E+03  0.28954548096E+03 -0.17991885055E+04  0.19023136392E+04  0.12699999809E+01 0.  1.
       -4    1    3    3    0  502  0.54578356984E+03 -0.28954548096E+03  0.13022719482E+04  0.14413986717E+04  0.12699999809E+01 0. -1.
</event>
<event>
 5   0  0.1743810E-06  0.3299935E+04  0.7818609E-02  0.8162912E-01
       -2   -1    0    0    0  501  0.00000000000E+00  0.00000000000E+00  0.11283652648E+04  0.11283652648E+04  0.25500000920E-02 0.  1.
        2   -1    0    0  501    0  0.00000000000E+00  0.00000000000E+00 -0.24126880426E+04  0.24126880426E+04  0.25500000920E-02 0. -1.
    10030    2    1    2    0    0  0.00000000000E+00  0.00000000000E+00 -0.12843227778E+04  0.35410533074E+04  0.32999353825E+04 0.  0.
        5    1    3    3  502    0  0.44995408961E+03  0.11567184217E+04 -0.18087565479E+04  0.21936450326E+04  0.46999998093E+01 0. -1.
       -5    1    3    3    0  502 -0.44995408961E+03 -0.11567184217E+04  0.52443377007E+03  0.13474082748E+04  0.46999998093E+01 0.  1.
</event>
<event>
 5   0  0.5988516E-07  0.3322861E+04  0.7818609E-02  0.8157103E-01
       -1   -1    0    0    0  501  0.00000000000E+00  0.00000000000E+00  0.13376271188E+04  0.13376271188E+04  0.50400001928E-02 0.  1.
        1   -1    0    0  501    0  0.00000000000E+00  0.00000000000E+00 -0.20636182206E+04  0.20636182206E+04  0.50400001928E-02 0. -1.
    10030    2    1    2    0    0  0.00000000000E+00  0.00000000000E+00 -0.72599110174E+03  0.34012453394E+04  0.33228612338E+04 0.  0.
        4    1    3    3  502    0  0.49067453697E+03 -0.63209826467E+03 -0.18533783153E+04  0.20187428043E+04  0.12699999809E+01 0. -1.
       -4    1    3    3    0  502 -0.49067453697E+03  0.63209826467E+03  0.11273872135E+04  0.13825025351E+04  0.12699999809E+01 0.  1.
</event>
<event>
 5   0  0.1728937E-06  0.3306071E+04  0.7818609E-02  0.8161352E-01
        2   -1    0    0  501    0  0.00000000000E+00  0.00000000000E+00  0.15456788746E+04  0.15456788746E+04  0.25500000920E-02 0.  1.
       -2   -1    0    0    0  501  0.00000000000E+00  0.00000000000E+00 -0.17678490055E+04  0.17678490055E+04  0.25500000920E-02 0. -1.
    10030    2    1    2    0    0  0.00000000000E+00  0.00000000000E+00 -0.22217013089E+03  0.33135278801E+04  0.33060713007E+04 0.  0.
        1    1    3    3  502    0 -0.11663284737E+04  0.73480836601E+03 -0.10254262762E+04  0.17180699902E+04  0.50400001928E-02 0. -1.
       -1    1    3    3    0  502  0.11663284737E+04 -0.73480836601E+03  0.80325614532E+03  0.15954578899E+04  0.50400001928E-02 0.  1.
</event>
<event>
 5   0  0.5685000E-07  0.3222121E+04  0.7818609E-02  0.8182999E-01
        3   -1    0    0  501    0  0.00000000000E+00  0.00000000000E+00  0.82161277219E+03  0.82161277840E+03  0.10100000352E+00 0.  1.
       -3   -1    0    0    0  501  0.00000000000E+00  0.00000000000E+00 -0.31590499503E+04  0.31590499519E+04  0.10100000352E+00 0. -1.
    10030    2    1    2    0    0  0.00000000000E+00  0.00000000000E+00 -0.23374371781E+04  0.39806627303E+04  0.32221209181E+04 0.  0.
        2    1    3    3  502    0 -0.43389444794E+03  0.94764070676E+03  0.34899928009E+03  0.10991304739E+04  0.25500000920E-02 0.  1.
       -2    1    3    3    0  502  0.43389444794E+03 -0.94764070676E+03 -0.26864364582E+04  0.28815322565E+04  0.25500000920E-02 0. -1.
</event>
<event>
 5   0  0.5858859E-07  0.3291401E+04  0.7818609E-02  0.8165087E-01
       -1   -1    0    0    0  501  0.00000000000E+00  0.00000000000E+00  0.15008105788E+04  0.15008105788E+04  0.50400001928E-02 0. -1.
        1   -1    0    0  501    0  0.00000000000E+00  0.00000000000E+00 -0.18045784180E+04  0.18045784180E+04  0.50400001928E-02 0.  1.
    10030    2    1    2    0    0  0.00000000000E+00  0.00000000000E+00 -0.30376783921E+03  0.33053889969E+04  0.32914011485E+04 0.  0.
        3    1    3    3  502    0 -0.34812934182E+03 -0.23491985456E+03 -0.17498561834E+04  0.17995494018E+04  0.10100000352E+00 0.  1.
       -3    1    3    3    0  502  0.34812934182E+03  0.23491985456E+03  0.14460883442E+04  0.15058395951E+04  0.10100000352E+00 0. -1.
</event>
<event>
 5   0  0.5858859E-07  0.3284015E+04  0.7818609E-02  0.8166975E-01
        1   -1    0    0  501    0  0.00000000000E+00  0.00000000000E+00  0.20035980369E+04  0.20035980369E+04  0.50400001928E-02 0.  1.
       -1   -1    0    0    0  501  0.00000000000E+00  0.00000000000E+00 -0.13456733655E+04  0.13456733655E+04  0.50400001928E-02 0. -1.
    10030    2    1    2    0    0  0.00000000000E+00  0.00000000000E+00  0.65792467143E+03  0.33492714024E+04  0.32840149290E+04 0.  0.
        3    1    3    3  502    0  0.15286876999E+04 -0.25924168048E+03 -0.22223632048E+03  0.15663592580E+04  0.10100000352E+00 0. -1.
       -3    1    3    3    0  502 -0.15286876999E+04  0.25924168048E+03  0.88016099192E+03  0.17829121444E+04  0.10100000352E+00 0.  1.
</event>
<event>
 5   0  0.6085351E-07  0.3097472E+04  0.7818609E-02  0.8216432E-01
       -1   -1    0    0    0  501  0.00000000000E+00  0.00000000000E+00  0.12393002203E+04  0.12393002203E+04  0.50400001928E-02 0. -1.
        1   -1    0    0  501    0  0.00000000000E+00  0.00000000000E+00 -0.19354337309E+04  0.19354337309E+04  0.50400001928E-02 0.  1.
    10030    2    1    2    0    0  0.00000000000E+00  0.00000000000E+00 -0.69613351066E+03  0.31747339512E+04  0.30974721623E+04 0.  0.
        1    1    3    3  502    0  0.99870646637E+03  0.51555753338E+03 -0.14401820587E+04  0.18268383996E+04  0.50400001928E-02 0.  1.
       -1    1    3    3    0  502 -0.99870646637E+03 -0.51555753338E+03  0.74404854802E+03  0.13478955516E+04  0.50400001928E-02 0. -1.
</event>
<event>
 5   0  0.1832626E-06  0.3256640E+04  0.7818609E-02  0.8174017E-01
       -2   -1    0    0    0  501  0.00000000000E+00  0.00000000000E+00  0.99187470261E+03  0.99187470261E+03  0.25500000920E-02 0. -1.
        2   -1    0    0  501    0  0.00000000000E+00  0.00000000000E+00 -0.26731462738E+04  0.26731462738E+04  0.25500000920E-02 0.  1.
    10030    2    1    2    0    0  0.00000000000E+00  0.00000000000E+00 -0.16812715712E+04  0.36650209765E+04  0.32566400878E+04 0.  0.
        3    1    3    3  502    0 -0.87558821850E+03 -0.10119152405E+04  0.20350141748E+03  0.13535287287E+04  0.10100000352E+00 0. -1.
       -3    1    3    3    0  502  0.87558821850E+03  0.10119152405E+04 -0.18847729887E+04  0.23114922478E+04  0.10100000352E+00 0.  1.
</event>
<event>
 5   0  0.5685000E-07  0.2811722E+04  0.7818609E-02  0.8299638E-01
        3   -1    0    0  501    0  0.00000000000E+00  0.00000000000E+00  0.84499450761E+03  0.84499451365E+03  0.10100000352E+00 0. -1.
       -3   -1    0    0    0  501  0.00000000000E+00  0.00000000000E+00 -0.23390029272E+04  0.23390029294E+04  0.10100000352E+00 0.  1.
    10030    2    1    2    0    0  0.00000000000E+00  0.00000000000E+00 -0.14940084196E+04  0.31839974431E+04  0.28117216362E+04 0.  0.
        3    1    3    3  502    0  0.88281118366E+03 -0.99012192670E+03 -0.12742068180E+04  0.18393749049E+04  0.10100000352E+00 0.  1.
       -3    1    3    3    0  502 -0.88281118366E+03  0.99012192670E+03 -0.21980160163E+03  0.13446225381E+04  0.10100000352E+00 0. -1.
</event>
<event>
 5   0  0.1832626E-06  0.3299430E+04  0.7818609E-02  0.8163040E-01
       -2   -1    0    0    0  501  0.00000000000E+00  0.00000000000E+00  0.11412155362E+04  0.11412155362E+04  0.25500000920E-02 0.  1.
        2   -1    0    0  501    0  0.00000000000E+00  0.00000000000E+00 -0.23847898722E+04  0.23847898722E+04  0.25500000920E-02 0. -1.
    10030    2    1    2    0    0  0.00000000000E+00  0.00000000000E+00 -0.12435743360E+04  0.35260054084E+04  0.32994298008E+04 0.  0.
        3    1    3    3  502    0  0.12551611794E+03  0.14841960220E+04  0.13611626948E+03  0.14957004301E+04  0.10100000352E+00 0.  1.
       -3    1    3    3    0  502 -0.12551611794E+03 -0.14841960220E+04 -0.13796906054E+04  0.20303049782E+04  0.10100000352E+00 0. -1.
</event>
<event>
 5   0  0.1743810E-06  0.3303793E+04  0.7818609E-02  0.8161931E-01
       -2   -1    0    0    0  501  0.00000000000E+00  0.00000000000E+00  0.22835650501E+04  0.22835650501E+04  0.25500000920E-02 0. -1.
        2   -1    0    0  501    0  0.00000000000E+00  0.00000000000E+00 -0.11949570547E+04  0.11949570547E+04  0.25500000920E-02 0.  1.
    10030    2    1    2    0    0  0.00000000000E+00  0.00000000000E+00  0.10886079954E+04  0.34785221049E+04  0.33037930726E+04 0.  0.
        5    1    3    3  502    0  0.15003988640E+04  0.60854378998E+03  0.88906277921E+03  0.18471537594E+04  0.46999998093E+01 0. -1.
       -5    1    3    3    0  502 -0.15003988640E+04 -0.60854378998E+03  0.19954521619E+03  0.16313683455E+04  0.46999998093E+01 0.  1.
</event>
<event>
 5   0  0.5985183E-07  0.3319364E+04  0.7818609E-02  0.8157986E-01
        1   -1    0    0  501    0  0.00000000000E+00  0.00000000000E+00  0.20255606212E+04  0.20255606212E+04  0.50400001928E-02 0. -1.
       -1   -1    0    0    0  501  0.00000000000E+00  0.00000000000E+00 -0.13598919346E+04  0.13598919346E+04  0.50400001928E-02 0.  1.
    10030    2    1    2    0    0  0.00000000000E+00  0.00000000000E+00  0.66566868665E+03  0.33854525558E+04  0.33193635244E+04 0.  0.
        2    1    3    3  502    0 -0.63737726658E+03  0.63218934005E+03 -0.10908924314E+04  0.14127842859E+04  0.25500000920E-02 0.  1.
       -2    1    3    3    0  502  0.63737726658E+03 -0.63218934005E+03  0.17565611181E+04  0.19726682699E+04  0.25500000920E-02 0. -1.
</event>
<event>
 5   0  0.5988516E-07  0.3308709E+04  0.7818609E-02  0.8160683E-01
       -1   -1    0    0    0  501  0.00000000000E+00  0.00000000000E+00  0.93635655669E+03  0.93635655671E+03  0.50400001928E-02 0. -1.
        1   -1    0    0  501    0  0.00000000000E+00  0.00000000000E+00 -0.29229134233E+04  0.29229134233E+04  0.50400001928E-02 0.  1.
    10030    2    1    2    0    0  0.00000000000E+00  0.00000000000E+00 -0.19865568666E+04  0.38592699800E+04  0.33087092037E+04 0.  0.
        4    1    3    3  502    0 -0.80197565431E+03  0.40496707803E+03 -0.26135737963E+04  0.27636810392E+04  0.12699999809E+01 0.  1.
       -4    1    3    3    0  502  0.80197565431E+03 -0.40496707803E+03  0.62701692969E+03  0.10955889409E+04  0.12699999809E+01 0. -1.
</event>
<event>
 5   0  0.1784626E-06  0.3266306E+04  0.7818609E-02  0.8171522E-01
        2   -1    0    0  501    0  0.00000000000E+00  0.00000000000E+00  0.21476581998E+04  0.21476581998E+04  0.25500000920E-02 0.  1.
       -2   -1    0    0    0  501  0.00000000000E+00  0.00000000000E+00 -0.12419057864E+04  0.12419057864E+04  0.25500000920E-02 0. -1.
    10030    2    1    2    0    0  0.00000000000E+00  0.00000000000E+00  0.90575241340E+03  0.33895639863E+04  0.32663062598E+04 0.  0.
        2    1    3    3  502    0 -0.68244701694E+03 -0.10611663997E+04  0.15290146114E+04  0.19823455149E+04  0.25500000920E-02 0.  1.
       -2    1    3    3    0  502  0.68244701694E+03  0.10611663997E+04 -0.62326219797E+03  0.14072184713E+04  0.25500000920E-02 0. -1.
</event>
<event>
 5   0  0.1832626E-06  0.3300634E+04  0.7818609E-02  0.8162734E-01
        2   -1    0    0  501    0  0.00000000000E+00  0.00000000000E+00  0.12445332396E+04  0.12445332396E+04  0.25500000920E-02 0.  1.
       -2   -1    0    0    0  501  0.00000000000E+00  0.00000000000E+00 -0.21884075749E+04  0.21884075749E+04  0.25500000920E-02 0. -1.
    10030    2    1    2    0    0  0.00000000000E+00  0.00000000000E+00 -0.94387433532E+03  0.34329408146E+04  0.33006338597E+04 0.  0.
        3    1    3    3  502    0 -0.12517365004E+04 -0.97198420017E+03 -0.95077013511E+03  0.18481237545E+04  0.10100000352E+00 0. -1.
       -3    1    3    3    0  502  0.12517365004E+04  0.97198420017E+03  0.68957997878E+01  0.15848170601E+04  0.10100000352E+00 0.  1.
</event>
<event>
 5   0  0.6085351E-07  0.3313664E+04  0.7818609E-02  0.8159427E-01
        1   -1    0    0  501    0  0.00000000000E+00  0.00000000000E+00  0.27603547013E+04  0.27603547013E+04  0.50400001928E-02 0. -1.
       -1   -1    0    0    0  501  0.00000000000E+00  0.00000000000E+00 -0.99447097601E+03  0.99447097603E+03  0.50400001928E-02 0.  1.
    10030    2    1    2    0    0  0.00000000000E+00  0.00000000000E+00  0.17658837253E+04  0.37548256773E+04  0.33136642159E+04 0.  0.
        1    1    3    3  502    0  0.47256582784E+03 -0.12574600319E+04  0.19818881913E+04  0.23942441388E+04  0.50400001928E-02 0. -1.
       -1    1    3    3    0  502 -0.47256582784E+03  0.12574600319E+04 -0.21600446602E+03  0.13605815385E+04  0.50400001928E-02 0.  1.
</event>
<event>
 5   0  0.1743810E-06  0.3297430E+04  0.7818609E-02  0.8163550E-01
        2   -1    0    0  501    0  0.00000000000E+00  0.00000000000E+00  0.26079925220E+04  0.26079925220E+04  0.25500000920E-02 0. -1.
       -2   -1    0    0    0  501  0.00000000000E+00  0.00000000000E+00 -0.10422811824E+04  0.10422811824E+04  0.25500000920E-02 0.  1.
    10030    2    1    2    0    0  0.00000000000E+00  0.00000000000E+00  0.15657113396E+04  0.36502737043E+04  0.32974302294E+04 0.  0.
        5    1    3    3  502    0 -0.65709619809E+03  0.17336786305E+02  0.24566552498E+04  0.25430794491E+04  0.46999998093E+01 0. -1.
       -5    1    3    3    0  502  0.65709619809E+03 -0.17336786305E+02 -0.89094391026E+03  0.11071942553E+04  0.46999998093E+01 0.  1.
</event>
<event>
 5   0  0.5988516E-07  0.2930689E+04  0.7818609E-02  0.8263805E-01
       -1   -1    0    0    0  501  0.00000000000E+00  0.00000000000E+00  0.84428865140E+03  0.84428865141E+03  0.50400001928E-02 0.  1.
        1   -1    0    0  501    0  0.00000000000E+00  0.00000000000E+00 -0.25432477161E+04  0.25432477161E+04  0.50400001928E-02 0. -1.
    10030    2    1    2    0    0  0.00000000000E+00  0.00000000000E+00 -0.16989590647E+04  0.33875363675E+04  0.29306894646E+04 0.  0.
        4    1    3    3  502    0 -0.67366277623E+03 -0.12998599068E+04 -0.92051005364E+03  0.17293922878E+04  0.12699999809E+01 0. -1.
       -4    1    3    3    0  502  0.67366277623E+03  0.12998599068E+04 -0.77844901107E+03  0.16581440797E+04  0.12699999809E+01 0.  1.
</event>
<event>
 5   0  0.6023446E-07  0.3276253E+04  0.7818609E-02  0.8168964E-01
        1   -1    0    0  501    0  0.00000000000E+00  0.00000000000E+00  0.24916014314E+04  0.24916014314E+04  0.50400001928E-02 0. -1.
       -1   -1    0    0    0  501  0.00000000000E+00  0.00000000000E+00 -0.10770013512E+04  0.10770013512E+04  0.50400001928E-02 0.  1.
    10030    2    1    2    0    0  0.00000000000E+00  0.00000000000E+00  0.14146000802E+04  0.35686027826E+04  0.32762528036E+04 0.  0.
        5    1    3    3  502    0  0.42014551695E+03 -0.26881409426E+03  0.24068710613E+04  0.24580141717E+04  0.46999998093E+01 0. -1.
       -5    1    3    3    0  502 -0.42014551695E+03  0.26881409426E+03 -0.99227098108E+03  0.11105886109E+04  0.46999998093E+01 0.  1.
</event>
<event>
 5   0  0.1784626E-06  0.3304722E+04  0.7818609E-02  0.8161695E-01
        2   -1    0    0  501    0  0.00000000000E+00  0.00000000000E+00  0.21140712880E+04  0.21140712880E+04  0.25500000920E-02 0. -1.
       -2   -1    0    0    0  501  0.00000000000E+00  0.00000000000E+00 -0.12914879775E+04  0.12914879775E+04  0.25500000920E-02 0.  1.
    10030    2    1    2    0    0  0.00000000000E+00  0.00000000000E+00  0.82258331049E+03  0.34055592656E+04  0.33047224707E+04 0.  0.
        2    1    3    3  502    0  0.33065062663E+03  0.80752033508E+03  0.18572738058E+04  0.20520440829E+04  0.25500000920E-02 0. -1.
       -2    1    3    3    0  502 -0.33065062663E+03 -0.80752033508E+03 -0.10346904953E+04  0.13535151826E+04  0.25500000920E-02 0.  1.
</event>
<event>
 5   0  0.6085351E-07  0.3280863E+04  0.7818609E-02  0.8167782E-01
       -1   -1    0    0    0  501  0.00000000000E+00  0.00000000000E+00  0.11663338986E+04  0.11663338986E+04  0.50400001928E-02 0. -1.
        1   -1    0    0  501    0  0.00000000000E+00  0.00000000000E+00 -0.23072425247E+04  0.23072425247E+04  0.50400001928E-02 0.  1.
    10030    2    1    2    0    0  0.00000000000E+00  0.00000000000E+00 -0.11409086260E+04  0.34735764233E+04  0.32808627944E+04 0.  0.
        1    1    3    3  502    0 -0.16996695790E+03 -0.11397433605E+04 -0.18065567897E+04  0.21427905005E+04  0.50400001928E-02 0.  1.
       -1    1    3    3    0  502  0.16996695790E+03  0.11397433605E+04  0.66564816363E+03  0.13307859228E+04  0.50400001928E-02 0. -1.
</event>
<event>
 5   0  0.5985183E-07  0.3324550E+04  0.7818609E-02  0.8156677E-01
        1   -1    0    0  501    0  0.00000000000E+00  0.00000000000E+00  0.10612828228E+04  0.10612828228E+04  0.50400001928E-02 0. -1.
       -1   -1    0    0    0  501  0.00000000000E+00  0.00000000000E+00 -0.26036016732E+04  0.26036016732E+04  0.50400001928E-02 0.  1.
    10030    2    1    2    0    0  0.00000000000E+00  0.00000000000E+00 -0.15423188504E+04  0.36648844960E+04  0.33245497339E+04 0.  0.
        2    1    3    3  502    0  0.15060078639E+04 -0.65250189755E+03 -0.48087933483E+03  0.17102816572E+04  0.25500000920E-02 0. -1.
       -2    1    3    3    0  502 -0.15060078639E+04  0.65250189755E+03 -0.10614395156E+04  0.19546028388E+04  0.25500000920E-02 0.  1.
</event>
<event>
 5   0  0.1743810E-06  0.3302324E+04  0.7818609E-02  0.8162304E-01
       -2   -1    0    0    0  501  0.00000000000E+00  0.00000000000E+00  0.15680918834E+04  0.15680918834E+04  0.25500000920E-02 0.  1.
        2   -1    0    0  501    0  0.00000000000E+00  0.00000000000E+00 -0.17386331259E+04  0.17386331259E+04  0.25500000920E-02 0. -1.
    10030    2    1    2    0    0  0.00000000000E+00  0.00000000000E+00 -0.17054124244E+03  0.33067250093E+04  0.33023243287E+04 0.  0.
        5    1    3    3  502    0  0.14776334257E+04 -0.60623930749E+03 -0.50462192936E+03  0.16749901552E+04  0.46999998093E+01 0.  1.
       -5    1    3    3    0  502 -0.14776334257E+04  0.60623930749E+03  0.33408068692E+03  0.16317348541E+04  0.46999998093E+01 0. -1.
</event>
<event>
 5   0  0.1696681E-06  0.3078938E+04  0.7818609E-02  0.8221542E-01
        2   -1    0    0  501    0  0.00000000000E+00  0.00000000000E+00  0.26910582177E+04  0.26910582177E+04  0.25500000920E-02 0.  1.
       -2   -1    0    0    0  501  0.00000000000E+00  0.00000000000E+00 -0.88068130073E+03  0.88068130073E+03  0.25500000920E-02 0. -1.
    10030    2    1    2    0    0  0.00000000000E+00  0.00000000000E+00  0.18103769170E+04  0.35717395184E+04  0.30789379023E+04 0.  0.
        4    1    3    3  502    0 -0.11260333228E+04  0.62018921306E+03  0.18877339666E+04  0.22838841577E+04  0.12699999809E+01 0.  1.
       -4    1    3    3    0  502  0.11260333228E+04 -0.62018921306E+03 -0.77357049634E+02  0.12878553607E+04  0.12699999809E+01 0. -1.
</event>
<event>
 5   0  0.5985183E-07  0.3292803E+04  0.7818609E-02  0.8164729E-01
        1   -1    0    0  501    0  0.00000000000E+00  0.00000000000E+00  0.15256430656E+04  0.15256430657E+04  0.50400001928E-02 0.  1.
       -1   -1    0    0    0  501  0.00000000000E+00  0.00000000000E+00 -0.17767182575E+04  0.17767182575E+04  0.50400001928E-02 0. -1.
    10030    2    1    2    0    0  0.00000000000E+00  0.00000000000E+00 -0.25107519188E+03  0.33023613232E+04  0.32928029939E+04 0.  0.
        2    1    3    3  502    0  0.63425693781E+03 -0.14020618401E+04 -0.71253877122E+03  0.16958097673E+04  0.25500000920E-02 0. -1.
       -2    1    3    3    0  502 -0.63425693781E+03  0.14020618401E+04  0.46146357934E+03  0.16065515558E+04  0.25500000920E-02 0.  1.
</event>
<event>
 5   0  0.5858859E-07  0.3302690E+04  0.7818609E-02  0.8162211E-01
       -1   -1    0    0    0  501  0.00000000000E+00  0.00000000000E+00  0.99502975013E+03  0.99502975014E+03  0.50400001928E-02 0.  1.
        1   -1    0    0  501    0  0.00000000000E+00  0.00000000000E+00 -0.27405618351E+04  0.27405618351E+04  0.50400001928E-02 0. -1.
    10030    2    1    2    0    0  0.00000000000E+00  0.00000000000E+00 -0.17455320850E+04  0.37355915853E+04  0.33026901508E+04 0.  0.
        3    1    3    3  502    0 -0.48569670809E+03  0.29475057708E+03 -0.26265389749E+04  0.26872823059E+04  0.10100000352E+00 0. -1.
       -3    1    3    3    0  502  0.48569670809E+03 -0.29475057708E+03  0.88100688989E+03  0.10483092794E+04  0.10100000352E+00 0.  1.
</event>
<event>
 5   0  0.5985183E-07  0.3288625E+04  0.7818609E-02  0.8165796E-01
        1   -1    0    0  501    0  0.00000000000E+00  0.00000000000E+00  0.20404227562E+04  0.20404227562E+04  0.50400001928E-02 0.  1.
       -1   -1    0    0    0  501  0.00000000000E+00  0.00000000000E+00 -0.13251000924E+04  0.13251000924E+04  0.50400001928E-02 0. -1.
    10030    2    1    2    0    0  0.00000000000E+00  0.00000000000E+00  0.71532266379E+03  0.33655228486E+04  0.32886254775E+04 0.  0.
        2    1    3    3  502    0 -0.41461710526E+03  0.17071178724E+03 -0.12613272407E+04  0.13386546479E+04  0.25500000920E-02 0. -1.
       -2    1    3    3    0  502  0.41461710526E+03 -0.17071178724E+03  0.19766499045E+04  0.20268682007E+04  0.25500000920E-02 0.  1.
</event>
<event>
 5   0  0.1832626E-06  0.3247926E+04  0.7818609E-02  0.8176273E-01
        2   -1    0    0  501    0  0.00000000000E+00  0.00000000000E+00  0.18263132020E+04  0.18263132020E+04  0.25500000920E-02 0.  1.
       -2   -1    0    0    0  501  0.00000000000E+00  0.00000000000E+00 -0.14440325642E+04  0.14440325642E+04  0.25500000920E-02 0. -1.
    10030    2    1    2    0    0  0.00000000000E+00  0.00000000000E+00  0.38228063779E+03  0.32703457661E+04  0.32479259450E+04 0.  0.
        3    1    3    3  502    0 -0.37116943922E+03 -0.15781192764E+04  0.95465885941E+02  0.16239892084E+04  0.10100000352E+00 0. -1.
       -3    1    3    3    0  502  0.37116943922E+03  0.15781192764E+04  0.28681475185E+03  0.16463565578E+04  0.10100000352E+00 0.  1.
</event>
<event>
 5   0  0.5685000E-07  0.3285543E+04  0.7818609E-02  0.8166584E-01
        3   -1    0    0  501    0  0.00000000000E+00  0.00000000000E+00  0.13942467294E+04  0.13942467331E+04  0.10100000352E+00 0. -1.
       -3   -1    0    0    0  501  0.00000000000E+00  0.00000000000E+00 -0.19355956016E+04  0.19355956043E+04  0.10100000352E+00 0.  1.
    10030    2    1    2    0    0  0.00000000000E+00  0.00000000000E+00 -0.54134887223E+03  0.33298423374E+04  0.32855427847E+04 0.  0.
        4    1    3    3  502    0  0.14923766141E+04 -0.63422706409E+03 -0.39447876423E+01  0.16215576158E+04  0.12699999809E+01 0. -1.
       -4    1    3    3    0  502 -0.14923766141E+04  0.63422706409E+03 -0.53740408459E+03  0.17082847216E+04  0.12699999809E+01 0.  1.
</event>
<event>
 5   0  0.5988516E-07  0.3318921E+04  0.7818609E-02  0.8158098E-01
       -1   -1    0    0    0  501  0.00000000000E+00  0.00000000000E+00  0.24480334171E+04  0.24480334171E+04  0.50400001928E-02 0. -1.
        1   -1    0    0  501    0  0.00000000000E+00  0.00000000000E+00 -0.11249064170E+04  0.11249064170E+04  0.50400001928E-02 0.  1.
    10030    2    1    2    0    0  0.00000000000E+00  0.00000000000E+00  0.13231270000E+04  0.35729398341E+04  0.33189206077E+04 0.  0.
        4    1    3    3  502    0  0.13978880119E+04 -0.79964996724E+02  0.16204196913E+04  0.21415524471E+04  0.12699999809E+01 0. -1.
       -4    1    3    3    0  502 -0.13978880119E+04  0.79964996724E+02 -0.29729269128E+03  0.14313873870E+04  0.12699999809E+01 0.  1.
</event>
<event>
 5   0  0.5858859E-07  0.3312645E+04  0.7818609E-02  0.8159685E-01
        1   -1    0    0  501    0  0.00000000000E+00  0.00000000000E+00  0.16579728924E+04  0.16579728924E+04  0.50400001928E-02 0.  1.
       -1   -1    0    0    0  501  0.00000000000E+00  0.00000000000E+00 -0.16546735051E+04  0.16546735051E+04  0.50400001928E-02 0. -1.
    10030    2    1    2    0    0  0.00000000000E+00  0.00000000000E+00  0.32993873361E+01  0.33126463975E+04  0.33126447545E+04 0.  0.
        3    1    3    3  502    0 -0.11762498788E+04 -0.74423337325E+03 -0.89610167241E+03  0.16554290407E+04  0.10100000352E+00 0. -1.
       -3    1    3    3    0  502  0.11762498788E+04  0.74423337325E+03  0.89940105974E+03  0.16572173568E+04  0.10100000352E+00 0.  1.
</event>
<event>
 5   0  0.1728937E-06  0.3278377E+04  0.7818609E-02  0.8168419E-01
       -2   -1    0    0    0  501  0.00000000000E+00  0.00000000000E+00  0.28257905083E+04  0.28257905083E+04  0.25500000920E-02 0. -1.
        2   -1    0    0  501    0  0.00000000000E+00  0.00000000000E+00 -0.95086248190E+03  0.95086248191E+03  0.25500000920E-02 0.  1.
    10030    2    1    2    0    0  0.00000000000E+00  0.00000000000E+00  0.18749280264E+04  0.37766529902E+04  0.32783765348E+04 0.  0.
        1    1    3    3  502    0 -0.15666498125E+04  0.22907579371E+03  0.14263076011E+04  0.21310140139E+04  0.50400001928E-02 0. -1.
       -1    1    3    3    0  502  0.15666498125E+04 -0.22907579371E+03  0.44862042524E+03  0.16456389763E+04  0.50400001928E-02 0.  1.
</event>
<event>
 5   0  0.6085351E-07  0.2678549E+04  0.7818609E-02  0.8341999E-01
       -1   -1    0    0    0  501  0.00000000000E+00  0.00000000000E+00  0.13390354076E+04  0.13390354076E+04  0.50400001928E-02 0.  1.
        1   -1    0    0  501    0  0.00000000000E+00  0.00000000000E+00 -0.13395133360E+04  0.13395133360E+04  0.50400001928E-02 0. -1.
    10030    2    1    2    0    0  0.00000000000E+00  0.00000000000E+00 -0.47792844308E+00  0.26785487436E+04  0.26785487010E+04 0.  0.
        1    1    3    3  502    0  0.12877241997E+04  0.26335831225E+03 -0.25726925979E+03  0.13393202332E+04  0.50400001928E-02 0.  1.
       -1    1    3    3    0  502 -0.12877241997E+04 -0.26335831225E+03  0.25679133135E+03  0.13392285104E+04  0.50400001928E-02 0. -1.
</event>
<event>
 5   0  0.1832626E-06  0.3130688E+04  0.7818609E-02  0.8207366E-01
       -2   -1    0    0    0  501  0.00000000000E+00  0.00000000000E+00  0.13233070891E+04  0.13233070891E+04  0.25500000920E-02 0. -1.
        2   -1    0    0  501    0  0.00000000000E+00  0.00000000000E+00 -0.18516502882E+04  0.18516502882E+04  0.25500000920E-02 0.  1.
    10030    2    1    2    0    0  0.00000000000E+00  0.00000000000E+00 -0.52834319915E+03  0.31749573773E+04  0.31306880732E+04 0.  0.
        3    1    3    3  502    0  0.10640304169E+04  0.31490695601E+03 -0.13838555901E+04  0.17738047874E+04  0.10100000352E+00 0.  1.
       -3    1    3    3    0  502 -0.10640304169E+04 -0.31490695601E+03  0.85551239100E+03  0.14011525900E+04  0.10100000352E+00 0. -1.
</event>
<event>
 5   0  0.1832626E-06  0.3284064E+04  0.7818609E-02  0.8166962E-01
        2   -1    0    0  501    0  0.00000000000E+00  0.00000000000E+00  0.18998181596E+04  0.18998181597E+04  0.25500000920E-02 0.  1.
       -2   -1    0    0    0  501  0.00000000000E+00  0.00000000000E+00 -0.14192244231E+04  0.14192244231E+04  0.25500000920E-02 0. -1.
    10030    2    1    2    0    0  0.00000000000E+00  0.00000000000E+00  0.48059373654E+03  0.33190425828E+04  0.32840635388E+04 0.  0.
        3    1    3    3  502    0 -0.54827420684E+03  0.95827871213E+03 -0.98811857668E+03  0.14816480783E+04  0.10100000352E+00 0. -1.
       -3    1    3    3    0  502  0.54827420684E+03 -0.95827871213E+03  0.14687123132E+04  0.18373945045E+04  0.10100000352E+00 0.  1.
</event>
<event>
 5   0  0.1696681E-06  0.3273038E+04  0.7818609E-02  0.8169790E-01
        2   -1    0    0  501    0  0.00000000000E+00  0.00000000000E+00  0.10470131556E+04  0.10470131556E+04  0.25500000920E-02 0. -1.
       -2   -1    0    0    0  501  0.00000000000E+00  0.00000000000E+00 -0.25579375009E+04  0.25579375009E+04  0.25500000920E-02 0.  1.
    10030    2    1    2    0    0  0.00000000000E+00  0.00000000000E+00 -0.15109243453E+04  0.36049506565E+04  0.32730378639E+04 0.  0.
        4    1    3    3  502    0 -0.37388553926E+03  0.11365215222E+04  0.47433343804E+03  0.12870374471E+04  0.12699999809E+01 0. -1.
       -4    1    3    3    0  502  0.37388553926E+03 -0.11365215222E+04 -0.19852577834E+04  0.23179132094E+04  0.12699999809E+01 0.  1.
</event>
<event>
 5   0  0.5858859E-07  0.3343518E+04  0.7818609E-02  0.8151910E-01
       -1   -1    0    0    0  501  0.00000000000E+00  0.00000000000E+00  0.16596545581E+04  0.16596545581E+04  0.50400001928E-02 0. -1.
        1   -1    0    0  501    0  0.00000000000E+00  0.00000000000E+00 -0.16839514578E+04  0.16839514578E+04  0.50400001928E-02 0.  1.
    10030    2    1    2    0    0  0.00000000000E+00  0.00000000000E+00 -0.24296899768E+02  0.33436060159E+04  0.33435177359E+04 0.  0.
        3    1    3    3  502    0 -0.83721318000E+03  0.12407963376E+04  0.73236851568E+03  0.16663928448E+04  0.10100000352E+00 0. -1.
       -3    1    3    3    0  502  0.83721318000E+03 -0.12407963376E+04 -0.75666541544E+03  0.16772131711E+04  0.10100000352E+00 0.  1.
</event>
<event>
 5   0  0.1696681E-06  0.3278903E+04  0.7818609E-02  0.8168284E-01
        2   -1    0    0  501    0  0.00000000000E+00  0.00000000000E+00  0.18842979324E+04  0.18842979324E+04  0.25500000920E-02 0. -1.
       -2   -1    0    0    0  501  0.00000000000E+00  0.00000000000E+00 -0.14264205291E+04  0.14264205291E+04  0.25500000920E-02 0.  1.
    10030    2    1    2    0    0  0.00000000000E+00  0.00000000000E+00  0.45787740334E+03  0.33107184615E+04  0.32789030200E+04 0.  0.
        4    1    3    3  502    0 -0.51695275210E+03  0.33182812940E+03  0.17637038446E+04  0.18676195865E+04  0.12699999809E+01 0. -1.
       -4    1    3    3    0  502  0.51695275210E+03 -0.33182812940E+03 -0.13058264413E+04  0.14430988750E+04  0.12699999809E+01 0.  1.
</event>
<event>
 5   0  0.6023446E-07  0.3079391E+04  0.7818609E-02  0.8221417E-01
       -1   -1    0    0    0  501  0.00000000000E+00  0.00000000000E+00  0.95147838921E+03  0.95147838922E+03  0.50400001928E-02 0.  1.
        1   -1    0    0  501    0  0.00000000000E+00  0.00000000000E+00 -0.24915572429E+04  0.24915572429E+04  0.50400001928E-02 0. -1.
    10030    2    1    2    0    0  0.00000000000E+00  0.00000000000E+00 -0.15400788537E+04  0.34430356321E+04  0.30793914153E+04 0.  0.
        5    1    3    3  502    0  0.13703974413E+03 -0.13712964828E+04 -0.15377094209E+04  0.20648986145E+04  0.46999998093E+01 0.  1.
       -5    1    3    3    0  502 -0.13703974413E+03  0.13712964828E+04 -0.23694328024E+01  0.13781370176E+04  0.46999998093E+01 0. -1.
</event>
<event>
 5   0  0.1728937E-06  0.3223365E+04  0.7818609E-02  0.8182674E-01
        2   -1    0    0  501    0  0.00000000000E+00  0.00000000000E+00  0.15727304830E+04  0.15727304830E+04  0.25500000920E-02 0.  1.
       -2   -1    0    0    0  501  0.00000000000E+00  0.00000000000E+00 -0.16515995985E+04  0.16515995986E+04  0.25500000920E-02 0. -1.
    10030    2    1    2    0    0  0.00000000000E+00  0.00000000000E+00 -0.78869115593E+02  0.32243300815E+04  0.32233653434E+04 0.  0.
        1    1    3    3  502    0  0.84485620479E+03 -0.42355469469E+03 -0.13453291948E+04  0.16441080343E+04  0.50400001928E-02 0. -1.
       -1    1    3    3    0  502 -0.84485620479E+03  0.42355469469E+03  0.12664600792E+04  0.15802220472E+04  0.50400001928E-02 0.  1.
</event>
<event>
 5   0  0.5985183E-07  0.3151656E+04  0.7818609E-02  0.8201703E-01
        1   -1    0    0  501    0  0.00000000000E+00  0.00000000000E+00  0.21588476515E+04  0.21588476515E+04  0.50400001928E-02 0.  1.
       -1   -1    0    0    0  501  0.00000000000E+00  0.00000000000E+00 -0.11502592995E+04  0.11502592995E+04  0.50400001928E-02 0. -1.
    10030    2    1    2    0    0  0.00000000000E+00  0.00000000000E+00  0.10085883520E+04  0.33091069510E+04  0.31516564454E+04 0.  0.
        2    1    3    3  502    0  0.62754780406E+03 -0.87606732401E+03 -0.70289474441E+03  0.12866123054E+04  0.25500000920E-02 0. -1.
       -2    1    3    3    0  502 -0.62754780406E+03  0.87606732401E+03  0.17114830964E+04  0.20224946457E+04  0.25500000920E-02 0.  1.
</event>
<event>
 5   0  0.1743810E-06  0.3288294E+04  0.7818609E-02  0.8165880E-01
       -2   -1    0    0    0  501  0.00000000000E+00  0.00000000000E+00  0.11698382226E+04  0.11698382226E+04  0.25500000920E-02 0. -1.
        2   -1    0    0  501    0  0.00000000000E+00  0.00000000000E+00 -0.23107637764E+04  0.23107637764E+04  0.25500000920E-02 0.  1.
    10030    2    1    2    0    0  0.00000000000E+00  0.00000000000E+00 -0.11409255539E+04  0.34806019990E+04  0.32882942624E+04 0.  0.
        5    1    3    3  502    0  0.90664479022E+03  0.10998630989E+04  0.29690800200E+03  0.14559807909E+04  0.46999998093E+01 0. -1.
       -5    1    3    3    0  502 -0.90664479022E+03 -0.10998630989E+04 -0.14378335559E+04  0.20246212081E+04  0.46999998093E+01 0.  1.
</event>
<event>
 5   0  0.5858859E-07  0.3243047E+04  0.7818609E-02  0.8177540E-01
        1   -1    0    0  501    0  0.00000000000E+00  0.00000000000E+00  0.92997625575E+03  0.92997625576E+03  0.50400001928E-02 0.  1.
       -1   -1    0    0    0  501  0.00000000000E+00  0.00000000000E+00 -0.28273184567E+04  0.28273184567E+04  0.50400001928E-02 0. -1.
    10030    2    1    2    0    0  0.00000000000E+00  0.00000000000E+00 -0.18973422009E+04  0.37572947124E+04  0.32430473522E+04 0.  0.
        3    1    3    3  502    0  0.35626104349E+03  0.14452934566E+04 -0.20362561256E+03  0.15024175542E+04  0.10100000352E+00 0.  1.
       -3    1    3    3    0  502 -0.35626104349E+03 -0.14452934566E+04 -0.16937165883E+04  0.22548771582E+04  0.10100000352E+00 0. -1.
</event>
<event>
 5   0  0.5858859E-07  0.3274965E+04  0.7818609E-02  0.8169295E-01
       -1   -1    0    0    0  501  0.00000000000E+00  0.00000000000E+00  0.11125082457E+04  0.11125082457E+04  0.50400001928E-02 0. -1.
        1   -1    0    0  501    0  0.00000000000E+00  0.00000000000E+00 -0.24101832727E+04  0.24101832727E+04  0.50400001928E-02 0.  1.
    10030    2    1    2    0    0  0.00000000000E+00  0.00000000000E+00 -0.12976750271E+04  0.35226915184E+04  0.32749648942E+04 0.  0.
        3    1    3    3  502    0  0.68885331729E+03  0.60893896055E+03  0.80865739923E+03  0.12244396065E+04  0.10100000352E+00 0. -1.
       -3    1    3    3    0  502 -0.68885331729E+03 -0.60893896055E+03 -0.21063324263E+04  0.22982519119E+04  0.10100000352E+00 0.  1.
</event>
<event>
 5   0  0.5858859E-07  0.3362252E+04  0.7818609E-02  0.8147233E-01
       -1   -1    0    0    0  501  0.00000000000E+00  0.00000000000E+00  0.15470517406E+04  0.15470517406E+04  0.50400001928E-02 0.  1.
        1   -1    0    0  501    0  0.00000000000E+00  0.00000000000E+00 -0.18268199395E+04  0.18268199395E+04  0.50400001928E-02 0. -1.
    10030    2    1    2    0    0  0.00000000000E+00  0.00000000000E+00 -0.27976819893E+03  0.33738716801E+04  0.33622522018E+04 0.  0.
        3    1    3    3  502    0  0.84002118614E+03  0.44132897261E+03  0.12526357555E+04  0.15714653039E+04  0.10100000352E+00 0.  1.
       -3    1    3    3    0  502 -0.84002118614E+03 -0.44132897261E+03 -0.15324039544E+04  0.18024063762E+04  0.10100000352E+00 0. -1.
</event>
<event>
 5   0  0.5985183E-07  0.3310032E+04  0.7818609E-02  0.8160348E-01
        1   -1    0    0  501    0  0.00000000000E+00  0.00000000000E+00  0.13369852364E+04  0.13369852364E+04  0.50400001928E-02 0. -1.
       -1   -1    0    0    0  501  0.00000000000E+00  0.00000000000E+00 -0.20486966716E+04  0.20486966716E+04  0.50400001928E-02 0.  1.
    10030    2    1    2    0    0  0.00000000000E+00  0.00000000000E+00 -0.71171143519E+03  0.33856819081E+04  0.33100315430E+04 0.  0.
        2    1    3    3  502    0 -0.15736978373E+03  0.16236928995E+04 -0.64140141347E+03  0.17528661255E+04  0.25500000920E-02 0.  1.
       -2    1    3    3    0  502  0.15736978373E+03 -0.16236928995E+04 -0.70310021719E+02  0.16328157826E+04  0.25500000920E-02 0. -1.
</event>
<event>
 5   0  0.6023446E-07  0.3291550E+04  0.7818609E-02  0.8165049E-01
        1   -1    0    0  501    0  0.00000000000E+00  0.00000000000E+00  0.19468900267E+04  0.19468900267E+04  0.50400001928E-02 0. -1.
       -1   -1    0    0    0  501  0.00000000000E+00  0.00000000000E+00 -0.13912316260E+04  0.13912316260E+04  0.50400001928E-02 0.  1.
    10030    2    1    2    0    0  0.00000000000E+00  0.00000000000E+00  0.55565840075E+03  0.33381216527E+04  0.32915497733E+04 0.  0.
        5    1    3    3  502    0 -0.25965255932E+03  0.13554187350E+04 -0.63150305640E+03  0.15176948307E+04  0.46999998093E+01 0. -1.
       -5    1    3    3    0  502  0.25965255932E+03 -0.13554187350E+04  0.11871614572E+04  0.18204268220E+04  0.46999998093E+01 0.  1.
</event>
<event>
 5   0  0.1743810E-06  0.3267431E+04  0.7818609E-02  0.8171232E-01
        2   -1    0    0  501    0  0.00000000000E+00  0.00000000000E+00  0.15572271869E+04  0.15572271870E+04  0.25500000920E-02 0.  1.
       -2   -1    0    0    0  501  0.00000000000E+00  0.00000000000E+00 -0.17139604594E+04  0.17139604594E+04  0.25500000920E-02 0. -1.
    10030    2    1    2    0    0  0.00000000000E+00  0.00000000000E+00 -0.15673327245E+03  0.32711876463E+04  0.32674306877E+04 0.  0.
        5    1    3    3  502    0  0.16208055184E+03  0.21089122865E+03  0.15353982214E+04  0.15582730839E+04  0.46999998093E+01 0.  1.
       -5    1    3    3    0  502 -0.16208055184E+03 -0.21089122865E+03 -0.16921314939E+04  0.17129145624E+04  0.46999998093E+01 0. -1.
</event>
<event>
 5   0  0.5685000E-07  0.3278664E+04  0.7818609E-02  0.8168346E-01
       -3   -1    0    0    0  501  0.00000000000E+00  0.00000000000E+00  0.15510826349E+04  0.15510826382E+04  0.10100000352E+00 0. -1.
        3   -1    0    0  501    0  0.00000000000E+00  0.00000000000E+00 -0.17326027756E+04  0.17326027785E+04  0.10100000352E+00 0.  1.
    10030    2    1    2    0    0  0.00000000000E+00  0.00000000000E+00 -0.18152014069E+03  0.32836854167E+04  0.32786644163E+04 0.  0.
        2    1    3    3  502    0 -0.98796576392E+03 -0.80579185701E+02 -0.13984551316E+04  0.17141312992E+04  0.25500000920E-02 0.  1.
       -2    1    3    3    0  502  0.98796576392E+03  0.80579185701E+02  0.12169349909E+04  0.15695541175E+04  0.25500000920E-02 0. -1.
</event>
<event>
 5   0  0.1728937E-06  0.3415097E+04  0.7818609E-02  0.8134211E-01
        2   -1    0    0  501    0  0.00000000000E+00  0.00000000000E+00  0.17652419498E+04  0.17652419498E+04  0.25500000920E-02 0.  1.
       -2   -1    0    0    0  501  0.00000000000E+00  0.00000000000E+00 -0.16517404292E+04  0.16517404292E+04  0.25500000920E-02 0. -1.
    10030    2    1    2    0    0  0.00000000000E+00  0.00000000000E+00  0.11350152058E+03  0.34169823790E+04  0.34150967751E+04 0.  0.
        1    1    3    3  502    0 -0.39562079994E+03  0.33903405487E+03  0.16837671670E+04  0.17625356111E+04  0.50400001928E-02 0.  1.
       -1    1    3    3    0  502  0.39562079994E+03 -0.33903405487E+03 -0.15702656464E+04  0.16544467679E+04  0.50400001928E-02 0. -1.
</event>
<event>
 5   0  0.6085351E-07  0.3306807E+04  0.7818609E-02  0.8161166E-01
       -1   -1    0    0    0  501  0.00000000000E+00  0.00000000000E+00  0.19765129224E+04  0.19765129224E+04  0.50400001928E-02 0. -1.
        1   -1    0    0  501    0  0.00000000000E+00  0.00000000000E+00 -0.13831139562E+04  0.13831139562E+04  0.50400001928E-02 0.  1.
    10030    2    1    2    0    0  0.00000000000E+00  0.00000000000E+00  0.59339896624E+03  0.33596268786E+04  0.33068066817E+04 0.  0.
        1    1    3    3  502    0  0.11164977988E+04 -0.12113281058E+04  0.43987419555E+03  0.17051018804E+04  0.50400001928E-02 0. -1.
       -1    1    3    3    0  502 -0.11164977988E+04  0.12113281058E+04  0.15352477069E+03  0.16545249982E+04  0.50400001928E-02 0.  1.
</event>
<event>
 5   0  0.1696681E-06  0.3291113E+04  0.7818609E-02  0.8165160E-01
       -2   -1    0    0    0  501  0.00000000000E+00  0.00000000000E+00  0.17938953166E+04  0.17938953166E+04  0.25500000920E-02 0. -1.
        2   -1    0    0  501    0  0.00000000000E+00  0.00000000000E+00 -0.15094839981E+04  0.15094839981E+04  0.25500000920E-02 0.  1.
    10030    2    1    2    0    0  0.00000000000E+00  0.00000000000E+00  0.28441131846E+03  0.33033793147E+04  0.32911130486E+04 0.  0.
        4    1    3    3  502    0 -0.82234813116E+03  0.52042622381E+03 -0.11896742871E+04  0.15370186809E+04  0.12699999809E+01 0.  1.
       -4    1    3    3    0  502  0.82234813116E+03 -0.52042622381E+03  0.14740856055E+04  0.17663606338E+04  0.12699999809E+01 0. -1.
</event>
<event>
 5   0  0.1832626E-06  0.3146695E+04  0.7818609E-02  0.8203038E-01
        2   -1    0    0  501    0  0.00000000000E+00  0.00000000000E+00  0.11158860199E+04  0.11158860199E+04  0.25500000920E-02 0. -1.
       -2   -1    0    0    0  501  0.00000000000E+00  0.00000000000E+00 -0.22183470835E+04  0.22183470835E+04  0.25500000920E-02 0.  1.
    10030    2    1    2    0    0  0.00000000000E+00  0.00000000000E+00 -0.11024610636E+04  0.33342331034E+04  0.31466950903E+04 0.  0.
        3    1    3    3  502    0  0.13141324169E+04 -0.24918000145E+03  0.32663111625E+03  0.13768524171E+04  0.10100000352E+00 0. -1.
       -3    1    3    3    0  502 -0.13141324169E+04  0.24918000145E+03 -0.14290921798E+04  0.19573806863E+04  0.10100000352E+00 0.  1.
</event>
<event>
 5   0  0.5858859E-07  0.3280642E+04  0.7818609E-02  0.8167839E-01
       -1   -1    0    0    0  501  0.00000000000E+00  0.00000000000E+00  0.99204775860E+03  0.99204775861E+03  0.50400001928E-02 0.  1.
        1   -1    0    0  501    0  0.00000000000E+00  0.00000000000E+00 -0.27122208185E+04  0.27122208185E+04  0.50400001928E-02 0. -1.
    10030    2    1    2    0    0  0.00000000000E+00  0.00000000000E+00 -0.17201730599E+04  0.37042685771E+04  0.32806417566E+04 0.  0.
        3    1    3    3  502    0  0.11965683924E+04 -0.62278490889E+03  0.19370967252E+03  0.13627767270E+04  0.10100000352E+00 0. -1.
       -3    1    3    3    0  502 -0.11965683924E+04  0.62278490889E+03 -0.19138827324E+04  0.23414918501E+04  0.10100000352E+00 0.  1.
</event>
<event>
 5   0  0.6023446E-07  0.3358756E+04  0.7818609E-02  0.8148104E-01
       -1   -1    0    0    0  501  0.00000000000E+00  0.00000000000E+00  0.13071477277E+04  0.13071477277E+04  0.50400001928E-02 0. -1.
        1   -1    0    0  501    0  0.00000000000E+00  0.00000000000E+00 -0.21576066070E+04  0.21576066070E+04  0.50400001928E-02 0.  1.
    10030    2    1    2    0    0  0.00000000000E+00  0.00000000000E+00 -0.85045887927E+03  0.34647543347E+04  0.33587560635E+04 0.  0.
        5    1    3    3  502    0  0.84999355335E+03  0.10383893126E+04 -0.14668214155E+04  0.19880464180E+04  0.46999998093E+01 0.  1.
       -5    1    3    3    0  502 -0.84999355335E+03 -0.10383893126E+04  0.61636253620E+03  0.14767079167E+04  0.46999998093E+01 0. -1.
</event>
<event>
 5   0  0.5988516E-07  0.3247221E+04  0.7818609E-02  0.8176456E-01
        1   -1    0    0  501    0  0.00000000000E+00  0.00000000000E+00  0.91837714210E+03  0.91837714212E+03  0.50400001928E-02 0.  1.
       -1   -1    0    0    0  501  0.00000000000E+00  0.00000000000E+00 -0.28704011762E+04  0.28704011762E+04  0.50400001928E-02 0. -1.
    10030    2    1    2    0    0  0.00000000000E+00  0.00000000000E+00 -0.19520240341E+04  0.37887783183E+04  0.32472208603E+04 0.  0.
        4    1    3    3  502    0 -0.37849301819E+03  0.13974053968E+04 -0.18335011807E+04  0.23361778614E+04  0.12699999809E+01 0. -1.
       -4    1    3    3    0  502  0.37849301819E+03 -0.13974053968E+04 -0.11852285340E+03  0.14526004569E+04  0.12699999809E+01 0.  1.
</event>
<event>
 5   0  0.1832626E-06  0.3294583E+04  0.7818609E-02  0.8164275E-01
        2   -1    0    0  501    0  0.00000000000E+00  0.00000000000E+00  0.27580420674E+04  0.27580420674E+04  0.25500000920E-02 0. -1.
       -2   -1    0    0    0  501  0.00000000000E+00  0.00000000000E+00 -0.98387522582E+03  0.98387522582E+03  0.25500000920E-02 0.  1.
    10030    2    1    2    0    0  0.00000000000E+00  0.00000000000E+00  0.17741668416E+04  0.37419172932E+04  0.32945829854E+04 0.  0.
        3    1    3    3  502    0  0.12598995868E+04  0.64979922664E+03  0.18400439113E+04  0.23227887570E+04  0.10100000352E+00 0. -1.
       -3    1    3    3    0  502 -0.12598995868E+04 -0.64979922664E+03 -0.65877069707E+02  0.14191285362E+04  0.10100000352E+00 0.  1.
</event>
<event>
 5   0  0.1784626E-06  0.3289986E+04  0.7818609E-02  0.8165448E-01
       -2   -1    0    0    0  501  0.00000000000E+00  0.00000000000E+00  0.34303580084E+04  0.34303580084E+04  0.25500000920E-02 0.  1.
        2   -1    0    0  501    0  0.00000000000E+00  0.00000000000E+00 -0.78883949944E+03  0.78883949944E+03  0.25500000920E-02 0. -1.
    10030    2    1    2    0    0  0.00000000000E+00  0.00000000000E+00  0.26415185090E+04  0.42191975079E+04  0.32899859539E+04 0.  0.
        2    1    3    3  502    0 -0.15364373198E+04  0.21002966227E+03  0.61687833297E+03  0.16689191036E+04  0.25500000920E-02 0. -1.
       -2    1    3    3    0  502  0.15364373198E+04 -0.21002966227E+03  0.20246401760E+04  0.25502784042E+04  0.25500000920E-02 0.  1.
</event>
<event>
 5   0  0.1832626E-06  0.3309203E+04  0.7818609E-02  0.8160558E-01
       -2   -1    0    0    0  501  0.00000000000E+00  0.00000000000E+00  0.11601569117E+04  0.11601569117E+04  0.25500000920E-02 0.  1.
        2   -1    0    0  501    0  0.00000000000E+00  0.00000000000E+00 -0.23597723692E+04  0.23597723692E+04  0.25500000920E-02 0. -1.
    10030    2    1    2    0    0  0.00000000000E+00  0.00000000000E+00 -0.11996154575E+04  0.35199292810E+04  0.33092030607E+04 0.  0.
        3    1    3    3  502    0  0.93195137590E+03 -0.86572666400E+03  0.52572844511E+03  0.13763743793E+04  0.10100000352E+00 0.  1.
       -3    1    3    3    0  502 -0.93195137590E+03  0.86572666400E+03 -0.17253439026E+04  0.21435549016E+04  0.10100000352E+00 0. -1.
</event>
<event>
 5   0  0.1784626E-06  0.3314758E+04  0.7818609E-02  0.8159150E-01
       -2   -1    0    0    0  501  0.00000000000E+00  0.00000000000E+00  0.14965018061E+04  0.14965018062E+04  0.25500000920E-02 0.  1.
        2   -1    0    0  501    0  0.00000000000E+00  0.00000000000E+00 -0.18355504026E+04  0.18355504026E+04  0.25500000920E-02 0. -1.
    10030    2    1    2    0    0  0.00000000000E+00  0.00000000000E+00 -0.33904859643E+03  0.33320522087E+04  0.33147576037E+04 0.  0.
        2    1    3    3  502    0  0.61811858061E+03  0.12361832739E+04  0.74995291013E+03  0.15724659086E+04  0.25500000920E-02 0.  1.
       -2    1    3    3    0  502 -0.61811858061E+03 -0.12361832739E+04 -0.10890015066E+04  0.17595863001E+04  0.25500000920E-02 0. -1.
</event>
<event>
 5   0  0.1832626E-06  0.3267339E+04  0.7818609E-02  0.8171256E-01
        2   -1    0    0  501    0  0.00000000000E+00  0.00000000000E+00  0.14243826393E+04  0.14243826393E+04  0.25500000920E-02 0. -1.
       -2   -1    0    0    0  501  0.00000000000E+00  0.00000000000E+00 -0.18737077288E+04  0.18737077288E+04  0.25500000920E-02 0.  1.
    10030    2    1    2    0    0  0.00000000000E+00  0.00000000000E+00 -0.44932508951E+03  0.32980903682E+04  0.32673394437E+04 0.  0.
        3    1    3    3  502    0 -0.82323253094E+03  0.54704046019E+03  0.10883145218E+04  0.14701678726E+04  0.10100000352E+00 0. -1.
       -3    1    3    3    0  502  0.82323253094E+03 -0.54704046019E+03 -0.15376396113E+04  0.18279224955E+04  0.10100000352E+00 0.  1.
</event>
<event>
 5   0  0.1743810E-06  0.3322853E+04  0.7818609E-02  0.8157105E-01
       -2   -1    0    0    0  501  0.00000000000E+00  0.00000000000E+00  0.15236188629E+04  0.15236188629E+04  0.25500000920E-02 0. -1.
        2   -1    0    0  501    0  0.00000000000E+00  0.00000000000E+00 -0.18116984089E+04  0.18116984089E+04  0.25500000920E-02 0.  1.
    10030    2    1    2    0    0  0.00000000000E+00  0.00000000000E+00 -0.28807954596E+03  0.33353172718E+04  0.33228529126E+04 0.  0.
        5    1    3    3  502    0  0.11681350919E+04  0.64089360197E+03  0.85217071945E+03  0.15816134885E+04  0.46999998093E+01 0. -1.
       -5    1    3    3    0  502 -0.11681350919E+04 -0.64089360197E+03 -0.11402502654E+04  0.17537037833E+04  0.46999998093E+01 0.  1.
</event>
<event>
 5   0  0.1696681E-06  0.3312416E+04  0.7818609E-02  0.8159743E-01
       -2   -1    0    0    0  501  0.00000000000E+00  0.00000000000E+00  0.12821718409E+04  0.12821718409E+04  0.25500000920E-02 0.  1.
        2   -1    0    0  501    0  0.00000000000E+00  0.00000000000E+00 -0.21393580633E+04  0.21393580633E+04  0.25500000920E-02 0. -1.
    10030    2    1    2    0    0  0.00000000000E+00  0.00000000000E+00 -0.85718622237E+03  0.34215299042E+04  0.33124158353E+04 0.  0.
        4    1    3    3  502    0  0.12649431931E+04 -0.88686688936E+03 -0.10452587551E+04  0.18652564540E+04  0.12699999809E+01 0. -1.
       -4    1    3    3    0  502 -0.12649431931E+04  0.88686688936E+03  0.18807253272E+03  0.15562734502E+04  0.12699999809E+01 0.  1.
</event>
<event>
 5   0  0.1696681E-06  0.3340056E+04  0.7818609E-02  0.8152777E-01
       -2   -1    0    0    0  501  0.00000000000E+00  0.00000000000E+00  0.11937964391E+04  0.11937964391E+04  0.25500000920E-02 0. -1.
        2   -1    0    0  501    0  0.00000000000E+00  0.00000000000E+00 -0.23362386102E+04  0.23362386102E+04  0.25500000920E-02 0.  1.
    10030    2    1    2    0    0  0.00000000000E+00  0.00000000000E+00 -0.11424421710E+04  0.35300350493E+04  0.33400558880E+04 0.  0.
        4    1    3    3  502    0  0.14634470116E+03  0.16308692986E+04 -0.91829005572E+03  0.18773411198E+04  0.12699999809E+01 0.  1.
       -4    1    3    3    0  502 -0.14634470116E+03 -0.16308692986E+04 -0.22415211532E+03  0.16526939295E+04  0.12699999809E+01 0. -1.
</event>
<event>
 5   0  0.6085351E-07  0.3312029E+04  0.7818609E-02  0.8159841E-01
       -1   -1    0    0    0  501  0.00000000000E+00  0.00000000000E+00  0.11519935920E+04  0.11519935921E+04  0.50400001928E-02 0.  1.
        1   -1    0    0  501    0  0.00000000000E+00  0.00000000000E+00 -0.23805547678E+04  0.23805547678E+04  0.50400001928E-02 0. -1.
    10030    2    1    2    0    0  0.00000000000E+00  0.00000000000E+00 -0.12285611757E+04  0.35325483598E+04  0.33120288876E+04 0.  0.
        1    1    3    3  502    0 -0.16493802137E+04 -0.65497316334E+02 -0.75593468313E+03  0.18155391026E+04  0.50400001928E-02 0.  1.
       -1    1    3    3    0  502  0.16493802137E+04  0.65497316334E+02 -0.47262649260E+03  0.17170092572E+04  0.50400001928E-02 0. -1.
</event>
<event>
 5   0  0.1784626E-06  0.3311746E+04  0.7818609E-02  0.8159913E-01
       -2   -1    0    0    0  501  0.00000000000E+00  0.00000000000E+00  0.12591661853E+04  0.12591661853E+04  0.25500000920E-02 0.  1.
        2   -1    0    0  501    0  0.00000000000E+00  0.00000000000E+00 -0.21775640046E+04  0.21775640046E+04  0.25500000920E-02 0. -1.
    10030    2    1    2    0    0  0.00000000000E+00  0.00000000000E+00 -0.91839781929E+03  0.34367301898E+04  0.33117457395E+04 0.  0.
        2    1    3    3  502    0  0.15084101405E+04 -0.56704383924E+03 -0.63937076208E+02  0.16127392279E+04  0.25500000920E-02 0.  1.
       -2    1    3    3    0  502 -0.15084101405E+04  0.56704383924E+03 -0.85446074308E+03  0.18239909619E+04  0.25500000920E-02 0. -1.
</event>
<event>
 5   0  0.6023446E-07  0.3330664E+04  0.7818609E-02  0.8155136E-01
       -1   -1    0    0    0  501  0.00000000000E+00  0.00000000000E+00  0.25378846681E+04  0.25378846681E+04  0.50400001928E-02 0.  1.
        1   -1    0    0  501    0  0.00000000000E+00  0.00000000000E+00 -0.10927726605E+04  0.10927726605E+04  0.50400001928E-02 0. -1.
    10030    2    1    2    0    0  0.00000000000E+00  0.00000000000E+00  0.14451120077E+04  0.36306573286E+04  0.33306641865E+04 0.  0.
        5    1    3    3  502    0 -0.66808865003E+03  0.16692662245E+03 -0.93029432496E+03  0.11574439782E+04  0.46999998093E+01 0. -1.
       -5    1    3    3    0  502  0.66808865003E+03 -0.16692662245E+03  0.23754063326E+04  0.24732133504E+04  0.46999998093E+01 0.  1.
</event>
<event>
 5   0  0.6085351E-07  0.3214175E+04  0.7818609E-02  0.8185084E-01
       -1   -1    0    0    0  501  0.00000000000E+00  0.00000000000E+00  0.20452624766E+04  0.20452624766E+04  0.50400001928E-02 0. -1.
        1   -1    0    0  501    0  0.00000000000E+00  0.00000000000E+00 -0.12627867195E+04  0.12627867195E+04  0.50400001928E-02 0.  1.
    10030    2    1    2    0    0  0.00000000000E+00  0.00000000000E+00  0.78247575717E+03  0.33080491961E+04  0.32141750378E+04 0.  0.
        1    1    3    3  502    0 -0.79351838022E+03  0.81762023582E+03  0.15577223472E+04  0.19299412377E+04  0.50400001928E-02 0. -1.
       -1    1    3    3    0  502  0.79351838022E+03 -0.81762023582E+03 -0.77524659005E+03  0.13781079585E+04  0.50400001928E-02 0.  1.
</event>
<event>
 5   0  0.6023446E-07  0.3253076E+04  0.7818609E-02  0.8174939E-01
        1   -1    0    0  501    0  0.00000000000E+00  0.00000000000E+00  0.82163962292E+03  0.82163962294E+03  0.50400001928E-02 0. -1.
       -1   -1    0    0    0  501  0.00000000000E+00  0.00000000000E+00 -0.32199356030E+04  0.32199356030E+04  0.50400001928E-02 0.  1.
    10030    2    1    2    0    0  0.00000000000E+00  0.00000000000E+00 -0.23982959801E+04  0.40415752260E+04  0.32530764976E+04 0.  0.
        5    1    3    3  502    0 -0.13140761284E+04  0.48121753747E+03 -0.16921247290E+03  0.14096174448E+04  0.46999998093E+01 0. -1.
       -5    1    3    3    0  502  0.13140761284E+04 -0.48121753747E+03 -0.22290835072E+04  0.26319577812E+04  0.46999998093E+01 0.  1.
</event>
<event>
 5   0  0.1728937E-06  0.3300988E+04  0.7818609E-02  0.8162644E-01
        2   -1    0    0  501    0  0.00000000000E+00  0.00000000000E+00  0.19619414078E+04  0.19619414078E+04  0.25500000920E-02 0. -1.
       -2   -1    0    0    0  501  0.00000000000E+00  0.00000000000E+00 -0.13884874945E+04  0.13884874945E+04  0.25500000920E-02 0.  1.
    10030    2    1    2    0    0  0.00000000000E+00  0.00000000000E+00  0.57345391330E+03  0.33504289023E+04  0.33009884033E+04 0.  0.
        1    1    3    3  502    0 -0.15580965440E+04  0.54402606970E+03  0.26398818628E+03  0.16713225205E+04  0.50400001928E-02 0.  1.
       -1    1    3    3    0  502  0.15580965440E+04 -0.54402606970E+03  0.30946572703E+03  0.16791063818E+04  0.50400001928E-02 0. -1.
</event>
<event>
 5   0  0.1832626E-06  0.3275588E+04  0.7818609E-02  0.8169135E-01
       -2   -1    0    0    0  501  0.00000000000E+00  0.00000000000E+00  0.16071251855E+04  0.16071251855E+04  0.25500000920E-02 0. -1.
        2   -1    0    0  501    0  0.00000000000E+00  0.00000000000E+00 -0.16690481322E+04  0.16690481322E+04  0.25500000920E-02 0.  1.
    10030    2    1    2    0    0  0.00000000000E+00  0.00000000000E+00 -0.61922946620E+02  0.32761733177E+04  0.32755880627E+04 0.  0.
        3    1    3    3  502    0  0.11667156981E+04  0.71596592499E+03  0.86838579217E+03  0.16210880976E+04  0.10100000352E+00 0. -1.
       -3    1    3    3    0  502 -0.11667156981E+04 -0.71596592499E+03 -0.93030873879E+03  0.16550852201E+04  0.10100000352E+00 0.  1.
</event>
<event>
 5   0  0.1743810E-06  0.3165566E+04  0.7818609E-02  0.8197971E-01
        2   -1    0    0  501    0  0.00000000000E+00  0.00000000000E+00  0.17998634580E+04  0.17998634580E+04  0.25500000920E-02 0. -1.
       -2   -1    0    0    0  501  0.00000000000E+00  0.00000000000E+00 -0.13918848790E+04  0.13918848790E+04  0.25500000920E-02 0.  1.
    10030    2    1    2    0    0  0.00000000000E+00  0.00000000000E+00  0.40797857907E+03  0.31917483370E+04  0.31655664463E+04 0.  0.
        5    1    3    3  502    0 -0.84006650437E+03  0.89674381391E+03 -0.80191914684E+03  0.14672960191E+04  0.46999998093E+01 0.  1.
       -5    1    3    3    0  502  0.84006650437E+03 -0.89674381391E+03  0.12098977259E+04  0.17244523179E+04  0.46999998093E+01 0. -1.
</event>
<event>
 5   0  0.6023446E-07  0.3290236E+04  0.7818609E-02  0.8165384E-01
        1   -1    0    0  501    0  0.00000000000E+00  0.00000000000E+00  0.17009469326E+04  0.17009469326E+04  0.50400001928E-02 0.  1.
       -1   -1    0    0    0  501  0.00000000000E+00  0.00000000000E+00 -0.15911213433E+04  0.15911213433E+04  0.50400001928E-02 0. -1.
    10030    2    1    2    0    0  0.00000000000E+00  0.00000000000E+00  0.10982558927E+03  0.32920682759E+04  0.32902358386E+04 0.  0.
        5    1    3    3  502    0  0.92411509300E+03 -0.95138111958E+03  0.10287359660E+04  0.16785215273E+04  0.46999998093E+01 0.  1.
       -5    1    3    3    0  502 -0.92411509300E+03  0.95138111958E+03 -0.91891037669E+03  0.16135467487E+04  0.46999998093E+01 0. -1.
</event>
<event>
 5   0  0.1832626E-06  0.3264754E+04  0.7818609E-02  0.8171922E-01
       -2   -1    0    0    0  501  0.00000000000E+00  0.00000000000E+00  0.26131476539E+04  0.26131476539E+04  0.25500000920E-02 0. -1.
        2   -1    0    0  501    0  0.00000000000E+00  0.00000000000E+00 -0.10197109813E+04  0.10197109813E+04  0.25500000920E-02 0.  1.
    10030    2    1    2    0    0  0.00000000000E+00  0.00000000000E+00  0.15934366726E+04  0.36328586352E+04  0.32647544217E+04 0.  0.
        3    1    3    3  502    0  0.91063664211E+03  0.39541154207E+03 -0.64516217789E+03  0.11839947751E+04  0.10100000352E+00 0.  1.
       -3    1    3    3    0  502 -0.91063664211E+03 -0.39541154207E+03  0.22385988505E+04  0.24488638601E+04  0.10100000352E+00 0. -1.
</event>
<event>
 5   0  0.1696681E-06  0.2900862E+04  0.7818609E-02  0.8272621E-01
        2   -1    0    0  501    0  0.00000000000E+00  0.00000000000E+00  0.19658293168E+04  0.19658293168E+04  0.25500000920E-02 0.  1.
       -2   -1    0    0    0  501  0.00000000000E+00  0.00000000000E+00 -0.10701587671E+04  0.10701587671E+04  0.25500000920E-02 0. -1.
    10030    2    1    2    0    0  0.00000000000E+00  0.00000000000E+00  0.89567054971E+03  0.30359880840E+04  0.29008615810E+04 0.  0.
        4    1    3    3  502    0  0.94061482639E+02 -0.14386350400E+04  0.61407223500E+03  0.15670369056E+04  0.12699999809E+01 0.  1.
       -4    1    3    3    0  502 -0.94061482639E+02  0.14386350400E+04  0.28159831471E+03  0.14689511784E+04  0.12699999809E+01 0. -1.
</event>
<event>
 5   0  0.1743810E-06  0.3386152E+04  0.7818609E-02  0.8141313E-01
        2   -1    0    0  501    0  0.00000000000E+00  0.00000000000E+00  0.17964650313E+04  0.17964650313E+04  0.25500000920E-02 0.  1.
       -2   -1    0    0    0  501  0.00000000000E+00  0.00000000000E+00 -0.15956374026E+04  0.15956374026E+04  0.25500000920E-02 0. -1.
    10030    2    1    2    0    0  0.00000000000E+00  0.00000000000E+00  0.20082762868E+03  0.33921024339E+04  0.33861522685E+04 0.  0.
        5    1    3    3  502    0  0.40107134603E+03  0.11839688241E+04  0.12442803170E+04  0.17637732276E+04  0.46999998093E+01 0.  1.
       -5    1    3    3    0  502 -0.40107134603E+03 -0.11839688241E+04 -0.10434526883E+04  0.16283292063E+04  0.46999998093E+01 0. -1.
</event>
<event>
 5   0  0.6023446E-07  0.3427963E+04  0.7818609E-02  0.8131077E-01
        1   -1    0    0  501    0  0.00000000000E+00  0.00000000000E+00  0.20863496043E+04  0.20863496044E+04  0.50400001928E-02 0. -1.
       -1   -1    0    0    0  501  0.00000000000E+00  0.00000000000E+00 -0.14080732518E+04  0.14080732519E+04  0.50400001928E-02 0.  1.
    10030    2    1    2    0    0  0.00000000000E+00  0.00000000000E+00  0.67827635250E+03  0.34944228562E+04  0.34279632856E+04 0.  0.
        5    1    3    3  502    0 -0.15027540757E+04 -0.53763292752E+03 -0.29778896101E+03  0.16235822529E+04  0.46999998093E+01 0.  1.
       -5    1    3    3    0  502  0.15027540757E+04  0.53763292752E+03  0.97606531352E+03  0.18708406033E+04  0.46999998093E+01 0. -1.
</event>
<event>
 5   0  0.1832626E-06  0.3298059E+04  0.7818609E-02  0.8163389E-01
       -2   -1    0    0    0  501  0.00000000000E+00  0.00000000000E+00  0.17525051192E+04  0.17525051192E+04  0.25500000920E-02 0. -1.
        2   -1    0    0  501    0  0.00000000000E+00  0.00000000000E+00 -0.15516635896E+04  0.15516635896E+04  0.25500000920E-02 0.  1.
    10030    2    1    2    0    0  0.00000000000E+00  0.00000000000E+00  0.20084152965E+03  0.33041687088E+04  0.32980590559E+04 0.  0.
        3    1    3    3  502    0 -0.14559143175E+04  0.75501494674E+03  0.27268202366E+03  0.16625551317E+04  0.10100000352E+00 0. -1.
       -3    1    3    3    0  502  0.14559143175E+04 -0.75501494674E+03 -0.71840494013E+02  0.16416135771E+04  0.10100000352E+00 0.  1.
</event>
<event>
 5   0  0.1728937E-06  0.3252493E+04  0.7818609E-02  0.8175090E-01
       -2   -1    0    0    0  501  0.00000000000E+00  0.00000000000E+00  0.14815987141E+04  0.14815987141E+04  0.25500000920E-02 0. -1.
        2   -1    0    0  501    0  0.00000000000E+00  0.00000000000E+00 -0.17850165897E+04  0.17850165897E+04  0.25500000920E-02 0.  1.
    10030    2    1    2    0    0  0.00000000000E+00  0.00000000000E+00 -0.30341787560E+03  0.32666153037E+04  0.32524933721E+04 0.  0.
        1    1    3    3  502    0  0.96688577424E+03 -0.12918827297E+04  0.51280447558E+02  0.16144530876E+04  0.50400001928E-02 0. -1.
       -1    1    3    3    0  502 -0.96688577424E+03  0.12918827297E+04 -0.35469832315E+03  0.16521622161E+04  0.50400001928E-02 0.  1.
</event>
<event>
 5   0  0.1696681E-06  0.3299082E+04  0.7818609E-02  0.8163129E-01
        2   -1    0    0  501    0  0.00000000000E+00  0.00000000000E+00  0.25100996770E+04  0.25100996770E+04  0.25500000920E-02 0. -1.
       -2   -1    0    0    0  501  0.00000000000E+00  0.00000000000E+00 -0.10840147029E+04  0.10840147029E+04  0.25500000920E-02 0.  1.
    10030    2    1    2    0    0  0.00000000000E+00  0.00000000000E+00  0.14260849741E+04  0.35941143799E+04  0.32990816635E+04 0.  0.
        4    1    3    3  502    0 -0.82805138450E+03  0.12854844045E+04  0.13871199443E+04  0.20645199448E+04  0.12699999809E+01 0.  1.
       -4    1    3    3    0  502  0.82805138450E+03 -0.12854844045E+04  0.38965029851E+02  0.15295944352E+04  0.12699999809E+01 0. -1.
</event>
<event>
 5   0  0.1728937E-06  0.3305779E+04  0.7818609E-02  0.8161426E-01
        2   -1    0    0  501    0  0.00000000000E+00  0.00000000000E+00  0.22238369402E+04  0.22238369402E+04  0.25500000920E-02 0.  1.
       -2   -1    0    0    0  501  0.00000000000E+00  0.00000000000E+00 -0.12285269735E+04  0.12285269735E+04  0.25500000920E-02 0. -1.
    10030    2    1    2    0    0  0.00000000000E+00  0.00000000000E+00  0.99530996670E+03  0.34523639136E+04  0.33057789797E+04 0.  0.
        1    1    3    3  502    0  0.70537661336E+03  0.14134744085E+04  0.10056150379E+04  0.18726258769E+04  0.50400001928E-02 0.  1.
       -1    1    3    3    0  502 -0.70537661336E+03 -0.14134744085E+04 -0.10305071171E+02  0.15797380368E+04  0.50400001928E-02 0. -1.
</event>
<event>
 5   0  0.1832626E-06  0.3293616E+04  0.7818609E-02  0.8164522E-01
        2   -1    0    0  501    0  0.00000000000E+00  0.00000000000E+00  0.28691495016E+04  0.28691495016E+04  0.25500000920E-02 0.  1.
       -2   -1    0    0    0  501  0.00000000000E+00  0.00000000000E+00 -0.94521940074E+03  0.94521940074E+03  0.25500000920E-02 0. -1.
    10030    2    1    2    0    0  0.00000000000E+00  0.00000000000E+00  0.19239301008E+04  0.38143689023E+04  0.32936155043E+04 0.  0.
        3    1    3    3  502    0  0.20594516720E+03  0.79873887818E+03  0.26126591715E+04  0.27397783056E+04  0.10100000352E+00 0.  1.
       -3    1    3    3    0  502 -0.20594516720E+03 -0.79873887818E+03 -0.68872907069E+03  0.10745905967E+04  0.10100000352E+00 0. -1.
</event>
<event>
 5   0  0.1784626E-06  0.3335969E+04  0.7818609E-02  0.8153803E-01
        2   -1    0    0  501    0  0.00000000000E+00  0.00000000000E+00  0.25417621316E+04  0.25417621316E+04  0.25500000920E-02 0.  1.
       -2   -1    0    0    0  501  0.00000000000E+00  0.00000000000E+00 -0.10945840888E+04  0.10945840888E+04  0.25500000920E-02 0. -1.
    10030    2    1    2    0    0  0.00000000000E+00  0.00000000000E+00  0.14471780428E+04  0.36363462204E+04  0.33359690567E+04 0.  0.
        2    1    3    3  502    0 -0.16100948532E+04 -0.43562081125E+03  0.72227232119E+03  0.18176490953E+04  0.25500000920E-02 0. -1.
       -2    1    3    3    0  502  0.16100948532E+04  0.43562081125E+03  0.72490572165E+03  0.18186971251E+04  0.25500000920E-02 0.  1.
</event>
<event>
 5   0  0.1728937E-06  0.3314186E+04  0.7818609E-02  0.8159295E-01
        2   -1    0    0  501    0  0.00000000000E+00  0.00000000000E+00  0.19951489727E+04  0.19951489727E+04  0.25500000920E-02 0. -1.
       -2   -1    0    0    0  501  0.00000000000E+00  0.00000000000E+00 -0.13763165544E+04  0.13763165544E+04  0.25500000920E-02 0.  1.
    10030    2    1    2    0    0  0.00000000000E+00  0.00000000000E+00  0.61883241830E+03  0.33714655271E+04  0.33141856071E+04 0.  0.
        1    1    3    3  502    0  0.19082692112E+03 -0.13613576136E+04 -0.63191281965E+03  0.15129518424E+04  0.50400001928E-02 0.  1.
       -1    1    3    3    0  502 -0.19082692112E+03  0.13613576136E+04  0.12507452380E+04  0.18585136847E+04  0.50400001928E-02 0. -1.
</event>
<event>
 5   0  0.1784626E-06  0.3323783E+04  0.7818609E-02  0.8156870E-01
        2   -1    0    0  501    0  0.00000000000E+00  0.00000000000E+00  0.13243228108E+04  0.13243228108E+04  0.25500000920E-02 0. -1.
       -2   -1    0    0    0  501  0.00000000000E+00  0.00000000000E+00 -0.20855062923E+04  0.20855062923E+04  0.25500000920E-02 0.  1.
    10030    2    1    2    0    0  0.00000000000E+00  0.00000000000E+00 -0.76118348147E+03  0.34098291031E+04  0.33237831187E+04 0.  0.
        2    1    3    3  502    0  0.12626994841E+03 -0.15127990639E+04 -0.10743973127E+04  0.18597942610E+04  0.25500000920E-02 0.  1.
       -2    1    3    3    0  502 -0.12626994841E+03  0.15127990639E+04  0.31321383128E+03  0.15500348421E+04  0.25500000920E-02 0. -1.
</event>
<event>
 5   0  0.6085351E-07  0.3329363E+04  0.7818609E-02  0.8155464E-01
        1   -1    0    0  501    0  0.00000000000E+00  0.00000000000E+00  0.13882743375E+04  0.13882743376E+04  0.50400001928E-02 0.  1.
       -1   -1    0    0    0  501  0.00000000000E+00  0.00000000000E+00 -0.19961212725E+04  0.19961212725E+04  0.50400001928E-02 0. -1.
    10030    2    1    2    0    0  0.00000000000E+00  0.00000000000E+00 -0.60784693495E+03  0.33843956101E+04  0.33293626641E+04 0.  0.
        1    1    3    3  502    0  0.25553760324E+02  0.11692464068E+04  0.90029892192E+03  0.14759160895E+04  0.50400001928E-02 0.  1.
       -1    1    3    3    0  502 -0.25553760324E+02 -0.11692464068E+04 -0.15081458569E+04  0.19084795205E+04  0.50400001928E-02 0. -1.
</event>
<event>
 5   0  0.5985183E-07  0.3037103E+04  0.7818609E-02  0.8233215E-01
       -1   -1    0    0    0  501  0.00000000000E+00  0.00000000000E+00  0.10535698513E+04  0.10535698513E+04  0.50400001928E-02 0.  1.
        1   -1    0    0  501    0  0.00000000000E+00  0.00000000000E+00 -0.21887476493E+04  0.21887476493E+04  0.50400001928E-02 0. -1.
    10030    2    1    2    0    0  0.00000000000E+00  0.00000000000E+00 -0.11351777980E+04  0.32423175006E+04  0.30371029192E+04 0.  0.
        2    1    3    3  502    0  0.80689743931E+02  0.23621408645E+03  0.10315180702E+04  0.10612904685E+04  0.25500000920E-02 0.  1.
       -2    1    3    3    0  502 -0.80689743931E+02 -0.23621408645E+03 -0.21666958682E+04  0.21810270321E+04  0.25500000920E-02 0. -1.
</event>
<event>
 5   0  0.5988516E-07  0.3245275E+04  0.7818609E-02  0.8176961E-01
       -1   -1    0    0    0  501  0.00000000000E+00  0.00000000000E+00  0.10436584484E+04  0.10436584484E+04  0.50400001928E-02 0.  1.
        1   -1    0    0  501    0  0.00000000000E+00  0.00000000000E+00 -0.25228104333E+04  0.25228104333E+04  0.50400001928E-02 0. -1.
    10030    2    1    2    0    0  0.00000000000E+00  0.00000000000E+00 -0.14791519849E+04  0.35664688817E+04  0.32452749790E+04 0.  0.
        4    1    3    3  502    0  0.64095088839E+03 -0.14621046726E+04 -0.42033868995E+03  0.16508344381E+04  0.12699999809E+01 0.  1.
       -4    1    3    3    0  502 -0.64095088839E+03  0.14621046726E+04 -0.10588132950E+04  0.19156344436E+04  0.12699999809E+01 0. -1.
</event>
<event>
 5   0  0.6023446E-07  0.3280014E+04  0.7818609E-02  0.8168000E-01
        1   -1    0    0  501    0  0.00000000000E+00  0.00000000000E+00  0.19037942724E+04  0.19037942725E+04  0.50400001928E-02 0. -1.
       -1   -1    0    0    0  501  0.00000000000E+00  0.00000000000E+00 -0.14127697737E+04  0.14127697737E+04  0.50400001928E-02 0.  1.
    10030    2    1    2    0    0  0.00000000000E+00  0.00000000000E+00  0.49102449872E+03  0.33165640462E+04  0.32800140265E+04 0.  0.
        5    1    3    3  502    0 -0.14986068379E+04 -0.25356878819E+01 -0.42807312723E+03  0.15585562475E+04  0.46999998093E+01 0. -1.
       -5    1    3    3    0  502  0.14986068379E+04  0.25356878819E+01  0.91909762595E+03  0.17580077987E+04  0.46999998093E+01 0.  1.
</event>
<event>
 5   0  0.1832626E-06  0.3319492E+04  0.7818609E-02  0.8157953E-01
       -2   -1    0    0    0  501  0.00000000000E+00  0.00000000000E+00  0.11667213388E+04  0.11667213388E+04  0.25500000920E-02 0. -1.
        2   -1    0    0  501    0  0.00000000000E+00  0.00000000000E+00 -0.23611094430E+04  0.23611094430E+04  0.25500000920E-02 0.  1.
    10030    2    1    2    0    0  0.00000000000E+00  0.00000000000E+00 -0.11943881042E+04  0.35278307817E+04  0.33194919914E+04 0.  0.
        3    1    3    3  502    0  0.15833193191E+04  0.16520524936E+03 -0.98075910582E+02  0.15949331444E+04  0.10100000352E+00 0. -1.
       -3    1    3    3    0  502 -0.15833193191E+04 -0.16520524936E+03 -0.10963121936E+04  0.19328976374E+04  0.10100000352E+00 0.  1.
</event>
<event>
 5   0  0.1832626E-06  0.2838353E+04  0.7818609E-02  0.8291459E-01
       -2   -1    0    0    0  501  0.00000000000E+00  0.00000000000E+00  0.13058472918E+04  0.13058472918E+04  0.25500000920E-02 0. -1.
        2   -1    0    0  501    0  0.00000000000E+00  0.00000000000E+00 -0.15423413483E+04  0.15423413483E+04  0.25500000920E-02 0.  1.
    10030    2    1    2    0    0  0.00000000000E+00  0.00000000000E+00 -0.23649405651E+03  0.28481886401E+04  0.28383532357E+04 0.  0.
        3    1    3    3  502    0  0.12499252030E+04 -0.23975206953E+03  0.51183657655E+03  0.13717764976E+04  0.10100000352E+00 0. -1.
       -3    1    3    3    0  502 -0.12499252030E+04  0.23975206953E+03 -0.74833063307E+03  0.14764121425E+04  0.10100000352E+00 0.  1.
</event>
<event>
 5   0  0.5858859E-07  0.2890431E+04  0.7818609E-02  0.8275730E-01
        1   -1    0    0  501    0  0.00000000000E+00  0.00000000000E+00  0.22062756931E+04  0.22062756931E+04  0.50400001928E-02 0. -1.
       -1   -1    0    0    0  501  0.00000000000E+00  0.00000000000E+00 -0.94668481105E+03  0.94668481106E+03  0.50400001928E-02 0.  1.
    10030    2    1    2    0    0  0.00000000000E+00  0.00000000000E+00  0.12595908821E+04  0.31529605042E+04  0.28904308936E+04 0.  0.
        3    1    3    3  502    0 -0.20657955138E+03 -0.92411276762E+03 -0.56115012203E+03  0.11007038603E+04  0.10100000352E+00 0. -1.
       -3    1    3    3    0  502  0.20657955138E+03  0.92411276762E+03  0.18207410041E+04  0.20522566439E+04  0.10100000352E+00 0.  1.
</event>
<event>
 5   0  0.5988516E-07  0.3315147E+04  0.7818609E-02  0.8159052E-01
        1   -1    0    0  501    0  0.00000000000E+00  0.00000000000E+00  0.20508177198E+04  0.20508177198E+04  0.50400001928E-02 0.  1.
       -1   -1    0    0    0  501  0.00000000000E+00  0.00000000000E+00 -0.13397340630E+04  0.13397340630E+04  0.50400001928E-02 0. -1.
    10030    2    1    2    0    0  0.00000000000E+00  0.00000000000E+00  0.71108365683E+03  0.33905517828E+04  0.33151472705E+04 0.  0.
        4    1    3    3  502    0  0.66219009295E+03 -0.15000824791E+04  0.60355618680E+03  0.17472907162E+04  0.12699999809E+01 0. -1.
       -4    1    3    3    0  502 -0.66219009295E+03  0.15000824791E+04  0.10752747003E+03  0.16432610666E+04  0.12699999809E+01 0.  1.
</event>
<event>
 5   0  0.6023446E-07  0.3302044E+04  0.7818609E-02  0.8162376E-01
        1   -1    0    0  501    0  0.00000000000E+00  0.00000000000E+00  0.15931009877E+04  0.15931009877E+04  0.50400001928E-02 0.  1.
       -1   -1    0    0    0  501  0.00000000000E+00  0.00000000000E+00 -0.17110488090E+04  0.17110488090E+04  0.50400001928E-02 0. -1.
    10030    2    1    2    0    0  0.00000000000E+00  0.00000000000E+00 -0.11794782134E+03  0.33041497967E+04  0.33020439414E+04 0.  0.
        5    1    3    3  502    0 -0.13602472202E+04  0.72555567110E+03 -0.65023815023E+03  0.16731811838E+04  0.46999998093E+01 0. -1.
       -5    1    3    3    0  502  0.13602472202E+04 -0.72555567110E+03  0.53229032889E+03  0.16309686129E+04  0.46999998093E+01 0.  1.
</event>
<event>
 5   0  0.1696681E-06  0.3290432E+04  0.7818609E-02  0.8165334E-01
       -2   -1    0    0    0  501  0.00000000000E+00  0.00000000000E+00  0.13618659482E+04  0.13618659482E+04  0.25500000920E-02 0. -1.
        2   -1    0    0  501    0  0.00000000000E+00  0.00000000000E+00 -0.19875202660E+04  0.19875202660E+04  0.25500000920E-02 0.  1.
    10030    2    1    2    0    0  0.00000000000E+00  0.00000000000E+00 -0.62565431778E+03  0.33493862142E+04  0.32904322948E+04 0.  0.
        4    1    3    3  502    0 -0.10232403611E+04  0.11317114188E+04  0.31378556071E+03  0.15576439141E+04  0.12699999809E+01 0. -1.
       -4    1    3    3    0  502  0.10232403611E+04 -0.11317114188E+04 -0.93943987850E+03  0.17917423002E+04  0.12699999809E+01 0.  1.
</event>
<event>
 5   0  0.1696681E-06  0.3288485E+04  0.7818609E-02  0.8165832E-01
       -2   -1    0    0    0  501  0.00000000000E+00  0.00000000000E+00  0.13642726223E+04  0.13642726223E+04  0.25500000920E-02 0.  1.
        2   -1    0    0  501    0  0.00000000000E+00  0.00000000000E+00 -0.19816664107E+04  0.19816664107E+04  0.25500000920E-02 0. -1.
    10030    2    1    2    0    0  0.00000000000E+00  0.00000000000E+00 -0.61739378843E+03  0.33459390329E+04  0.32884848977E+04 0.  0.
        4    1    3    3  502    0  0.67929037129E+03 -0.42453908209E+03  0.11523092784E+04  0.14033841693E+04  0.12699999809E+01 0.  1.
       -4    1    3    3    0  502 -0.67929037129E+03  0.42453908209E+03 -0.17697030668E+04  0.19425548636E+04  0.12699999809E+01 0. -1.
</event>
<event>
 5   0  0.1832626E-06  0.3248111E+04  0.7818609E-02  0.8176226E-01
       -2   -1    0    0    0  501  0.00000000000E+00  0.00000000000E+00  0.13804228251E+04  0.13804228251E+04  0.25500000920E-02 0. -1.
        2   -1    0    0  501    0  0.00000000000E+00  0.00000000000E+00 -0.19106869731E+04  0.19106869731E+04  0.25500000920E-02 0.  1.
    10030    2    1    2    0    0  0.00000000000E+00  0.00000000000E+00 -0.53026414801E+03  0.32911097982E+04  0.32481107797E+04 0.  0.
        3    1    3    3  502    0 -0.47041392994E+03 -0.14264033572E+04  0.36081633088E+03  0.15447019899E+04  0.10100000352E+00 0. -1.
       -3    1    3    3    0  502  0.47041392994E+03  0.14264033572E+04 -0.89108047889E+03  0.17464078083E+04  0.10100000352E+00 0.  1.
</event>
<event>
 5   0  0.6085351E-07  0.3311948E+04  0.7818609E-02  0.8159862E-01
       -1   -1    0    0    0  501  0.00000000000E+00  0.00000000000E+00  0.17879174882E+04  0.17879174882E+04  0.50400001928E-02 0.  1.
        1   -1    0    0  501    0  0.00000000000E+00  0.00000000000E+00 -0.15337672236E+04  0.15337672236E+04  0.50400001928E-02 0. -1.
    10030    2    1    2    0    0  0.00000000000E+00  0.00000000000E+00  0.25415026465E+03  0.33216847118E+04  0.33119476094E+04 0.  0.
        1    1    3    3  502    0 -0.46045168939E+03  0.15392968475E+04 -0.27510092706E+03  0.16300708767E+04  0.50400001928E-02 0. -1.
       -1    1    3    3    0  502  0.46045168939E+03 -0.15392968475E+04  0.52925119171E+03  0.16916138351E+04  0.50400001928E-02 0.  1.
</event>
<event>
 5   0  0.1696681E-06  0.3392151E+04  0.7818609E-02  0.8139835E-01
       -2   -1    0    0    0  501  0.00000000000E+00  0.00000000000E+00  0.15448989326E+04  0.15448989326E+04  0.25500000920E-02 0.  1.
        2   -1    0    0  501    0  0.00000000000E+00  0.00000000000E+00 -0.18620457396E+04  0.18620457396E+04  0.25500000920E-02 0. -1.
    10030    2    1    2    0    0  0.00000000000E+00  0.00000000000E+00 -0.31714680699E+03  0.34069446722E+04  0.33921512205E+04 0.  0.
        4    1    3    3  502    0 -0.14430323421E+04  0.15515395904E+03 -0.10400430394E+04  0.17855268769E+04  0.12699999809E+01 0. -1.
       -4    1    3    3    0  502  0.14430323421E+04 -0.15515395904E+03  0.72289623239E+03  0.16214177954E+04  0.12699999809E+01 0.  1.
</event>
<event>
 5   0  0.5988516E-07  0.3603705E+04  0.7818609E-02  0.8089643E-01
       -1   -1    0    0    0  501  0.00000000000E+00  0.00000000000E+00  0.15217058167E+04  0.15217058167E+04  0.50400001928E-02 0.  1.
        1   -1    0    0  501    0  0.00000000000E+00  0.00000000000E+00 -0.21335746434E+04  0.21335746434E+04  0.50400001928E-02 0. -1.
    10030    2    1    2    0    0  0.00000000000E+00  0.00000000000E+00 -0.61186882667E+03  0.36552804601E+04  0.36037052850E+04 0.  0.
        4    1    3    3  502    0 -0.88826872690E+02 -0.17950450476E+04 -0.43659727399E+03  0.18495122949E+04  0.12699999809E+01 0.  1.
       -4    1    3    3    0  502  0.88826872690E+02  0.17950450476E+04 -0.17527155269E+03  0.18057681652E+04  0.12699999809E+01 0. -1.
</event>
<event>
 5   0  0.1728937E-06  0.3300460E+04  0.7818609E-02  0.8162778E-01
       -2   -1    0    0    0  501  0.00000000000E+00  0.00000000000E+00  0.15491986311E+04  0.15491986311E+04  0.25500000920E-02 0.  1.
        2   -1    0    0  501    0  0.00000000000E+00  0.00000000000E+00 -0.17578502297E+04  0.17578502297E+04  0.25500000920E-02 0. -1.
    10030    2    1    2    0    0  0.00000000000E+00  0.00000000000E+00 -0.20865159857E+03  0.33070488608E+04  0.33004600707E+04 0.  0.
        1    1    3    3  502    0  0.16328794184E+04 -0.23836014109E+03 -0.11653280129E+03  0.16542946067E+04  0.50400001928E-02 0.  1.
       -1    1    3    3    0  502 -0.16328794184E+04  0.23836014109E+03 -0.92118797274E+02  0.16527542542E+04  0.50400001928E-02 0. -1.
</event>
<event>
 5   0  0.1743810E-06  0.3297817E+04  0.7818609E-02  0.8163451E-01
       -2   -1    0    0    0  501  0.00000000000E+00  0.00000000000E+00  0.15801721334E+04  0.15801721334E+04  0.25500000920E-02 0.  1.
        2   -1    0    0  501    0  0.00000000000E+00  0.00000000000E+00 -0.17206353451E+04  0.17206353451E+04  0.25500000920E-02 0. -1.
    10030    2    1    2    0    0  0.00000000000E+00  0.00000000000E+00 -0.14046321172E+03  0.33008074784E+04  0.32978174746E+04 0.  0.
        5    1    3    3  502    0 -0.13428224754E+04 -0.60647467770E+03 -0.81110147183E+03  0.16819308615E+04  0.46999998093E+01 0. -1.
       -5    1    3    3    0  502  0.13428224754E+04  0.60647467770E+03  0.67063826011E+03  0.16188766170E+04  0.46999998093E+01 0.  1.
</event>
<event>
 5   0  0.6085351E-07  0.2863333E+04  0.7818609E-02  0.8283871E-01
        1   -1    0    0  501    0  0.00000000000E+00  0.00000000000E+00  0.30960379053E+04  0.30960379053E+04  0.50400001928E-02 0. -1.
       -1   -1    0    0    0  501  0.00000000000E+00  0.00000000000E+00 -0.66202982386E+03  0.66202982388E+03  0.50400001928E-02 0.  1.
    10030    2    1    2    0    0  0.00000000000E+00  0.00000000000E+00  0.24340080815E+04  0.37580677292E+04  0.28633333227E+04 0.  0.
        1    1    3    3  502    0 -0.87439658331E+03  0.24909504195E+03 -0.23448948796E+03  0.93893718897E+03  0.50400001928E-02 0.  1.
       -1    1    3    3    0  502  0.87439658331E+03 -0.24909504195E+03  0.26684975694E+04  0.28191305402E+04  0.50400001928E-02 0. -1.
</event>
<event>
 5   0  0.6085351E-07  0.3305200E+04  0.7818609E-02  0.8161574E-01
       -1   -1    0    0    0  501  0.00000000000E+00  0.00000000000E+00  0.15656003480E+04  0.15656003480E+04  0.50400001928E-02 0.  1.
        1   -1    0    0  501    0  0.00000000000E+00  0.00000000000E+00 -0.17444338377E+04  0.17444338377E+04  0.50400001928E-02 0. -1.
    10030    2    1    2    0    0  0.00000000000E+00  0.00000000000E+00 -0.17883348968E+03  0.33100341857E+04  0.33051996753E+04 0.  0.
        1    1    3    3  502    0 -0.55812316395E+03  0.12105720038E+03  0.14636352283E+04  0.15711092876E+04  0.50400001928E-02 0.  1.
       -1    1    3    3    0  502  0.55812316395E+03 -0.12105720038E+03 -0.16424687180E+04  0.17389248982E+04  0.50400001928E-02 0. -1.
</event>
<event>
 5   0  0.5988516E-07  0.3469521E+04  0.7818609E-02  0.8121051E-01
       -1   -1    0    0    0  501  0.00000000000E+00  0.00000000000E+00  0.25210812363E+04  0.25210812363E+04  0.50400001928E-02 0.  1.
        1   -1    0    0  501    0  0.00000000000E+00  0.00000000000E+00 -0.11936917999E+04  0.11936917999E+04  0.50400001928E-02 0. -1.
    10030    2    1    2    0    0  0.00000000000E+00  0.00000000000E+00  0.13273894364E+04  0.37147730362E+04  0.34695210036E+04 0.  0.
        4    1    3    3  502    0 -0.33419200715E+03 -0.61079339312E+03 -0.10375330061E+04  0.12494915840E+04  0.12699999809E+01 0. -1.
       -4    1    3    3    0  502  0.33419200715E+03  0.61079339312E+03  0.23649224425E+04  0.24652814522E+04  0.12699999809E+01 0.  1.
</event>
<event>
 5   0  0.1696681E-06  0.3330929E+04  0.7818609E-02  0.8155070E-01
        2   -1    0    0  501    0  0.00000000000E+00  0.00000000000E+00  0.13932444143E+04  0.13932444143E+04  0.25500000920E-02 0.  1.
       -2   -1    0    0    0  501  0.00000000000E+00  0.00000000000E+00 -0.19908727884E+04  0.19908727884E+04  0.25500000920E-02 0. -1.
    10030    2    1    2    0    0  0.00000000000E+00  0.00000000000E+00 -0.59762837407E+03  0.33841172027E+04  0.33309292349E+04 0.  0.
        4    1    3    3  502    0  0.69475726318E+02 -0.72104714273E+03 -0.18224391823E+04  0.19611277482E+04  0.12699999809E+01 0. -1.
       -4    1    3    3    0  502 -0.69475726318E+02  0.72104714273E+03  0.12248108083E+04  0.14229894545E+04  0.12699999809E+01 0.  1.
</event>
<event>
 5   0  0.6085351E-07  0.3287434E+04  0.7818609E-02  0.8166100E-01
       -1   -1    0    0    0  501  0.00000000000E+00  0.00000000000E+00  0.18074226736E+04  0.18074226736E+04  0.50400001928E-02 0.  1.
        1   -1    0    0  501    0  0.00000000000E+00  0.00000000000E+00 -0.14948388352E+04  0.14948388352E+04  0.50400001928E-02 0. -1.
    10030    2    1    2    0    0  0.00000000000E+00  0.00000000000E+00  0.31258383842E+03  0.33022615089E+04  0.32874340171E+04 0.  0.
        1    1    3    3  502    0 -0.10611567800E+04 -0.11594655663E+04  0.63949323889E+03  0.16968693862E+04  0.50400001928E-02 0.  1.
       -1    1    3    3    0  502  0.10611567800E+04  0.11594655663E+04 -0.32690940047E+03  0.16053921226E+04  0.50400001928E-02 0. -1.
</event>
<event>
 5   0  0.1728937E-06  0.2807542E+04  0.7818609E-02  0.8300931E-01
       -2   -1    0    0    0  501  0.00000000000E+00  0.00000000000E+00  0.12180184921E+04  0.12180184921E+04  0.25500000920E-02 0.  1.
        2   -1    0    0  501    0  0.00000000000E+00  0.00000000000E+00 -0.16178512081E+04  0.16178512081E+04  0.25500000920E-02 0. -1.
    10030    2    1    2    0    0  0.00000000000E+00  0.00000000000E+00 -0.39983271601E+03  0.28358697003E+04  0.28075417639E+04 0.  0.
        1    1    3    3  502    0  0.62217252826E+03  0.89462796660E+03  0.69395037147E+03  0.12919074935E+04  0.50400001928E-02 0. -1.
       -1    1    3    3    0  502 -0.62217252826E+03 -0.89462796660E+03 -0.10937830875E+04  0.15439622068E+04  0.50400001928E-02 0.  1.
</event>
<event>
 5   0  0.6023446E-07  0.3303539E+04  0.7818609E-02  0.8161995E-01
       -1   -1    0    0    0  501  0.00000000000E+00  0.00000000000E+00  0.14900660880E+04  0.14900660880E+04  0.50400001928E-02 0. -1.
        1   -1    0    0  501    0  0.00000000000E+00  0.00000000000E+00 -0.18310215882E+04  0.18310215882E+04  0.50400001928E-02 0.  1.
    10030    2    1    2    0    0  0.00000000000E+00  0.00000000000E+00 -0.34095550021E+03  0.33210876762E+04  0.33035394201E+04 0.  0.
        5    1    3    3  502    0  0.73297109802E+03  0.50720002474E+03  0.12275286580E+04  0.15170191797E+04  0.46999998093E+01 0. -1.
       -5    1    3    3    0  502 -0.73297109802E+03 -0.50720002474E+03 -0.15684841582E+04  0.18040684965E+04  0.46999998093E+01 0.  1.
</event>
<event>
 5   0  0.1832626E-06  0.3256745E+04  0.7818609E-02  0.8173990E-01
        2   -1    0    0  501    0  0.00000000000E+00  0.00000000000E+00  0.19243082854E+04  0.19243082854E+04  0.25500000920E-02 0.  1.
       -2   -1    0    0    0  501  0.00000000000E+00  0.00000000000E+00 -0.13779477345E+04  0.13779477345E+04  0.25500000920E-02 0. -1.
    10030    2    1    2    0    0  0.00000000000E+00  0.00000000000E+00  0.54636055092E+03  0.33022560199E+04  0.32567445355E+04 0.  0.
        3    1    3    3  502    0 -0.17672615704E+03  0.15672371914E+04  0.68397348828E+03  0.17190940322E+04  0.10100000352E+00 0.  1.
       -3    1    3    3    0  502  0.17672615704E+03 -0.15672371914E+04 -0.13761293736E+03  0.15831619877E+04  0.10100000352E+00 0. -1.
</event>
<event>
 5   0  0.6085351E-07  0.3349681E+04  0.7818609E-02  0.8150368E-01
        1   -1    0    0  501    0  0.00000000000E+00  0.00000000000E+00  0.26234371369E+04  0.26234371369E+04  0.50400001928E-02 0. -1.
       -1   -1    0    0    0  501  0.00000000000E+00  0.00000000000E+00 -0.10692426913E+04  0.10692426914E+04  0.50400001928E-02 0.  1.
    10030    2    1    2    0    0  0.00000000000E+00  0.00000000000E+00  0.15541944456E+04  0.36926798283E+04  0.33496811698E+04 0.  0.
        1    1    3    3  502    0  0.15908644326E+03 -0.57745502420E+02  0.26139863769E+04  0.26194594515E+04  0.50400001928E-02 0. -1.
       -1    1    3    3    0  502 -0.15908644326E+03  0.57745502420E+02 -0.10597919313E+04  0.10732203768E+04  0.50400001928E-02 0.  1.
</event>
<event>
 5   0  0.6023446E-07  0.3292688E+04  0.7818609E-02  0.8164758E-01
        1   -1    0    0  501    0  0.00000000000E+00  0.00000000000E+00  0.23219894621E+04  0.23219894621E+04  0.50400001928E-02 0.  1.
       -1   -1    0    0    0  501  0.00000000000E+00  0.00000000000E+00 -0.11672956427E+04  0.11672956427E+04  0.50400001928E-02 0. -1.
    10030    2    1    2    0    0  0.00000000000E+00  0.00000000000E+00  0.11546938194E+04  0.34892851048E+04  0.32926877663E+04 0.  0.
        5    1    3    3  502    0 -0.98317878634E+03  0.10992367469E+04  0.13527920921E+04  0.20012572263E+04  0.46999998093E+01 0.  1.
       -5    1    3    3    0  502  0.98317878634E+03 -0.10992367469E+04 -0.19809827267E+03  0.14880278785E+04  0.46999998093E+01 0. -1.
</event>
<event>
 5   0  0.1743810E-06  0.3104813E+04  0.7818609E-02  0.8214418E-01
       -2   -1    0    0    0  501  0.00000000000E+00  0.00000000000E+00  0.18258744855E+04  0.18258744855E+04  0.25500000920E-02 0.  1.
        2   -1    0    0  501    0  0.00000000000E+00  0.00000000000E+00 -0.13198967333E+04  0.13198967333E+04  0.25500000920E-02 0. -1.
    10030    2    1    2    0    0  0.00000000000E+00  0.00000000000E+00  0.50597775224E+03  0.31457712188E+04  0.31048128890E+04 0.  0.
        5    1    3    3  502    0 -0.10128575947E+04  0.11487348918E+04 -0.42727339372E+01  0.15315066781E+04  0.46999998093E+01 0.  1.
       -5    1    3    3    0  502  0.10128575947E+04 -0.11487348918E+04  0.51025048618E+03  0.16142645407E+04  0.46999998093E+01 0. -1.
</event>
<event>
 5   0  0.6085351E-07  0.3294647E+04  0.7818609E-02  0.8164259E-01
        1   -1    0    0  501    0  0.00000000000E+00  0.00000000000E+00  0.33544627429E+04  0.33544627429E+04  0.50400001928E-02 0.  1.
       -1   -1    0    0    0  501  0.00000000000E+00  0.00000000000E+00 -0.80897469807E+03  0.80897469808E+03  0.50400001928E-02 0. -1.
    10030    2    1    2    0    0  0.00000000000E+00  0.00000000000E+00  0.25454880448E+04  0.41634374410E+04  0.32946474680E+04 0.  0.
        1    1    3    3  502    0  0.10244109117E+04 -0.43862461553E+03 -0.26037990075E+03  0.11443806019E+04  0.50400001928E-02 0. -1.
       -1    1    3    3    0  502 -0.10244109117E+04  0.43862461553E+03  0.28058679456E+04  0.30190568390E+04  0.50400001928E-02 0.  1.
</event>
<event>
 5   0  0.6023446E-07  0.3254891E+04  0.7818609E-02  0.8174469E-01
       -1   -1    0    0    0  501  0.00000000000E+00  0.00000000000E+00  0.13218789024E+04  0.13218789024E+04  0.50400001928E-02 0. -1.
        1   -1    0    0  501    0  0.00000000000E+00  0.00000000000E+00 -0.20036476727E+04  0.20036476727E+04  0.50400001928E-02 0.  1.
    10030    2    1    2    0    0  0.00000000000E+00  0.00000000000E+00 -0.68176877033E+03  0.33255265751E+04  0.32548914491E+04 0.  0.
        5    1    3    3  502    0  0.15691216830E+04  0.42548919201E+03 -0.41577994784E+03  0.16781176847E+04  0.46999998093E+01 0. -1.
       -5    1    3    3    0  502 -0.15691216830E+04 -0.42548919201E+03 -0.26598882249E+03  0.16474088904E+04  0.46999998093E+01 0.  1.
</event>
<event>
 5   0  0.5858859E-07  0.3223231E+04  0.7818609E-02  0.8182709E-01
       -1   -1    0    0    0  501  0.00000000000E+00  0.00000000000E+00  0.16464281571E+04  0.16464281571E+04  0.50400001928E-02 0.  1.
        1   -1    0    0  501    0  0.00000000000E+00  0.00000000000E+00 -0.15775385727E+04  0.15775385727E+04  0.50400001928E-02 0. -1.
    10030    2    1    2    0    0  0.00000000000E+00  0.00000000000E+00  0.68889584398E+02  0.32239667299E+04  0.32232306310E+04 0.  0.
        3    1    3    3  502    0  0.19288688067E+03  0.18039626406E+03  0.16246367105E+04  0.16459625184E+04  0.10100000352E+00 0.  1.
       -3    1    3    3    0  502 -0.19288688067E+03 -0.18039626406E+03 -0.15557471261E+04  0.15780042114E+04  0.10100000352E+00 0. -1.
</event>
<event>
 5   0  0.1696681E-06  0.3264142E+04  0.7818609E-02  0.8172080E-01
        2   -1    0    0  501    0  0.00000000000E+00  0.00000000000E+00  0.26168717813E+04  0.26168717813E+04  0.25500000920E-02 0. -1.
       -2   -1    0    0    0  501  0.00000000000E+00  0.00000000000E+00 -0.10178776165E+04  0.10178776165E+04  0.25500000920E-02 0.  1.
    10030    2    1    2    0    0  0.00000000000E+00  0.00000000000E+00  0.15989941648E+04  0.36347493978E+04  0.32641416706E+04 0.  0.
        4    1    3    3  502    0  0.89268085409E+03 -0.54216424657E+02  0.23197267833E+04  0.24861521454E+04  0.12699999809E+01 0. -1.
       -4    1    3    3    0  502 -0.89268085409E+03  0.54216424657E+02 -0.72073261851E+03  0.11485972524E+04  0.12699999809E+01 0.  1.
</event>
<event>
 5   0  0.5985183E-07  0.3319619E+04  0.7818609E-02  0.8157921E-01
       -1   -1    0    0    0  501  0.00000000000E+00  0.00000000000E+00  0.11356688518E+04  0.11356688518E+04  0.50400001928E-02 0.  1.
        1   -1    0    0  501    0  0.00000000000E+00  0.00000000000E+00 -0.24258544123E+04  0.24258544123E+04  0.50400001928E-02 0. -1.
    10030    2    1    2    0    0  0.00000000000E+00  0.00000000000E+00 -0.12901855605E+04  0.35615232641E+04  0.33196188306E+04 0.  0.
        2    1    3    3  502    0 -0.85746943957E+03  0.10552164894E+04 -0.16664253245E+04  0.21507461593E+04  0.25500000920E-02 0.  1.
       -2    1    3    3    0  502  0.85746943957E+03 -0.10552164894E+04  0.37623976404E+03  0.14107771048E+04  0.25500000920E-02 0. -1.
</event>
<event>
 5   0  0.5685000E-07  0.3181526E+04  0.7818609E-02  0.8193713E-01
        3   -1    0    0  501    0  0.00000000000E+00  0.00000000000E+00  0.23395303883E+04  0.23395303905E+04  0.10100000352E+00 0. -1.
       -3   -1    0    0    0  501  0.00000000000E+00  0.00000000000E+00 -0.10816387175E+04  0.10816387223E+04  0.10100000352E+00 0.  1.
    10030    2    1    2    0    0  0.00000000000E+00  0.00000000000E+00  0.12578916708E+04  0.34211691128E+04  0.31815258356E+04 0.  0.
        5    1    3    3  502    0  0.31179522191E+03  0.12737200833E+04  0.15972895902E+04  0.20666241158E+04  0.46999998093E+01 0. -1.
       -5    1    3    3    0  502 -0.31179522191E+03 -0.12737200833E+04 -0.33939791945E+03  0.13545449969E+04  0.46999998093E+01 0.  1.
</event>
<event>
 5   0  0.1728937E-06  0.3278220E+04  0.7818609E-02  0.8168460E-01
        2   -1    0    0  501    0  0.00000000000E+00  0.00000000000E+00  0.24960365400E+04  0.24960365400E+04  0.25500000920E-02 0. -1.
       -2   -1    0    0    0  501  0.00000000000E+00  0.00000000000E+00 -0.10763790640E+04  0.10763790640E+04  0.25500000920E-02 0.  1.
    10030    2    1    2    0    0  0.00000000000E+00  0.00000000000E+00  0.14196574760E+04  0.35724156040E+04  0.32782199283E+04 0.  0.
        1    1    3    3  502    0 -0.33396226187E+03  0.13172867261E+04  0.17085385747E+04  0.21830893643E+04  0.50400001928E-02 0. -1.
       -1    1    3    3    0  502  0.33396226187E+03 -0.13172867261E+04 -0.28888109868E+03  0.13893262397E+04  0.50400001928E-02 0.  1.
</event>
<event>
 5   0  0.1696681E-06  0.3337314E+04  0.7818609E-02  0.8153465E-01
        2   -1    0    0  501    0  0.00000000000E+00  0.00000000000E+00  0.15588572686E+04  0.15588572686E+04  0.25500000920E-02 0. -1.
       -2   -1    0    0    0  501  0.00000000000E+00  0.00000000000E+00 -0.17861905298E+04  0.17861905298E+04  0.25500000920E-02 0.  1.
    10030    2    1    2    0    0  0.00000000000E+00  0.00000000000E+00 -0.22733326119E+03  0.33450477985E+04  0.33373139442E+04 0.  0.
        4    1    3    3  502    0 -0.12331605252E+04 -0.84914796624E+03  0.62470687336E+03  0.16223431943E+04  0.12699999809E+01 0. -1.
       -4    1    3    3    0  502  0.12331605252E+04  0.84914796624E+03 -0.85204013456E+03  0.17227046042E+04  0.12699999809E+01 0.  1.
</event>
<event>
 5   0  0.1696681E-06  0.3137292E+04  0.7818609E-02  0.8205577E-01
       -2   -1    0    0    0  501  0.00000000000E+00  0.00000000000E+00  0.10580479844E+04  0.10580479844E+04  0.25500000920E-02 0.  1.
        2   -1    0    0  501    0  0.00000000000E+00  0.00000000000E+00 -0.23256504931E+04  0.23256504931E+04  0.25500000920E-02 0. -1.
    10030    2    1    2    0    0  0.00000000000E+00  0.00000000000E+00 -0.12676025087E+04  0.33836984776E+04  0.31372917090E+04 0.  0.
        4    1    3    3  502    0 -0.10718056288E+04  0.12980188241E+03  0.59357316077E+03  0.12320497330E+04  0.12699999809E+01 0.  1.
       -4    1    3    3    0  502  0.10718056288E+04 -0.12980188241E+03 -0.18611756695E+04  0.21516487446E+04  0.12699999809E+01 0. -1.
</event>
<event>
 5   0  0.1696681E-06  0.3287729E+04  0.7818609E-02  0.8166025E-01
        2   -1    0    0  501    0  0.00000000000E+00  0.00000000000E+00  0.23009872012E+04  0.23009872012E+04  0.25500000920E-02 0. -1.
       -2   -1    0    0    0  501  0.00000000000E+00  0.00000000000E+00 -0.11744047685E+04  0.11744047685E+04  0.25500000920E-02 0.  1.
    10030    2    1    2    0    0  0.00000000000E+00  0.00000000000E+00  0.11265824327E+04  0.34753919697E+04  0.32877289070E+04 0.  0.
        4    1    3    3  502    0 -0.15150545946E+04 -0.62315736015E+03  0.70735381976E+03  0.17843952924E+04  0.12699999809E+01 0.  1.
       -4    1    3    3    0  502  0.15150545946E+04  0.62315736015E+03  0.41922861295E+03  0.16909966774E+04  0.12699999809E+01 0. -1.
</event>
<event>
 5   0  0.1832626E-06  0.3322097E+04  0.7818609E-02  0.8157295E-01
       -2   -1    0    0    0  501  0.00000000000E+00  0.00000000000E+00  0.16139562995E+04  0.16139562995E+04  0.25500000920E-02 0. -1.
        2   -1    0    0  501    0  0.00000000000E+00  0.00000000000E+00 -0.17095147382E+04  0.17095147382E+04  0.25500000920E-02 0.  1.
    10030    2    1    2    0    0  0.00000000000E+00  0.00000000000E+00 -0.95558438647E+02  0.33234710377E+04  0.33220969768E+04 0.  0.
        3    1    3    3  502    0  0.11207527336E+04  0.10269369719E+04 -0.71767983687E+03  0.16809969044E+04  0.10100000352E+00 0.  1.
       -3    1    3    3    0  502 -0.11207527336E+04 -0.10269369719E+04  0.62212139823E+03  0.16424741333E+04  0.10100000352E+00 0. -1.
</event>
<event>
 5   0  0.5858859E-07  0.3294396E+04  0.7818609E-02  0.8164323E-01
        1   -1    0    0  501    0  0.00000000000E+00  0.00000000000E+00  0.17187593146E+04  0.17187593146E+04  0.50400001928E-02 0.  1.
       -1   -1    0    0    0  501  0.00000000000E+00  0.00000000000E+00 -0.15786163049E+04  0.15786163049E+04  0.50400001928E-02 0. -1.
    10030    2    1    2    0    0  0.00000000000E+00  0.00000000000E+00  0.14014300970E+03  0.32973756195E+04  0.32943961378E+04 0.  0.
        3    1    3    3  502    0  0.29401333893E+03  0.95997859026E+03  0.13771080875E+04  0.17042386664E+04  0.10100000352E+00 0.  1.
       -3    1    3    3    0  502 -0.29401333893E+03 -0.95997859026E+03 -0.12369650778E+04  0.15931369531E+04  0.10100000352E+00 0. -1.
</event>
<event>
 5   0  0.5988516E-07  0.3376134E+04  0.7818609E-02  0.8143789E-01
       -1   -1    0    0    0  501  0.00000000000E+00  0.00000000000E+00  0.12840682196E+04  0.12840682196E+04  0.50400001928E-02 0.  1.
        1   -1    0    0  501    0  0.00000000000E+00  0.00000000000E+00 -0.22191737387E+04  0.22191737387E+04  0.50400001928E-02 0. -1.
    10030    2    1    2    0    0  0.00000000000E+00  0.00000000000E+00 -0.93510551906E+03  0.35032419583E+04  0.33761341630E+04 0.  0.
        4    1    3    3  502    0  0.81238405796E+02 -0.57187725019E+02 -0.22161370483E+04  0.22183631678E+04  0.12699999809E+01 0. -1.
       -4    1    3    3    0  502 -0.81238405796E+02  0.57187725019E+02  0.12810315292E+04  0.12848787905E+04  0.12699999809E+01 0.  1.
</event>
<event>
 5   0  0.1832626E-06  0.3314489E+04  0.7818609E-02  0.8159218E-01
        2   -1    0    0  501    0  0.00000000000E+00  0.00000000000E+00  0.22648357756E+04  0.22648357756E+04  0.25500000920E-02 0.  1.
       -2   -1    0    0    0  501  0.00000000000E+00  0.00000000000E+00 -0.12126526710E+04  0.12126526710E+04  0.25500000920E-02 0. -1.
    10030    2    1    2    0    0  0.00000000000E+00  0.00000000000E+00  0.10521831046E+04  0.34774884466E+04  0.33144888914E+04 0.  0.
        3    1    3    3  502    0 -0.10748706598E+03  0.90496546118E+03 -0.92615529214E+03  0.12993381356E+04  0.10100000352E+00 0. -1.
       -3    1    3    3    0  502  0.10748706598E+03 -0.90496546118E+03  0.19783383967E+04  0.21781503110E+04  0.10100000352E+00 0.  1.
</event>
<event>
 5   0  0.1784626E-06  0.3226017E+04  0.7818609E-02  0.8181980E-01
       -2   -1    0    0    0  501  0.00000000000E+00  0.00000000000E+00  0.12533354591E+04  0.12533354591E+04  0.25500000920E-02 0. -1.
        2   -1    0    0  501    0  0.00000000000E+00  0.00000000000E+00 -0.20758983482E+04  0.20758983482E+04  0.25500000920E-02 0.  1.
    10030    2    1    2    0    0  0.00000000000E+00  0.00000000000E+00 -0.82256288914E+03  0.33292338073E+04  0.32260173646E+04 0.  0.
        2    1    3    3  502    0  0.50304087806E+03  0.29787108909E+03  0.11401539942E+04  0.12812995127E+04  0.25500000920E-02 0. -1.
       -2    1    3    3    0  502 -0.50304087806E+03 -0.29787108909E+03 -0.19627168833E+04  0.20479342946E+04  0.25500000920E-02 0.  1.
</event>
<event>
 5   0  0.6085351E-07  0.3342232E+04  0.7818609E-02  0.8152232E-01
        1   -1    0    0  501    0  0.00000000000E+00  0.00000000000E+00  0.16701601671E+04  0.16701601671E+04  0.50400001928E-02 0.  1.
       -1   -1    0    0    0  501  0.00000000000E+00  0.00000000000E+00 -0.16720723168E+04  0.16720723168E+04  0.50400001928E-02 0. -1.
    10030    2    1    2    0    0  0.00000000000E+00  0.00000000000E+00 -0.19121496532E+01  0.33422324839E+04  0.33422319369E+04 0.  0.
        1    1    3    3  502    0  0.88067191298E+03  0.14156776088E+04 -0.11454513116E+03  0.16711812282E+04  0.50400001928E-02 0. -1.
       -1    1    3    3    0  502 -0.88067191298E+03 -0.14156776088E+04  0.11263298151E+03  0.16710512557E+04  0.50400001928E-02 0.  1.
</event>
<event>
 5   0  0.1728937E-06  0.3243983E+04  0.7818609E-02  0.8177297E-01
        2   -1    0    0  501    0  0.00000000000E+00  0.00000000000E+00  0.17709836595E+04  0.17709836595E+04  0.25500000920E-02 0.  1.
       -2   -1    0    0    0  501  0.00000000000E+00  0.00000000000E+00 -0.14855342525E+04  0.14855342525E+04  0.25500000920E-02 0. -1.
    10030    2    1    2    0    0  0.00000000000E+00  0.00000000000E+00  0.28544940696E+03  0.32565179120E+04  0.32439832840E+04 0.  0.
        1    1    3    3  502    0  0.11366505145E+04  0.10926850248E+04 -0.23943238554E+03  0.15947610550E+04  0.50400001928E-02 0. -1.
       -1    1    3    3    0  502 -0.11366505145E+04 -0.10926850248E+04  0.52488179249E+03  0.16617568569E+04  0.50400001928E-02 0.  1.
</event>
<event>
 5   0  0.5985183E-07  0.3338298E+04  0.7818609E-02  0.8153218E-01
        1   -1    0    0  501    0  0.00000000000E+00  0.00000000000E+00  0.18016195183E+04  0.18016195183E+04  0.50400001928E-02 0. -1.
       -1   -1    0    0    0  501  0.00000000000E+00  0.00000000000E+00 -0.15464191023E+04  0.15464191023E+04  0.50400001928E-02 0.  1.
    10030    2    1    2    0    0  0.00000000000E+00  0.00000000000E+00  0.25520041596E+03  0.33480386206E+04  0.33382982720E+04 0.  0.
        2    1    3    3  502    0  0.81071906832E+03 -0.41135154631E+03  0.15315358193E+04  0.17810326971E+04  0.25500000920E-02 0. -1.
       -2    1    3    3    0  502 -0.81071906832E+03  0.41135154631E+03 -0.12763354034E+04  0.15670059235E+04  0.25500000920E-02 0.  1.
</event>
<event>
 5   0  0.1743810E-06  0.3323551E+04  0.7818609E-02  0.8156929E-01
       -2   -1    0    0    0  501  0.00000000000E+00  0.00000000000E+00  0.17236826500E+04  0.17236826500E+04  0.25500000920E-02 0. -1.
        2   -1    0    0  501    0  0.00000000000E+00  0.00000000000E+00 -0.16020919877E+04  0.16020919877E+04  0.25500000920E-02 0.  1.
    10030    2    1    2    0    0  0.00000000000E+00  0.00000000000E+00  0.12159066234E+03  0.33257746377E+04  0.33235512109E+04 0.  0.
        5    1    3    3  502    0  0.10756990125E+04  0.41976985878E+03  0.12566433315E+04  0.17066076446E+04  0.46999998093E+01 0. -1.
       -5    1    3    3    0  502 -0.10756990125E+04 -0.41976985878E+03 -0.11350526692E+04  0.16191669931E+04  0.46999998093E+01 0.  1.
</event>
<event>
 5   0  0.5985183E-07  0.3573799E+04  0.7818609E-02  0.8096520E-01
        1   -1    0    0  501    0  0.00000000000E+00  0.00000000000E+00  0.16763498564E+04  0.16763498564E+04  0.50400001928E-02 0.  1.
       -1   -1    0    0    0  501  0.00000000000E+00  0.00000000000E+00 -0.19047397657E+04  0.19047397657E+04  0.50400001928E-02 0. -1.
    10030    2    1    2    0    0  0.00000000000E+00  0.00000000000E+00 -0.22838990932E+03  0.35810896222E+04  0.35737992293E+04 0.  0.
        2    1    3    3  502    0  0.74561891245E+03  0.15968353855E+04  0.18166898216E+03  0.17716755995E+04  0.25500000920E-02 0.  1.
       -2    1    3    3    0  502 -0.74561891245E+03 -0.15968353855E+04 -0.41005889148E+03  0.18094140226E+04  0.25500000920E-02 0. -1.
</event>
<event>
 5   0  0.5858859E-07  0.3237305E+04  0.7818609E-02  0.8179034E-01
        1   -1    0    0  501    0  0.00000000000E+00  0.00000000000E+00  0.12513102986E+04  0.12513102986E+04  0.50400001928E-02 0.  1.
       -1   -1    0    0    0  501  0.00000000000E+00  0.00000000000E+00 -0.20938341607E+04  0.20938341607E+04  0.50400001928E-02 0. -1.
    10030    2    1    2    0    0  0.00000000000E+00  0.00000000000E+00 -0.84252386208E+03  0.33451444594E+04  0.32373052059E+04 0.  0.
        3    1    3    3  502    0 -0.68609630622E+03 -0.14540552028E+04 -0.22785991421E+03  0.16238610855E+04  0.10100000352E+00 0.  1.
       -3    1    3    3    0  502  0.68609630622E+03  0.14540552028E+04 -0.61466394786E+03  0.17212833739E+04  0.10100000352E+00 0. -1.
</event>
<event>
 5   0  0.6023446E-07  0.3303906E+04  0.7818609E-02  0.8161902E-01
        1   -1    0    0  501    0  0.00000000000E+00  0.00000000000E+00  0.18698236334E+04  0.18698236334E+04  0.50400001928E-02 0. -1.
       -1   -1    0    0    0  501  0.00000000000E+00  0.00000000000E+00 -0.14594684320E+04  0.14594684320E+04  0.50400001928E-02 0.  1.
    10030    2    1    2    0    0  0.00000000000E+00  0.00000000000E+00  0.41035520134E+03  0.33292920654E+04  0.33039059105E+04 0.  0.
        5    1    3    3  502    0  0.61650034488E+03 -0.78551488116E+03  0.15312756063E+04  0.18280955599E+04  0.46999998093E+01 0. -1.
       -5    1    3    3    0  502 -0.61650034488E+03  0.78551488116E+03 -0.11209204050E+04  0.15011965055E+04  0.46999998093E+01 0.  1.
</event>
<event>
 5   0  0.1728937E-06  0.3310967E+04  0.7818609E-02  0.8160110E-01
       -2   -1    0    0    0  501  0.00000000000E+00  0.00000000000E+00  0.16548305120E+04  0.16548305120E+04  0.25500000920E-02 0.  1.
        2   -1    0    0  501    0  0.00000000000E+00  0.00000000000E+00 -0.16561370701E+04  0.16561370701E+04  0.25500000920E-02 0. -1.
    10030    2    1    2    0    0  0.00000000000E+00  0.00000000000E+00 -0.13065580066E+01  0.33109675821E+04  0.33109673243E+04 0.  0.
        1    1    3    3  502    0 -0.12705068228E+04 -0.79133753259E+03 -0.70791812060E+03  0.16557628885E+04  0.50400001928E-02 0. -1.
       -1    1    3    3    0  502  0.12705068228E+04  0.79133753259E+03  0.70661156260E+03  0.16552046936E+04  0.50400001928E-02 0.  1.
</event>
<event>
 5   0  0.5858859E-07  0.3235047E+04  0.7818609E-02  0.8179622E-01
       -1   -1    0    0    0  501  0.00000000000E+00  0.00000000000E+00  0.30930838422E+04  0.30930838422E+04  0.50400001928E-02 0.  1.
        1   -1    0    0  501    0  0.00000000000E+00  0.00000000000E+00 -0.84588149645E+03  0.84588149647E+03  0.50400001928E-02 0. -1.
    10030    2    1    2    0    0  0.00000000000E+00  0.00000000000E+00  0.22472023458E+04  0.39389653387E+04  0.32350470718E+04 0.  0.
        3    1    3    3  502    0  0.11647042340E+04 -0.13264609281E+03  0.24806838580E+04  0.27437061344E+04  0.10100000352E+00 0.  1.
       -3    1    3    3    0  502 -0.11647042340E+04  0.13264609281E+03 -0.23348151222E+03  0.11952592043E+04  0.10100000352E+00 0. -1.
</event>
<event>
 5   0  0.1784626E-06  0.3297040E+04  0.7818609E-02  0.8163649E-01
       -2   -1    0    0    0  501  0.00000000000E+00  0.00000000000E+00  0.99541863404E+03  0.99541863404E+03  0.25500000920E-02 0.  1.
        2   -1    0    0  501    0  0.00000000000E+00  0.00000000000E+00 -0.27301253590E+04  0.27301253591E+04  0.25500000920E-02 0. -1.
    10030    2    1    2    0    0  0.00000000000E+00  0.00000000000E+00 -0.17347067250E+04  0.37255439931E+04  0.32970396756E+04 0.  0.
        2    1    3    3  502    0 -0.35270709022E+02 -0.15657168077E+04 -0.28577237630E+03  0.15919733025E+04  0.25500000920E-02 0. -1.
       -2    1    3    3    0  502  0.35270709022E+02  0.15657168077E+04 -0.14489343487E+04  0.21335706906E+04  0.25500000920E-02 0.  1.
</event>
<event>
 5   0  0.5988516E-07  0.3320871E+04  0.7818609E-02  0.8157605E-01
       -1   -1    0    0    0  501  0.00000000000E+00  0.00000000000E+00  0.12488010838E+04  0.12488010838E+04  0.50400001928E-02 0. -1.
        1   -1    0    0  501    0  0.00000000000E+00  0.00000000000E+00 -0.22077542799E+04  0.22077542799E+04  0.50400001928E-02 0.  1.
    10030    2    1    2    0    0  0.00000000000E+00  0.00000000000E+00 -0.95895319609E+03  0.34565553636E+04  0.33208709324E+04 0.  0.
        4    1    3    3  502    0  0.60387121719E+03 -0.91731476940E+03 -0.17757179369E+04  0.20878943071E+04  0.12699999809E+01 0.  1.
       -4    1    3    3    0  502 -0.60387121719E+03  0.91731476940E+03  0.81676474081E+03  0.13686610566E+04  0.12699999809E+01 0. -1.
</event>
<event>
 5   0  0.6023446E-07  0.3289196E+04  0.7818609E-02  0.8165650E-01
        1   -1    0    0  501    0  0.00000000000E+00  0.00000000000E+00  0.16793396694E+04  0.16793396694E+04  0.50400001928E-02 0.  1.
       -1   -1    0    0    0  501  0.00000000000E+00  0.00000000000E+00 -0.16105746027E+04  0.16105746027E+04  0.50400001928E-02 0. -1.
    10030    2    1    2    0    0  0.00000000000E+00  0.00000000000E+00  0.68765066706E+02  0.32899142721E+04  0.32891955374E+04 0.  0.
        5    1    3    3  502    0 -0.98291478742E+03  0.12220309439E+03 -0.12787732111E+04  0.16175098426E+04  0.46999998093E+01 0. -1.
       -5    1    3    3    0  502  0.98291478742E+03 -0.12220309439E+03  0.13475382778E+04  0.16724044295E+04  0.46999998093E+01 0.  1.
</event>
<event>
 5   0  0.1743810E-06  0.3318346E+04  0.7818609E-02  0.8158243E-01
        2   -1    0    0  501    0  0.00000000000E+00  0.00000000000E+00  0.26606887802E+04  0.26606887802E+04  0.25500000920E-02 0. -1.
       -2   -1    0    0    0  501  0.00000000000E+00  0.00000000000E+00 -0.10346401501E+04  0.10346401501E+04  0.25500000920E-02 0.  1.
    10030    2    1    2    0    0  0.00000000000E+00  0.00000000000E+00  0.16260486300E+04  0.36953289303E+04  0.33183462381E+04 0.  0.
        5    1    3    3  502    0  0.40296182153E+03  0.93229230112E+03 -0.64800168643E+03  0.12047719452E+04  0.46999998093E+01 0.  1.
       -5    1    3    3    0  502 -0.40296182153E+03 -0.93229230112E+03  0.22740503164E+04  0.24905569851E+04  0.46999998093E+01 0. -1.
</event>
<event>
 5   0  0.6023446E-07  0.3284227E+04  0.7818609E-02  0.8166920E-01
        1   -1    0    0  501    0  0.00000000000E+00  0.00000000000E+00  0.13665587190E+04  0.13665587190E+04  0.50400001928E-02 0.  1.
       -1   -1    0    0    0  501  0.00000000000E+00  0.00000000000E+00 -0.19732313253E+04  0.19732313253E+04  0.50400001928E-02 0. -1.
    10030    2    1    2    0    0  0.00000000000E+00  0.00000000000E+00 -0.60667260638E+03  0.33397900443E+04  0.32842268327E+04 0.  0.
        5    1    3    3  502    0  0.89336384577E+02 -0.10640410247E+04 -0.15719800068E+04  0.19003440540E+04  0.46999998093E+01 0. -1.
       -5    1    3    3    0  502 -0.89336384577E+02  0.10640410247E+04  0.96530740041E+03  0.14394459903E+04  0.46999998093E+01 0.  1.
</event>
<event>
 5   0  0.5985183E-07  0.3273105E+04  0.7818609E-02  0.8169773E-01
       -1   -1    0    0    0  501  0.00000000000E+00  0.00000000000E+00  0.10881908203E+04  0.10881908203E+04  0.50400001928E-02 0. -1.
        1   -1    0    0  501    0  0.00000000000E+00  0.00000000000E+00 -0.24612442120E+04  0.24612442120E+04  0.50400001928E-02 0.  1.
    10030    2    1    2    0    0  0.00000000000E+00  0.00000000000E+00 -0.13730533917E+04  0.35494350323E+04  0.32731045556E+04 0.  0.
        2    1    3    3  502    0  0.14524668951E+04 -0.51945177691E+03 -0.12793144041E+04  0.20040298337E+04  0.25500000920E-02 0.  1.
       -2    1    3    3    0  502 -0.14524668951E+04  0.51945177691E+03 -0.93738987597E+02  0.15454051986E+04  0.25500000920E-02 0. -1.
</event>
<event>
 5   0  0.1728937E-06  0.3261932E+04  0.7818609E-02  0.8172650E-01
       -2   -1    0    0    0  501  0.00000000000E+00  0.00000000000E+00  0.10532753335E+04  0.10532753335E+04  0.25500000920E-02 0.  1.
        2   -1    0    0  501    0  0.00000000000E+00  0.00000000000E+00 -0.25255033964E+04  0.25255033964E+04  0.25500000920E-02 0. -1.
    10030    2    1    2    0    0  0.00000000000E+00  0.00000000000E+00 -0.14722280629E+04  0.35787787299E+04  0.32619322078E+04 0.  0.
        1    1    3    3  502    0 -0.20470962105E+03  0.36101679788E+03 -0.24666021923E+04  0.25012727825E+04  0.50400001928E-02 0. -1.
       -1    1    3    3    0  502  0.20470962105E+03 -0.36101679788E+03  0.99437412944E+03  0.10775059474E+04  0.50400001928E-02 0.  1.
</event>
<event>
 5   0  0.5988516E-07  0.3358111E+04  0.7818609E-02  0.8148264E-01
       -1   -1    0    0    0  501  0.00000000000E+00  0.00000000000E+00  0.14789943161E+04  0.14789943161E+04  0.50400001928E-02 0. -1.
        1   -1    0    0  501    0  0.00000000000E+00  0.00000000000E+00 -0.19061785599E+04  0.19061785599E+04  0.50400001928E-02 0.  1.
    10030    2    1    2    0    0  0.00000000000E+00  0.00000000000E+00 -0.42718424383E+03  0.33851728760E+04  0.33581109306E+04 0.  0.
        4    1    3    3  502    0  0.57606547832E+03  0.19927198659E+03 -0.17907014212E+04  0.18916061833E+04  0.12699999809E+01 0.  1.
       -4    1    3    3    0  502 -0.57606547832E+03 -0.19927198659E+03  0.13635171773E+04  0.14935666928E+04  0.12699999809E+01 0. -1.
</event>
<event>
 5   0  0.1728937E-06  0.3234292E+04  0.7818609E-02  0.8179819E-01
       -2   -1    0    0    0  501  0.00000000000E+00  0.00000000000E+00  0.11385910723E+04  0.11385910723E+04  0.25500000920E-02 0. -1.
        2   -1    0    0  501    0  0.00000000000E+00  0.00000000000E+00 -0.22968400669E+04  0.22968400669E+04  0.25500000920E-02 0.  1.
    10030    2    1    2    0    0  0.00000000000E+00  0.00000000000E+00 -0.11582489946E+04  0.34354311392E+04  0.32342922531E+04 0.  0.
        1    1    3    3  502    0  0.78744001099E+03 -0.73185993275E+03 -0.18623447036E+04  0.21503507916E+04  0.50400001928E-02 0.  1.
       -1    1    3    3    0  502 -0.78744001099E+03  0.73185993275E+03  0.70409570901E+03  0.12850803475E+04  0.50400001928E-02 0. -1.
</event>
<event>
 5   0  0.1728937E-06  0.3381460E+04  0.7818609E-02  0.8142472E-01
       -2   -1    0    0    0  501  0.00000000000E+00  0.00000000000E+00  0.23513811639E+04  0.23513811639E+04  0.25500000920E-02 0. -1.
        2   -1    0    0  501    0  0.00000000000E+00  0.00000000000E+00 -0.12156972051E+04  0.12156972051E+04  0.25500000920E-02 0.  1.
    10030    2    1    2    0    0  0.00000000000E+00  0.00000000000E+00  0.11356839589E+04  0.35670783690E+04  0.33814597493E+04 0.  0.
        1    1    3    3  502    0 -0.15000863278E+04  0.47395463421E+03 -0.85575090013E+02  0.15755047071E+04  0.50400001928E-02 0.  1.
       -1    1    3    3    0  502  0.15000863278E+04 -0.47395463421E+03  0.12212590489E+04  0.19915736619E+04  0.50400001928E-02 0. -1.
</event>
<event>
 5   0  0.5988516E-07  0.3305531E+04  0.7818609E-02  0.8161489E-01
       -1   -1    0    0    0  501  0.00000000000E+00  0.00000000000E+00  0.21229822119E+04  0.21229822120E+04  0.50400001928E-02 0. -1.
        1   -1    0    0  501    0  0.00000000000E+00  0.00000000000E+00 -0.12866968647E+04  0.12866968647E+04  0.50400001928E-02 0.  1.
    10030    2    1    2    0    0  0.00000000000E+00  0.00000000000E+00  0.83628534726E+03  0.34096790767E+04  0.33055314586E+04 0.  0.
        4    1    3    3  502    0 -0.79767551815E+03  0.62315097337E+03 -0.92955578811E+03  0.13742921611E+04  0.12699999809E+01 0.  1.
       -4    1    3    3    0  502  0.79767551815E+03 -0.62315097337E+03  0.17658411354E+04  0.20353869156E+04  0.12699999809E+01 0. -1.
</event>
<event>
 5   0  0.5858859E-07  0.3304838E+04  0.7818609E-02  0.8161665E-01
       -1   -1    0    0    0  501  0.00000000000E+00  0.00000000000E+00  0.27928281213E+04  0.27928281213E+04  0.50400001928E-02 0. -1.
        1   -1    0    0  501    0  0.00000000000E+00  0.00000000000E+00 -0.97767891531E+03  0.97767891532E+03  0.50400001928E-02 0.  1.
    10030    2    1    2    0    0  0.00000000000E+00  0.00000000000E+00  0.18151492060E+04  0.37705070366E+04  0.33048383733E+04 0.  0.
        3    1    3    3  502    0 -0.89814071764E+03  0.10501701324E+04  0.19413222267E+04  0.23829070594E+04  0.10100000352E+00 0. -1.
       -3    1    3    3    0  502  0.89814071764E+03 -0.10501701324E+04 -0.12617302068E+03  0.13875999773E+04  0.10100000352E+00 0.  1.
</event>
<event>
 5   0  0.1696681E-06  0.3357077E+04  0.7818609E-02  0.8148522E-01
        2   -1    0    0  501    0  0.00000000000E+00  0.00000000000E+00  0.14589229631E+04  0.14589229631E+04  0.25500000920E-02 0.  1.
       -2   -1    0    0    0  501  0.00000000000E+00  0.00000000000E+00 -0.19312132086E+04  0.19312132086E+04  0.25500000920E-02 0. -1.
    10030    2    1    2    0    0  0.00000000000E+00  0.00000000000E+00 -0.47229024547E+03  0.33901361717E+04  0.33570768812E+04 0.  0.
        4    1    3    3  502    0 -0.10179237135E+04 -0.86184149197E+03 -0.12652736355E+04  0.18384391286E+04  0.12699999809E+01 0. -1.
       -4    1    3    3    0  502  0.10179237135E+04  0.86184149197E+03  0.79298339001E+03  0.15516970431E+04  0.12699999809E+01 0.  1.
</event>
<event>
 5   0  0.5988516E-07  0.3366960E+04  0.7818609E-02  0.8146063E-01
       -1   -1    0    0    0  501  0.00000000000E+00  0.00000000000E+00  0.16368407351E+04  0.16368407351E+04  0.50400001928E-02 0.  1.
        1   -1    0    0  501    0  0.00000000000E+00  0.00000000000E+00 -0.17314478577E+04  0.17314478577E+04  0.50400001928E-02 0. -1.
    10030    2    1    2    0    0  0.00000000000E+00  0.00000000000E+00 -0.94607122598E+02  0.33682885929E+04  0.33669596875E+04 0.  0.
        4    1    3    3  502    0 -0.81187450761E+03  0.13765431768E+02  0.14279896738E+04  0.16427068590E+04  0.12699999809E+01 0.  1.
       -4    1    3    3    0  502  0.81187450761E+03 -0.13765431768E+02 -0.15225967964E+04  0.17255817339E+04  0.12699999809E+01 0. -1.
</event>
<event>
 5   0  0.6085351E-07  0.3322026E+04  0.7818609E-02  0.8157313E-01
        1   -1    0    0  501    0  0.00000000000E+00  0.00000000000E+00  0.10296459775E+04  0.10296459775E+04  0.50400001928E-02 0.  1.
       -1   -1    0    0    0  501  0.00000000000E+00  0.00000000000E+00 -0.26795267784E+04  0.26795267784E+04  0.50400001928E-02 0. -1.
    10030    2    1    2    0    0  0.00000000000E+00  0.00000000000E+00 -0.16498808009E+04  0.37091727560E+04  0.33220258693E+04 0.  0.
        1    1    3    3  502    0  0.13484851081E+04  0.92675578022E+03 -0.11440355731E+04  0.19965234172E+04  0.50400001928E-02 0. -1.
       -1    1    3    3    0  502 -0.13484851081E+04 -0.92675578022E+03 -0.50584522778E+03  0.17126493387E+04  0.50400001928E-02 0.  1.
</event>
<event>
 5   0  0.6023446E-07  0.3302409E+04  0.7818609E-02  0.8162283E-01
        1   -1    0    0  501    0  0.00000000000E+00  0.00000000000E+00  0.27435369292E+04  0.27435369292E+04  0.50400001928E-02 0.  1.
       -1   -1    0    0    0  501  0.00000000000E+00  0.00000000000E+00 -0.99378153712E+03  0.99378153713E+03  0.50400001928E-02 0. -1.
    10030    2    1    2    0    0  0.00000000000E+00  0.00000000000E+00  0.17497553921E+04  0.37373184664E+04  0.33024090278E+04 0.  0.
        5    1    3    3  502    0  0.58004082862E+03 -0.10952352143E+04 -0.35989743289E+03  0.12905563877E+04  0.46999998093E+01 0. -1.
       -5    1    3    3    0  502 -0.58004082862E+03  0.10952352143E+04  0.21096528250E+04  0.24467620787E+04  0.46999998093E+01 0.  1.
</event>
<event>
 5   0  0.1696681E-06  0.3291717E+04  0.7818609E-02  0.8165006E-01
       -2   -1    0    0    0  501  0.00000000000E+00  0.00000000000E+00  0.23627771599E+04  0.23627771599E+04  0.25500000920E-02 0.  1.
        2   -1    0    0  501    0  0.00000000000E+00  0.00000000000E+00 -0.11464690764E+04  0.11464690764E+04  0.25500000920E-02 0. -1.
    10030    2    1    2    0    0  0.00000000000E+00  0.00000000000E+00  0.12163080834E+04  0.35092462363E+04  0.32917174534E+04 0.  0.
        4    1    3    3  502    0  0.10725152315E+03  0.72873134243E+03 -0.96094479137E+03  0.12107719701E+04  0.12699999809E+01 0. -1.
       -4    1    3    3    0  502 -0.10725152315E+03 -0.72873134243E+03  0.21772528748E+04  0.22984742662E+04  0.12699999809E+01 0.  1.
</event>
<event>
 5   0  0.1784626E-06  0.3291227E+04  0.7818609E-02  0.8165131E-01
        2   -1    0    0  501    0  0.00000000000E+00  0.00000000000E+00  0.23175248329E+04  0.23175248329E+04  0.25500000920E-02 0. -1.
       -2   -1    0    0    0  501  0.00000000000E+00  0.00000000000E+00 -0.11685071750E+04  0.11685071750E+04  0.25500000920E-02 0.  1.
    10030    2    1    2    0    0  0.00000000000E+00  0.00000000000E+00  0.11490176578E+04  0.34860320079E+04  0.32912273671E+04 0.  0.
        2    1    3    3  502    0 -0.54455888362E+03 -0.15353091273E+04  0.32763391874E+03  0.16616445104E+04  0.25500000920E-02 0.  1.
       -2    1    3    3    0  502  0.54455888362E+03  0.15353091273E+04  0.82138373908E+03  0.18243874975E+04  0.25500000920E-02 0. -1.
</event>
<event>
 5   0  0.6023446E-07  0.3246260E+04  0.7818609E-02  0.8176706E-01
       -1   -1    0    0    0  501  0.00000000000E+00  0.00000000000E+00  0.13715830288E+04  0.13715830288E+04  0.50400001928E-02 0. -1.
        1   -1    0    0  501    0  0.00000000000E+00  0.00000000000E+00 -0.19208106944E+04  0.19208106944E+04  0.50400001928E-02 0.  1.
    10030    2    1    2    0    0  0.00000000000E+00  0.00000000000E+00 -0.54922766565E+03  0.32923937232E+04  0.32462602176E+04 0.  0.
        5    1    3    3  502    0  0.91570285386E+03  0.13166426460E+04 -0.21122510241E+02  0.16039101672E+04  0.46999998093E+01 0.  1.
       -5    1    3    3    0  502 -0.91570285386E+03 -0.13166426460E+04 -0.52810515541E+03  0.16884835561E+04  0.46999998093E+01 0. -1.
</event>
<event>
 5   0  0.6085351E-07  0.3294798E+04  0.7818609E-02  0.8164220E-01
       -1   -1    0    0    0  501  0.00000000000E+00  0.00000000000E+00  0.11410635942E+04  0.11410635942E+04  0.50400001928E-02 0.  1.
        1   -1    0    0  501    0  0.00000000000E+00  0.00000000000E+00 -0.23784153830E+04  0.23784153830E+04  0.50400001928E-02 0. -1.
    10030    2    1    2    0    0  0.00000000000E+00  0.00000000000E+00 -0.12373517887E+04  0.35194789772E+04  0.32947978424E+04 0.  0.
        1    1    3    3  502    0  0.13903709240E+04  0.72937964422E+03 -0.11514859054E+04  0.19470608008E+04  0.50400001928E-02 0. -1.
       -1    1    3    3    0  502 -0.13903709240E+04 -0.72937964422E+03 -0.85865883309E+02  0.15724181764E+04  0.50400001928E-02 0.  1.
</event>
<event>
 5   0  0.1832626E-06  0.3298261E+04  0.7818609E-02  0.8163338E-01
        2   -1    0    0  501    0  0.00000000000E+00  0.00000000000E+00  0.22268202152E+04  0.22268202152E+04  0.25500000920E-02 0. -1.
       -2   -1    0    0    0  501  0.00000000000E+00  0.00000000000E+00 -0.12213071463E+04  0.12213071463E+04  0.25500000920E-02 0.  1.
    10030    2    1    2    0    0  0.00000000000E+00  0.00000000000E+00  0.10055130690E+04  0.34481273615E+04  0.32982610220E+04 0.  0.
        3    1    3    3  502    0  0.29053489751E+02 -0.12243404141E+04 -0.65186233979E+03  0.13873637140E+04  0.10100000352E+00 0.  1.
       -3    1    3    3    0  502 -0.29053489751E+02  0.12243404141E+04  0.16573754087E+04  0.20607636474E+04  0.10100000352E+00 0. -1.
</event>
<event>
 5   0  0.1696681E-06  0.3308523E+04  0.7818609E-02  0.8160730E-01
        2   -1    0    0  501    0  0.00000000000E+00  0.00000000000E+00  0.20550531157E+04  0.20550531157E+04  0.25500000920E-02 0. -1.
       -2   -1    0    0    0  501  0.00000000000E+00  0.00000000000E+00 -0.13316354653E+04  0.13316354653E+04  0.25500000920E-02 0.  1.
    10030    2    1    2    0    0  0.00000000000E+00  0.00000000000E+00  0.72341765041E+03  0.33866885810E+04  0.33085233032E+04 0.  0.
        4    1    3    3  502    0 -0.80072831188E+03  0.25338916073E+03  0.18205844757E+04  0.20049691624E+04  0.12699999809E+01 0. -1.
       -4    1    3    3    0  502  0.80072831188E+03 -0.25338916073E+03 -0.10971668253E+04  0.13817194186E+04  0.12699999809E+01 0.  1.
</event>
<event>
 5   0  0.1696681E-06  0.3338411E+04  0.7818609E-02  0.8153190E-01
        2   -1    0    0  501    0  0.00000000000E+00  0.00000000000E+00  0.17037553569E+04  0.17037553569E+04  0.25500000920E-02 0. -1.
       -2   -1    0    0    0  501  0.00000000000E+00  0.00000000000E+00 -0.16353558863E+04  0.16353558863E+04  0.25500000920E-02 0.  1.
    10030    2    1    2    0    0  0.00000000000E+00  0.00000000000E+00  0.68399470654E+02  0.33391112432E+04  0.33384106109E+04 0.  0.
        4    1    3    3  502    0 -0.95814330518E+02 -0.21567231451E+03  0.16869840670E+04  0.17034118082E+04  0.12699999809E+01 0. -1.
       -4    1    3    3    0  502  0.95814330518E+02  0.21567231451E+03 -0.16185845963E+04  0.16356994350E+04  0.12699999809E+01 0.  1.
</event>
<event>
 5   0  0.5858859E-07  0.3322115E+04  0.7818609E-02  0.8157291E-01
        1   -1    0    0  501    0  0.00000000000E+00  0.00000000000E+00  0.26984687212E+04  0.26984687213E+04  0.50400001928E-02 0. -1.
       -1   -1    0    0    0  501  0.00000000000E+00  0.00000000000E+00 -0.10224731706E+04  0.10224731706E+04  0.50400001928E-02 0.  1.
    10030    2    1    2    0    0  0.00000000000E+00  0.00000000000E+00  0.16759955507E+04  0.37209418919E+04  0.33221149102E+04 0.  0.
        3    1    3    3  502    0  0.12030712334E+04  0.15596635129E+03 -0.43285720673E+03  0.12880494039E+04  0.10100000352E+00 0.  1.
       -3    1    3    3    0  502 -0.12030712334E+04 -0.15596635129E+03  0.21088527574E+04  0.24328924879E+04  0.10100000352E+00 0. -1.
</event>
<event>
 5   0  0.5858859E-07  0.3284074E+04  0.7818609E-02  0.8166960E-01
       -1   -1    0    0    0  501  0.00000000000E+00  0.00000000000E+00  0.12685419252E+04  0.12685419252E+04  0.50400001928E-02 0. -1.
        1   -1    0    0  501    0  0.00000000000E+00  0.00000000000E+00 -0.21255001861E+04  0.21255001861E+04  0.50400001928E-02 0.  1.
    10030    2    1    2    0    0  0.00000000000E+00  0.00000000000E+00 -0.85695826086E+03  0.33940421113E+04  0.32840743585E+04 0.  0.
        3    1    3    3  502    0 -0.16085693015E+04  0.32853561197E+03 -0.45870290464E+03  0.17046522258E+04  0.10100000352E+00 0.  1.
       -3    1    3    3    0  502  0.16085693015E+04 -0.32853561197E+03 -0.39825535622E+03  0.16893898854E+04  0.10100000352E+00 0. -1.
</event>
<event>
 5   0  0.5858859E-07  0.3272700E+04  0.7818609E-02  0.8169877E-01
        1   -1    0    0  501    0  0.00000000000E+00  0.00000000000E+00  0.18118145251E+04  0.18118145251E+04  0.50400001928E-02 0.  1.
       -1   -1    0    0    0  501  0.00000000000E+00  0.00000000000E+00 -0.14778782817E+04  0.14778782818E+04  0.50400001928E-02 0. -1.
    10030    2    1    2    0    0  0.00000000000E+00  0.00000000000E+00  0.33393624336E+03  0.32896928069E+04  0.32727000090E+04 0.  0.
        3    1    3    3  502    0  0.11701631558E+04 -0.16431792732E+03  0.13048169907E+04  0.17603492784E+04  0.10100000352E+00 0.  1.
       -3    1    3    3    0  502 -0.11701631558E+04  0.16431792732E+03 -0.97088074733E+03  0.15293435285E+04  0.10100000352E+00 0. -1.
</event>
<event>
 5   0  0.5985183E-07  0.3276693E+04  0.7818609E-02  0.8168851E-01
       -1   -1    0    0    0  501  0.00000000000E+00  0.00000000000E+00  0.11050565925E+04  0.11050565925E+04  0.50400001928E-02 0.  1.
        1   -1    0    0  501    0  0.00000000000E+00  0.00000000000E+00 -0.24289974862E+04  0.24289974862E+04  0.50400001928E-02 0. -1.
    10030    2    1    2    0    0  0.00000000000E+00  0.00000000000E+00 -0.13239408937E+04  0.35340540787E+04  0.32766932632E+04 0.  0.
        2    1    3    3  502    0 -0.54673925040E+02 -0.11053126511E+04  0.64100322995E+03  0.12789020430E+04  0.25500000920E-02 0.  1.
       -2    1    3    3    0  502  0.54673925040E+02  0.11053126511E+04 -0.19649441237E+04  0.22551520357E+04  0.25500000920E-02 0. -1.
</event>
<event>
 5   0  0.1832626E-06  0.3281741E+04  0.7818609E-02  0.8167557E-01
        2   -1    0    0  501    0  0.00000000000E+00  0.00000000000E+00  0.19724567903E+04  0.19724567903E+04  0.25500000920E-02 0.  1.
       -2   -1    0    0    0  501  0.00000000000E+00  0.00000000000E+00 -0.13650269703E+04  0.13650269703E+04  0.25500000920E-02 0. -1.
    10030    2    1    2    0    0  0.00000000000E+00  0.00000000000E+00  0.60742981999E+03  0.33374837606E+04  0.32817414380E+04 0.  0.
        3    1    3    3  502    0  0.13774206053E+04  0.83404313486E+03 -0.17145626640E+02  0.16103445151E+04  0.10100000352E+00 0.  1.
       -3    1    3    3    0  502 -0.13774206053E+04 -0.83404313486E+03  0.62457544663E+03  0.17271392455E+04  0.10100000352E+00 0. -1.
</event>
<event>
 5   0  0.1832626E-06  0.3270074E+04  0.7818609E-02  0.8170552E-01
       -2   -1    0    0    0  501  0.00000000000E+00  0.00000000000E+00  0.17656028102E+04  0.17656028102E+04  0.25500000920E-02 0. -1.
        2   -1    0    0  501    0  0.00000000000E+00  0.00000000000E+00 -0.15141261097E+04  0.15141261097E+04  0.25500000920E-02 0.  1.
    10030    2    1    2    0    0  0.00000000000E+00  0.00000000000E+00  0.25147670059E+03  0.32797289199E+04  0.32700735859E+04 0.  0.
        3    1    3    3  502    0  0.87228734637E+03 -0.84872861829E+03 -0.96932785981E+03  0.15558990945E+04  0.10100000352E+00 0.  1.
       -3    1    3    3    0  502 -0.87228734637E+03  0.84872861829E+03  0.12208045604E+04  0.17238298254E+04  0.10100000352E+00 0. -1.
</event>
<event>
 5   0  0.5858859E-07  0.3317489E+04  0.7818609E-02  0.8158460E-01
       -1   -1    0    0    0  501  0.00000000000E+00  0.00000000000E+00  0.13178984570E+04  0.13178984570E+04  0.50400001928E-02 0. -1.
        1   -1    0    0  501    0  0.00000000000E+00  0.00000000000E+00 -0.20877428911E+04  0.20877428911E+04  0.50400001928E-02 0.  1.
    10030    2    1    2    0    0  0.00000000000E+00  0.00000000000E+00 -0.76984443414E+03  0.34056413482E+04  0.33174888906E+04 0.  0.
        3    1    3    3  502    0  0.44206290725E+03 -0.14232091383E+04 -0.11326228194E+04  0.18718382212E+04  0.10100000352E+00 0.  1.
       -3    1    3    3    0  502 -0.44206290725E+03  0.14232091383E+04  0.36277838523E+03  0.15338031269E+04  0.10100000352E+00 0. -1.
</event>
<event>
 5   0  0.1784626E-06  0.2765848E+04  0.7818609E-02  0.8313950E-01
        2   -1    0    0  501    0  0.00000000000E+00  0.00000000000E+00  0.13501812036E+04  0.13501812036E+04  0.25500000920E-02 0.  1.
       -2   -1    0    0    0  501  0.00000000000E+00  0.00000000000E+00 -0.14164610826E+04  0.14164610826E+04  0.25500000920E-02 0. -1.
    10030    2    1    2    0    0  0.00000000000E+00  0.00000000000E+00 -0.66279878966E+02  0.27666422862E+04  0.27658482455E+04 0.  0.
        2    1    3    3  502    0  0.11419853854E+04 -0.21788141204E+03  0.71599174891E+03  0.13653743497E+04  0.25500000920E-02 0.  1.
       -2    1    3    3    0  502 -0.11419853854E+04  0.21788141204E+03 -0.78227162788E+03  0.14012679365E+04  0.25500000920E-02 0. -1.
</event>
<event>
 5   0  0.1728937E-06  0.3252398E+04  0.7818609E-02  0.8175114E-01
       -2   -1    0    0    0  501  0.00000000000E+00  0.00000000000E+00  0.13212726380E+04  0.13212726380E+04  0.25500000920E-02 0. -1.
        2   -1    0    0  501    0  0.00000000000E+00  0.00000000000E+00 -0.20014973942E+04  0.20014973942E+04  0.25500000920E-02 0.  1.
    10030    2    1    2    0    0  0.00000000000E+00  0.00000000000E+00 -0.68022475623E+03  0.33227700323E+04  0.32523983410E+04 0.  0.
        1    1    3    3  502    0 -0.87831822224E+03  0.29524395712E+03 -0.17054075781E+04  0.19408830210E+04  0.50400001928E-02 0.  1.
       -1    1    3    3    0  502  0.87831822224E+03 -0.29524395712E+03  0.10251828218E+04  0.13818870113E+04  0.50400001928E-02 0. -1.
</event>
<event>
 5   0  0.1696681E-06  0.3277569E+04  0.7818609E-02  0.8168626E-01
       -2   -1    0    0    0  501  0.00000000000E+00  0.00000000000E+00  0.12031594735E+04  0.12031594735E+04  0.25500000920E-02 0.  1.
        2   -1    0    0  501    0  0.00000000000E+00  0.00000000000E+00 -0.22321357965E+04  0.22321357965E+04  0.25500000920E-02 0. -1.
    10030    2    1    2    0    0  0.00000000000E+00  0.00000000000E+00 -0.10289763231E+04  0.34352952700E+04  0.32775694224E+04 0.  0.
        4    1    3    3  502    0  0.16187222225E+04 -0.26476941032E+02 -0.24798646450E+03  0.16378222009E+04  0.12699999809E+01 0.  1.
       -4    1    3    3    0  502 -0.16187222225E+04  0.26476941032E+02 -0.78098985857E+03  0.17974730691E+04  0.12699999809E+01 0. -1.
</event>
<event>
 5   0  0.6023446E-07  0.3292915E+04  0.7818609E-02  0.8164701E-01
        1   -1    0    0  501    0  0.00000000000E+00  0.00000000000E+00  0.19951134426E+04  0.19951134426E+04  0.50400001928E-02 0. -1.
       -1   -1    0    0    0  501  0.00000000000E+00  0.00000000000E+00 -0.13587305035E+04  0.13587305035E+04  0.50400001928E-02 0.  1.
    10030    2    1    2    0    0  0.00000000000E+00  0.00000000000E+00  0.63638293911E+03  0.33538439461E+04  0.32929145100E+04 0.  0.
        5    1    3    3  502    0  0.24276546937E+03  0.12299337933E+03  0.19720402547E+04  0.19907353668E+04  0.46999998093E+01 0. -1.
       -5    1    3    3    0  502 -0.24276546937E+03 -0.12299337933E+03 -0.13356573156E+04  0.13631085794E+04  0.46999998093E+01 0.  1.
</event>
<event>
 5   0  0.1728937E-06  0.3299496E+04  0.7818609E-02  0.8163024E-01
       -2   -1    0    0    0  501  0.00000000000E+00  0.00000000000E+00  0.12561682608E+04  0.12561682608E+04  0.25500000920E-02 0.  1.
        2   -1    0    0  501    0  0.00000000000E+00  0.00000000000E+00 -0.21666438584E+04  0.21666438584E+04  0.25500000920E-02 0. -1.
    10030    2    1    2    0    0  0.00000000000E+00  0.00000000000E+00 -0.91047559763E+03  0.34228121192E+04  0.32994964751E+04 0.  0.
        1    1    3    3  502    0 -0.68351963726E+03  0.69974354246E+03 -0.18333568097E+04  0.20779887660E+04  0.50400001928E-02 0. -1.
       -1    1    3    3    0  502  0.68351963726E+03 -0.69974354246E+03  0.92288121208E+03  0.13448233532E+04  0.50400001928E-02 0.  1.
</event>
<event>
 5   0  0.1832626E-06  0.3199163E+04  0.7818609E-02  0.8189038E-01
       -2   -1    0    0    0  501  0.00000000000E+00  0.00000000000E+00  0.84989845753E+03  0.84989845753E+03  0.25500000920E-02 0. -1.
        2   -1    0    0  501    0  0.00000000000E+00  0.00000000000E+00 -0.30105483170E+04  0.30105483170E+04  0.25500000920E-02 0.  1.
    10030    2    1    2    0    0  0.00000000000E+00  0.00000000000E+00 -0.21606498594E+04  0.38604467745E+04  0.31991626223E+04 0.  0.
        3    1    3    3  502    0 -0.16590209744E+03 -0.73314029359E+03  0.62349956349E+03  0.97661144366E+03  0.10100000352E+00 0. -1.
       -3    1    3    3    0  502  0.16590209744E+03  0.73314029359E+03 -0.27841494229E+04  0.28838353308E+04  0.10100000352E+00 0.  1.
</event>
<event>
 5   0  0.5988516E-07  0.3188621E+04  0.7818609E-02  0.8191829E-01
        1   -1    0    0  501    0  0.00000000000E+00  0.00000000000E+00  0.23351946875E+04  0.23351946875E+04  0.50400001928E-02 0. -1.
       -1   -1    0    0    0  501  0.00000000000E+00  0.00000000000E+00 -0.10884859770E+04  0.10884859770E+04  0.50400001928E-02 0.  1.
    10030    2    1    2    0    0  0.00000000000E+00  0.00000000000E+00  0.12467087105E+04  0.34236806645E+04  0.31886214394E+04 0.  0.
        4    1    3    3  502    0  0.15059739485E+04 -0.47413406021E+03  0.38552053513E+03  0.16252348558E+04  0.12699999809E+01 0.  1.
       -4    1    3    3    0  502 -0.15059739485E+04  0.47413406021E+03  0.86118817532E+03  0.17984458087E+04  0.12699999809E+01 0. -1.
</event>
<event>
 5   0  0.1743810E-06  0.3314310E+04  0.7818609E-02  0.8159264E-01
       -2   -1    0    0    0  501  0.00000000000E+00  0.00000000000E+00  0.12905838977E+04  0.12905838977E+04  0.25500000920E-02 0.  1.
        2   -1    0    0  501    0  0.00000000000E+00  0.00000000000E+00 -0.21278453206E+04  0.21278453206E+04  0.25500000920E-02 0. -1.
    10030    2    1    2    0    0  0.00000000000E+00  0.00000000000E+00 -0.83726142282E+03  0.34184292183E+04  0.33143101289E+04 0.  0.
        5    1    3    3  502    0 -0.12039805525E+04  0.11011245653E+04 -0.11952686921E+03  0.16359563690E+04  0.46999998093E+01 0.  1.
       -5    1    3    3    0  502  0.12039805525E+04 -0.11011245653E+04 -0.71773455361E+03  0.17824728493E+04  0.46999998093E+01 0. -1.
</event>
<event>
 5   0  0.1784626E-06  0.3340294E+04  0.7818609E-02  0.8152718E-01
        2   -1    0    0  501    0  0.00000000000E+00  0.00000000000E+00  0.18955584324E+04  0.18955584324E+04  0.25500000920E-02 0. -1.
       -2   -1    0    0    0  501  0.00000000000E+00  0.00000000000E+00 -0.14715405226E+04  0.14715405226E+04  0.25500000920E-02 0.  1.
    10030    2    1    2    0    0  0.00000000000E+00  0.00000000000E+00  0.42401790983E+03  0.33670989550E+04  0.33402940267E+04 0.  0.
        2    1    3    3  502    0 -0.11151559861E+04 -0.26026087736E+03  0.14375292650E+04  0.18378789366E+04  0.25500000920E-02 0. -1.
       -2    1    3    3    0  502  0.11151559861E+04  0.26026087736E+03 -0.10135113552E+04  0.15292200184E+04  0.25500000920E-02 0.  1.
</event>
<event>
 5   0  0.1784626E-06  0.3317234E+04  0.7818609E-02  0.8158524E-01
       -2   -1    0    0    0  501  0.00000000000E+00  0.00000000000E+00  0.18869754708E+04  0.18869754708E+04  0.25500000920E-02 0. -1.
        2   -1    0    0  501    0  0.00000000000E+00  0.00000000000E+00 -0.14578941084E+04  0.14578941084E+04  0.25500000920E-02 0.  1.
    10030    2    1    2    0    0  0.00000000000E+00  0.00000000000E+00  0.42908136240E+03  0.33448695792E+04  0.33172340415E+04 0.  0.
        2    1    3    3  502    0 -0.17320995929E+03  0.15276382544E+04  0.84208398029E+03  0.17529363241E+04  0.25500000920E-02 0.  1.
       -2    1    3    3    0  502  0.17320995929E+03 -0.15276382544E+04 -0.41300261788E+03  0.15919332551E+04  0.25500000920E-02 0. -1.
</event>
<event>
 5   0  0.5858859E-07  0.3283216E+04  0.7818609E-02  0.8167179E-01
       -1   -1    0    0    0  501  0.00000000000E+00  0.00000000000E+00  0.14564394054E+04  0.14564394054E+04  0.50400001928E-02 0. -1.
        1   -1    0    0  501    0  0.00000000000E+00  0.00000000000E+00 -0.18503185329E+04  0.18503185329E+04  0.50400001928E-02 0.  1.
    10030    2    1    2    0    0  0.00000000000E+00  0.00000000000E+00 -0.39387912743E+03  0.33067579383E+04  0.32832159989E+04 0.  0.
        3    1    3    3  502    0  0.11370661543E+04 -0.72838261216E+03  0.74325070190E+03  0.15413897252E+04  0.10100000352E+00 0. -1.
       -3    1    3    3    0  502 -0.11370661543E+04  0.72838261216E+03 -0.11371298293E+04  0.17653682131E+04  0.10100000352E+00 0.  1.
</event>
<event>
 5   0  0.5985183E-07  0.3102431E+04  0.7818609E-02  0.8215071E-01
       -1   -1    0    0    0  501  0.00000000000E+00  0.00000000000E+00  0.15276549254E+04  0.15276549254E+04  0.50400001928E-02 0.  1.
        1   -1    0    0  501    0  0.00000000000E+00  0.00000000000E+00 -0.15751398377E+04  0.15751398377E+04  0.50400001928E-02 0. -1.
    10030    2    1    2    0    0  0.00000000000E+00  0.00000000000E+00 -0.47484912240E+02  0.31027947631E+04  0.31024313893E+04 0.  0.
        2    1    3    3  502    0 -0.10940750563E+04  0.10365607215E+04 -0.39095268845E+03  0.15570171363E+04  0.25500000920E-02 0. -1.
       -2    1    3    3    0  502  0.10940750563E+04 -0.10365607215E+04  0.34346777621E+03  0.15457776268E+04  0.25500000920E-02 0.  1.
</event>
<event>
 5   0  0.1728937E-06  0.2905728E+04  0.7818609E-02  0.8271175E-01
       -2   -1    0    0    0  501  0.00000000000E+00  0.00000000000E+00  0.14178972963E+04  0.14178972963E+04  0.25500000920E-02 0.  1.
        2   -1    0    0  501    0  0.00000000000E+00  0.00000000000E+00 -0.14886932653E+04  0.14886932653E+04  0.25500000920E-02 0. -1.
    10030    2    1    2    0    0  0.00000000000E+00  0.00000000000E+00 -0.70795968983E+02  0.29065905616E+04  0.29057282433E+04 0.  0.
        1    1    3    3  502    0 -0.74104082856E+03  0.47753666741E+02  0.12137288773E+04  0.14228702365E+04  0.50400001928E-02 0.  1.
       -1    1    3    3    0  502  0.74104082856E+03 -0.47753666741E+02 -0.12845248463E+04  0.14837203251E+04  0.50400001928E-02 0. -1.
</event>
<event>
 5   0  0.5985183E-07  0.3169834E+04  0.7818609E-02  0.8196830E-01
        1   -1    0    0  501    0  0.00000000000E+00  0.00000000000E+00  0.12709541562E+04  0.12709541562E+04  0.50400001928E-02 0. -1.
       -1   -1    0    0    0  501  0.00000000000E+00  0.00000000000E+00 -0.19764380953E+04  0.19764380953E+04  0.50400001928E-02 0.  1.
    10030    2    1    2    0    0  0.00000000000E+00  0.00000000000E+00 -0.70548393915E+03  0.32473922515E+04  0.31698341986E+04 0.  0.
        2    1    3    3  502    0  0.16851567887E+03  0.41678051618E+03  0.12042662613E+04  0.12854418543E+04  0.25500000920E-02 0. -1.
       -2    1    3    3    0  502 -0.16851567887E+03 -0.41678051618E+03 -0.19097502005E+04  0.19619503972E+04  0.25500000920E-02 0.  1.
</event>
<event>
 5   0  0.6023446E-07  0.3312151E+04  0.7818609E-02  0.8159810E-01
        1   -1    0    0  501    0  0.00000000000E+00  0.00000000000E+00  0.27948796221E+04  0.27948796221E+04  0.50400001928E-02 0. -1.
       -1   -1    0    0    0  501  0.00000000000E+00  0.00000000000E+00 -0.98128960031E+03  0.98128960032E+03  0.50400001928E-02 0.  1.
    10030    2    1    2    0    0  0.00000000000E+00  0.00000000000E+00  0.18135900218E+04  0.37761692224E+04  0.33121511483E+04 0.  0.
        5    1    3    3  502    0  0.59182503512E+03 -0.15025047515E+04  0.13253620337E+04  0.20891108183E+04  0.46999998093E+01 0. -1.
       -5    1    3    3    0  502 -0.59182503512E+03  0.15025047515E+04  0.48822798806E+03  0.16870584041E+04  0.46999998093E+01 0.  1.
</event>
<event>
 5   0  0.1743810E-06  0.3308735E+04  0.7818609E-02  0.8160676E-01
        2   -1    0    0  501    0  0.00000000000E+00  0.00000000000E+00  0.12878048241E+04  0.12878048241E+04  0.25500000920E-02 0.  1.
       -2   -1    0    0    0  501  0.00000000000E+00  0.00000000000E+00 -0.21252689261E+04  0.21252689261E+04  0.25500000920E-02 0. -1.
    10030    2    1    2    0    0  0.00000000000E+00  0.00000000000E+00 -0.83746410205E+03  0.34130737502E+04  0.33087348491E+04 0.  0.
        5    1    3    3  502    0  0.23267961704E+03  0.14058790830E+04  0.44817037783E+03  0.14938254843E+04  0.46999998093E+01 0. -1.
       -5    1    3    3    0  502 -0.23267961704E+03 -0.14058790830E+04 -0.12856344799E+04  0.19192482658E+04  0.46999998093E+01 0.  1.
</event>
<event>
 5   0  0.5985183E-07  0.3312304E+04  0.7818609E-02  0.8159772E-01
        1   -1    0    0  501    0  0.00000000000E+00  0.00000000000E+00  0.15511254035E+04  0.15511254035E+04  0.50400001928E-02 0.  1.
       -1   -1    0    0    0  501  0.00000000000E+00  0.00000000000E+00 -0.17682904349E+04  0.17682904349E+04  0.50400001928E-02 0. -1.
    10030    2    1    2    0    0  0.00000000000E+00  0.00000000000E+00 -0.21716503140E+03  0.33194158385E+04  0.33123044634E+04 0.  0.
        2    1    3    3  502    0 -0.12722553340E+04  0.28411697088E+03  0.91512133176E+03  0.15927344851E+04  0.25500000920E-02 0. -1.
       -2    1    3    3    0  502  0.12722553340E+04 -0.28411697088E+03 -0.11322863632E+04  0.17266813534E+04  0.25500000920E-02 0.  1.
</event>
<event>
 5   0  0.5858859E-07  0.3288205E+04  0.7818609E-02  0.8165903E-01
        1   -1    0    0  501    0  0.00000000000E+00  0.00000000000E+00  0.94332896540E+03  0.94332896541E+03  0.50400001928E-02 0. -1.
       -1   -1    0    0    0  501  0.00000000000E+00  0.00000000000E+00 -0.28654608396E+04  0.28654608396E+04  0.50400001928E-02 0.  1.
    10030    2    1    2    0    0  0.00000000000E+00  0.00000000000E+00 -0.19221318742E+04  0.38087898050E+04  0.32882045005E+04 0.  0.
        3    1    3    3  502    0  0.20503426525E+03 -0.26756609582E+03  0.90287111450E+03  0.96374629710E+03  0.10100000352E+00 0. -1.
       -3    1    3    3    0  502 -0.20503426525E+03  0.26756609582E+03 -0.28250029887E+04  0.28450435079E+04  0.10100000352E+00 0.  1.
</event>
<event>
 5   0  0.6023446E-07  0.3371926E+04  0.7818609E-02  0.8144831E-01
        1   -1    0    0  501    0  0.00000000000E+00  0.00000000000E+00  0.21111464962E+04  0.21111464962E+04  0.50400001928E-02 0.  1.
       -1   -1    0    0    0  501  0.00000000000E+00  0.00000000000E+00 -0.13464112551E+04  0.13464112551E+04  0.50400001928E-02 0. -1.
    10030    2    1    2    0    0  0.00000000000E+00  0.00000000000E+00  0.76473524110E+03  0.34575577513E+04  0.33719260986E+04 0.  0.
        5    1    3    3  502    0  0.13308671179E+04  0.15314795221E+03 -0.66724259728E+03  0.14966283287E+04  0.46999998093E+01 0. -1.
       -5    1    3    3    0  502 -0.13308671179E+04 -0.15314795221E+03  0.14319778384E+04  0.19609294226E+04  0.46999998093E+01 0.  1.
</event>
<event>
 5   0  0.1784626E-06  0.3037076E+04  0.7818609E-02  0.8233222E-01
       -2   -1    0    0    0  501  0.00000000000E+00  0.00000000000E+00  0.94662154507E+03  0.94662154508E+03  0.25500000920E-02 0. -1.
        2   -1    0    0  501    0  0.00000000000E+00  0.00000000000E+00 -0.24359864108E+04  0.24359864108E+04  0.25500000920E-02 0.  1.
    10030    2    1    2    0    0  0.00000000000E+00  0.00000000000E+00 -0.14893648657E+04  0.33826079558E+04  0.30370757119E+04 0.  0.
        2    1    3    3  502    0  0.11426061653E+04  0.50996758265E+03  0.21364092960E+03  0.12693534697E+04  0.25500000920E-02 0. -1.
       -2    1    3    3    0  502 -0.11426061653E+04 -0.50996758265E+03 -0.17030057953E+04  0.21132544861E+04  0.25500000920E-02 0.  1.
</event>
<event>
 5   0  0.1728937E-06  0.3286253E+04  0.7818609E-02  0.8166402E-01
        2   -1    0    0  501    0  0.00000000000E+00  0.00000000000E+00  0.20197329465E+04  0.20197329465E+04  0.25500000920E-02 0. -1.
       -2   -1    0    0    0  501  0.00000000000E+00  0.00000000000E+00 -0.13367431269E+04  0.13367431269E+04  0.25500000920E-02 0.  1.
    10030    2    1    2    0    0  0.00000000000E+00  0.00000000000E+00  0.68298981962E+03  0.33564760734E+04  0.32862526588E+04 0.  0.
        1    1    3    3  502    0 -0.79669109478E+03 -0.14248452896E+04  0.53247541098E+03  0.17170995495E+04  0.50400001928E-02 0.  1.
       -1    1    3    3    0  502  0.79669109478E+03  0.14248452896E+04  0.15051440863E+03  0.16393765239E+04  0.50400001928E-02 0. -1.
</event>
<event>
 5   0  0.5858859E-07  0.3338464E+04  0.7818609E-02  0.8153177E-01
        1   -1    0    0  501    0  0.00000000000E+00  0.00000000000E+00  0.18605836066E+04  0.18605836066E+04  0.50400001928E-02 0. -1.
       -1   -1    0    0    0  501  0.00000000000E+00  0.00000000000E+00 -0.14975598128E+04  0.14975598128E+04  0.50400001928E-02 0.  1.
    10030    2    1    2    0    0  0.00000000000E+00  0.00000000000E+00  0.36302379383E+03  0.33581434194E+04  0.33384638608E+04 0.  0.
        3    1    3    3  502    0 -0.12814496967E+04  0.10594873900E+04  0.33305757347E+02  0.16630502513E+04  0.10100000352E+00 0.  1.
       -3    1    3    3    0  502  0.12814496967E+04 -0.10594873900E+04  0.32971803649E+03  0.16950931681E+04  0.10100000352E+00 0. -1.
</event>
<event>
 5   0  0.1728937E-06  0.3349622E+04  0.7818609E-02  0.8150383E-01
        2   -1    0    0  501    0  0.00000000000E+00  0.00000000000E+00  0.18136263472E+04  0.18136263472E+04  0.25500000920E-02 0.  1.
       -2   -1    0    0    0  501  0.00000000000E+00  0.00000000000E+00 -0.15466209262E+04  0.15466209262E+04  0.25500000920E-02 0. -1.
    10030    2    1    2    0    0  0.00000000000E+00  0.00000000000E+00  0.26700542096E+03  0.33602472734E+04  0.33496223434E+04 0.  0.
        1    1    3    3  502    0 -0.85244737535E+03 -0.14413936997E+04  0.16023560623E+03  0.16822478340E+04  0.50400001928E-02 0.  1.
       -1    1    3    3    0  502  0.85244737535E+03  0.14413936997E+04  0.10676981473E+03  0.16779994394E+04  0.50400001928E-02 0. -1.
</event>
<event>
 5   0  0.1728937E-06  0.3337502E+04  0.7818609E-02  0.8153418E-01
        2   -1    0    0  501    0  0.00000000000E+00  0.00000000000E+00  0.29886652640E+04  0.29886652640E+04  0.25500000920E-02 0. -1.
       -2   -1    0    0    0  501  0.00000000000E+00  0.00000000000E+00 -0.93176387755E+03  0.93176387756E+03  0.25500000920E-02 0.  1.
    10030    2    1    2    0    0  0.00000000000E+00  0.00000000000E+00  0.20569013864E+04  0.39204291415E+04  0.33375022607E+04 0.  0.
        1    1    3    3  502    0 -0.43495750155E+03 -0.11857764407E+04  0.23095711929E+04  0.26323702040E+04  0.50400001928E-02 0. -1.
       -1    1    3    3    0  502  0.43495750155E+03  0.11857764407E+04 -0.25266980651E+03  0.12880589376E+04  0.50400001928E-02 0.  1.
</event>
<event>
 5   0  0.1743810E-06  0.3320457E+04  0.7818609E-02  0.8157709E-01
       -2   -1    0    0    0  501  0.00000000000E+00  0.00000000000E+00  0.16250896671E+04  0.16250896671E+04  0.25500000920E-02 0. -1.
        2   -1    0    0  501    0  0.00000000000E+00  0.00000000000E+00 -0.16961274533E+04  0.16961274533E+04  0.25500000920E-02 0.  1.
    10030    2    1    2    0    0  0.00000000000E+00  0.00000000000E+00 -0.71037786159E+02  0.33212171204E+04  0.33204573170E+04 0.  0.
        5    1    3    3  502    0 -0.27780281139E+03 -0.55626869059E+03  0.15042253974E+04  0.16276748429E+04  0.46999998093E+01 0. -1.
       -5    1    3    3    0  502  0.27780281139E+03  0.55626869059E+03 -0.15752631836E+04  0.16935422775E+04  0.46999998093E+01 0.  1.
</event>
<event>
 5   0  0.1832626E-06  0.3297416E+04  0.7818609E-02  0.8163553E-01
        2   -1    0    0  501    0  0.00000000000E+00  0.00000000000E+00  0.23039940480E+04  0.23039940480E+04  0.25500000920E-02 0.  1.
       -2   -1    0    0    0  501  0.00000000000E+00  0.00000000000E+00 -0.11797941151E+04  0.11797941151E+04  0.25500000920E-02 0. -1.
    10030    2    1    2    0    0  0.00000000000E+00  0.00000000000E+00  0.11241999329E+04  0.34837881631E+04  0.32974163334E+04 0.  0.
        3    1    3    3  502    0  0.18946138656E+03  0.99065351366E+03 -0.81581859500E+03  0.12972470818E+04  0.10100000352E+00 0. -1.
       -3    1    3    3    0  502 -0.18946138656E+03 -0.99065351366E+03  0.19400185279E+04  0.21865410813E+04  0.10100000352E+00 0.  1.
</event>
<event>
 5   0  0.6085351E-07  0.3308804E+04  0.7818609E-02  0.8160659E-01
       -1   -1    0    0    0  501  0.00000000000E+00  0.00000000000E+00  0.14111157416E+04  0.14111157416E+04  0.50400001928E-02 0. -1.
        1   -1    0    0  501    0  0.00000000000E+00  0.00000000000E+00 -0.19396328535E+04  0.19396328535E+04  0.50400001928E-02 0.  1.
    10030    2    1    2    0    0  0.00000000000E+00  0.00000000000E+00 -0.52851711190E+03  0.33507485952E+04  0.33088042871E+04 0.  0.
        1    1    3    3  502    0 -0.93849695430E+03  0.12353955223E+04  0.31753962452E+03  0.15836066566E+04  0.50400001928E-02 0. -1.
       -1    1    3    3    0  502  0.93849695430E+03 -0.12353955223E+04 -0.84605673642E+03  0.17671419385E+04  0.50400001928E-02 0.  1.
</event>
<event>
 5   0  0.6085351E-07  0.3324353E+04  0.7818609E-02  0.8156726E-01
        1   -1    0    0  501    0  0.00000000000E+00  0.00000000000E+00  0.17460084684E+04  0.17460084684E+04  0.50400001928E-02 0. -1.
       -1   -1    0    0    0  501  0.00000000000E+00  0.00000000000E+00 -0.15823692828E+04  0.15823692828E+04  0.50400001928E-02 0.  1.
    10030    2    1    2    0    0  0.00000000000E+00  0.00000000000E+00  0.16363918568E+03  0.33283777512E+04  0.33243526696E+04 0.  0.
        1    1    3    3  502    0  0.15391645848E+04  0.42801622878E+03  0.54129207307E+03  0.16867787702E+04  0.50400001928E-02 0. -1.
       -1    1    3    3    0  502 -0.15391645848E+04 -0.42801622878E+03 -0.37765288739E+03  0.16415989810E+04  0.50400001928E-02 0.  1.
</event>
<event>
 5   0  0.6085351E-07  0.3293085E+04  0.7818609E-02  0.8164657E-01
       -1   -1    0    0    0  501  0.00000000000E+00  0.00000000000E+00  0.21974932674E+04  0.21974932674E+04  0.50400001928E-02 0. -1.
        1   -1    0    0  501    0  0.00000000000E+00  0.00000000000E+00 -0.12337252321E+04  0.12337252321E+04  0.50400001928E-02 0.  1.
    10030    2    1    2    0    0  0.00000000000E+00  0.00000000000E+00  0.96376803528E+03  0.34312184996E+04  0.32930854174E+04 0.  0.
        1    1    3    3  502    0  0.55952810124E+03  0.11110685116E+04  0.16058143432E+04  0.20313012180E+04  0.50400001928E-02 0. -1.
       -1    1    3    3    0  502 -0.55952810124E+03 -0.11110685116E+04 -0.64204630789E+03  0.13999172815E+04  0.50400001928E-02 0.  1.
</event>
<event>
 5   0  0.1743810E-06  0.3413009E+04  0.7818609E-02  0.8134721E-01
        2   -1    0    0  501    0  0.00000000000E+00  0.00000000000E+00  0.20023807358E+04  0.20023807358E+04  0.25500000920E-02 0. -1.
       -2   -1    0    0    0  501  0.00000000000E+00  0.00000000000E+00 -0.14543474825E+04  0.14543474825E+04  0.25500000920E-02 0.  1.
    10030    2    1    2    0    0  0.00000000000E+00  0.00000000000E+00  0.54803325325E+03  0.34567282183E+04  0.34130088673E+04 0.  0.
        5    1    3    3  502    0  0.11812607069E+04  0.46760528092E+03 -0.87992148755E+03  0.15454175716E+04  0.46999998093E+01 0.  1.
       -5    1    3    3    0  502 -0.11812607069E+04 -0.46760528092E+03  0.14279547408E+04  0.19113106467E+04  0.46999998093E+01 0. -1.
</event>
<event>
 5   0  0.1728937E-06  0.3213336E+04  0.7818609E-02  0.8185304E-01
       -2   -1    0    0    0  501  0.00000000000E+00  0.00000000000E+00  0.11532106820E+04  0.11532106820E+04  0.25500000920E-02 0.  1.
        2   -1    0    0  501    0  0.00000000000E+00  0.00000000000E+00 -0.22384309894E+04  0.22384309895E+04  0.25500000920E-02 0. -1.
    10030    2    1    2    0    0  0.00000000000E+00  0.00000000000E+00 -0.10852203075E+04  0.33916416714E+04  0.32133362898E+04 0.  0.
        1    1    3    3  502    0  0.46707253349E+03 -0.13261048499E+03  0.10739225127E+04  0.11785804409E+04  0.50400001928E-02 0.  1.
       -1    1    3    3    0  502 -0.46707253349E+03  0.13261048499E+03 -0.21591428202E+04  0.22130612306E+04  0.50400001928E-02 0. -1.
</event>
<event>
 5   0  0.6023446E-07  0.2887212E+04  0.7818609E-02  0.8276692E-01
       -1   -1    0    0    0  501  0.00000000000E+00  0.00000000000E+00  0.27550504425E+04  0.27550504425E+04  0.50400001928E-02 0.  1.
        1   -1    0    0  501    0  0.00000000000E+00  0.00000000000E+00 -0.75642839461E+03  0.75642839463E+03  0.50400001928E-02 0. -1.
    10030    2    1    2    0    0  0.00000000000E+00  0.00000000000E+00  0.19986220478E+04  0.35114788371E+04  0.28872120693E+04 0.  0.
        5    1    3    3  502    0  0.12083532870E+04  0.25843868186E+03  0.19070594528E+04  0.22724009472E+04  0.46999998093E+01 0.  1.
       -5    1    3    3    0  502 -0.12083532870E+04 -0.25843868186E+03  0.91562595057E+02  0.12390778899E+04  0.46999998093E+01 0. -1.
</event>
<event>
 5   0  0.6023446E-07  0.3305904E+04  0.7818609E-02  0.8161395E-01
       -1   -1    0    0    0  501  0.00000000000E+00  0.00000000000E+00  0.15267899016E+04  0.15267899017E+04  0.50400001928E-02 0. -1.
        1   -1    0    0  501    0  0.00000000000E+00  0.00000000000E+00 -0.17895395729E+04  0.17895395729E+04  0.50400001928E-02 0.  1.
    10030    2    1    2    0    0  0.00000000000E+00  0.00000000000E+00 -0.26274967125E+03  0.33163294746E+04  0.33059043837E+04 0.  0.
        5    1    3    3  502    0 -0.32671133340E+03  0.42215975893E+03 -0.17006832347E+04  0.17824995686E+04  0.46999998093E+01 0.  1.
       -5    1    3    3    0  502  0.32671133340E+03 -0.42215975893E+03  0.14379335634E+04  0.15338299059E+04  0.46999998093E+01 0. -1.
</event>
<event>
 5   0  0.1728937E-06  0.3309445E+04  0.7818609E-02  0.8160496E-01
        2   -1    0    0  501    0  0.00000000000E+00  0.00000000000E+00  0.26770760768E+04  0.26770760768E+04  0.25500000920E-02 0.  1.
       -2   -1    0    0    0  501  0.00000000000E+00  0.00000000000E+00 -0.10227971722E+04  0.10227971722E+04  0.25500000920E-02 0. -1.
    10030    2    1    2    0    0  0.00000000000E+00  0.00000000000E+00  0.16542789046E+04  0.36998732490E+04  0.33094445703E+04 0.  0.
        1    1    3    3  502    0  0.22844115556E+03 -0.12015052412E+04  0.20732195575E+04  0.24070811245E+04  0.50400001928E-02 0.  1.
       -1    1    3    3    0  502 -0.22844115556E+03  0.12015052412E+04 -0.41894065294E+03  0.12927921244E+04  0.50400001928E-02 0. -1.
</event>
<event>
 5   0  0.5858859E-07  0.3337242E+04  0.7818609E-02  0.8153483E-01
        1   -1    0    0  501    0  0.00000000000E+00  0.00000000000E+00  0.23797646518E+04  0.23797646519E+04  0.50400001928E-02 0. -1.
       -1   -1    0    0    0  501  0.00000000000E+00  0.00000000000E+00 -0.11699882202E+04  0.11699882202E+04  0.50400001928E-02 0.  1.
    10030    2    1    2    0    0  0.00000000000E+00  0.00000000000E+00  0.12097764317E+04  0.35497528720E+04  0.33372423403E+04 0.  0.
        3    1    3    3  502    0  0.16253597044E+04  0.16979735268E+03  0.24626717413E+03  0.16526562985E+04  0.10100000352E+00 0. -1.
       -3    1    3    3    0  502 -0.16253597044E+04 -0.16979735268E+03  0.96350925753E+03  0.18970965735E+04  0.10100000352E+00 0.  1.
</event>
<event>
 5   0  0.5985183E-07  0.3111481E+04  0.7818609E-02  0.8212594E-01
       -1   -1    0    0    0  501  0.00000000000E+00  0.00000000000E+00  0.12508693630E+04  0.12508693630E+04  0.50400001928E-02 0. -1.
        1   -1    0    0  501    0  0.00000000000E+00  0.00000000000E+00 -0.19349171956E+04  0.19349171956E+04  0.50400001928E-02 0.  1.
    10030    2    1    2    0    0  0.00000000000E+00  0.00000000000E+00 -0.68404783264E+03  0.31857865586E+04  0.31114810878E+04 0.  0.
        2    1    3    3  502    0  0.92715617686E+03 -0.10328346696E+04 -0.10616328525E+04  0.17474067485E+04  0.25500000920E-02 0.  1.
       -2    1    3    3    0  502 -0.92715617686E+03  0.10328346696E+04  0.37758501985E+03  0.14383798102E+04  0.25500000920E-02 0. -1.
</event>
<event>
 5   0  0.5988516E-07  0.3291272E+04  0.7818609E-02  0.8165120E-01
        1   -1    0    0  501    0  0.00000000000E+00  0.00000000000E+00  0.97899712332E+03  0.97899712333E+03  0.50400001928E-02 0. -1.
       -1   -1    0    0    0  501  0.00000000000E+00  0.00000000000E+00 -0.27662161270E+04  0.27662161270E+04  0.50400001928E-02 0.  1.
    10030    2    1    2    0    0  0.00000000000E+00  0.00000000000E+00 -0.17872190037E+04  0.37452132504E+04  0.32912718702E+04 0.  0.
        4    1    3    3  502    0 -0.11624493756E+04 -0.10261955504E+03 -0.22139416046E+04  0.25026702471E+04  0.12699999809E+01 0.  1.
       -4    1    3    3    0  502  0.11624493756E+04  0.10261955504E+03  0.42672260091E+03  0.12425430033E+04  0.12699999809E+01 0. -1.
</event>
<event>
 5   0  0.5988516E-07  0.3315964E+04  0.7818609E-02  0.8158845E-01
        1   -1    0    0  501    0  0.00000000000E+00  0.00000000000E+00  0.20936276495E+04  0.20936276495E+04  0.50400001928E-02 0. -1.
       -1   -1    0    0    0  501  0.00000000000E+00  0.00000000000E+00 -0.13129861173E+04  0.13129861173E+04  0.50400001928E-02 0.  1.
    10030    2    1    2    0    0  0.00000000000E+00  0.00000000000E+00  0.78064153217E+03  0.34066137669E+04  0.33159638350E+04 0.  0.
        4    1    3    3  502    0 -0.15763837740E+04 -0.49503666146E+03  0.53138929716E+03  0.17356333994E+04  0.12699999809E+01 0. -1.
       -4    1    3    3    0  502  0.15763837740E+04  0.49503666146E+03  0.24925223501E+03  0.16709803675E+04  0.12699999809E+01 0.  1.
</event>
<event>
 5   0  0.6085351E-07  0.3309988E+04  0.7818609E-02  0.8160359E-01
       -1   -1    0    0    0  501  0.00000000000E+00  0.00000000000E+00  0.19180540015E+04  0.19180540015E+04  0.50400001928E-02 0.  1.
        1   -1    0    0  501    0  0.00000000000E+00  0.00000000000E+00 -0.14280121105E+04  0.14280121105E+04  0.50400001928E-02 0. -1.
    10030    2    1    2    0    0  0.00000000000E+00  0.00000000000E+00  0.49004189105E+03  0.33460661120E+04  0.33099875183E+04 0.  0.
        1    1    3    3  502    0 -0.10745047222E+04  0.74150496703E+03  0.12732678384E+04  0.18236230429E+04  0.50400001928E-02 0.  1.
       -1    1    3    3    0  502  0.10745047222E+04 -0.74150496703E+03 -0.78322594734E+03  0.15224430691E+04  0.50400001928E-02 0. -1.
</event>
<event>
 5   0  0.5858859E-07  0.3286677E+04  0.7818609E-02  0.8166294E-01
       -1   -1    0    0    0  501  0.00000000000E+00  0.00000000000E+00  0.13247203423E+04  0.13247203423E+04  0.50400001928E-02 0.  1.
        1   -1    0    0  501    0  0.00000000000E+00  0.00000000000E+00 -0.20385899317E+04  0.20385899317E+04  0.50400001928E-02 0. -1.
    10030    2    1    2    0    0  0.00000000000E+00  0.00000000000E+00 -0.71386958938E+03  0.33633102740E+04  0.32866770770E+04 0.  0.
        3    1    3    3  502    0  0.75364910564E+03  0.18687517575E+03  0.11251622552E+04  0.13670769607E+04  0.10100000352E+00 0.  1.
       -3    1    3    3    0  502 -0.75364910564E+03 -0.18687517575E+03 -0.18390318446E+04  0.19962333133E+04  0.10100000352E+00 0. -1.
</event>
<event>
 5   0  0.5988516E-07  0.3310738E+04  0.7818609E-02  0.8160168E-01
        1   -1    0    0  501    0  0.00000000000E+00  0.00000000000E+00  0.16108948168E+04  0.16108948168E+04  0.50400001928E-02 0.  1.
       -1   -1    0    0    0  501  0.00000000000E+00  0.00000000000E+00 -0.17010711453E+04  0.17010711453E+04  0.50400001928E-02 0. -1.
    10030    2    1    2    0    0  0.00000000000E+00  0.00000000000E+00 -0.90176328427E+02  0.33119659621E+04  0.33107380996E+04 0.  0.
        4    1    3    3  502    0 -0.57718520626E+03  0.79271428789E+03  0.12890879732E+04  0.16196567908E+04  0.12699999809E+01 0.  1.
       -4    1    3    3    0  502  0.57718520626E+03 -0.79271428789E+03 -0.13792643016E+04  0.16923091713E+04  0.12699999809E+01 0. -1.
</event>
<event>
 5   0  0.1832626E-06  0.3281213E+04  0.7818609E-02  0.8167692E-01
        2   -1    0    0  501    0  0.00000000000E+00  0.00000000000E+00  0.27083425533E+04  0.27083425533E+04  0.25500000920E-02 0.  1.
       -2   -1    0    0    0  501  0.00000000000E+00  0.00000000000E+00 -0.99381451420E+03  0.99381451420E+03  0.25500000920E-02 0. -1.
    10030    2    1    2    0    0  0.00000000000E+00  0.00000000000E+00  0.17145280391E+04  0.37021570675E+04  0.32812132749E+04 0.  0.
        3    1    3    3  502    0 -0.41038790342E+03 -0.99398295061E+03  0.22552363903E+04  0.24985018558E+04  0.10100000352E+00 0.  1.
       -3    1    3    3    0  502  0.41038790342E+03  0.99398295061E+03 -0.54070835117E+03  0.12036552117E+04  0.10100000352E+00 0. -1.
</event>
<event>
 5   0  0.5985183E-07  0.3293408E+04  0.7818609E-02  0.8164575E-01
       -1   -1    0    0    0  501  0.00000000000E+00  0.00000000000E+00  0.14032353328E+04  0.14032353328E+04  0.50400001928E-02 0.  1.
        1   -1    0    0  501    0  0.00000000000E+00  0.00000000000E+00 -0.19324163260E+04  0.19324163261E+04  0.50400001928E-02 0. -1.
    10030    2    1    2    0    0  0.00000000000E+00  0.00000000000E+00 -0.52918099324E+03  0.33356516589E+04  0.32934084875E+04 0.  0.
        2    1    3    3  502    0  0.42666945227E+03 -0.63964566574E+03 -0.17394417956E+04  0.19018020821E+04  0.25500000920E-02 0. -1.
       -2    1    3    3    0  502 -0.42666945227E+03  0.63964566574E+03  0.12102608023E+04  0.14338495768E+04  0.25500000920E-02 0.  1.
</event>
<event>
 5   0  0.5858859E-07  0.3307823E+04  0.7818609E-02  0.8160908E-01
       -1   -1    0    0    0  501  0.00000000000E+00  0.00000000000E+00  0.14089989884E+04  0.14089989884E+04  0.50400001928E-02 0. -1.
        1   -1    0    0  501    0  0.00000000000E+00  0.00000000000E+00 -0.19413952655E+04  0.19413952655E+04  0.50400001928E-02 0.  1.
    10030    2    1    2    0    0  0.00000000000E+00  0.00000000000E+00 -0.53239627707E+03  0.33503942540E+04  0.33078234326E+04 0.  0.
        3    1    3    3  502    0  0.14104292548E+04 -0.59563849078E+03  0.36741487873E+03  0.15745124953E+04  0.10100000352E+00 0.  1.
       -3    1    3    3    0  502 -0.14104292548E+04  0.59563849078E+03 -0.89981115580E+03  0.17758817587E+04  0.10100000352E+00 0. -1.
</event>
<event>
 5   0  0.5985183E-07  0.3319994E+04  0.7818609E-02  0.8157827E-01
        1   -1    0    0  501    0  0.00000000000E+00  0.00000000000E+00  0.19801008010E+04  0.19801008010E+04  0.50400001928E-02 0.  1.
       -1   -1    0    0    0  501  0.00000000000E+00  0.00000000000E+00 -0.13916409388E+04  0.13916409388E+04  0.50400001928E-02 0. -1.
    10030    2    1    2    0    0  0.00000000000E+00  0.00000000000E+00  0.58845986220E+03  0.33717417399E+04  0.33199935770E+04 0.  0.
        2    1    3    3  502    0  0.11363617462E+02  0.85824529799E+03  0.17372480920E+04  0.19377164541E+04  0.25500000920E-02 0.  1.
       -2    1    3    3    0  502 -0.11363617462E+02 -0.85824529799E+03 -0.11487882298E+04  0.14340252858E+04  0.25500000920E-02 0. -1.
</event>
<event>
 5   0  0.1728937E-06  0.3574184E+04  0.7818609E-02  0.8096431E-01
       -2   -1    0    0    0  501  0.00000000000E+00  0.00000000000E+00  0.13967799945E+04  0.13967799945E+04  0.25500000920E-02 0.  1.
        2   -1    0    0  501    0  0.00000000000E+00  0.00000000000E+00 -0.22864710458E+04  0.22864710458E+04  0.25500000920E-02 0. -1.
    10030    2    1    2    0    0  0.00000000000E+00  0.00000000000E+00 -0.88969105121E+03  0.36832510403E+04  0.35741835514E+04 0.  0.
        1    1    3    3  502    0 -0.31993791952E+03 -0.15417087057E+04 -0.13159029244E+04  0.20520298516E+04  0.50400001928E-02 0. -1.
       -1    1    3    3    0  502  0.31993791952E+03  0.15417087057E+04  0.42621187316E+03  0.16312211887E+04  0.50400001928E-02 0.  1.
</event>
<event>
 5   0  0.6085351E-07  0.3310349E+04  0.7818609E-02  0.8160267E-01
       -1   -1    0    0    0  501  0.00000000000E+00  0.00000000000E+00  0.86981241575E+03  0.86981241577E+03  0.50400001928E-02 0. -1.
        1   -1    0    0  501    0  0.00000000000E+00  0.00000000000E+00 -0.31496472932E+04  0.31496472932E+04  0.50400001928E-02 0.  1.
    10030    2    1    2    0    0  0.00000000000E+00  0.00000000000E+00 -0.22798348775E+04  0.40194597090E+04  0.33103488160E+04 0.  0.
        1    1    3    3  502    0 -0.14681259629E+04  0.70221445422E+03 -0.77342833531E+03  0.18018574784E+04  0.50400001928E-02 0. -1.
       -1    1    3    3    0  502  0.14681259629E+04 -0.70221445422E+03 -0.15064065422E+04  0.22176022306E+04  0.50400001928E-02 0.  1.
</event>
<event>
 5   0  0.1784626E-06  0.3252901E+04  0.7818609E-02  0.8174984E-01
        2   -1    0    0  501    0  0.00000000000E+00  0.00000000000E+00  0.18654496353E+04  0.18654496353E+04  0.25500000920E-02 0. -1.
       -2   -1    0    0    0  501  0.00000000000E+00  0.00000000000E+00 -0.14180720642E+04  0.14180720642E+04  0.25500000920E-02 0.  1.
    10030    2    1    2    0    0  0.00000000000E+00  0.00000000000E+00  0.44737757102E+03  0.32835216995E+04  0.32529014833E+04 0.  0.
        2    1    3    3  502    0 -0.62109371652E+03  0.12149209923E+04 -0.66982813069E+03  0.15200197851E+04  0.25500000920E-02 0.  1.
       -2    1    3    3    0  502  0.62109371652E+03 -0.12149209923E+04  0.11172057017E+04  0.17635019144E+04  0.25500000920E-02 0. -1.
</event>
<event>
 5   0  0.5685000E-07  0.3296180E+04  0.7818609E-02  0.8163868E-01
        3   -1    0    0  501    0  0.00000000000E+00  0.00000000000E+00  0.12369622877E+04  0.12369622918E+04  0.10100000352E+00 0. -1.
       -3   -1    0    0    0  501  0.00000000000E+00  0.00000000000E+00 -0.21958637774E+04  0.21958637797E+04  0.10100000352E+00 0.  1.
    10030    2    1    2    0    0  0.00000000000E+00  0.00000000000E+00 -0.95890148975E+03  0.34328260715E+04  0.32961800270E+04 0.  0.
        4    1    3    3  502    0 -0.57169267191E+03 -0.78257691823E+03  0.90882984106E+03  0.13286205015E+04  0.12699999809E+01 0. -1.
       -4    1    3    3    0  502  0.57169267191E+03  0.78257691823E+03 -0.18677313308E+04  0.21042055701E+04  0.12699999809E+01 0.  1.
</event>
<event>
 5   0  0.6085351E-07  0.3329570E+04  0.7818609E-02  0.8155412E-01
        1   -1    0    0  501    0  0.00000000000E+00  0.00000000000E+00  0.16415629128E+04  0.16415629128E+04  0.50400001928E-02 0. -1.
       -1   -1    0    0    0  501  0.00000000000E+00  0.00000000000E+00 -0.16883355147E+04  0.16883355147E+04  0.50400001928E-02 0.  1.
    10030    2    1    2    0    0  0.00000000000E+00  0.00000000000E+00 -0.46772601945E+02  0.33298984275E+04  0.33295699213E+04 0.  0.
        1    1    3    3  502    0 -0.84951960763E+03 -0.46853851247E+03 -0.13764045003E+04  0.16839540522E+04  0.50400001928E-02 0.  1.
       -1    1    3    3    0  502  0.84951960763E+03  0.46853851247E+03  0.13296318984E+04  0.16459443753E+04  0.50400001928E-02 0. -1.
</event>
<event>
 5   0  0.5858859E-07  0.2717047E+04  0.7818609E-02  0.8329495E-01
       -1   -1    0    0    0  501  0.00000000000E+00  0.00000000000E+00  0.99679490441E+03  0.99679490442E+03  0.50400001928E-02 0.  1.
        1   -1    0    0  501    0  0.00000000000E+00  0.00000000000E+00 -0.18515200027E+04  0.18515200027E+04  0.50400001928E-02 0. -1.
    10030    2    1    2    0    0  0.00000000000E+00  0.00000000000E+00 -0.85472509831E+03  0.28483149072E+04  0.27170467086E+04 0.  0.
        3    1    3    3  502    0  0.82938997756E+03  0.70616028150E+03  0.42366837451E+03  0.11687792691E+04  0.10100000352E+00 0.  1.
       -3    1    3    3    0  502 -0.82938997756E+03 -0.70616028150E+03 -0.12783934728E+04  0.16795356381E+04  0.10100000352E+00 0. -1.
</event>
<event>
 5   0  0.1832626E-06  0.3335632E+04  0.7818609E-02  0.8153887E-01
        2   -1    0    0  501    0  0.00000000000E+00  0.00000000000E+00  0.13083784685E+04  0.13083784685E+04  0.25500000920E-02 0.  1.
       -2   -1    0    0    0  501  0.00000000000E+00  0.00000000000E+00 -0.21259986672E+04  0.21259986672E+04  0.25500000920E-02 0. -1.
    10030    2    1    2    0    0  0.00000000000E+00  0.00000000000E+00 -0.81762019874E+03  0.34343771357E+04  0.33356324019E+04 0.  0.
        3    1    3    3  502    0  0.94269948241E+03 -0.11828143110E+04  0.31475901311E+03  0.15449288834E+04  0.10100000352E+00 0.  1.
       -3    1    3    3    0  502 -0.94269948241E+03  0.11828143110E+04 -0.11323792118E+04  0.18894482523E+04  0.10100000352E+00 0. -1.
</event>
<event>
 5   0  0.1696681E-06  0.3314196E+04  0.7818609E-02  0.8159293E-01
        2   -1    0    0  501    0  0.00000000000E+00  0.00000000000E+00  0.20543762473E+04  0.20543762473E+04  0.25500000920E-02 0. -1.
       -2   -1    0    0    0  501  0.00000000000E+00  0.00000000000E+00 -0.13366455991E+04  0.13366455991E+04  0.25500000920E-02 0.  1.
    10030    2    1    2    0    0  0.00000000000E+00  0.00000000000E+00  0.71773064822E+03  0.33910218463E+04  0.33141955101E+04 0.  0.
        4    1    3    3  502    0  0.14299564936E+04 -0.35678236615E+03 -0.41625902563E+03  0.15314510830E+04  0.12699999809E+01 0.  1.
       -4    1    3    3    0  502 -0.14299564936E+04  0.35678236615E+03  0.11339896738E+04  0.18595707633E+04  0.12699999809E+01 0. -1.
</event>
<event>
 5   0  0.6085351E-07  0.3262080E+04  0.7818609E-02  0.8172612E-01
        1   -1    0    0  501    0  0.00000000000E+00  0.00000000000E+00  0.19650770175E+04  0.19650770175E+04  0.50400001928E-02 0. -1.
       -1   -1    0    0    0  501  0.00000000000E+00  0.00000000000E+00 -0.13537851418E+04  0.13537851418E+04  0.50400001928E-02 0.  1.
    10030    2    1    2    0    0  0.00000000000E+00  0.00000000000E+00  0.61129187567E+03  0.33188621592E+04  0.32620803600E+04 0.  0.
        1    1    3    3  502    0  0.60475101365E+03  0.12601283621E+04  0.11608999909E+04  0.18169579154E+04  0.50400001928E-02 0.  1.
       -1    1    3    3    0  502 -0.60475101365E+03 -0.12601283621E+04 -0.54960811522E+03  0.15019042439E+04  0.50400001928E-02 0. -1.
</event>
<event>
 5   0  0.6023446E-07  0.3310005E+04  0.7818609E-02  0.8160354E-01
       -1   -1    0    0    0  501  0.00000000000E+00  0.00000000000E+00  0.20593304677E+04  0.20593304677E+04  0.50400001928E-02 0. -1.
        1   -1    0    0  501    0  0.00000000000E+00  0.00000000000E+00 -0.13300604935E+04  0.13300604936E+04  0.50400001928E-02 0.  1.
    10030    2    1    2    0    0  0.00000000000E+00  0.00000000000E+00  0.72926997414E+03  0.33893909613E+04  0.33100054974E+04 0.  0.
        5    1    3    3  502    0 -0.14695418246E+04 -0.45798217002E+03 -0.25798668801E+03  0.15607306185E+04  0.46999998093E+01 0.  1.
       -5    1    3    3    0  502  0.14695418246E+04  0.45798217002E+03  0.98725666215E+03  0.18286603428E+04  0.46999998093E+01 0. -1.
</event>
<event>
 5   0  0.1832626E-06  0.3283482E+04  0.7818609E-02  0.8167111E-01
        2   -1    0    0  501    0  0.00000000000E+00  0.00000000000E+00  0.11135831307E+04  0.11135831307E+04  0.25500000920E-02 0.  1.
       -2   -1    0    0    0  501  0.00000000000E+00  0.00000000000E+00 -0.24203973890E+04  0.24203973890E+04  0.25500000920E-02 0. -1.
    10030    2    1    2    0    0  0.00000000000E+00  0.00000000000E+00 -0.13068142582E+04  0.35339805197E+04  0.32834821163E+04 0.  0.
        3    1    3    3  502    0  0.10858074617E+04 -0.10182910926E+04  0.91817434811E+02  0.14914171263E+04  0.10100000352E+00 0. -1.
       -3    1    3    3    0  502 -0.10858074617E+04  0.10182910926E+04 -0.13986316930E+04  0.20425633934E+04  0.10100000352E+00 0.  1.
</event>
<event>
 5   0  0.5988516E-07  0.3325092E+04  0.7818609E-02  0.8156540E-01
       -1   -1    0    0    0  501  0.00000000000E+00  0.00000000000E+00  0.13657010584E+04  0.13657010584E+04  0.50400001928E-02 0. -1.
        1   -1    0    0  501    0  0.00000000000E+00  0.00000000000E+00 -0.20239123334E+04  0.20239123334E+04  0.50400001928E-02 0.  1.
    10030    2    1    2    0    0  0.00000000000E+00  0.00000000000E+00 -0.65821127497E+03  0.33896133918E+04  0.33250920083E+04 0.  0.
        4    1    3    3  502    0 -0.96316940522E+03  0.13222472647E+04 -0.26659382518E+02  0.16360762414E+04  0.12699999809E+01 0.  1.
       -4    1    3    3    0  502  0.96316940522E+03 -0.13222472647E+04 -0.63155189245E+03  0.17535371504E+04  0.12699999809E+01 0. -1.
</event>
<event>
 5   0  0.1832626E-06  0.3230129E+04  0.7818609E-02  0.8180905E-01
       -2   -1    0    0    0  501  0.00000000000E+00  0.00000000000E+00  0.89888460047E+03  0.89888460047E+03  0.25500000920E-02 0. -1.
        2   -1    0    0  501    0  0.00000000000E+00  0.00000000000E+00 -0.29018559720E+04  0.29018559720E+04  0.25500000920E-02 0.  1.
    10030    2    1    2    0    0  0.00000000000E+00  0.00000000000E+00 -0.20029713715E+04  0.38007405725E+04  0.32301291900E+04 0.  0.
        3    1    3    3  502    0 -0.11956095820E+03 -0.15952771112E+04 -0.74041256769E+03  0.17627860520E+04  0.10100000352E+00 0.  1.
       -3    1    3    3    0  502  0.11956095820E+03  0.15952771112E+04 -0.12625588038E+04  0.20379545205E+04  0.10100000352E+00 0. -1.
</event>
<event>
 5   0  0.5685000E-07  0.3320887E+04  0.7818609E-02  0.8157601E-01
        3   -1    0    0  501    0  0.00000000000E+00  0.00000000000E+00  0.21847735849E+04  0.21847735872E+04  0.10100000352E+00 0.  1.
       -3   -1    0    0    0  501  0.00000000000E+00  0.00000000000E+00 -0.12619490164E+04  0.12619490205E+04  0.10100000352E+00 0. -1.
    10030    2    1    2    0    0  0.00000000000E+00  0.00000000000E+00  0.92282456842E+03  0.34467226077E+04  0.33208871631E+04 0.  0.
        2    1    3    3  502    0  0.34121327938E+03 -0.96246076193E+03  0.18203439243E+04  0.20872012895E+04  0.25500000920E-02 0.  1.
       -2    1    3    3    0  502 -0.34121327938E+03  0.96246076193E+03 -0.89751935588E+03  0.13595213181E+04  0.25500000920E-02 0. -1.
</event>
<event>
 5   0  0.5985183E-07  0.3338471E+04  0.7818609E-02  0.8153175E-01
        1   -1    0    0  501    0  0.00000000000E+00  0.00000000000E+00  0.95973000061E+03  0.95973000063E+03  0.50400001928E-02 0.  1.
       -1   -1    0    0    0  501  0.00000000000E+00  0.00000000000E+00 -0.29032619175E+04  0.29032619175E+04  0.50400001928E-02 0. -1.
    10030    2    1    2    0    0  0.00000000000E+00  0.00000000000E+00 -0.19435319169E+04  0.38629919182E+04  0.33384712441E+04 0.  0.
        2    1    3    3  502    0  0.12753429014E+04 -0.82097627612E+03 -0.17783051497E+04  0.23372784960E+04  0.25500000920E-02 0. -1.
       -2    1    3    3    0  502 -0.12753429014E+04  0.82097627612E+03 -0.16522676719E+03  0.15257134222E+04  0.25500000920E-02 0.  1.
</event>
<event>
 5   0  0.1743810E-06  0.3300749E+04  0.7818609E-02  0.8162705E-01
        2   -1    0    0  501    0  0.00000000000E+00  0.00000000000E+00  0.24614538465E+04  0.24614538465E+04  0.25500000920E-02 0. -1.
       -2   -1    0    0    0  501  0.00000000000E+00  0.00000000000E+00 -0.11065558557E+04  0.11065558557E+04  0.25500000920E-02 0.  1.
    10030    2    1    2    0    0  0.00000000000E+00  0.00000000000E+00  0.13548979908E+04  0.35680097022E+04  0.33007491073E+04 0.  0.
        5    1    3    3  502    0 -0.15301473193E+04 -0.45895273770E+03  0.22949739975E+03  0.16139019737E+04  0.46999998093E+01 0. -1.
       -5    1    3    3    0  502  0.15301473193E+04  0.45895273770E+03  0.11254005911E+04  0.19541077285E+04  0.46999998093E+01 0.  1.
</event>
<event>
 5   0  0.6085351E-07  0.3314476E+04  0.7818609E-02  0.8159222E-01
       -1   -1    0    0    0  501  0.00000000000E+00  0.00000000000E+00  0.25615612442E+04  0.25615612442E+04  0.50400001928E-02 0.  1.
        1   -1    0    0  501    0  0.00000000000E+00  0.00000000000E+00 -0.10721735165E+04  0.10721735165E+04  0.50400001928E-02 0. -1.
    10030    2    1    2    0    0  0.00000000000E+00  0.00000000000E+00  0.14893877278E+04  0.36337347607E+04  0.33144762041E+04 0.  0.
        1    1    3    3  502    0 -0.88841783852E+03  0.12365018948E+04  0.27280895045E+02  0.15228156287E+04  0.50400001928E-02 0. -1.
       -1    1    3    3    0  502  0.88841783852E+03 -0.12365018948E+04  0.14621068327E+04  0.21109191320E+04  0.50400001928E-02 0.  1.
</event>
<event>
 5   0  0.6085351E-07  0.3322279E+04  0.7818609E-02  0.8157250E-01
       -1   -1    0    0    0  501  0.00000000000E+00  0.00000000000E+00  0.13461019861E+04  0.13461019861E+04  0.50400001928E-02 0.  1.
        1   -1    0    0  501    0  0.00000000000E+00  0.00000000000E+00 -0.20499071573E+04  0.20499071574E+04  0.50400001928E-02 0. -1.
    10030    2    1    2    0    0  0.00000000000E+00  0.00000000000E+00 -0.70380517126E+03  0.33960091434E+04  0.33222787937E+04 0.  0.
        1    1    3    3  502    0  0.15420790147E+04  0.14071799923E+03  0.26275307550E+03  0.15706203938E+04  0.50400001928E-02 0.  1.
       -1    1    3    3    0  502 -0.15420790147E+04 -0.14071799923E+03 -0.96655824676E+03  0.18253887496E+04  0.50400001928E-02 0. -1.
</event>
<event>
 5   0  0.1832626E-06  0.3281411E+04  0.7818609E-02  0.8167642E-01
        2   -1    0    0  501    0  0.00000000000E+00  0.00000000000E+00  0.12486160754E+04  0.12486160754E+04  0.25500000920E-02 0.  1.
       -2   -1    0    0    0  501  0.00000000000E+00  0.00000000000E+00 -0.21559179136E+04  0.21559179136E+04  0.25500000920E-02 0. -1.
    10030    2    1    2    0    0  0.00000000000E+00  0.00000000000E+00 -0.90730183817E+03  0.34045339891E+04  0.32814105286E+04 0.  0.
        3    1    3    3  502    0 -0.54502097122E+03 -0.12399272588E+04  0.50707734885E+03  0.14462347369E+04  0.10100000352E+00 0.  1.
       -3    1    3    3    0  502  0.54502097122E+03  0.12399272588E+04 -0.14143791870E+04  0.19582992522E+04  0.10100000352E+00 0. -1.
</event>
<event>
 5   0  0.5988516E-07  0.3313278E+04  0.7818609E-02  0.8159525E-01
       -1   -1    0    0    0  501  0.00000000000E+00  0.00000000000E+00  0.27776440787E+04  0.27776440787E+04  0.50400001928E-02 0. -1.
        1   -1    0    0  501    0  0.00000000000E+00  0.00000000000E+00 -0.98805031021E+03  0.98805031022E+03  0.50400001928E-02 0.  1.
    10030    2    1    2    0    0  0.00000000000E+00  0.00000000000E+00  0.17895937685E+04  0.37656943890E+04  0.33132775879E+04 0.  0.
        4    1    3    3  502    0 -0.44428185929E+03  0.11574443068E+04 -0.35405363245E+03  0.12893483941E+04  0.12699999809E+01 0.  1.
       -4    1    3    3    0  502  0.44428185929E+03 -0.11574443068E+04  0.21436474010E+04  0.24763459949E+04  0.12699999809E+01 0. -1.
</event>
<event>
 5   0  0.6085351E-07  0.3328045E+04  0.7818609E-02  0.8155796E-01
       -1   -1    0    0    0  501  0.00000000000E+00  0.00000000000E+00  0.14638252736E+04  0.14638252736E+04  0.50400001928E-02 0. -1.
        1   -1    0    0  501    0  0.00000000000E+00  0.00000000000E+00 -0.18915994756E+04  0.18915994756E+04  0.50400001928E-02 0.  1.
    10030    2    1    2    0    0  0.00000000000E+00  0.00000000000E+00 -0.42777420203E+03  0.33554247492E+04  0.33280451439E+04 0.  0.
        1    1    3    3  502    0 -0.45007849349E+03 -0.12059205783E+04  0.84937700949E+03  0.15421596531E+04  0.50400001928E-02 0. -1.
       -1    1    3    3    0  502  0.45007849349E+03  0.12059205783E+04 -0.12771512115E+04  0.18132650961E+04  0.50400001928E-02 0.  1.
</event>
<event>
 5   0  0.1743810E-06  0.3337763E+04  0.7818609E-02  0.8153352E-01
       -2   -1    0    0    0  501  0.00000000000E+00  0.00000000000E+00  0.12976284783E+04  0.12976284783E+04  0.25500000920E-02 0. -1.
        2   -1    0    0  501    0  0.00000000000E+00  0.00000000000E+00 -0.21463507675E+04  0.21463507675E+04  0.25500000920E-02 0.  1.
    10030    2    1    2    0    0  0.00000000000E+00  0.00000000000E+00 -0.84872228913E+03  0.34439792458E+04  0.33377632513E+04 0.  0.
        5    1    3    3  502    0  0.52456713726E+03 -0.84734308635E+02  0.12080046304E+04  0.13197150683E+04  0.46999998093E+01 0. -1.
       -5    1    3    3    0  502 -0.52456713726E+03  0.84734308635E+02 -0.20567269195E+04  0.21242641775E+04  0.46999998093E+01 0.  1.
</event>
<event>
 5   0  0.6023446E-07  0.3300114E+04  0.7818609E-02  0.8162866E-01
       -1   -1    0    0    0  501  0.00000000000E+00  0.00000000000E+00  0.13883686166E+04  0.13883686166E+04  0.50400001928E-02 0. -1.
        1   -1    0    0  501    0  0.00000000000E+00  0.00000000000E+00 -0.19610695506E+04  0.19610695506E+04  0.50400001928E-02 0.  1.
    10030    2    1    2    0    0  0.00000000000E+00  0.00000000000E+00 -0.57270093401E+03  0.33494381671E+04  0.33001135853E+04 0.  0.
        5    1    3    3  502    0 -0.35265401187E+03  0.11003909339E+04 -0.14818522401E+04  0.18791309723E+04  0.46999998093E+01 0.  1.
       -5    1    3    3    0  502  0.35265401187E+03 -0.11003909339E+04  0.90915130613E+03  0.14703071948E+04  0.46999998093E+01 0. -1.
</event>
<event>
 5   0  0.1832626E-06  0.3221753E+04  0.7818609E-02  0.8183096E-01
       -2   -1    0    0    0  501  0.00000000000E+00  0.00000000000E+00  0.15977696803E+04  0.15977696803E+04  0.25500000920E-02 0.  1.
        2   -1    0    0  501    0  0.00000000000E+00  0.00000000000E+00 -0.16240910456E+04  0.16240910456E+04  0.25500000920E-02 0. -1.
    10030    2    1    2    0    0  0.00000000000E+00  0.00000000000E+00 -0.26321365237E+02  0.32218607259E+04  0.32217532064E+04 0.  0.
        3    1    3    3  502    0 -0.55539112884E+03 -0.53707898548E+03  0.14003964047E+04  0.15993821442E+04  0.10100000352E+00 0.  1.
       -3    1    3    3    0  502  0.55539112884E+03  0.53707898548E+03 -0.14267177700E+04  0.16224785817E+04  0.10100000352E+00 0. -1.
</event>
<event>
 5   0  0.5985183E-07  0.3314753E+04  0.7818609E-02  0.8159152E-01
       -1   -1    0    0    0  501  0.00000000000E+00  0.00000000000E+00  0.10576429985E+04  0.10576429985E+04  0.50400001928E-02 0.  1.
        1   -1    0    0  501    0  0.00000000000E+00  0.00000000000E+00 -0.25971877159E+04  0.25971877159E+04  0.50400001928E-02 0. -1.
    10030    2    1    2    0    0  0.00000000000E+00  0.00000000000E+00 -0.15395447174E+04  0.36548307145E+04  0.33147533264E+04 0.  0.
        2    1    3    3  502    0 -0.47156096647E+03 -0.15888226497E+04 -0.75538586924E+03  0.18213552561E+04  0.25500000920E-02 0.  1.
       -2    1    3    3    0  502  0.47156096647E+03  0.15888226497E+04 -0.78415884818E+03  0.18334754584E+04  0.25500000920E-02 0. -1.
</event>
<event>
 5   0  0.5988516E-07  0.3284538E+04  0.7818609E-02  0.8166841E-01
        1   -1    0    0  501    0  0.00000000000E+00  0.00000000000E+00  0.19696744526E+04  0.19696744526E+04  0.50400001928E-02 0.  1.
       -1   -1    0    0    0  501  0.00000000000E+00  0.00000000000E+00 -0.13692858815E+04  0.13692858815E+04  0.50400001928E-02 0. -1.
    10030    2    1    2    0    0  0.00000000000E+00  0.00000000000E+00  0.60038857104E+03  0.33389603341E+04  0.32845379700E+04 0.  0.
        4    1    3    3  502    0 -0.11031636379E+04 -0.84057356282E+03 -0.59387354132E+03  0.15087151231E+04  0.12699999809E+01 0. -1.
       -4    1    3    3    0  502  0.11031636379E+04  0.84057356282E+03  0.11942621124E+04  0.18302452110E+04  0.12699999809E+01 0.  1.
</event>
<event>
 5   0  0.6085351E-07  0.3328479E+04  0.7818609E-02  0.8155686E-01
        1   -1    0    0  501    0  0.00000000000E+00  0.00000000000E+00  0.15533090627E+04  0.15533090627E+04  0.50400001928E-02 0.  1.
       -1   -1    0    0    0  501  0.00000000000E+00  0.00000000000E+00 -0.17830920606E+04  0.17830920606E+04  0.50400001928E-02 0. -1.
    10030    2    1    2    0    0  0.00000000000E+00  0.00000000000E+00 -0.22978299796E+03  0.33364011233E+04  0.33284789664E+04 0.  0.
        1    1    3    3  502    0  0.16631508206E+03 -0.16462954688E+04 -0.29348283861E+03  0.16805004177E+04  0.50400001928E-02 0.  1.
       -1    1    3    3    0  502 -0.16631508206E+03  0.16462954688E+04  0.63699840648E+02  0.16559007056E+04  0.50400001928E-02 0. -1.
</event>
<event>
 5   0  0.5988516E-07  0.3306717E+04  0.7818609E-02  0.8161188E-01
       -1   -1    0    0    0  501  0.00000000000E+00  0.00000000000E+00  0.89217061218E+03  0.89217061220E+03  0.50400001928E-02 0. -1.
        1   -1    0    0  501    0  0.00000000000E+00  0.00000000000E+00 -0.30639806902E+04  0.30639806902E+04  0.50400001928E-02 0.  1.
    10030    2    1    2    0    0  0.00000000000E+00  0.00000000000E+00 -0.21718100780E+04  0.39561513024E+04  0.33067165153E+04 0.  0.
        4    1    3    3  502    0  0.16253907053E+04 -0.88923138309E+02 -0.73959019586E+03  0.17879590432E+04  0.12699999809E+01 0. -1.
       -4    1    3    3    0  502 -0.16253907053E+04  0.88923138309E+02 -0.14322198822E+04  0.21681922592E+04  0.12699999809E+01 0.  1.
</event>
<event>
 5   0  0.1784626E-06  0.3308330E+04  0.7818609E-02  0.8160779E-01
        2   -1    0    0  501    0  0.00000000000E+00  0.00000000000E+00  0.24025015441E+04  0.24025015441E+04  0.25500000920E-02 0.  1.
       -2   -1    0    0    0  501  0.00000000000E+00  0.00000000000E+00 -0.11389217736E+04  0.11389217736E+04  0.25500000920E-02 0. -1.
    10030    2    1    2    0    0  0.00000000000E+00  0.00000000000E+00  0.12635797705E+04  0.35414233176E+04  0.33083296810E+04 0.  0.
        2    1    3    3  502    0 -0.98886248787E+03  0.41402193285E+03 -0.71672973598E+03  0.12895598843E+04  0.25500000920E-02 0. -1.
       -2    1    3    3    0  502  0.98886248787E+03 -0.41402193285E+03  0.19803095065E+04  0.22518634333E+04  0.25500000920E-02 0.  1.
</event>
<event>
 5   0  0.1728937E-06  0.3295180E+04  0.7818609E-02  0.8164123E-01
       -2   -1    0    0    0  501  0.00000000000E+00  0.00000000000E+00  0.13575215403E+04  0.13575215403E+04  0.25500000920E-02 0. -1.
        2   -1    0    0  501    0  0.00000000000E+00  0.00000000000E+00 -0.19996387190E+04  0.19996387190E+04  0.25500000920E-02 0.  1.
    10030    2    1    2    0    0  0.00000000000E+00  0.00000000000E+00 -0.64211717867E+03  0.33571602593E+04  0.32951798942E+04 0.  0.
        1    1    3    3  502    0  0.15542665921E+04  0.43946074719E+03  0.10144181651E+02  0.16152316528E+04  0.50400001928E-02 0. -1.
       -1    1    3    3    0  502 -0.15542665921E+04 -0.43946074719E+03 -0.65226136032E+03  0.17419286064E+04  0.50400001928E-02 0.  1.
</event>
<event>
 5   0  0.1832626E-06  0.3332557E+04  0.7818609E-02  0.8154660E-01
       -2   -1    0    0    0  501  0.00000000000E+00  0.00000000000E+00  0.13945839510E+04  0.13945839510E+04  0.25500000920E-02 0. -1.
        2   -1    0    0  501    0  0.00000000000E+00  0.00000000000E+00 -0.19909052602E+04  0.19909052602E+04  0.25500000920E-02 0.  1.
    10030    2    1    2    0    0  0.00000000000E+00  0.00000000000E+00 -0.59632130915E+03  0.33854892112E+04  0.33325572907E+04 0.  0.
        3    1    3    3  502    0  0.56736058598E+03  0.72473326947E+03  0.11129111477E+04  0.14441979017E+04  0.10100000352E+00 0. -1.
       -3    1    3    3    0  502 -0.56736058598E+03 -0.72473326947E+03 -0.17092324569E+04  0.19412913095E+04  0.10100000352E+00 0.  1.
</event>
<event>
 5   0  0.1728937E-06  0.3004018E+04  0.7818609E-02  0.8242584E-01
       -2   -1    0    0    0  501  0.00000000000E+00  0.00000000000E+00  0.13403985806E+04  0.13403985806E+04  0.25500000920E-02 0.  1.
        2   -1    0    0  501    0  0.00000000000E+00  0.00000000000E+00 -0.16831045627E+04  0.16831045627E+04  0.25500000920E-02 0. -1.
    10030    2    1    2    0    0  0.00000000000E+00  0.00000000000E+00 -0.34270598214E+03  0.30235031434E+04  0.30040179540E+04 0.  0.
        1    1    3    3  502    0 -0.81994401671E+03 -0.12497773300E+04 -0.22817282055E+02  0.14949154469E+04  0.50400001928E-02 0. -1.
       -1    1    3    3    0  502  0.81994401671E+03  0.12497773300E+04 -0.31988870009E+03  0.15285876964E+04  0.50400001928E-02 0.  1.
</event>
<event>
 5   0  0.1696681E-06  0.3302038E+04  0.7818609E-02  0.8162377E-01
       -2   -1    0    0    0  501  0.00000000000E+00  0.00000000000E+00  0.15945948082E+04  0.15945948082E+04  0.25500000920E-02 0.  1.
        2   -1    0    0  501    0  0.00000000000E+00  0.00000000000E+00 -0.17094393525E+04  0.17094393525E+04  0.25500000920E-02 0. -1.
    10030    2    1    2    0    0  0.00000000000E+00  0.00000000000E+00 -0.11484454436E+03  0.33040341607E+04  0.33020376233E+04 0.  0.
        4    1    3    3  502    0 -0.14936699196E+04 -0.16914923500E+03 -0.74062366734E+03  0.16757643993E+04  0.12699999809E+01 0. -1.
       -4    1    3    3    0  502  0.14936699196E+04  0.16914923500E+03  0.62577912298E+03  0.16282697614E+04  0.12699999809E+01 0.  1.
</event>
<event>
 5   0  0.5858859E-07  0.3314651E+04  0.7818609E-02  0.8159177E-01
        1   -1    0    0  501    0  0.00000000000E+00  0.00000000000E+00  0.29723583949E+04  0.29723583949E+04  0.50400001928E-02 0. -1.
       -1   -1    0    0    0  501  0.00000000000E+00  0.00000000000E+00 -0.92409022759E+03  0.92409022760E+03  0.50400001928E-02 0.  1.
    10030    2    1    2    0    0  0.00000000000E+00  0.00000000000E+00  0.20482681673E+04  0.38964486225E+04  0.33146507180E+04 0.  0.
        3    1    3    3  502    0  0.25615429635E+03 -0.14623373318E+04  0.18901060384E+04  0.24034446825E+04  0.10100000352E+00 0. -1.
       -3    1    3    3    0  502 -0.25615429635E+03  0.14623373318E+04  0.15816212884E+03  0.14930039399E+04  0.10100000352E+00 0.  1.
</event>
<event>
 5   0  0.6085351E-07  0.3289289E+04  0.7818609E-02  0.8165626E-01
        1   -1    0    0  501    0  0.00000000000E+00  0.00000000000E+00  0.16853932870E+04  0.16853932870E+04  0.50400001928E-02 0. -1.
       -1   -1    0    0    0  501  0.00000000000E+00  0.00000000000E+00 -0.16048812787E+04  0.16048812788E+04  0.50400001928E-02 0.  1.
    10030    2    1    2    0    0  0.00000000000E+00  0.00000000000E+00  0.80512008211E+02  0.32902745657E+04  0.32892893662E+04 0.  0.
        1    1    3    3  502    0 -0.15056839716E+04 -0.46395048398E+03 -0.43160751225E+03  0.16335909275E+04  0.50400001928E-02 0.  1.
       -1    1    3    3    0  502  0.15056839716E+04  0.46395048398E+03  0.51211952047E+03  0.16566836382E+04  0.50400001928E-02 0. -1.
</event>
<event>
 5   0  0.5685000E-07  0.3302269E+04  0.7818609E-02  0.8162318E-01
       -3   -1    0    0    0  501  0.00000000000E+00  0.00000000000E+00  0.13915295748E+04  0.13915295784E+04  0.10100000352E+00 0. -1.
        3   -1    0    0  501    0  0.00000000000E+00  0.00000000000E+00 -0.19591712607E+04  0.19591712633E+04  0.10100000352E+00 0.  1.
    10030    2    1    2    0    0  0.00000000000E+00  0.00000000000E+00 -0.56764168596E+03  0.33507008418E+04  0.33022687727E+04 0.  0.
        4    1    3    3  502    0  0.12294445176E+04  0.30763236185E+03 -0.13576770726E+04  0.18572722305E+04  0.12699999809E+01 0.  1.
       -4    1    3    3    0  502 -0.12294445176E+04 -0.30763236185E+03  0.79003538660E+03  0.14934286113E+04  0.12699999809E+01 0. -1.
</event>
<event>
 5   0  0.6085351E-07  0.3307497E+04  0.7818609E-02  0.8160990E-01
        1   -1    0    0  501    0  0.00000000000E+00  0.00000000000E+00  0.20570805951E+04  0.20570805951E+04  0.50400001928E-02 0. -1.
       -1   -1    0    0    0  501  0.00000000000E+00  0.00000000000E+00 -0.13294977206E+04  0.13294977206E+04  0.50400001928E-02 0.  1.
    10030    2    1    2    0    0  0.00000000000E+00  0.00000000000E+00  0.72758287444E+03  0.33865783157E+04  0.33074969160E+04 0.  0.
        1    1    3    3  502    0 -0.14247445874E+04 -0.58528899081E+03 -0.25261891293E+03  0.15608576672E+04  0.50400001928E-02 0. -1.
       -1    1    3    3    0  502  0.14247445874E+04  0.58528899081E+03  0.98020178738E+03  0.18257206485E+04  0.50400001928E-02 0.  1.
</event>
<event>
 5   0  0.5988516E-07  0.3296449E+04  0.7818609E-02  0.8163799E-01
       -1   -1    0    0    0  501  0.00000000000E+00  0.00000000000E+00  0.13088961587E+04  0.13088961587E+04  0.50400001928E-02 0. -1.
        1   -1    0    0  501    0  0.00000000000E+00  0.00000000000E+00 -0.20755232922E+04  0.20755232922E+04  0.50400001928E-02 0.  1.
    10030    2    1    2    0    0  0.00000000000E+00  0.00000000000E+00 -0.76662713346E+03  0.33844194509E+04  0.32964492803E+04 0.  0.
        4    1    3    3  502    0  0.73584011121E+03  0.14740739389E+04 -0.43242529856E+03  0.17033343472E+04  0.12699999809E+01 0.  1.
       -4    1    3    3    0  502 -0.73584011121E+03 -0.14740739389E+04 -0.33420183491E+03  0.16810851037E+04  0.12699999809E+01 0. -1.
</event>
<event>
 5   0  0.5858859E-07  0.3141710E+04  0.7818609E-02  0.8204383E-01
       -1   -1    0    0    0  501  0.00000000000E+00  0.00000000000E+00  0.18242662748E+04  0.18242662748E+04  0.50400001928E-02 0.  1.
        1   -1    0    0  501    0  0.00000000000E+00  0.00000000000E+00 -0.13526454809E+04  0.13526454809E+04  0.50400001928E-02 0. -1.
    10030    2    1    2    0    0  0.00000000000E+00  0.00000000000E+00  0.47162079385E+03  0.31769117557E+04  0.31417100647E+04 0.  0.
        3    1    3    3  502    0  0.12679638175E+04 -0.81788758115E+03  0.67764223663E+03  0.16540469610E+04  0.10100000352E+00 0.  1.
       -3    1    3    3    0  502 -0.12679638175E+04  0.81788758115E+03 -0.20602144278E+03  0.15228647948E+04  0.10100000352E+00 0. -1.
</event>
<event>
 5   0  0.1696681E-06  0.3317629E+04  0.7818609E-02  0.8158424E-01
       -2   -1    0    0    0  501  0.00000000000E+00  0.00000000000E+00  0.15194587458E+04  0.15194587458E+04  0.25500000920E-02 0. -1.
        2   -1    0    0  501    0  0.00000000000E+00  0.00000000000E+00 -0.18109512717E+04  0.18109512717E+04  0.25500000920E-02 0.  1.
    10030    2    1    2    0    0  0.00000000000E+00  0.00000000000E+00 -0.29149252587E+03  0.33304100175E+04  0.33176291221E+04 0.  0.
        4    1    3    3  502    0 -0.13783074257E+04  0.67837308834E+03  0.48255848482E+03  0.16102129396E+04  0.12699999809E+01 0.  1.
       -4    1    3    3    0  502  0.13783074257E+04 -0.67837308834E+03 -0.77405101068E+03  0.17201970779E+04  0.12699999809E+01 0. -1.
</event>
<event>
 5   0  0.5985183E-07  0.3290615E+04  0.7818609E-02  0.8165288E-01
        1   -1    0    0  501    0  0.00000000000E+00  0.00000000000E+00  0.16394902585E+04  0.16394902585E+04  0.50400001928E-02 0.  1.
       -1   -1    0    0    0  501  0.00000000000E+00  0.00000000000E+00 -0.16511452261E+04  0.16511452261E+04  0.50400001928E-02 0. -1.
    10030    2    1    2    0    0  0.00000000000E+00  0.00000000000E+00 -0.11654967628E+02  0.32906354846E+04  0.32906148444E+04 0.  0.
        2    1    3    3  502    0  0.65292952747E+03  0.11094368937E+04 -0.10304652223E+04  0.16489468649E+04  0.25500000920E-02 0. -1.
       -2    1    3    3    0  502 -0.65292952747E+03 -0.11094368937E+04  0.10188102547E+04  0.16416886197E+04  0.25500000920E-02 0.  1.
</event>
<event>
 5   0  0.5858859E-07  0.3258254E+04  0.7818609E-02  0.8173600E-01
        1   -1    0    0  501    0  0.00000000000E+00  0.00000000000E+00  0.18176828925E+04  0.18176828925E+04  0.50400001928E-02 0. -1.
       -1   -1    0    0    0  501  0.00000000000E+00  0.00000000000E+00 -0.14601311973E+04  0.14601311973E+04  0.50400001928E-02 0.  1.
    10030    2    1    2    0    0  0.00000000000E+00  0.00000000000E+00  0.35755169519E+03  0.32778140899E+04  0.32582544396E+04 0.  0.
        3    1    3    3  502    0 -0.12698427972E+04 -0.22138177242E+03 -0.82347030185E+03  0.15295796701E+04  0.10100000352E+00 0.  1.
       -3    1    3    3    0  502  0.12698427972E+04  0.22138177242E+03  0.11810219970E+04  0.17482344198E+04  0.10100000352E+00 0. -1.
</event>
<event>
 5   0  0.1743810E-06  0.3345686E+04  0.7818609E-02  0.8151367E-01
       -2   -1    0    0    0  501  0.00000000000E+00  0.00000000000E+00  0.15265320885E+04  0.15265320885E+04  0.25500000920E-02 0. -1.
        2   -1    0    0  501    0  0.00000000000E+00  0.00000000000E+00 -0.18331769483E+04  0.18331769483E+04  0.25500000920E-02 0.  1.
    10030    2    1    2    0    0  0.00000000000E+00  0.00000000000E+00 -0.30664485984E+03  0.33597090369E+04  0.33456858403E+04 0.  0.
        5    1    3    3  502    0  0.52226586569E+03 -0.15856011320E+04 -0.26095733006E+03  0.16896784908E+04  0.46999998093E+01 0.  1.
       -5    1    3    3    0  502 -0.52226586569E+03  0.15856011320E+04 -0.45687529781E+02  0.16700305460E+04  0.46999998093E+01 0. -1.
</event>
<event>
 5   0  0.5985183E-07  0.3361026E+04  0.7818609E-02  0.8147539E-01
        1   -1    0    0  501    0  0.00000000000E+00  0.00000000000E+00  0.18543230724E+04  0.18543230724E+04  0.50400001928E-02 0.  1.
       -1   -1    0    0    0  501  0.00000000000E+00  0.00000000000E+00 -0.15229943498E+04  0.15229943498E+04  0.50400001928E-02 0. -1.
    10030    2    1    2    0    0  0.00000000000E+00  0.00000000000E+00  0.33132872254E+03  0.33773174222E+04  0.33610257732E+04 0.  0.
        2    1    3    3  502    0 -0.58625926173E+03 -0.13328471605E+04  0.10087438108E+04  0.17713682708E+04  0.25500000920E-02 0.  1.
       -2    1    3    3    0  502  0.58625926173E+03  0.13328471605E+04 -0.67741508824E+03  0.16059491514E+04  0.25500000920E-02 0. -1.
</event>
<event>
 5   0  0.6023446E-07  0.3274517E+04  0.7818609E-02  0.8169410E-01
        1   -1    0    0  501    0  0.00000000000E+00  0.00000000000E+00  0.24225400624E+04  0.24225400624E+04  0.50400001928E-02 0. -1.
       -1   -1    0    0    0  501  0.00000000000E+00  0.00000000000E+00 -0.11065305530E+04  0.11065305531E+04  0.50400001928E-02 0.  1.
    10030    2    1    2    0    0  0.00000000000E+00  0.00000000000E+00  0.13160095094E+04  0.35290706155E+04  0.32745165109E+04 0.  0.
        5    1    3    3  502    0  0.11224596464E+04 -0.33472541665E+03 -0.57488020045E+03  0.13047858434E+04  0.46999998093E+01 0.  1.
       -5    1    3    3    0  502 -0.11224596464E+04  0.33472541665E+03  0.18908897098E+04  0.22242847720E+04  0.46999998093E+01 0. -1.
</event>
<event>
 5   0  0.6023446E-07  0.3292456E+04  0.7818609E-02  0.8164818E-01
        1   -1    0    0  501    0  0.00000000000E+00  0.00000000000E+00  0.15583246170E+04  0.15583246170E+04  0.50400001928E-02 0. -1.
       -1   -1    0    0    0  501  0.00000000000E+00  0.00000000000E+00 -0.17390903399E+04  0.17390903399E+04  0.50400001928E-02 0.  1.
    10030    2    1    2    0    0  0.00000000000E+00  0.00000000000E+00 -0.18076572293E+03  0.32974149570E+04  0.32924564009E+04 0.  0.
        5    1    3    3  502    0 -0.97601526880E+03 -0.98835193599E+03 -0.97522908327E+03  0.16972151334E+04  0.46999998093E+01 0.  1.
       -5    1    3    3    0  502  0.97601526880E+03  0.98835193599E+03  0.79446336034E+03  0.16001998235E+04  0.46999998093E+01 0. -1.
</event>
<event>
 5   0  0.1784626E-06  0.3272499E+04  0.7818609E-02  0.8169928E-01
        2   -1    0    0  501    0  0.00000000000E+00  0.00000000000E+00  0.14723764112E+04  0.14723764112E+04  0.25500000920E-02 0. -1.
       -2   -1    0    0    0  501  0.00000000000E+00  0.00000000000E+00 -0.18183616837E+04  0.18183616837E+04  0.25500000920E-02 0.  1.
    10030    2    1    2    0    0  0.00000000000E+00  0.00000000000E+00 -0.34598527250E+03  0.32907380949E+04  0.32724992591E+04 0.  0.
        2    1    3    3  502    0  0.17268887821E+03  0.12245594734E+04  0.90440097620E+03  0.15320928426E+04  0.25500000920E-02 0. -1.
       -2    1    3    3    0  502 -0.17268887821E+03 -0.12245594734E+04 -0.12503862487E+04  0.17586452523E+04  0.25500000920E-02 0.  1.
</event>
<event>
 5   0  0.1784626E-06  0.3351294E+04  0.7818609E-02  0.8149965E-01
       -2   -1    0    0    0  501  0.00000000000E+00  0.00000000000E+00  0.20748601638E+04  0.20748601638E+04  0.25500000920E-02 0.  1.
        2   -1    0    0  501    0  0.00000000000E+00  0.00000000000E+00 -0.13532443354E+04  0.13532443354E+04  0.25500000920E-02 0. -1.
    10030    2    1    2    0    0  0.00000000000E+00  0.00000000000E+00  0.72161582837E+03  0.34281044993E+04  0.33512939373E+04 0.  0.
        2    1    3    3  502    0  0.39135392178E+03 -0.21359756642E+03 -0.12914562449E+04  0.13662507255E+04  0.25500000920E-02 0. -1.
       -2    1    3    3    0  502 -0.39135392178E+03  0.21359756642E+03  0.20130720732E+04  0.20618537738E+04  0.25500000920E-02 0.  1.
</event>
<event>
 5   0  0.1743810E-06  0.3299049E+04  0.7818609E-02  0.8163137E-01
       -2   -1    0    0    0  501  0.00000000000E+00  0.00000000000E+00  0.10597179944E+04  0.10597179944E+04  0.25500000920E-02 0. -1.
        2   -1    0    0  501    0  0.00000000000E+00  0.00000000000E+00 -0.25675998946E+04  0.25675998946E+04  0.25500000920E-02 0.  1.
    10030    2    1    2    0    0  0.00000000000E+00  0.00000000000E+00 -0.15078819002E+04  0.36273178890E+04  0.32990494454E+04 0.  0.
        5    1    3    3  502    0  0.34542548856E+03  0.14364764193E+04 -0.15605051886E+04  0.21489490001E+04  0.46999998093E+01 0.  1.
       -5    1    3    3    0  502 -0.34542548856E+03 -0.14364764193E+04  0.52623288371E+02  0.14783688890E+04  0.46999998093E+01 0. -1.
</event>
<event>
 5   0  0.1696681E-06  0.3262314E+04  0.7818609E-02  0.8172551E-01
        2   -1    0    0  501    0  0.00000000000E+00  0.00000000000E+00  0.18983428640E+04  0.18983428640E+04  0.25500000920E-02 0.  1.
       -2   -1    0    0    0  501  0.00000000000E+00  0.00000000000E+00 -0.14015765453E+04  0.14015765453E+04  0.25500000920E-02 0. -1.
    10030    2    1    2    0    0  0.00000000000E+00  0.00000000000E+00  0.49676631872E+03  0.32999194093E+04  0.32623138004E+04 0.  0.
        4    1    3    3  502    0  0.88950733434E+03  0.12081757208E+04  0.89588653446E+03  0.17474341663E+04  0.12699999809E+01 0.  1.
       -4    1    3    3    0  502 -0.88950733434E+03 -0.12081757208E+04 -0.39912021574E+03  0.15524852430E+04  0.12699999809E+01 0. -1.
</event>
<event>
 5   0  0.6085351E-07  0.3349139E+04  0.7818609E-02  0.8150503E-01
       -1   -1    0    0    0  501  0.00000000000E+00  0.00000000000E+00  0.16539875202E+04  0.16539875203E+04  0.50400001928E-02 0.  1.
        1   -1    0    0  501    0  0.00000000000E+00  0.00000000000E+00 -0.16954080473E+04  0.16954080473E+04  0.50400001928E-02 0. -1.
    10030    2    1    2    0    0  0.00000000000E+00  0.00000000000E+00 -0.41420527006E+02  0.33493955675E+04  0.33491394428E+04 0.  0.
        1    1    3    3  502    0  0.49773285463E+03 -0.68821283868E+03  0.14225940782E+04  0.16568490629E+04  0.50400001928E-02 0.  1.
       -1    1    3    3    0  502 -0.49773285463E+03  0.68821283868E+03 -0.14640146052E+04  0.16925465046E+04  0.50400001928E-02 0. -1.
</event>
<event>
 5   0  0.1696681E-06  0.3291356E+04  0.7818609E-02  0.8165098E-01
       -2   -1    0    0    0  501  0.00000000000E+00  0.00000000000E+00  0.16327437523E+04  0.16327437523E+04  0.25500000920E-02 0.  1.
        2   -1    0    0  501    0  0.00000000000E+00  0.00000000000E+00 -0.16587144817E+04  0.16587144817E+04  0.25500000920E-02 0. -1.
    10030    2    1    2    0    0  0.00000000000E+00  0.00000000000E+00 -0.25970729318E+02  0.32914582340E+04  0.32913557735E+04 0.  0.
        4    1    3    3  502    0  0.97009944648E+03 -0.39388837565E+03 -0.12826756700E+04  0.16557474070E+04  0.12699999809E+01 0. -1.
       -4    1    3    3    0  502 -0.97009944648E+03  0.39388837565E+03  0.12567049407E+04  0.16357108270E+04  0.12699999809E+01 0.  1.
</event>
<event>
 5   0  0.5988516E-07  0.3463425E+04  0.7818609E-02  0.8122513E-01
        1   -1    0    0  501    0  0.00000000000E+00  0.00000000000E+00  0.15956155675E+04  0.15956155675E+04  0.50400001928E-02 0. -1.
       -1   -1    0    0    0  501  0.00000000000E+00  0.00000000000E+00 -0.18794178979E+04  0.18794178979E+04  0.50400001928E-02 0.  1.
    10030    2    1    2    0    0  0.00000000000E+00  0.00000000000E+00 -0.28380233044E+03  0.34750334654E+04  0.34634251577E+04 0.  0.
        4    1    3    3  502    0 -0.16767302466E+01  0.11828199105E+04 -0.14109570545E+04  0.18411591932E+04  0.12699999809E+01 0.  1.
       -4    1    3    3    0  502  0.16767302466E+01 -0.11828199105E+04  0.11271547241E+04  0.16338742721E+04  0.12699999809E+01 0. -1.
</event>
<event>
 5   0  0.1728937E-06  0.3277228E+04  0.7818609E-02  0.8168714E-01
       -2   -1    0    0    0  501  0.00000000000E+00  0.00000000000E+00  0.13724378192E+04  0.13724378192E+04  0.25500000920E-02 0.  1.
        2   -1    0    0  501    0  0.00000000000E+00  0.00000000000E+00 -0.19564137835E+04  0.19564137835E+04  0.25500000920E-02 0. -1.
    10030    2    1    2    0    0  0.00000000000E+00  0.00000000000E+00 -0.58397596433E+03  0.33288516027E+04  0.32772282596E+04 0.  0.
        1    1    3    3  502    0  0.12051107988E+04 -0.52234626354E+03  0.70319960325E+03  0.14898413803E+04  0.50400001928E-02 0.  1.
       -1    1    3    3    0  502 -0.12051107988E+04  0.52234626354E+03 -0.12871755676E+04  0.18390102224E+04  0.50400001928E-02 0. -1.
</event>
<event>
 5   0  0.5858859E-07  0.3336812E+04  0.7818609E-02  0.8153591E-01
       -1   -1    0    0    0  501  0.00000000000E+00  0.00000000000E+00  0.15872215483E+04  0.15872215483E+04  0.50400001928E-02 0.  1.
        1   -1    0    0  501    0  0.00000000000E+00  0.00000000000E+00 -0.17537432829E+04  0.17537432829E+04  0.50400001928E-02 0. -1.
    10030    2    1    2    0    0  0.00000000000E+00  0.00000000000E+00 -0.16652173464E+03  0.33409648312E+04  0.33368123285E+04 0.  0.
        3    1    3    3  502    0  0.74981310989E+03 -0.13654477651E+04 -0.68142530273E+03  0.17002963719E+04  0.10100000352E+00 0. -1.
       -3    1    3    3    0  502 -0.74981310989E+03  0.13654477651E+04  0.51490356809E+03  0.16406684594E+04  0.10100000352E+00 0.  1.
</event>
<event>
 5   0  0.1832626E-06  0.3302103E+04  0.7818609E-02  0.8162360E-01
        2   -1    0    0  501    0  0.00000000000E+00  0.00000000000E+00  0.13479212542E+04  0.13479212542E+04  0.25500000920E-02 0. -1.
       -2   -1    0    0    0  501  0.00000000000E+00  0.00000000000E+00 -0.20223520135E+04  0.20223520135E+04  0.25500000920E-02 0.  1.
    10030    2    1    2    0    0  0.00000000000E+00  0.00000000000E+00 -0.67443075934E+03  0.33702732677E+04  0.33021031253E+04 0.  0.
        3    1    3    3  502    0  0.24367348621E+03  0.16065812800E+04 -0.63564015337E+03  0.17448548913E+04  0.10100000352E+00 0.  1.
       -3    1    3    3    0  502 -0.24367348621E+03 -0.16065812800E+04 -0.38790605977E+02  0.16254183764E+04  0.10100000352E+00 0. -1.
</event>
<event>
 5   0  0.6023446E-07  0.3309505E+04  0.7818609E-02  0.8160481E-01
       -1   -1    0    0    0  501  0.00000000000E+00  0.00000000000E+00  0.10985735243E+04  0.10985735243E+04  0.50400001928E-02 0. -1.
        1   -1    0    0  501    0  0.00000000000E+00  0.00000000000E+00 -0.24925099332E+04  0.24925099332E+04  0.50400001928E-02 0.  1.
    10030    2    1    2    0    0  0.00000000000E+00  0.00000000000E+00 -0.13939364089E+04  0.35910834575E+04  0.33095047495E+04 0.  0.
        5    1    3    3  502    0 -0.86006315167E+02 -0.10587069416E+04  0.67981458204E+03  0.12611214971E+04  0.46999998093E+01 0. -1.
       -5    1    3    3    0  502  0.86006315167E+02  0.10587069416E+04 -0.20737509910E+04  0.23299619604E+04  0.46999998093E+01 0.  1.
</event>
<event>
 5   0  0.1728937E-06  0.3289632E+04  0.7818609E-02  0.8165539E-01
       -2   -1    0    0    0  501  0.00000000000E+00  0.00000000000E+00  0.11955897043E+04  0.11955897043E+04  0.25500000920E-02 0.  1.
        2   -1    0    0  501    0  0.00000000000E+00  0.00000000000E+00 -0.22628330346E+04  0.22628330346E+04  0.25500000920E-02 0. -1.
    10030    2    1    2    0    0  0.00000000000E+00  0.00000000000E+00 -0.10672433304E+04  0.34584227389E+04  0.32896321245E+04 0.  0.
        1    1    3    3  502    0 -0.15678309223E+04  0.18036688165E+03 -0.46383071325E+02  0.15788531921E+04  0.50400001928E-02 0.  1.
       -1    1    3    3    0  502  0.15678309223E+04 -0.18036688165E+03 -0.10208602590E+04  0.18795695468E+04  0.50400001928E-02 0. -1.
</event>
<event>
 5   0  0.1832626E-06  0.3361281E+04  0.7818609E-02  0.8147475E-01
        2   -1    0    0  501    0  0.00000000000E+00  0.00000000000E+00  0.18228685074E+04  0.18228685074E+04  0.25500000920E-02 0. -1.
       -2   -1    0    0    0  501  0.00000000000E+00  0.00000000000E+00 -0.15495101109E+04  0.15495101109E+04  0.25500000920E-02 0.  1.
    10030    2    1    2    0    0  0.00000000000E+00  0.00000000000E+00  0.27335839651E+03  0.33723786184E+04  0.33612814123E+04 0.  0.
        3    1    3    3  502    0 -0.76952998699E+03  0.89941394137E+03 -0.10603361365E+04  0.15891615939E+04  0.10100000352E+00 0.  1.
       -3    1    3    3    0  502  0.76952998699E+03 -0.89941394137E+03  0.13336945330E+04  0.17832170245E+04  0.10100000352E+00 0. -1.
</event>
<event>
 5   0  0.5685000E-07  0.3282610E+04  0.7818609E-02  0.8167334E-01
        3   -1    0    0  501    0  0.00000000000E+00  0.00000000000E+00  0.16399610523E+04  0.16399610554E+04  0.10100000352E+00 0.  1.
       -3   -1    0    0    0  501  0.00000000000E+00  0.00000000000E+00 -0.16426502921E+04  0.16426502952E+04  0.10100000352E+00 0. -1.
    10030    2    1    2    0    0  0.00000000000E+00  0.00000000000E+00 -0.26892398425E+01  0.32826113506E+04  0.32826102490E+04 0.  0.
        4    1    3    3  502    0 -0.68730897186E+02  0.11174241689E+04  0.11988725089E+04  0.16403224118E+04  0.12699999809E+01 0.  1.
       -4    1    3    3    0  502  0.68730897186E+02 -0.11174241689E+04 -0.12015617487E+04  0.16422889387E+04  0.12699999809E+01 0. -1.
</event>
<event>
 5   0  0.5988516E-07  0.3296557E+04  0.7818609E-02  0.8163772E-01
       -1   -1    0    0    0  501  0.00000000000E+00  0.00000000000E+00  0.29157398348E+04  0.29157398348E+04  0.50400001928E-02 0. -1.
        1   -1    0    0  501    0  0.00000000000E+00  0.00000000000E+00 -0.93177768657E+03  0.93177768658E+03  0.50400001928E-02 0.  1.
    10030    2    1    2    0    0  0.00000000000E+00  0.00000000000E+00  0.19839621483E+04  0.38475175214E+04  0.32965565780E+04 0.  0.
        4    1    3    3  502    0  0.88206102619E+03 -0.59881408282E+03  0.24591409467E+04  0.26802958359E+04  0.12699999809E+01 0. -1.
       -4    1    3    3    0  502 -0.88206102619E+03  0.59881408282E+03 -0.47517879839E+03  0.11672216855E+04  0.12699999809E+01 0.  1.
</event>
<event>
 5   0  0.5985183E-07  0.3327949E+04  0.7818609E-02  0.8155820E-01
       -1   -1    0    0    0  501  0.00000000000E+00  0.00000000000E+00  0.97227061922E+03  0.97227061924E+03  0.50400001928E-02 0.  1.
        1   -1    0    0  501    0  0.00000000000E+00  0.00000000000E+00 -0.28477783685E+04  0.28477783685E+04  0.50400001928E-02 0. -1.
    10030    2    1    2    0    0  0.00000000000E+00  0.00000000000E+00 -0.18755077492E+04  0.38200489877E+04  0.33279490608E+04 0.  0.
        2    1    3    3  502    0  0.15577949634E+04 -0.31403603554E+03 -0.37136759683E+03  0.16319490408E+04  0.25500000920E-02 0.  1.
       -2    1    3    3    0  502 -0.15577949634E+04  0.31403603554E+03 -0.15041401524E+04  0.21880999469E+04  0.25500000920E-02 0. -1.
</event>
<event>
 5   0  0.1696681E-06  0.3270646E+04  0.7818609E-02  0.8170405E-01
        2   -1    0    0  501    0  0.00000000000E+00  0.00000000000E+00  0.16705455572E+04  0.16705455572E+04  0.25500000920E-02 0. -1.
       -2   -1    0    0    0  501  0.00000000000E+00  0.00000000000E+00 -0.16008435286E+04  0.16008435286E+04  0.25500000920E-02 0.  1.
    10030    2    1    2    0    0  0.00000000000E+00  0.00000000000E+00  0.69702028618E+02  0.32713890857E+04  0.32706464464E+04 0.  0.
        4    1    3    3  502    0  0.61407758363E+02  0.86300882314E+03  0.14228711536E+04  0.16652684691E+04  0.12699999809E+01 0. -1.
       -4    1    3    3    0  502 -0.61407758363E+02 -0.86300882314E+03 -0.13531691249E+04  0.16061206166E+04  0.12699999809E+01 0.  1.
</event>
<event>
 5   0  0.1728937E-06  0.3314309E+04  0.7818609E-02  0.8159264E-01
       -2   -1    0    0    0  501  0.00000000000E+00  0.00000000000E+00  0.17432942268E+04  0.17432942268E+04  0.25500000920E-02 0. -1.
        2   -1    0    0  501    0  0.00000000000E+00  0.00000000000E+00 -0.15752711554E+04  0.15752711554E+04  0.25500000920E-02 0.  1.
    10030    2    1    2    0    0  0.00000000000E+00  0.00000000000E+00  0.16802307147E+03  0.33185653822E+04  0.33143090446E+04 0.  0.
        1    1    3    3  502    0  0.98663071785E+03  0.12649813776E+04  0.49992800151E+03  0.16803410564E+04  0.50400001928E-02 0.  1.
       -1    1    3    3    0  502 -0.98663071785E+03 -0.12649813776E+04 -0.33190493004E+03  0.16382243258E+04  0.50400001928E-02 0. -1.
</event>
<event>
 5   0  0.6085351E-07  0.3238093E+04  0.7818609E-02  0.8178829E-01
       -1   -1    0    0    0  501  0.00000000000E+00  0.00000000000E+00  0.20080720123E+04  0.20080720123E+04  0.50400001928E-02 0.  1.
        1   -1    0    0  501    0  0.00000000000E+00  0.00000000000E+00 -0.13053872967E+04  0.13053872967E+04  0.50400001928E-02 0. -1.
    10030    2    1    2    0    0  0.00000000000E+00  0.00000000000E+00  0.70268471559E+03  0.33134593089E+04  0.32380930781E+04 0.  0.
        1    1    3    3  502    0 -0.80597429102E+03 -0.10406150508E+04 -0.61338253918E+03  0.14521406203E+04  0.50400001928E-02 0.  1.
       -1    1    3    3    0  502  0.80597429102E+03  0.10406150508E+04  0.13160672548E+04  0.18613186887E+04  0.50400001928E-02 0. -1.
</event>
<event>
 5   0  0.1743810E-06  0.3299424E+04  0.7818609E-02  0.8163042E-01
       -2   -1    0    0    0  501  0.00000000000E+00  0.00000000000E+00  0.13544292786E+04  0.13544292786E+04  0.25500000920E-02 0.  1.
        2   -1    0    0  501    0  0.00000000000E+00  0.00000000000E+00 -0.20093699385E+04  0.20093699385E+04  0.25500000920E-02 0. -1.
    10030    2    1    2    0    0  0.00000000000E+00  0.00000000000E+00 -0.65494065987E+03  0.33637992171E+04  0.32994238747E+04 0.  0.
        5    1    3    3  502    0  0.29517934167E+03  0.15124490320E+04 -0.92793939674E+03  0.17988125339E+04  0.46999998093E+01 0. -1.
       -5    1    3    3    0  502 -0.29517934167E+03 -0.15124490320E+04  0.27299873687E+03  0.15649866832E+04  0.46999998093E+01 0.  1.
</event>
<event>
 5   0  0.5988516E-07  0.3415999E+04  0.7818609E-02  0.8133991E-01
       -1   -1    0    0    0  501  0.00000000000E+00  0.00000000000E+00  0.13874535066E+04  0.13874535066E+04  0.50400001928E-02 0. -1.
        1   -1    0    0  501    0  0.00000000000E+00  0.00000000000E+00 -0.21026018894E+04  0.21026018894E+04  0.50400001928E-02 0.  1.
    10030    2    1    2    0    0  0.00000000000E+00  0.00000000000E+00 -0.71514838276E+03  0.34900553960E+04  0.34159990424E+04 0.  0.
        4    1    3    3  502    0  0.47405594885E+03  0.15885165995E+03 -0.20261668877E+04  0.20869395684E+04  0.12699999809E+01 0.  1.
       -4    1    3    3    0  502 -0.47405594885E+03 -0.15885165995E+03  0.13110185049E+04  0.14031158276E+04  0.12699999809E+01 0. -1.
</event>
<event>
 5   0  0.5858859E-07  0.3278964E+04  0.7818609E-02  0.8168269E-01
        1   -1    0    0  501    0  0.00000000000E+00  0.00000000000E+00  0.13454935429E+04  0.13454935429E+04  0.50400001928E-02 0.  1.
       -1   -1    0    0    0  501  0.00000000000E+00  0.00000000000E+00 -0.19977067142E+04  0.19977067142E+04  0.50400001928E-02 0. -1.
    10030    2    1    2    0    0  0.00000000000E+00  0.00000000000E+00 -0.65221317128E+03  0.33432002571E+04  0.32789641563E+04 0.  0.
        3    1    3    3  502    0 -0.12882231622E+04 -0.10051833232E+04 -0.46285735687E+03  0.16982783552E+04  0.10100000352E+00 0. -1.
       -3    1    3    3    0  502  0.12882231622E+04  0.10051833232E+04 -0.18935581441E+03  0.16449219019E+04  0.10100000352E+00 0.  1.
</event>
<event>
 5   0  0.5985183E-07  0.3295073E+04  0.7818609E-02  0.8164150E-01
        1   -1    0    0  501    0  0.00000000000E+00  0.00000000000E+00  0.17928343272E+04  0.17928343272E+04  0.50400001928E-02 0. -1.
       -1   -1    0    0    0  501  0.00000000000E+00  0.00000000000E+00 -0.15140141323E+04  0.15140141323E+04  0.50400001928E-02 0.  1.
    10030    2    1    2    0    0  0.00000000000E+00  0.00000000000E+00  0.27882019482E+03  0.33068484595E+04  0.32950729936E+04 0.  0.
        2    1    3    3  502    0  0.55031204152E+03  0.11534492285E+04  0.11828796601E+04  0.17414053968E+04  0.25500000920E-02 0. -1.
       -2    1    3    3    0  502 -0.55031204152E+03 -0.11534492285E+04 -0.90405946531E+03  0.15654430627E+04  0.25500000920E-02 0.  1.
</event>
<event>
 5   0  0.1696681E-06  0.3263819E+04  0.7818609E-02  0.8172163E-01
       -2   -1    0    0    0  501  0.00000000000E+00  0.00000000000E+00  0.13142446390E+04  0.13142446390E+04  0.25500000920E-02 0. -1.
        2   -1    0    0  501    0  0.00000000000E+00  0.00000000000E+00 -0.20263565631E+04  0.20263565631E+04  0.25500000920E-02 0.  1.
    10030    2    1    2    0    0  0.00000000000E+00  0.00000000000E+00 -0.71211192410E+03  0.33406012021E+04  0.32638187754E+04 0.  0.
        4    1    3    3  502    0  0.10811709796E+04  0.12112783564E+03 -0.16010280176E+04  0.19356897907E+04  0.12699999809E+01 0.  1.
       -4    1    3    3    0  502 -0.10811709796E+04 -0.12112783564E+03  0.88891609347E+03  0.14049114114E+04  0.12699999809E+01 0. -1.
</event>
<event>
 5   0  0.6085351E-07  0.3254353E+04  0.7818609E-02  0.8174608E-01
        1   -1    0    0  501    0  0.00000000000E+00  0.00000000000E+00  0.22614614076E+04  0.22614614076E+04  0.50400001928E-02 0. -1.
       -1   -1    0    0    0  501  0.00000000000E+00  0.00000000000E+00 -0.11707931547E+04  0.11707931547E+04  0.50400001928E-02 0.  1.
    10030    2    1    2    0    0  0.00000000000E+00  0.00000000000E+00  0.10906682529E+04  0.34322545623E+04  0.32543531066E+04 0.  0.
        1    1    3    3  502    0 -0.58653133169E+03  0.95069322756E+03  0.17931720866E+04  0.21126530117E+04  0.50400001928E-02 0. -1.
       -1    1    3    3    0  502  0.58653133169E+03 -0.95069322756E+03 -0.70250383365E+03  0.13196015506E+04  0.50400001928E-02 0.  1.
</event>
<event>
 5   0  0.5858859E-07  0.3324587E+04  0.7818609E-02  0.8156667E-01
       -1   -1    0    0    0  501  0.00000000000E+00  0.00000000000E+00  0.11441905641E+04  0.11441905642E+04  0.50400001928E-02 0.  1.
        1   -1    0    0  501    0  0.00000000000E+00  0.00000000000E+00 -0.24149995644E+04  0.24149995644E+04  0.50400001928E-02 0. -1.
    10030    2    1    2    0    0  0.00000000000E+00  0.00000000000E+00 -0.12708090002E+04  0.35591901286E+04  0.33245870204E+04 0.  0.
        3    1    3    3  502    0 -0.29007456993E+01  0.49231681623E+03 -0.23351571673E+04  0.23864918328E+04  0.10100000352E+00 0. -1.
       -3    1    3    3    0  502  0.29007456993E+01 -0.49231681623E+03  0.10643481671E+04  0.11726982957E+04  0.10100000352E+00 0.  1.
</event>
<event>
 5   0  0.1784626E-06  0.3535895E+04  0.7818609E-02  0.8105336E-01
        2   -1    0    0  501    0  0.00000000000E+00  0.00000000000E+00  0.19179599498E+04  0.19179599498E+04  0.25500000920E-02 0.  1.
       -2   -1    0    0    0  501  0.00000000000E+00  0.00000000000E+00 -0.16296682219E+04  0.16296682219E+04  0.25500000920E-02 0. -1.
    10030    2    1    2    0    0  0.00000000000E+00  0.00000000000E+00  0.28829172785E+03  0.35476281717E+04  0.35358950103E+04 0.  0.
        2    1    3    3  502    0  0.80055201637E+03 -0.10026318571E+04  0.13645225458E+04  0.18729858381E+04  0.25500000920E-02 0.  1.
       -2    1    3    3    0  502 -0.80055201637E+03  0.10026318571E+04 -0.10762308180E+04  0.16746423335E+04  0.25500000920E-02 0. -1.
</event>
<event>
 5   0  0.1696681E-06  0.3234745E+04  0.7818609E-02  0.8179701E-01
       -2   -1    0    0    0  501  0.00000000000E+00  0.00000000000E+00  0.14875149571E+04  0.14875149571E+04  0.25500000920E-02 0. -1.
        2   -1    0    0  501    0  0.00000000000E+00  0.00000000000E+00 -0.17585664892E+04  0.17585664892E+04  0.25500000920E-02 0.  1.
    10030    2    1    2    0    0  0.00000000000E+00  0.00000000000E+00 -0.27105153213E+03  0.32460814463E+04  0.32347450940E+04 0.  0.
        4    1    3    3  502    0  0.26318446887E+02 -0.15704540994E+04  0.25166786098E+03  0.15907096102E+04  0.12699999809E+01 0. -1.
       -4    1    3    3    0  502 -0.26318446887E+02  0.15704540994E+04 -0.52271939311E+03  0.16553718361E+04  0.12699999809E+01 0.  1.
</event>
<event>
 5   0  0.6023446E-07  0.3297781E+04  0.7818609E-02  0.8163460E-01
       -1   -1    0    0    0  501  0.00000000000E+00  0.00000000000E+00  0.96544450545E+03  0.96544450546E+03  0.50400001928E-02 0.  1.
        1   -1    0    0  501    0  0.00000000000E+00  0.00000000000E+00 -0.28161534675E+04  0.28161534675E+04  0.50400001928E-02 0. -1.
    10030    2    1    2    0    0  0.00000000000E+00  0.00000000000E+00 -0.18507089620E+04  0.37815979730E+04  0.32977810065E+04 0.  0.
        5    1    3    3  502    0  0.11247628285E+04 -0.38603719266E+03  0.38445808550E+03  0.12497784780E+04  0.46999998093E+01 0.  1.
       -5    1    3    3    0  502 -0.11247628285E+04  0.38603719266E+03 -0.22351670475E+04  0.25318194949E+04  0.46999998093E+01 0. -1.
</event>
<event>
 5   0  0.1696681E-06  0.3228276E+04  0.7818609E-02  0.8181389E-01
       -2   -1    0    0    0  501  0.00000000000E+00  0.00000000000E+00  0.11791236017E+04  0.11791236017E+04  0.25500000920E-02 0. -1.
        2   -1    0    0  501    0  0.00000000000E+00  0.00000000000E+00 -0.22096420957E+04  0.22096420957E+04  0.25500000920E-02 0.  1.
    10030    2    1    2    0    0  0.00000000000E+00  0.00000000000E+00 -0.10305184939E+04  0.33887656974E+04  0.32282757915E+04 0.  0.
        4    1    3    3  502    0 -0.71622625735E+03  0.14267699011E+04 -0.76540658022E+03  0.17704522723E+04  0.12699999809E+01 0.  1.
       -4    1    3    3    0  502  0.71622625735E+03 -0.14267699011E+04 -0.26511191371E+03  0.16183134252E+04  0.12699999809E+01 0. -1.
</event>
<event>
 5   0  0.5985183E-07  0.3316882E+04  0.7818609E-02  0.8158613E-01
       -1   -1    0    0    0  501  0.00000000000E+00  0.00000000000E+00  0.22117686668E+04  0.22117686668E+04  0.50400001928E-02 0. -1.
        1   -1    0    0  501    0  0.00000000000E+00  0.00000000000E+00 -0.12435417196E+04  0.12435417196E+04  0.50400001928E-02 0.  1.
    10030    2    1    2    0    0  0.00000000000E+00  0.00000000000E+00  0.96822694716E+03  0.34553103864E+04  0.33168820367E+04 0.  0.
        2    1    3    3  502    0 -0.86510614540E+03 -0.36447692468E+03  0.19083495018E+04  0.21267463160E+04  0.25500000920E-02 0. -1.
       -2    1    3    3    0  502  0.86510614540E+03  0.36447692468E+03 -0.94012255465E+03  0.13285640704E+04  0.25500000920E-02 0.  1.
</event>
<event>
 5   0  0.1743810E-06  0.3301192E+04  0.7818609E-02  0.8162592E-01
       -2   -1    0    0    0  501  0.00000000000E+00  0.00000000000E+00  0.11604027658E+04  0.11604027658E+04  0.25500000920E-02 0.  1.
        2   -1    0    0  501    0  0.00000000000E+00  0.00000000000E+00 -0.23478633439E+04  0.23478633439E+04  0.25500000920E-02 0. -1.
    10030    2    1    2    0    0  0.00000000000E+00  0.00000000000E+00 -0.11874605781E+04  0.35082661097E+04  0.33011919774E+04 0.  0.
        5    1    3    3  502    0 -0.16220849555E+04  0.63258547900E+02 -0.27618327429E+03  0.16466513103E+04  0.46999998093E+01 0.  1.
       -5    1    3    3    0  502  0.16220849555E+04 -0.63258547900E+02 -0.91127730386E+03  0.18616147994E+04  0.46999998093E+01 0. -1.
</event>
<event>
 5   0  0.5988516E-07  0.3336157E+04  0.7818609E-02  0.8153756E-01
       -1   -1    0    0    0  501  0.00000000000E+00  0.00000000000E+00  0.17679978164E+04  0.17679978164E+04  0.50400001928E-02 0. -1.
        1   -1    0    0  501    0  0.00000000000E+00  0.00000000000E+00 -0.15738058463E+04  0.15738058463E+04  0.50400001928E-02 0.  1.
    10030    2    1    2    0    0  0.00000000000E+00  0.00000000000E+00  0.19419197013E+03  0.33418036628E+04  0.33361566509E+04 0.  0.
        4    1    3    3  502    0 -0.77455676773E+03 -0.72234464765E+03  0.13879835550E+04  0.17459152151E+04  0.12699999809E+01 0. -1.
       -4    1    3    3    0  502  0.77455676773E+03  0.72234464765E+03 -0.11937915849E+04  0.15958884477E+04  0.12699999809E+01 0.  1.
</event>
<event>
 5   0  0.1832626E-06  0.3258114E+04  0.7818609E-02  0.8173636E-01
       -2   -1    0    0    0  501  0.00000000000E+00  0.00000000000E+00  0.18671304154E+04  0.18671304154E+04  0.25500000920E-02 0.  1.
        2   -1    0    0  501    0  0.00000000000E+00  0.00000000000E+00 -0.14213400820E+04  0.14213400820E+04  0.25500000920E-02 0. -1.
    10030    2    1    2    0    0  0.00000000000E+00  0.00000000000E+00  0.44579033339E+03  0.32884704974E+04  0.32581143613E+04 0.  0.
        3    1    3    3  502    0  0.11198531815E+04 -0.10787663218E+04  0.71323981775E+03  0.17107071558E+04  0.10100000352E+00 0.  1.
       -3    1    3    3    0  502 -0.11198531815E+04  0.10787663218E+04 -0.26744948436E+03  0.15777633416E+04  0.10100000352E+00 0. -1.
</event>
<event>
 5   0  0.5985183E-07  0.3298867E+04  0.7818609E-02  0.8163184E-01
       -1   -1    0    0    0  501  0.00000000000E+00  0.00000000000E+00  0.16603512262E+04  0.16603512262E+04  0.50400001928E-02 0. -1.
        1   -1    0    0  501    0  0.00000000000E+00  0.00000000000E+00 -0.16385878593E+04  0.16385878593E+04  0.50400001928E-02 0.  1.
    10030    2    1    2    0    0  0.00000000000E+00  0.00000000000E+00  0.21763366897E+02  0.32989390855E+04  0.32988672973E+04 0.  0.
        2    1    3    3  502    0  0.15038792792E+04 -0.53981799437E+03  0.42024985662E+03  0.16521701776E+04  0.25500000920E-02 0. -1.
       -2    1    3    3    0  502 -0.15038792792E+04  0.53981799437E+03 -0.39848648972E+03  0.16467689079E+04  0.25500000920E-02 0.  1.
</event>
<event>
 5   0  0.1784626E-06  0.3241485E+04  0.7818609E-02  0.8177946E-01
        2   -1    0    0  501    0  0.00000000000E+00  0.00000000000E+00  0.16583030486E+04  0.16583030486E+04  0.25500000920E-02 0.  1.
       -2   -1    0    0    0  501  0.00000000000E+00  0.00000000000E+00 -0.15840328576E+04  0.15840328576E+04  0.25500000920E-02 0. -1.
    10030    2    1    2    0    0  0.00000000000E+00  0.00000000000E+00  0.74270191031E+02  0.32423359062E+04  0.32414851638E+04 0.  0.
        2    1    3    3  502    0 -0.14634167564E+04 -0.61788673843E+03 -0.28456071234E+03  0.16137990654E+04  0.25500000920E-02 0.  1.
       -2    1    3    3    0  502  0.14634167564E+04  0.61788673843E+03  0.35883090337E+03  0.16285368408E+04  0.25500000920E-02 0. -1.
</event>
<event>
 5   0  0.5685000E-07  0.3336347E+04  0.7818609E-02  0.8153708E-01
        3   -1    0    0  501    0  0.00000000000E+00  0.00000000000E+00  0.13807721670E+04  0.13807721707E+04  0.10100000352E+00 0.  1.
       -3   -1    0    0    0  501  0.00000000000E+00  0.00000000000E+00 -0.20153962007E+04  0.20153962032E+04  0.10100000352E+00 0. -1.
    10030    2    1    2    0    0  0.00000000000E+00  0.00000000000E+00 -0.63462403369E+03  0.33961683739E+04  0.33363470982E+04 0.  0.
        5    1    3    3  502    0  0.17559949597E+03  0.16577719079E+04 -0.37954759158E+03  0.17097138198E+04  0.46999998093E+01 0.  1.
       -5    1    3    3    0  502 -0.17559949597E+03 -0.16577719079E+04 -0.25507644211E+03  0.16864545540E+04  0.46999998093E+01 0. -1.
</event>
<event>
 5   0  0.1696681E-06  0.3338461E+04  0.7818609E-02  0.8153177E-01
       -2   -1    0    0    0  501  0.00000000000E+00  0.00000000000E+00  0.14708411640E+04  0.14708411640E+04  0.25500000920E-02 0.  1.
        2   -1    0    0  501    0  0.00000000000E+00  0.00000000000E+00 -0.18943784490E+04  0.18943784490E+04  0.25500000920E-02 0. -1.
    10030    2    1    2    0    0  0.00000000000E+00  0.00000000000E+00 -0.42353728504E+03  0.33652196129E+04  0.33384606051E+04 0.  0.
        4    1    3    3  502    0 -0.77258958662E+03  0.57655892378E+03  0.11618768518E+04  0.15097265625E+04  0.12699999809E+01 0.  1.
       -4    1    3    3    0  502  0.77258958662E+03 -0.57655892378E+03 -0.15854141368E+04  0.18554930504E+04  0.12699999809E+01 0. -1.
</event>
<event>
 5   0  0.1743810E-06  0.3298478E+04  0.7818609E-02  0.8163283E-01
        2   -1    0    0  501    0  0.00000000000E+00  0.00000000000E+00  0.15659230331E+04  0.15659230331E+04  0.25500000920E-02 0.  1.
       -2   -1    0    0    0  501  0.00000000000E+00  0.00000000000E+00 -0.17369882241E+04  0.17369882241E+04  0.25500000920E-02 0. -1.
    10030    2    1    2    0    0  0.00000000000E+00  0.00000000000E+00 -0.17106519105E+03  0.33029112572E+04  0.32984783573E+04 0.  0.
        5    1    3    3  502    0 -0.18581602429E+03 -0.73970791195E+03  0.13787158793E+04  0.15756189120E+04  0.46999998093E+01 0.  1.
       -5    1    3    3    0  502  0.18581602429E+03  0.73970791195E+03 -0.15497810704E+04  0.17272923453E+04  0.46999998093E+01 0. -1.
</event>
<event>
 5   0  0.5988516E-07  0.3359757E+04  0.7818609E-02  0.8147855E-01
       -1   -1    0    0    0  501  0.00000000000E+00  0.00000000000E+00  0.10380501602E+04  0.10380501602E+04  0.50400001928E-02 0. -1.
        1   -1    0    0  501    0  0.00000000000E+00  0.00000000000E+00 -0.27185496984E+04  0.27185496984E+04  0.50400001928E-02 0.  1.
    10030    2    1    2    0    0  0.00000000000E+00  0.00000000000E+00 -0.16804995383E+04  0.37565998586E+04  0.33597565090E+04 0.  0.
        4    1    3    3  502    0  0.32087846147E+03  0.16439838798E+04 -0.98319106460E+03  0.19422441315E+04  0.12699999809E+01 0.  1.
       -4    1    3    3    0  502 -0.32087846147E+03 -0.16439838798E+04 -0.69730847368E+03  0.18143557271E+04  0.12699999809E+01 0. -1.
</event>
<event>
 5   0  0.5985183E-07  0.3261313E+04  0.7818609E-02  0.8172810E-01
       -1   -1    0    0    0  501  0.00000000000E+00  0.00000000000E+00  0.29963586020E+04  0.29963586020E+04  0.50400001928E-02 0. -1.
        1   -1    0    0  501    0  0.00000000000E+00  0.00000000000E+00 -0.88742421126E+03  0.88742421127E+03  0.50400001928E-02 0.  1.
    10030    2    1    2    0    0  0.00000000000E+00  0.00000000000E+00  0.21089343907E+04  0.38837828133E+04  0.32613133361E+04 0.  0.
        2    1    3    3  502    0  0.11654529463E+04 -0.50440172952E+03 -0.16367705098E+03  0.12804264336E+04  0.25500000920E-02 0.  1.
       -2    1    3    3    0  502 -0.11654529463E+04  0.50440172952E+03  0.22726114417E+04  0.26033563797E+04  0.25500000920E-02 0. -1.
</event>
<event>
 5   0  0.1743810E-06  0.3309008E+04  0.7818609E-02  0.8160607E-01
        2   -1    0    0  501    0  0.00000000000E+00  0.00000000000E+00  0.19236691897E+04  0.19236691897E+04  0.25500000920E-02 0.  1.
       -2   -1    0    0    0  501  0.00000000000E+00  0.00000000000E+00 -0.14230012136E+04  0.14230012136E+04  0.25500000920E-02 0. -1.
    10030    2    1    2    0    0  0.00000000000E+00  0.00000000000E+00  0.50066797610E+03  0.33466704032E+04  0.33090080637E+04 0.  0.
        5    1    3    3  502    0 -0.16493316766E+04 -0.66432774235E+02  0.36410076306E+03  0.16903549180E+04  0.46999998093E+01 0.  1.
       -5    1    3    3    0  502  0.16493316766E+04  0.66432774235E+02  0.13656721304E+03  0.16563154853E+04  0.46999998093E+01 0. -1.
</event>
<event>
 5   0  0.5858859E-07  0.3289670E+04  0.7818609E-02  0.8165529E-01
        1   -1    0    0  501    0  0.00000000000E+00  0.00000000000E+00  0.16263985229E+04  0.16263985229E+04  0.50400001928E-02 0. -1.
       -1   -1    0    0    0  501  0.00000000000E+00  0.00000000000E+00 -0.16634799762E+04  0.16634799762E+04  0.50400001928E-02 0.  1.
    10030    2    1    2    0    0  0.00000000000E+00  0.00000000000E+00 -0.37081453331E+02  0.32898784991E+04  0.32896695130E+04 0.  0.
        3    1    3    3  502    0  0.67370160758E+03 -0.86004281062E+03 -0.12482260442E+04  0.16587994936E+04  0.10100000352E+00 0.  1.
       -3    1    3    3    0  502 -0.67370160758E+03  0.86004281062E+03  0.12111445909E+04  0.16310790056E+04  0.10100000352E+00 0. -1.
</event>
<event>
 5   0  0.1728937E-06  0.3191070E+04  0.7818609E-02  0.8191180E-01
       -2   -1    0    0    0  501  0.00000000000E+00  0.00000000000E+00  0.86244446760E+03  0.86244446761E+03  0.25500000920E-02 0.  1.
        2   -1    0    0  501    0  0.00000000000E+00  0.00000000000E+00 -0.29517631513E+04  0.29517631513E+04  0.25500000920E-02 0. -1.
    10030    2    1    2    0    0  0.00000000000E+00  0.00000000000E+00 -0.20893186837E+04  0.38142076189E+04  0.31910699143E+04 0.  0.
        1    1    3    3  502    0  0.71238498649E+03 -0.12685009237E+04 -0.18276741149E+04  0.23360179007E+04  0.50400001928E-02 0. -1.
       -1    1    3    3    0  502 -0.71238498649E+03  0.12685009237E+04 -0.26164456885E+03  0.14781897182E+04  0.50400001928E-02 0.  1.
</event>
<event>
 5   0  0.6085351E-07  0.3290718E+04  0.7818609E-02  0.8165261E-01
        1   -1    0    0  501    0  0.00000000000E+00  0.00000000000E+00  0.24203935792E+04  0.24203935792E+04  0.50400001928E-02 0. -1.
       -1   -1    0    0    0  501  0.00000000000E+00  0.00000000000E+00 -0.11184983274E+04  0.11184983274E+04  0.50400001928E-02 0.  1.
    10030    2    1    2    0    0  0.00000000000E+00  0.00000000000E+00  0.13018952518E+04  0.35388919066E+04  0.32907179582E+04 0.  0.
        1    1    3    3  502    0 -0.38444004615E+03 -0.58076148576E+03  0.22540497283E+04  0.23591986415E+04  0.50400001928E-02 0. -1.
       -1    1    3    3    0  502  0.38444004615E+03  0.58076148576E+03 -0.95215447657E+03  0.11796932651E+04  0.50400001928E-02 0.  1.
</event>
<event>
 5   0  0.1728937E-06  0.3267280E+04  0.7818609E-02  0.8171271E-01
        2   -1    0    0  501    0  0.00000000000E+00  0.00000000000E+00  0.15958330242E+04  0.15958330242E+04  0.25500000920E-02 0. -1.
       -2   -1    0    0    0  501  0.00000000000E+00  0.00000000000E+00 -0.16723423023E+04  0.16723423023E+04  0.25500000920E-02 0.  1.
    10030    2    1    2    0    0  0.00000000000E+00  0.00000000000E+00 -0.76509278051E+02  0.32681753265E+04  0.32672796475E+04 0.  0.
        1    1    3    3  502    0  0.49470405658E+03  0.16275989902E+03 -0.15870835122E+04  0.16703463602E+04  0.50400001928E-02 0.  1.
       -1    1    3    3    0  502 -0.49470405658E+03 -0.16275989902E+03  0.15105742342E+04  0.15978289662E+04  0.50400001928E-02 0. -1.
</event>
<event>
 5   0  0.1728937E-06  0.2970742E+04  0.7818609E-02  0.8252135E-01
       -2   -1    0    0    0  501  0.00000000000E+00  0.00000000000E+00  0.10580243905E+04  0.10580243905E+04  0.25500000920E-02 0.  1.
        2   -1    0    0  501    0  0.00000000000E+00  0.00000000000E+00 -0.20853272921E+04  0.20853272921E+04  0.25500000920E-02 0. -1.
    10030    2    1    2    0    0  0.00000000000E+00  0.00000000000E+00 -0.10273029016E+04  0.31433516826E+04  0.29707420873E+04 0.  0.
        1    1    3    3  502    0 -0.53053354573E+03  0.12740943857E+04  0.67385750283E+02  0.13817826118E+04  0.50400001928E-02 0.  1.
       -1    1    3    3    0  502  0.53053354573E+03 -0.12740943857E+04 -0.10946886519E+04  0.17615690709E+04  0.50400001928E-02 0. -1.
</event>
<event>
 5   0  0.1743810E-06  0.3290614E+04  0.7818609E-02  0.8165288E-01
       -2   -1    0    0    0  501  0.00000000000E+00  0.00000000000E+00  0.14119160077E+04  0.14119160077E+04  0.25500000920E-02 0.  1.
        2   -1    0    0  501    0  0.00000000000E+00  0.00000000000E+00 -0.19172772506E+04  0.19172772506E+04  0.25500000920E-02 0. -1.
    10030    2    1    2    0    0  0.00000000000E+00  0.00000000000E+00 -0.50536124290E+03  0.33291932582E+04  0.32906135848E+04 0.  0.
        5    1    3    3  502    0 -0.15179166721E+03 -0.68040771615E+03 -0.17604609040E+04  0.18934730140E+04  0.46999998093E+01 0. -1.
       -5    1    3    3    0  502  0.15179166721E+03  0.68040771615E+03  0.12550996611E+04  0.14357202442E+04  0.46999998093E+01 0.  1.
</event>
<event>
 5   0  0.1832626E-06  0.3316205E+04  0.7818609E-02  0.8158784E-01
       -2   -1    0    0    0  501  0.00000000000E+00  0.00000000000E+00  0.14710843266E+04  0.14710843266E+04  0.25500000920E-02 0.  1.
        2   -1    0    0  501    0  0.00000000000E+00  0.00000000000E+00 -0.18688964556E+04  0.18688964556E+04  0.25500000920E-02 0. -1.
    10030    2    1    2    0    0  0.00000000000E+00  0.00000000000E+00 -0.39781212906E+03  0.33399807822E+04  0.33162052312E+04 0.  0.
        3    1    3    3  502    0  0.11432831793E+04  0.87710977024E+03  0.62727152406E+03  0.15715875897E+04  0.10100000352E+00 0.  1.
       -3    1    3    3    0  502 -0.11432831793E+04 -0.87710977024E+03 -0.10250836531E+04  0.17683931925E+04  0.10100000352E+00 0. -1.
</event>
<event>
 5   0  0.5985183E-07  0.3328250E+04  0.7818609E-02  0.8155744E-01
        1   -1    0    0  501    0  0.00000000000E+00  0.00000000000E+00  0.14206706429E+04  0.14206706429E+04  0.50400001928E-02 0. -1.
       -1   -1    0    0    0  501  0.00000000000E+00  0.00000000000E+00 -0.19492995337E+04  0.19492995337E+04  0.50400001928E-02 0.  1.
    10030    2    1    2    0    0  0.00000000000E+00  0.00000000000E+00 -0.52862889080E+03  0.33699701767E+04  0.33282503643E+04 0.  0.
        2    1    3    3  502    0 -0.11657183876E+04  0.11468355713E+04  0.48067693147E+02  0.16359834015E+04  0.25500000920E-02 0. -1.
       -2    1    3    3    0  502  0.11657183876E+04 -0.11468355713E+04 -0.57669658395E+03  0.17339867752E+04  0.25500000920E-02 0.  1.
</event>
<event>
 5   0  0.5858859E-07  0.3485428E+04  0.7818609E-02  0.8117252E-01
        1   -1    0    0  501    0  0.00000000000E+00  0.00000000000E+00  0.17056147736E+04  0.17056147736E+04  0.50400001928E-02 0.  1.
       -1   -1    0    0    0  501  0.00000000000E+00  0.00000000000E+00 -0.17806197968E+04  0.17806197968E+04  0.50400001928E-02 0. -1.
    10030    2    1    2    0    0  0.00000000000E+00  0.00000000000E+00 -0.75005023207E+02  0.34862345705E+04  0.34854276247E+04 0.  0.
        3    1    3    3  502    0 -0.41820806350E+02  0.12841433527E+04 -0.12151783022E+04  0.17684545361E+04  0.10100000352E+00 0. -1.
       -3    1    3    3    0  502  0.41820806350E+02 -0.12841433527E+04  0.11401732790E+04  0.17177800343E+04  0.10100000352E+00 0.  1.
</event>
<event>
 5   0  0.5985183E-07  0.3138738E+04  0.7818609E-02  0.8205186E-01
        1   -1    0    0  501    0  0.00000000000E+00  0.00000000000E+00  0.19310567801E+04  0.19310567801E+04  0.50400001928E-02 0. -1.
       -1   -1    0    0    0  501  0.00000000000E+00  0.00000000000E+00 -0.12754254805E+04  0.12754254805E+04  0.50400001928E-02 0.  1.
    10030    2    1    2    0    0  0.00000000000E+00  0.00000000000E+00  0.65563129960E+03  0.32064822606E+04  0.31387379767E+04 0.  0.
        2    1    3    3  502    0 -0.84916968126E+03  0.12132138924E+04  0.85858880569E+03  0.17117686273E+04  0.25500000920E-02 0. -1.
       -2    1    3    3    0  502  0.84916968126E+03 -0.12132138924E+04 -0.20295750610E+03  0.14947136333E+04  0.25500000920E-02 0.  1.
</event>
<event>
 5   0  0.6085351E-07  0.3206692E+04  0.7818609E-02  0.8187052E-01
       -1   -1    0    0    0  501  0.00000000000E+00  0.00000000000E+00  0.12319833821E+04  0.12319833822E+04  0.50400001928E-02 0.  1.
        1   -1    0    0  501    0  0.00000000000E+00  0.00000000000E+00 -0.20866504304E+04  0.20866504304E+04  0.50400001928E-02 0. -1.
    10030    2    1    2    0    0  0.00000000000E+00  0.00000000000E+00 -0.85466704821E+03  0.33186338125E+04  0.32066921615E+04 0.  0.
        1    1    3    3  502    0  0.39516781601E+03  0.15536644628E+04 -0.40019228746E+03  0.16523270659E+04  0.50400001928E-02 0. -1.
       -1    1    3    3    0  502 -0.39516781601E+03 -0.15536644628E+04 -0.45447476074E+03  0.16663067466E+04  0.50400001928E-02 0.  1.
</event>
<event>
 5   0  0.1728937E-06  0.3353168E+04  0.7818609E-02  0.8149497E-01
       -2   -1    0    0    0  501  0.00000000000E+00  0.00000000000E+00  0.17494772302E+04  0.17494772302E+04  0.25500000920E-02 0.  1.
        2   -1    0    0  501    0  0.00000000000E+00  0.00000000000E+00 -0.16067280322E+04  0.16067280322E+04  0.25500000920E-02 0. -1.
    10030    2    1    2    0    0  0.00000000000E+00  0.00000000000E+00  0.14274919804E+03  0.33562052623E+04  0.33531681183E+04 0.  0.
        1    1    3    3  502    0  0.12122627109E+04 -0.11413725246E+04  0.26807737672E+03  0.16864689740E+04  0.50400001928E-02 0.  1.
       -1    1    3    3    0  502 -0.12122627109E+04  0.11413725246E+04 -0.12532817868E+03  0.16697362884E+04  0.50400001928E-02 0. -1.
</event>
<event>
 5   0  0.5858859E-07  0.3353493E+04  0.7818609E-02  0.8149416E-01
       -1   -1    0    0    0  501  0.00000000000E+00  0.00000000000E+00  0.12104778815E+04  0.12104778815E+04  0.50400001928E-02 0. -1.
        1   -1    0    0  501    0  0.00000000000E+00  0.00000000000E+00 -0.23226195647E+04  0.23226195647E+04  0.50400001928E-02 0.  1.
    10030    2    1    2    0    0  0.00000000000E+00  0.00000000000E+00 -0.11121416832E+04  0.35330974462E+04  0.33534934681E+04 0.  0.
        3    1    3    3  502    0 -0.12311405969E+04  0.76057497886E+03 -0.14483648999E+04  0.20474233468E+04  0.10100000352E+00 0.  1.
       -3    1    3    3    0  502  0.12311405969E+04 -0.76057497886E+03  0.33622321665E+03  0.14856740993E+04  0.10100000352E+00 0. -1.
</event>
<event>
 5   0  0.1784626E-06  0.3453670E+04  0.7818609E-02  0.8124858E-01
       -2   -1    0    0    0  501  0.00000000000E+00  0.00000000000E+00  0.12897984953E+04  0.12897984953E+04  0.25500000920E-02 0.  1.
        2   -1    0    0  501    0  0.00000000000E+00  0.00000000000E+00 -0.23119576128E+04  0.23119576128E+04  0.25500000920E-02 0. -1.
    10030    2    1    2    0    0  0.00000000000E+00  0.00000000000E+00 -0.10221591175E+04  0.36017561081E+04  0.34536701929E+04 0.  0.
        2    1    3    3  502    0 -0.12238009596E+04 -0.55734466419E+03  0.61871751052E+03  0.14802476892E+04  0.25500000920E-02 0.  1.
       -2    1    3    3    0  502  0.12238009596E+04  0.55734466419E+03 -0.16408766280E+04  0.21215084190E+04  0.25500000920E-02 0. -1.
</event>
<event>
 5   0  0.6023446E-07  0.3284008E+04  0.7818609E-02  0.8166976E-01
        1   -1    0    0  501    0  0.00000000000E+00  0.00000000000E+00  0.19221733566E+04  0.19221733566E+04  0.50400001928E-02 0.  1.
       -1   -1    0    0    0  501  0.00000000000E+00  0.00000000000E+00 -0.14026713669E+04  0.14026713669E+04  0.50400001928E-02 0. -1.
    10030    2    1    2    0    0  0.00000000000E+00  0.00000000000E+00  0.51950198965E+03  0.33248447235E+04  0.32840082397E+04 0.  0.
        5    1    3    3  502    0 -0.13493723890E+04 -0.39661277769E+03 -0.59816316886E+03  0.15283745634E+04  0.46999998093E+01 0. -1.
       -5    1    3    3    0  502  0.13493723890E+04  0.39661277769E+03  0.11176651585E+04  0.17964701601E+04  0.46999998093E+01 0.  1.
</event>
<event>
 5   0  0.1696681E-06  0.3159271E+04  0.7818609E-02  0.8199657E-01
       -2   -1    0    0    0  501  0.00000000000E+00  0.00000000000E+00  0.13546419920E+04  0.13546419920E+04  0.25500000920E-02 0. -1.
        2   -1    0    0  501    0  0.00000000000E+00  0.00000000000E+00 -0.18419979966E+04  0.18419979967E+04  0.25500000920E-02 0.  1.
    10030    2    1    2    0    0  0.00000000000E+00  0.00000000000E+00 -0.48735600468E+03  0.31966399886E+04  0.31592706977E+04 0.  0.
        4    1    3    3  502    0 -0.43864488673E+03  0.88498395980E+03  0.10036402754E+04  0.14081553043E+04  0.12699999809E+01 0. -1.
       -4    1    3    3    0  502  0.43864488673E+03 -0.88498395980E+03 -0.14909962801E+04  0.17884846843E+04  0.12699999809E+01 0.  1.
</event>
<event>
 5   0  0.1728937E-06  0.3264429E+04  0.7818609E-02  0.8172006E-01
        2   -1    0    0  501    0  0.00000000000E+00  0.00000000000E+00  0.10781624643E+04  0.10781624643E+04  0.25500000920E-02 0.  1.
       -2   -1    0    0    0  501  0.00000000000E+00  0.00000000000E+00 -0.24709851164E+04  0.24709851164E+04  0.25500000920E-02 0. -1.
    10030    2    1    2    0    0  0.00000000000E+00  0.00000000000E+00 -0.13928226520E+04  0.35491475807E+04  0.32644285272E+04 0.  0.
        1    1    3    3  502    0 -0.10438699191E+04 -0.70919239120E+03  0.42900710885E+03  0.13329161096E+04  0.50400001928E-02 0.  1.
       -1    1    3    3    0  502  0.10438699191E+04  0.70919239120E+03 -0.18218297609E+04  0.22162314711E+04  0.50400001928E-02 0. -1.
</event>
<event>
 5   0  0.1728937E-06  0.3304376E+04  0.7818609E-02  0.8161783E-01
       -2   -1    0    0    0  501  0.00000000000E+00  0.00000000000E+00  0.11379691600E+04  0.11379691600E+04  0.25500000920E-02 0. -1.
        2   -1    0    0  501    0  0.00000000000E+00  0.00000000000E+00 -0.23987686014E+04  0.23987686014E+04  0.25500000920E-02 0.  1.
    10030    2    1    2    0    0  0.00000000000E+00  0.00000000000E+00 -0.12607994414E+04  0.35367377614E+04  0.33043756992E+04 0.  0.
        1    1    3    3  502    0  0.34352373300E+03 -0.15017209357E+04 -0.12695071755E+04  0.19962020921E+04  0.50400001928E-02 0.  1.
       -1    1    3    3    0  502 -0.34352373300E+03  0.15017209357E+04  0.87077340911E+01  0.15405356693E+04  0.50400001928E-02 0. -1.
</event>
<event>
 5   0  0.5988516E-07  0.3289639E+04  0.7818609E-02  0.8165537E-01
        1   -1    0    0  501    0  0.00000000000E+00  0.00000000000E+00  0.23723459644E+04  0.23723459644E+04  0.50400001928E-02 0.  1.
       -1   -1    0    0    0  501  0.00000000000E+00  0.00000000000E+00 -0.11404033202E+04  0.11404033202E+04  0.50400001928E-02 0. -1.
    10030    2    1    2    0    0  0.00000000000E+00  0.00000000000E+00  0.12319426442E+04  0.35127492845E+04  0.32896390163E+04 0.  0.
        4    1    3    3  502    0  0.94444634726E+03  0.31956430180E+03  0.20128725856E+04  0.22462764533E+04  0.12699999809E+01 0.  1.
       -4    1    3    3    0  502 -0.94444634726E+03 -0.31956430180E+03 -0.78092994144E+03  0.12664728312E+04  0.12699999809E+01 0. -1.
</event>
<event>
 5   0  0.1696681E-06  0.3299795E+04  0.7818609E-02  0.8162948E-01
       -2   -1    0    0    0  501  0.00000000000E+00  0.00000000000E+00  0.15369273778E+04  0.15369273778E+04  0.25500000920E-02 0. -1.
        2   -1    0    0  501    0  0.00000000000E+00  0.00000000000E+00 -0.17711708450E+04  0.17711708450E+04  0.25500000920E-02 0.  1.
    10030    2    1    2    0    0  0.00000000000E+00  0.00000000000E+00 -0.23424346726E+03  0.33080982228E+04  0.32997945163E+04 0.  0.
        4    1    3    3  502    0 -0.35173152813E+03  0.15820040376E+04 -0.42726653137E+03  0.16760101863E+04  0.12699999809E+01 0.  1.
       -4    1    3    3    0  502  0.35173152813E+03 -0.15820040376E+04  0.19302306412E+03  0.16320880365E+04  0.12699999809E+01 0. -1.
</event>
<event>
 5   0  0.1696681E-06  0.3341170E+04  0.7818609E-02  0.8152498E-01
       -2   -1    0    0    0  501  0.00000000000E+00  0.00000000000E+00  0.13077042170E+04  0.13077042170E+04  0.25500000920E-02 0.  1.
        2   -1    0    0  501    0  0.00000000000E+00  0.00000000000E+00 -0.21341628025E+04  0.21341628025E+04  0.25500000920E-02 0. -1.
    10030    2    1    2    0    0  0.00000000000E+00  0.00000000000E+00 -0.82645858555E+03  0.34418670195E+04  0.33411696734E+04 0.  0.
        4    1    3    3  502    0 -0.40301754300E+03 -0.38441972944E+03 -0.20357055079E+04  0.21105213091E+04  0.12699999809E+01 0. -1.
       -4    1    3    3    0  502  0.40301754300E+03  0.38441972944E+03  0.12092469224E+04  0.13313457104E+04  0.12699999809E+01 0.  1.
</event>
<event>
 5   0  0.5985183E-07  0.3323052E+04  0.7818609E-02  0.8157054E-01
       -1   -1    0    0    0  501  0.00000000000E+00  0.00000000000E+00  0.15247766535E+04  0.15247766535E+04  0.50400001928E-02 0. -1.
        1   -1    0    0  501    0  0.00000000000E+00  0.00000000000E+00 -0.18105396870E+04  0.18105396870E+04  0.50400001928E-02 0.  1.
    10030    2    1    2    0    0  0.00000000000E+00  0.00000000000E+00 -0.28576303349E+03  0.33353163404E+04  0.33230519977E+04 0.  0.
        2    1    3    3  502    0 -0.76336654981E+03  0.29962519906E+02  0.13380444160E+04  0.15407754869E+04  0.25500000920E-02 0. -1.
       -2    1    3    3    0  502  0.76336654981E+03 -0.29962519906E+02 -0.16238074495E+04  0.17945408535E+04  0.25500000920E-02 0.  1.
</event>
<event>
 5   0  0.1728937E-06  0.3309146E+04  0.7818609E-02  0.8160572E-01
       -2   -1    0    0    0  501  0.00000000000E+00  0.00000000000E+00  0.13116714913E+04  0.13116714913E+04  0.25500000920E-02 0. -1.
        2   -1    0    0  501    0  0.00000000000E+00  0.00000000000E+00 -0.20871173837E+04  0.20871173837E+04  0.25500000920E-02 0.  1.
    10030    2    1    2    0    0  0.00000000000E+00  0.00000000000E+00 -0.77544589233E+03  0.33987888750E+04  0.33091463378E+04 0.  0.
        1    1    3    3  502    0 -0.12979710646E+04 -0.48548643682E+03  0.54074899092E+03  0.14875602294E+04  0.50400001928E-02 0. -1.
       -1    1    3    3    0  502  0.12979710646E+04  0.48548643682E+03 -0.13161948832E+04  0.19112286456E+04  0.50400001928E-02 0.  1.
</event>
<event>
 5   0  0.6023446E-07  0.3290384E+04  0.7818609E-02  0.8165346E-01
        1   -1    0    0  501    0  0.00000000000E+00  0.00000000000E+00  0.10423881827E+04  0.10423881827E+04  0.50400001928E-02 0. -1.
       -1   -1    0    0    0  501  0.00000000000E+00  0.00000000000E+00 -0.25965918660E+04  0.25965918660E+04  0.50400001928E-02 0.  1.
    10030    2    1    2    0    0  0.00000000000E+00  0.00000000000E+00 -0.15542036833E+04  0.36389800487E+04  0.32903839754E+04 0.  0.
        5    1    3    3  502    0 -0.82216783916E+03  0.10922722437E+03 -0.23484547086E+04  0.24906128063E+04  0.46999998093E+01 0.  1.
       -5    1    3    3    0  502  0.82216783916E+03 -0.10922722437E+03  0.79425102530E+03  0.11483672424E+04  0.46999998093E+01 0. -1.
</event>
<event>
 5   0  0.6023446E-07  0.3267075E+04  0.7818609E-02  0.8171324E-01
        1   -1    0    0  501    0  0.00000000000E+00  0.00000000000E+00  0.22875879523E+04  0.22875879523E+04  0.50400001928E-02 0. -1.
       -1   -1    0    0    0  501  0.00000000000E+00  0.00000000000E+00 -0.11664881977E+04  0.11664881977E+04  0.50400001928E-02 0.  1.
    10030    2    1    2    0    0  0.00000000000E+00  0.00000000000E+00  0.11210997546E+04  0.34540761501E+04  0.32670747452E+04 0.  0.
        5    1    3    3  502    0 -0.40731223084E+03  0.31236574115E+02 -0.11116063406E+04  0.11843013651E+04  0.46999998093E+01 0.  1.
       -5    1    3    3    0  502  0.40731223084E+03 -0.31236574115E+02  0.22327060952E+04  0.22697747849E+04  0.46999998093E+01 0. -1.
</event>
<event>
 5   0  0.6023446E-07  0.3262884E+04  0.7818609E-02  0.8172404E-01
       -1   -1    0    0    0  501  0.00000000000E+00  0.00000000000E+00  0.11646414546E+04  0.11646414546E+04  0.50400001928E-02 0. -1.
        1   -1    0    0  501    0  0.00000000000E+00  0.00000000000E+00 -0.22853410829E+04  0.22853410830E+04  0.50400001928E-02 0.  1.
    10030    2    1    2    0    0  0.00000000000E+00  0.00000000000E+00 -0.11206996283E+04  0.34499825376E+04  0.32628839778E+04 0.  0.
        5    1    3    3  502    0  0.14702446838E+04 -0.47968356771E+03 -0.11076320708E+02  0.15465641048E+04  0.46999998093E+01 0. -1.
       -5    1    3    3    0  502 -0.14702446838E+04  0.47968356771E+03 -0.11096233076E+04  0.19034184328E+04  0.46999998093E+01 0.  1.
</event>
<event>
 5   0  0.5985183E-07  0.3116237E+04  0.7818609E-02  0.8211296E-01
       -1   -1    0    0    0  501  0.00000000000E+00  0.00000000000E+00  0.12607025818E+04  0.12607025819E+04  0.50400001928E-02 0.  1.
        1   -1    0    0  501    0  0.00000000000E+00  0.00000000000E+00 -0.19256987690E+04  0.19256987690E+04  0.50400001928E-02 0. -1.
    10030    2    1    2    0    0  0.00000000000E+00  0.00000000000E+00 -0.66499618719E+03  0.31864013509E+04  0.31162370962E+04 0.  0.
        2    1    3    3  502    0  0.65757606057E+03  0.12712389755E+04 -0.96222051246E+03  0.17246226030E+04  0.25500000920E-02 0. -1.
       -2    1    3    3    0  502 -0.65757606057E+03 -0.12712389755E+04  0.29722432527E+03  0.14617787479E+04  0.25500000920E-02 0.  1.
</event>
<event>
 5   0  0.1832626E-06  0.3300278E+04  0.7818609E-02  0.8162825E-01
       -2   -1    0    0    0  501  0.00000000000E+00  0.00000000000E+00  0.91940312545E+03  0.91940312546E+03  0.25500000920E-02 0.  1.
        2   -1    0    0  501    0  0.00000000000E+00  0.00000000000E+00 -0.29616584208E+04  0.29616584208E+04  0.25500000920E-02 0. -1.
    10030    2    1    2    0    0  0.00000000000E+00  0.00000000000E+00 -0.20422552953E+04  0.38810615462E+04  0.33002775693E+04 0.  0.
        3    1    3    3  502    0 -0.15739100392E+03 -0.14939584794E+04 -0.18241372220E+04  0.23630828342E+04  0.10100000352E+00 0. -1.
       -3    1    3    3    0  502  0.15739100392E+03  0.14939584794E+04 -0.21811807328E+03  0.15179787121E+04  0.10100000352E+00 0.  1.
</event>
<event>
 5   0  0.1743810E-06  0.3409345E+04  0.7818609E-02  0.8135616E-01
       -2   -1    0    0    0  501  0.00000000000E+00  0.00000000000E+00  0.11357905009E+04  0.11357905009E+04  0.25500000920E-02 0. -1.
        2   -1    0    0  501    0  0.00000000000E+00  0.00000000000E+00 -0.25584903247E+04  0.25584903247E+04  0.25500000920E-02 0.  1.
    10030    2    1    2    0    0  0.00000000000E+00  0.00000000000E+00 -0.14226998239E+04  0.36942808256E+04  0.34093453961E+04 0.  0.
        5    1    3    3  502    0 -0.11102568862E+04 -0.79696592441E+03  0.39265378062E+03  0.14219789448E+04  0.46999998093E+01 0. -1.
       -5    1    3    3    0  502  0.11102568862E+04  0.79696592441E+03 -0.18153536045E+04  0.22723018808E+04  0.46999998093E+01 0.  1.
</event>
<event>
 5   0  0.1784626E-06  0.3295390E+04  0.7818609E-02  0.8164069E-01
        2   -1    0    0  501    0  0.00000000000E+00  0.00000000000E+00  0.84432834499E+03  0.84432834499E+03  0.25500000920E-02 0.  1.
       -2   -1    0    0    0  501  0.00000000000E+00  0.00000000000E+00 -0.32154536796E+04  0.32154536796E+04  0.25500000920E-02 0. -1.
    10030    2    1    2    0    0  0.00000000000E+00  0.00000000000E+00 -0.23711253346E+04  0.40597820245E+04  0.32953899215E+04 0.  0.
        2    1    3    3  502    0 -0.64952274869E+03 -0.33958221325E+03  0.63244291429E+03  0.96808053408E+03  0.25500000920E-02 0.  1.
       -2    1    3    3    0  502  0.64952274869E+03  0.33958221325E+03 -0.30035682489E+04  0.30917014905E+04  0.25500000920E-02 0. -1.
</event>
<event>
 5   0  0.5988516E-07  0.3297190E+04  0.7818609E-02  0.8163611E-01
       -1   -1    0    0    0  501  0.00000000000E+00  0.00000000000E+00  0.20587026088E+04  0.20587026088E+04  0.50400001928E-02 0.  1.
        1   -1    0    0  501    0  0.00000000000E+00  0.00000000000E+00 -0.13201840065E+04  0.13201840065E+04  0.50400001928E-02 0. -1.
    10030    2    1    2    0    0  0.00000000000E+00  0.00000000000E+00  0.73851860223E+03  0.33788866153E+04  0.32971904757E+04 0.  0.
        4    1    3    3  502    0 -0.80782404747E+03  0.71699309542E+03 -0.90707458418E+03  0.14104767650E+04  0.12699999809E+01 0. -1.
       -4    1    3    3    0  502  0.80782404747E+03 -0.71699309542E+03  0.16455931864E+04  0.19684098503E+04  0.12699999809E+01 0.  1.
</event>
<event>
 5   0  0.1728937E-06  0.3309110E+04  0.7818609E-02  0.8160581E-01
       -2   -1    0    0    0  501  0.00000000000E+00  0.00000000000E+00  0.14473803696E+04  0.14473803696E+04  0.25500000920E-02 0. -1.
        2   -1    0    0  501    0  0.00000000000E+00  0.00000000000E+00 -0.18913840102E+04  0.18913840102E+04  0.25500000920E-02 0.  1.
    10030    2    1    2    0    0  0.00000000000E+00  0.00000000000E+00 -0.44400364066E+03  0.33387643798E+04  0.33091099031E+04 0.  0.
        1    1    3    3  502    0  0.10795451037E+02  0.14588803645E+04  0.56544307743E+03  0.15646642878E+04  0.50400001928E-02 0.  1.
       -1    1    3    3    0  502 -0.10795451037E+02 -0.14588803645E+04 -0.10094467181E+04  0.17741000920E+04  0.50400001928E-02 0. -1.
</event>
<event>
 5   0  0.5985183E-07  0.3252769E+04  0.7818609E-02  0.8175018E-01
       -1   -1    0    0    0  501  0.00000000000E+00  0.00000000000E+00  0.13123689194E+04  0.13123689194E+04  0.50400001928E-02 0. -1.
        1   -1    0    0  501    0  0.00000000000E+00  0.00000000000E+00 -0.20155361491E+04  0.20155361492E+04  0.50400001928E-02 0.  1.
    10030    2    1    2    0    0  0.00000000000E+00  0.00000000000E+00 -0.70316722973E+03  0.33279050686E+04  0.32527692806E+04 0.  0.
        2    1    3    3  502    0 -0.37678955773E+03 -0.18456998910E+02 -0.19701560048E+04  0.20059475853E+04  0.25500000920E-02 0.  1.
       -2    1    3    3    0  502  0.37678955773E+03  0.18456998910E+02  0.12669887750E+04  0.13219574833E+04  0.25500000920E-02 0. -1.
</event>
<event>
 5   0  0.6085351E-07  0.3280521E+04  0.7818609E-02  0.8167870E-01
        1   -1    0    0  501    0  0.00000000000E+00  0.00000000000E+00  0.15668439356E+04  0.15668439356E+04  0.50400001928E-02 0. -1.
       -1   -1    0    0    0  501  0.00000000000E+00  0.00000000000E+00 -0.17171172565E+04  0.17171172565E+04  0.50400001928E-02 0.  1.
    10030    2    1    2    0    0  0.00000000000E+00  0.00000000000E+00 -0.15027332090E+03  0.32839611920E+04  0.32805211537E+04 0.  0.
        1    1    3    3  502    0 -0.12629228326E+03  0.31581810828E+03 -0.16814263913E+04  0.17154840506E+04  0.50400001928E-02 0.  1.
       -1    1    3    3    0  502  0.12629228326E+03 -0.31581810828E+03  0.15311530704E+04  0.15684771415E+04  0.50400001928E-02 0. -1.
</event>
<event>
 5   0  0.5858859E-07  0.2953396E+04  0.7818609E-02  0.8257166E-01
        1   -1    0    0  501    0  0.00000000000E+00  0.00000000000E+00  0.32857044995E+04  0.32857044995E+04  0.50400001928E-02 0.  1.
       -1   -1    0    0    0  501  0.00000000000E+00  0.00000000000E+00 -0.66367406388E+03  0.66367406390E+03  0.50400001928E-02 0. -1.
    10030    2    1    2    0    0  0.00000000000E+00  0.00000000000E+00  0.26220304356E+04  0.39493785634E+04  0.29533959152E+04 0.  0.
        3    1    3    3  502    0 -0.63569098809E+03  0.44874273392E+03  0.29893166003E+04  0.30889297209E+04  0.10100000352E+00 0.  1.
       -3    1    3    3    0  502  0.63569098809E+03 -0.44874273392E+03 -0.36728616469E+03  0.86044884250E+03  0.10100000352E+00 0. -1.
</event>
<event>
 5   0  0.5985183E-07  0.3298620E+04  0.7818609E-02  0.8163247E-01
        1   -1    0    0  501    0  0.00000000000E+00  0.00000000000E+00  0.26051051356E+04  0.26051051356E+04  0.50400001928E-02 0.  1.
       -1   -1    0    0    0  501  0.00000000000E+00  0.00000000000E+00 -0.10441892226E+04  0.10441892226E+04  0.50400001928E-02 0. -1.
    10030    2    1    2    0    0  0.00000000000E+00  0.00000000000E+00  0.15609159130E+04  0.36492943582E+04  0.32986195333E+04 0.  0.
        2    1    3    3  502    0 -0.54884447506E+03 -0.18923132664E+03 -0.92741456985E+03  0.10941373484E+04  0.25500000920E-02 0. -1.
       -2    1    3    3    0  502  0.54884447506E+03  0.18923132664E+03  0.24883304828E+04  0.25551570098E+04  0.25500000920E-02 0.  1.
</event>
<event>
 5   0  0.5858859E-07  0.3320404E+04  0.7818609E-02  0.8157723E-01
       -1   -1    0    0    0  501  0.00000000000E+00  0.00000000000E+00  0.15034754419E+04  0.15034754419E+04  0.50400001928E-02 0. -1.
        1   -1    0    0  501    0  0.00000000000E+00  0.00000000000E+00 -0.18332661468E+04  0.18332661468E+04  0.50400001928E-02 0.  1.
    10030    2    1    2    0    0  0.00000000000E+00  0.00000000000E+00 -0.32979070490E+03  0.33367415887E+04  0.33204039695E+04 0.  0.
        3    1    3    3  502    0  0.83385132506E+03  0.24950078761E+03 -0.15856096594E+04  0.18087887321E+04  0.10100000352E+00 0.  1.
       -3    1    3    3    0  502 -0.83385132506E+03 -0.24950078761E+03  0.12558189545E+04  0.15279528566E+04  0.10100000352E+00 0. -1.
</event>
<event>
 5   0  0.6085351E-07  0.3377504E+04  0.7818609E-02  0.8143450E-01
       -1   -1    0    0    0  501  0.00000000000E+00  0.00000000000E+00  0.20313625955E+04  0.20313625955E+04  0.50400001928E-02 0.  1.
        1   -1    0    0  501    0  0.00000000000E+00  0.00000000000E+00 -0.14039262404E+04  0.14039262404E+04  0.50400001928E-02 0. -1.
    10030    2    1    2    0    0  0.00000000000E+00  0.00000000000E+00  0.62743635513E+03  0.34352888359E+04  0.33775039610E+04 0.  0.
        1    1    3    3  502    0  0.36679709993E+03 -0.73167506666E+03 -0.11887117996E+04  0.14432339582E+04  0.50400001928E-02 0. -1.
       -1    1    3    3    0  502 -0.36679709993E+03  0.73167506666E+03  0.18161481547E+04  0.19920548777E+04  0.50400001928E-02 0.  1.
</event>
<event>
 5   0  0.5985183E-07  0.3290491E+04  0.7818609E-02  0.8165319E-01
        1   -1    0    0  501    0  0.00000000000E+00  0.00000000000E+00  0.13676108279E+04  0.13676108279E+04  0.50400001928E-02 0. -1.
       -1   -1    0    0    0  501  0.00000000000E+00  0.00000000000E+00 -0.19792424252E+04  0.19792424252E+04  0.50400001928E-02 0.  1.
    10030    2    1    2    0    0  0.00000000000E+00  0.00000000000E+00 -0.61163159735E+03  0.33468532531E+04  0.32904913747E+04 0.  0.
        2    1    3    3  502    0  0.85864035844E+03 -0.12522042644E+04 -0.95035332719E+03  0.17912147363E+04  0.25500000920E-02 0.  1.
       -2    1    3    3    0  502 -0.85864035844E+03  0.12522042644E+04  0.33872172984E+03  0.15556385169E+04  0.25500000920E-02 0. -1.
</event>
<event>
 5   0  0.1784626E-06  0.3297302E+04  0.7818609E-02  0.8163582E-01
        2   -1    0    0  501    0  0.00000000000E+00  0.00000000000E+00  0.20964010007E+04  0.20964010007E+04  0.25500000920E-02 0. -1.
       -2   -1    0    0    0  501  0.00000000000E+00  0.00000000000E+00 -0.12965314586E+04  0.12965314586E+04  0.25500000920E-02 0.  1.
    10030    2    1    2    0    0  0.00000000000E+00  0.00000000000E+00  0.79986954208E+03  0.33929324593E+04  0.32973018347E+04 0.  0.
        2    1    3    3  502    0 -0.18126231549E+02  0.57503858382E+03 -0.11898833484E+04  0.13216733015E+04  0.25500000920E-02 0.  1.
       -2    1    3    3    0  502  0.18126231549E+02 -0.57503858382E+03  0.19897528905E+04  0.20712591577E+04  0.25500000920E-02 0. -1.
</event>
<event>
 5   0  0.5985183E-07  0.3306835E+04  0.7818609E-02  0.8161158E-01
        1   -1    0    0  501    0  0.00000000000E+00  0.00000000000E+00  0.91938263165E+03  0.91938263166E+03  0.50400001928E-02 0. -1.
       -1   -1    0    0    0  501  0.00000000000E+00  0.00000000000E+00 -0.29735058233E+04  0.29735058233E+04  0.50400001928E-02 0.  1.
    10030    2    1    2    0    0  0.00000000000E+00  0.00000000000E+00 -0.20541231917E+04  0.38928884550E+04  0.33068351088E+04 0.  0.
        2    1    3    3  502    0  0.16411365098E+04 -0.64371259592E+02 -0.12514052769E+04  0.20648215105E+04  0.25500000920E-02 0. -1.
       -2    1    3    3    0  502 -0.16411365098E+04  0.64371259592E+02 -0.80271791479E+03  0.18280669445E+04  0.25500000920E-02 0.  1.
</event>
<event>
 5   0  0.6023446E-07  0.3276774E+04  0.7818609E-02  0.8168831E-01
       -1   -1    0    0    0  501  0.00000000000E+00  0.00000000000E+00  0.16248893595E+04  0.16248893595E+04  0.50400001928E-02 0. -1.
        1   -1    0    0  501    0  0.00000000000E+00  0.00000000000E+00 -0.16519966435E+04  0.16519966435E+04  0.50400001928E-02 0.  1.
    10030    2    1    2    0    0  0.00000000000E+00  0.00000000000E+00 -0.27107283990E+02  0.32768860030E+04  0.32767738817E+04 0.  0.
        5    1    3    3  502    0  0.42029053274E+03 -0.10038709545E+04  0.12111876767E+04  0.16283116113E+04  0.46999998093E+01 0. -1.
       -5    1    3    3    0  502 -0.42029053274E+03  0.10038709545E+04 -0.12382949607E+04  0.16485743917E+04  0.46999998093E+01 0.  1.
</event>
<event>
 5   0  0.1832626E-06  0.3320595E+04  0.7818609E-02  0.8157675E-01
       -2   -1    0    0    0  501  0.00000000000E+00  0.00000000000E+00  0.15794362724E+04  0.15794362724E+04  0.25500000920E-02 0.  1.
        2   -1    0    0  501    0  0.00000000000E+00  0.00000000000E+00 -0.17452987185E+04  0.17452987185E+04  0.25500000920E-02 0. -1.
    10030    2    1    2    0    0  0.00000000000E+00  0.00000000000E+00 -0.16586244609E+03  0.33247349910E+04  0.33205951890E+04 0.  0.
        3    1    3    3  502    0  0.10265246967E+04 -0.30645891503E+03 -0.13529439257E+04  0.17257251508E+04  0.10100000352E+00 0. -1.
       -3    1    3    3    0  502 -0.10265246967E+04  0.30645891503E+03  0.11870814796E+04  0.15990098402E+04  0.10100000352E+00 0.  1.
</event>
<event>
 5   0  0.1832626E-06  0.3289951E+04  0.7818609E-02  0.8165457E-01
       -2   -1    0    0    0  501  0.00000000000E+00  0.00000000000E+00  0.97492035564E+03  0.97492035564E+03  0.25500000920E-02 0. -1.
        2   -1    0    0  501    0  0.00000000000E+00  0.00000000000E+00 -0.27755550314E+04  0.27755550314E+04  0.25500000920E-02 0.  1.
    10030    2    1    2    0    0  0.00000000000E+00  0.00000000000E+00 -0.18006346758E+04  0.37504753870E+04  0.32899514272E+04 0.  0.
        3    1    3    3  502    0  0.11253920160E+04 -0.40513949954E+03  0.38705150416E+03  0.12571611197E+04  0.10100000352E+00 0. -1.
       -3    1    3    3    0  502 -0.11253920160E+04  0.40513949954E+03 -0.21876861799E+04  0.24933142673E+04  0.10100000352E+00 0.  1.
</event>
<event>
 5   0  0.1696681E-06  0.3241851E+04  0.7818609E-02  0.8177851E-01
        2   -1    0    0  501    0  0.00000000000E+00  0.00000000000E+00  0.19964289677E+04  0.19964289677E+04  0.25500000920E-02 0.  1.
       -2   -1    0    0    0  501  0.00000000000E+00  0.00000000000E+00 -0.13160497493E+04  0.13160497493E+04  0.25500000920E-02 0. -1.
    10030    2    1    2    0    0  0.00000000000E+00  0.00000000000E+00  0.68037921847E+03  0.33124787170E+04  0.32418512257E+04 0.  0.
        4    1    3    3  502    0 -0.88103750141E+02  0.73522985081E+03 -0.11331229398E+04  0.13536227000E+04  0.12699999809E+01 0. -1.
       -4    1    3    3    0  502  0.88103750141E+02 -0.73522985081E+03  0.18135021583E+04  0.19588560170E+04  0.12699999809E+01 0.  1.
</event>
<event>
 5   0  0.1832626E-06  0.3328604E+04  0.7818609E-02  0.8155655E-01
       -2   -1    0    0    0  501  0.00000000000E+00  0.00000000000E+00  0.10543232351E+04  0.10543232351E+04  0.25500000920E-02 0. -1.
        2   -1    0    0  501    0  0.00000000000E+00  0.00000000000E+00 -0.26271836685E+04  0.26271836685E+04  0.25500000920E-02 0.  1.
    10030    2    1    2    0    0  0.00000000000E+00  0.00000000000E+00 -0.15728604334E+04  0.36815069036E+04  0.33286037821E+04 0.  0.
        3    1    3    3  502    0 -0.16115042323E+03 -0.13617648048E+04 -0.18295719285E+04  0.22864177865E+04  0.10100000352E+00 0.  1.
       -3    1    3    3    0  502  0.16115042323E+03  0.13617648048E+04  0.25671149510E+03  0.13950891171E+04  0.10100000352E+00 0. -1.
</event>
<event>
 5   0  0.1728937E-06  0.3270031E+04  0.7818609E-02  0.8170563E-01
        2   -1    0    0  501    0  0.00000000000E+00  0.00000000000E+00  0.27416771343E+04  0.27416771343E+04  0.25500000920E-02 0. -1.
       -2   -1    0    0    0  501  0.00000000000E+00  0.00000000000E+00 -0.97505141543E+03  0.97505141543E+03  0.25500000920E-02 0.  1.
    10030    2    1    2    0    0  0.00000000000E+00  0.00000000000E+00  0.17666257189E+04  0.37167285498E+04  0.32700312968E+04 0.  0.
        1    1    3    3  502    0 -0.83576544959E+03 -0.89388946407E+03  0.21157462507E+04  0.24441612995E+04  0.50400001928E-02 0. -1.
       -1    1    3    3    0  502  0.83576544959E+03  0.89388946407E+03 -0.34912053178E+03  0.12725672503E+04  0.50400001928E-02 0.  1.
</event>
<event>
 5   0  0.1832626E-06  0.3412238E+04  0.7818609E-02  0.8134909E-01
        2   -1    0    0  501    0  0.00000000000E+00  0.00000000000E+00  0.19376811531E+04  0.19376811531E+04  0.25500000920E-02 0.  1.
       -2   -1    0    0    0  501  0.00000000000E+00  0.00000000000E+00 -0.15022292308E+04  0.15022292308E+04  0.25500000920E-02 0. -1.
    10030    2    1    2    0    0  0.00000000000E+00  0.00000000000E+00  0.43545192233E+03  0.34399103839E+04  0.34122375463E+04 0.  0.
        3    1    3    3  502    0 -0.68694433773E+03 -0.26617236377E+03 -0.13336175819E+04  0.15235734690E+04  0.10100000352E+00 0. -1.
       -3    1    3    3    0  502  0.68694433773E+03  0.26617236377E+03  0.17690695042E+04  0.19163369149E+04  0.10100000352E+00 0.  1.
</event>
<event>
 5   0  0.1743810E-06  0.3324484E+04  0.7818609E-02  0.8156693E-01
        2   -1    0    0  501    0  0.00000000000E+00  0.00000000000E+00  0.16907198627E+04  0.16907198627E+04  0.25500000920E-02 0.  1.
       -2   -1    0    0    0  501  0.00000000000E+00  0.00000000000E+00 -0.16342441856E+04  0.16342441856E+04  0.25500000920E-02 0. -1.
    10030    2    1    2    0    0  0.00000000000E+00  0.00000000000E+00  0.56475677049E+02  0.33249640483E+04  0.33244843841E+04 0.  0.
        5    1    3    3  502    0  0.53077185391E+03  0.80367570574E+02  0.16016301968E+04  0.16892066435E+04  0.46999998093E+01 0.  1.
       -5    1    3    3    0  502 -0.53077185391E+03 -0.80367570574E+02 -0.15451545197E+04  0.16357574047E+04  0.46999998093E+01 0. -1.
</event>
<event>
 5   0  0.5858859E-07  0.3281748E+04  0.7818609E-02  0.8167555E-01
       -1   -1    0    0    0  501  0.00000000000E+00  0.00000000000E+00  0.22811669919E+04  0.22811669919E+04  0.50400001928E-02 0.  1.
        1   -1    0    0  501    0  0.00000000000E+00  0.00000000000E+00 -0.11803024704E+04  0.11803024705E+04  0.50400001928E-02 0. -1.
    10030    2    1    2    0    0  0.00000000000E+00  0.00000000000E+00  0.11008645214E+04  0.34614694623E+04  0.32817477271E+04 0.  0.
        3    1    3    3  502    0 -0.11653086157E+04  0.11474618098E+04  0.69136962031E+03  0.17755575848E+04  0.10100000352E+00 0. -1.
       -3    1    3    3    0  502  0.11653086157E+04 -0.11474618098E+04  0.40949490112E+03  0.16859118776E+04  0.10100000352E+00 0.  1.
</event>
<event>
 5   0  0.6085351E-07  0.3315791E+04  0.7818609E-02  0.8158889E-01
       -1   -1    0    0    0  501  0.00000000000E+00  0.00000000000E+00  0.13637343937E+04  0.13637343937E+04  0.50400001928E-02 0. -1.
        1   -1    0    0  501    0  0.00000000000E+00  0.00000000000E+00 -0.20155081494E+04  0.20155081494E+04  0.50400001928E-02 0.  1.
    10030    2    1    2    0    0  0.00000000000E+00  0.00000000000E+00 -0.65177375571E+03  0.33792425431E+04  0.33157911780E+04 0.  0.
        1    1    3    3  502    0  0.78684942672E+03 -0.39217870037E+03 -0.17583738250E+04  0.19659131877E+04  0.50400001928E-02 0.  1.
       -1    1    3    3    0  502 -0.78684942672E+03  0.39217870037E+03  0.11066000693E+04  0.14133293553E+04  0.50400001928E-02 0. -1.
</event>
<event>
 5   0  0.5858859E-07  0.3293179E+04  0.7818609E-02  0.8164633E-01
       -1   -1    0    0    0  501  0.00000000000E+00  0.00000000000E+00  0.12496936311E+04  0.12496936311E+04  0.50400001928E-02 0. -1.
        1   -1    0    0  501    0  0.00000000000E+00  0.00000000000E+00 -0.21695371479E+04  0.21695371479E+04  0.50400001928E-02 0.  1.
    10030    2    1    2    0    0  0.00000000000E+00  0.00000000000E+00 -0.91984351681E+03  0.34192307789E+04  0.32931788631E+04 0.  0.
        3    1    3    3  502    0 -0.10956703693E+04  0.12250133023E+04 -0.56429617991E+03  0.17376942590E+04  0.10100000352E+00 0.  1.
       -3    1    3    3    0  502  0.10956703693E+04 -0.12250133023E+04 -0.35554733691E+03  0.16815365199E+04  0.10100000352E+00 0. -1.
</event>
<event>
 5   0  0.6085351E-07  0.3299857E+04  0.7818609E-02  0.8162932E-01
        1   -1    0    0  501    0  0.00000000000E+00  0.00000000000E+00  0.22042019797E+04  0.22042019797E+04  0.50400001928E-02 0. -1.
       -1   -1    0    0    0  501  0.00000000000E+00  0.00000000000E+00 -0.12350341281E+04  0.12350341281E+04  0.50400001928E-02 0.  1.
    10030    2    1    2    0    0  0.00000000000E+00  0.00000000000E+00  0.96916785154E+03  0.34392361078E+04  0.32998573728E+04 0.  0.
        1    1    3    3  502    0 -0.16320627265E+04  0.10922960937E+03  0.70982504231E+03  0.17830904187E+04  0.50400001928E-02 0. -1.
       -1    1    3    3    0  502  0.16320627265E+04 -0.10922960937E+03  0.25934280924E+03  0.16561456891E+04  0.50400001928E-02 0.  1.
</event>
<event>
 5   0  0.5988516E-07  0.3311478E+04  0.7818609E-02  0.8159981E-01
        1   -1    0    0  501    0  0.00000000000E+00  0.00000000000E+00  0.30159509531E+04  0.30159509531E+04  0.50400001928E-02 0. -1.
       -1   -1    0    0    0  501  0.00000000000E+00  0.00000000000E+00 -0.90899087168E+03  0.90899087169E+03  0.50400001928E-02 0.  1.
    10030    2    1    2    0    0  0.00000000000E+00  0.00000000000E+00  0.21069600815E+04  0.39249418248E+04  0.33114781508E+04 0.  0.
        4    1    3    3  502    0  0.38680168903E+03 -0.22657073902E+03 -0.83569707293E+03  0.94833594101E+03  0.12699999809E+01 0.  1.
       -4    1    3    3    0  502 -0.38680168903E+03  0.22657073902E+03  0.29426571544E+04  0.29766058838E+04  0.12699999809E+01 0. -1.
</event>
<event>
 5   0  0.1696681E-06  0.3316956E+04  0.7818609E-02  0.8158594E-01
        2   -1    0    0  501    0  0.00000000000E+00  0.00000000000E+00  0.22102659789E+04  0.22102659789E+04  0.25500000920E-02 0.  1.
       -2   -1    0    0    0  501  0.00000000000E+00  0.00000000000E+00 -0.12444423681E+04  0.12444423681E+04  0.25500000920E-02 0. -1.
    10030    2    1    2    0    0  0.00000000000E+00  0.00000000000E+00  0.96582361075E+03  0.34547083470E+04  0.33169556095E+04 0.  0.
        4    1    3    3  502    0  0.30383897189E+03  0.13099345959E+04 -0.52812364319E+03  0.14447016861E+04  0.12699999809E+01 0. -1.
       -4    1    3    3    0  502 -0.30383897189E+03 -0.13099345959E+04  0.14939472539E+04  0.20100066609E+04  0.12699999809E+01 0.  1.
</event>
<event>
 5   0  0.1743810E-06  0.3352903E+04  0.7818609E-02  0.8149563E-01
        2   -1    0    0  501    0  0.00000000000E+00  0.00000000000E+00  0.19136364275E+04  0.19136364275E+04  0.25500000920E-02 0.  1.
       -2   -1    0    0    0  501  0.00000000000E+00  0.00000000000E+00 -0.14686639316E+04  0.14686639316E+04  0.25500000920E-02 0. -1.
    10030    2    1    2    0    0  0.00000000000E+00  0.00000000000E+00  0.44497249595E+03  0.33823003591E+04  0.33529025033E+04 0.  0.
        5    1    3    3  502    0 -0.30759707379E+03 -0.45728283053E+02  0.18842793003E+04  0.19097742294E+04  0.46999998093E+01 0.  1.
       -5    1    3    3    0  502  0.30759707379E+03  0.45728283053E+02 -0.14393068043E+04  0.14725261297E+04  0.46999998093E+01 0. -1.
</event>
<event>
 5   0  0.6085351E-07  0.2999523E+04  0.7818609E-02  0.8243867E-01
       -1   -1    0    0    0  501  0.00000000000E+00  0.00000000000E+00  0.15879943595E+04  0.15879943595E+04  0.50400001928E-02 0.  1.
        1   -1    0    0  501    0  0.00000000000E+00  0.00000000000E+00 -0.14164312100E+04  0.14164312100E+04  0.50400001928E-02 0. -1.
    10030    2    1    2    0    0  0.00000000000E+00  0.00000000000E+00  0.17156314944E+03  0.30044255695E+04  0.29995231435E+04 0.  0.
        1    1    3    3  502    0  0.14319326779E+04 -0.29593494661E+03 -0.24834433319E+03  0.14831330333E+04  0.50400001928E-02 0.  1.
       -1    1    3    3    0  502 -0.14319326779E+04  0.29593494661E+03  0.41990748263E+03  0.15212925362E+04  0.50400001928E-02 0. -1.
</event>
<event>
 5   0  0.1832626E-06  0.3317448E+04  0.7818609E-02  0.8158470E-01
       -2   -1    0    0    0  501  0.00000000000E+00  0.00000000000E+00  0.18279168108E+04  0.18279168108E+04  0.25500000920E-02 0.  1.
        2   -1    0    0  501    0  0.00000000000E+00  0.00000000000E+00 -0.15051922060E+04  0.15051922060E+04  0.25500000920E-02 0. -1.
    10030    2    1    2    0    0  0.00000000000E+00  0.00000000000E+00  0.32272460482E+03  0.33331090167E+04  0.33174484995E+04 0.  0.
        3    1    3    3  502    0 -0.22128690017E+01  0.90351781189E+03 -0.12362531644E+04  0.15312319321E+04  0.10100000352E+00 0. -1.
       -3    1    3    3    0  502  0.22128690017E+01 -0.90351781189E+03  0.15589777692E+04  0.18018770847E+04  0.10100000352E+00 0.  1.
</event>
<event>
 5   0  0.1728937E-06  0.3300418E+04  0.7818609E-02  0.8162789E-01
       -2   -1    0    0    0  501  0.00000000000E+00  0.00000000000E+00  0.18159519584E+04  0.18159519584E+04  0.25500000920E-02 0.  1.
        2   -1    0    0  501    0  0.00000000000E+00  0.00000000000E+00 -0.14995938057E+04  0.14995938057E+04  0.25500000920E-02 0. -1.
    10030    2    1    2    0    0  0.00000000000E+00  0.00000000000E+00  0.31635815276E+03  0.33155457641E+04  0.33004183421E+04 0.  0.
        1    1    3    3  502    0 -0.95470718735E+03  0.30506965293E+03  0.14751635064E+04  0.17834350780E+04  0.50400001928E-02 0.  1.
       -1    1    3    3    0  502  0.95470718735E+03 -0.30506965293E+03 -0.11588053537E+04  0.15321106861E+04  0.50400001928E-02 0. -1.
</event>
<event>
 5   0  0.1784626E-06  0.3357416E+04  0.7818609E-02  0.8148438E-01
        2   -1    0    0  501    0  0.00000000000E+00  0.00000000000E+00  0.25281388825E+04  0.25281388825E+04  0.25500000920E-02 0. -1.
       -2   -1    0    0    0  501  0.00000000000E+00  0.00000000000E+00 -0.11146779000E+04  0.11146779000E+04  0.25500000920E-02 0.  1.
    10030    2    1    2    0    0  0.00000000000E+00  0.00000000000E+00  0.14134609825E+04  0.36428167826E+04  0.33574159948E+04 0.  0.
        2    1    3    3  502    0  0.16714810907E+04 -0.15543383697E+03  0.71454151414E+03  0.18244391712E+04  0.25500000920E-02 0.  1.
       -2    1    3    3    0  502 -0.16714810907E+04  0.15543383697E+03  0.69891946837E+03  0.18183776113E+04  0.25500000920E-02 0. -1.
</event>
<event>
 5   0  0.5985183E-07  0.3342440E+04  0.7818609E-02  0.8152180E-01
       -1   -1    0    0    0  501  0.00000000000E+00  0.00000000000E+00  0.14051562044E+04  0.14051562044E+04  0.50400001928E-02 0.  1.
        1   -1    0    0  501    0  0.00000000000E+00  0.00000000000E+00 -0.19876626137E+04  0.19876626137E+04  0.50400001928E-02 0. -1.
    10030    2    1    2    0    0  0.00000000000E+00  0.00000000000E+00 -0.58250640925E+03  0.33928188181E+04  0.33424400990E+04 0.  0.
        2    1    3    3  502    0  0.14862003940E+04  0.61181663196E+03  0.17376216099E+03  0.16165718329E+04  0.25500000920E-02 0. -1.
       -2    1    3    3    0  502 -0.14862003940E+04 -0.61181663196E+03 -0.75626857024E+03  0.17762469852E+04  0.25500000920E-02 0.  1.
</event>
<event>
 5   0  0.5988516E-07  0.3293237E+04  0.7818609E-02  0.8164618E-01
       -1   -1    0    0    0  501  0.00000000000E+00  0.00000000000E+00  0.22026034821E+04  0.22026034821E+04  0.50400001928E-02 0. -1.
        1   -1    0    0  501    0  0.00000000000E+00  0.00000000000E+00 -0.12309762794E+04  0.12309762795E+04  0.50400001928E-02 0.  1.
    10030    2    1    2    0    0  0.00000000000E+00  0.00000000000E+00  0.97162720266E+03  0.34335797616E+04  0.32932370941E+04 0.  0.
        4    1    3    3  502    0 -0.57213265759E+03  0.13479216631E+04 -0.29935433733E+03  0.14946047036E+04  0.12699999809E+01 0.  1.
       -4    1    3    3    0  502  0.57213265759E+03 -0.13479216631E+04  0.12709815400E+04  0.19389750580E+04  0.12699999809E+01 0. -1.
</event>
<event>
 5   0  0.1743810E-06  0.3322141E+04  0.7818609E-02  0.8157284E-01
       -2   -1    0    0    0  501  0.00000000000E+00  0.00000000000E+00  0.18524232159E+04  0.18524232159E+04  0.25500000920E-02 0.  1.
        2   -1    0    0  501    0  0.00000000000E+00  0.00000000000E+00 -0.14894842833E+04  0.14894842833E+04  0.25500000920E-02 0. -1.
    10030    2    1    2    0    0  0.00000000000E+00  0.00000000000E+00  0.36293893259E+03  0.33419074992E+04  0.33221410362E+04 0.  0.
        5    1    3    3  502    0  0.47803055256E+03 -0.12545138448E+04  0.11654586898E+04  0.17778172695E+04  0.46999998093E+01 0.  1.
       -5    1    3    3    0  502 -0.47803055256E+03  0.12545138448E+04 -0.80251975716E+03  0.15640902297E+04  0.46999998093E+01 0. -1.
</event>
<event>
 5   0  0.5985183E-07  0.3342299E+04  0.7818609E-02  0.8152215E-01
        1   -1    0    0  501    0  0.00000000000E+00  0.00000000000E+00  0.25440977089E+04  0.25440977089E+04  0.50400001928E-02 0. -1.
       -1   -1    0    0    0  501  0.00000000000E+00  0.00000000000E+00 -0.10977334884E+04  0.10977334884E+04  0.50400001928E-02 0.  1.
    10030    2    1    2    0    0  0.00000000000E+00  0.00000000000E+00  0.14463642205E+04  0.36418311973E+04  0.33422993599E+04 0.  0.
        2    1    3    3  502    0 -0.85240535845E+03 -0.11383289730E+04  0.16795379148E+04  0.22007351847E+04  0.25500000920E-02 0. -1.
       -2    1    3    3    0  502  0.85240535845E+03  0.11383289730E+04 -0.23317369427E+03  0.14410960126E+04  0.25500000920E-02 0.  1.
</event>
<event>
 5   0  0.6023446E-07  0.3180223E+04  0.7818609E-02  0.8194060E-01
        1   -1    0    0  501    0  0.00000000000E+00  0.00000000000E+00  0.14579464233E+04  0.14579464233E+04  0.50400001928E-02 0. -1.
       -1   -1    0    0    0  501  0.00000000000E+00  0.00000000000E+00 -0.17342570883E+04  0.17342570883E+04  0.50400001928E-02 0.  1.
    10030    2    1    2    0    0  0.00000000000E+00  0.00000000000E+00 -0.27631066503E+03  0.31922035116E+04  0.31802225827E+04 0.  0.
        5    1    3    3  502    0  0.65546332165E+03 -0.57775634543E+03  0.11953816754E+04  0.14806734956E+04  0.46999998093E+01 0. -1.
       -5    1    3    3    0  502 -0.65546332165E+03  0.57775634543E+03 -0.14716923404E+04  0.17115300160E+04  0.46999998093E+01 0.  1.
</event>
<event>
 5   0  0.5988516E-07  0.3284920E+04  0.7818609E-02  0.8166743E-01
       -1   -1    0    0    0  501  0.00000000000E+00  0.00000000000E+00  0.12613193412E+04  0.12613193412E+04  0.50400001928E-02 0.  1.
        1   -1    0    0  501    0  0.00000000000E+00  0.00000000000E+00 -0.21387716520E+04  0.21387716520E+04  0.50400001928E-02 0. -1.
    10030    2    1    2    0    0  0.00000000000E+00  0.00000000000E+00 -0.87745231080E+03  0.34000909932E+04  0.32849195126E+04 0.  0.
        4    1    3    3  502    0  0.58430436804E+03 -0.95704968952E+03  0.80348324184E+03  0.13794718683E+04  0.12699999809E+01 0.  1.
       -4    1    3    3    0  502 -0.58430436804E+03  0.95704968952E+03 -0.16809355526E+04  0.20206191249E+04  0.12699999809E+01 0. -1.
</event>
<event>
 5   0  0.5858859E-07  0.3300560E+04  0.7818609E-02  0.8162753E-01
        1   -1    0    0  501    0  0.00000000000E+00  0.00000000000E+00  0.15184226251E+04  0.15184226251E+04  0.50400001928E-02 0.  1.
       -1   -1    0    0    0  501  0.00000000000E+00  0.00000000000E+00 -0.17935881888E+04  0.17935881889E+04  0.50400001928E-02 0. -1.
    10030    2    1    2    0    0  0.00000000000E+00  0.00000000000E+00 -0.27516556379E+03  0.33120108139E+04  0.33005604894E+04 0.  0.
        3    1    3    3  502    0 -0.11106228234E+04  0.17459346236E+03  0.10746889846E+04  0.15552885124E+04  0.10100000352E+00 0.  1.
       -3    1    3    3    0  502  0.11106228234E+04 -0.17459346236E+03 -0.13498545483E+04  0.17567223016E+04  0.10100000352E+00 0. -1.
</event>
<event>
 5   0  0.6023446E-07  0.3199064E+04  0.7818609E-02  0.8189064E-01
        1   -1    0    0  501    0  0.00000000000E+00  0.00000000000E+00  0.28172481479E+04  0.28172481479E+04  0.50400001928E-02 0.  1.
       -1   -1    0    0    0  501  0.00000000000E+00  0.00000000000E+00 -0.90815646539E+03  0.90815646540E+03  0.50400001928E-02 0. -1.
    10030    2    1    2    0    0  0.00000000000E+00  0.00000000000E+00  0.19090916825E+04  0.37254046133E+04  0.31990636881E+04 0.  0.
        5    1    3    3  502    0  0.14673959350E+03 -0.15632183925E+04  0.13102439531E+04  0.20449805763E+04  0.46999998093E+01 0.  1.
       -5    1    3    3    0  502 -0.14673959350E+03  0.15632183925E+04  0.59884772937E+03  0.16804240369E+04  0.46999998093E+01 0. -1.
</event>
<event>
 5   0  0.6085351E-07  0.3256076E+04  0.7818609E-02  0.8174163E-01
       -1   -1    0    0    0  501  0.00000000000E+00  0.00000000000E+00  0.20860880237E+04  0.20860880237E+04  0.50400001928E-02 0.  1.
        1   -1    0    0  501    0  0.00000000000E+00  0.00000000000E+00 -0.12705639323E+04  0.12705639323E+04  0.50400001928E-02 0. -1.
    10030    2    1    2    0    0  0.00000000000E+00  0.00000000000E+00  0.81552409137E+03  0.33566519560E+04  0.32560762906E+04 0.  0.
        1    1    3    3  502    0 -0.84025682128E+01  0.73276194703E+03 -0.10909307261E+04  0.13142071843E+04  0.50400001928E-02 0. -1.
       -1    1    3    3    0  502  0.84025682128E+01 -0.73276194703E+03  0.19064548175E+04  0.20424447716E+04  0.50400001928E-02 0.  1.
</event>
<event>
 5   0  0.1728937E-06  0.3308149E+04  0.7818609E-02  0.8160825E-01
       -2   -1    0    0    0  501  0.00000000000E+00  0.00000000000E+00  0.12841585860E+04  0.12841585860E+04  0.25500000920E-02 0. -1.
        2   -1    0    0  501    0  0.00000000000E+00  0.00000000000E+00 -0.21305487163E+04  0.21305487163E+04  0.25500000920E-02 0.  1.
    10030    2    1    2    0    0  0.00000000000E+00  0.00000000000E+00 -0.84639013029E+03  0.34147073022E+04  0.33081489851E+04 0.  0.
        1    1    3    3  502    0  0.63757988279E+03 -0.99107606751E+03  0.77489121435E+03  0.14103886956E+04  0.50400001928E-02 0. -1.
       -1    1    3    3    0  502 -0.63757988279E+03  0.99107606751E+03 -0.16212813446E+04  0.20043186067E+04  0.50400001928E-02 0.  1.
</event>
<event>
 5   0  0.6085351E-07  0.3349582E+04  0.7818609E-02  0.8150393E-01
        1   -1    0    0  501    0  0.00000000000E+00  0.00000000000E+00  0.19396920511E+04  0.19396920511E+04  0.50400001928E-02 0. -1.
       -1   -1    0    0    0  501  0.00000000000E+00  0.00000000000E+00 -0.14460674461E+04  0.14460674461E+04  0.50400001928E-02 0.  1.
    10030    2    1    2    0    0  0.00000000000E+00  0.00000000000E+00  0.49362460502E+03  0.33857594973E+04  0.33495823804E+04 0.  0.
        1    1    3    3  502    0  0.82528209294E+03  0.12505594838E+04  0.10031828817E+04  0.18031543056E+04  0.50400001928E-02 0. -1.
       -1    1    3    3    0  502 -0.82528209294E+03 -0.12505594838E+04 -0.50955827667E+03  0.15826051917E+04  0.50400001928E-02 0.  1.
</event>
<event>
 5   0  0.1696681E-06  0.3286555E+04  0.7818609E-02  0.8166325E-01
        2   -1    0    0  501    0  0.00000000000E+00  0.00000000000E+00  0.11274709565E+04  0.11274709566E+04  0.25500000920E-02 0. -1.
       -2   -1    0    0    0  501  0.00000000000E+00  0.00000000000E+00 -0.23950600546E+04  0.23950600546E+04  0.25500000920E-02 0.  1.
    10030    2    1    2    0    0  0.00000000000E+00  0.00000000000E+00 -0.12675890981E+04  0.35225310112E+04  0.32865548228E+04 0.  0.
        4    1    3    3  502    0  0.79545144300E+03 -0.92859697790E+03 -0.18104946501E+04  0.21847031460E+04  0.12699999809E+01 0.  1.
       -4    1    3    3    0  502 -0.79545144300E+03  0.92859697790E+03  0.54290555196E+03  0.13378278652E+04  0.12699999809E+01 0. -1.
</event>
<event>
 5   0  0.1743810E-06  0.3307072E+04  0.7818609E-02  0.8161098E-01
       -2   -1    0    0    0  501  0.00000000000E+00  0.00000000000E+00  0.29765656047E+04  0.29765656047E+04  0.25500000920E-02 0.  1.
        2   -1    0    0  501    0  0.00000000000E+00  0.00000000000E+00 -0.91856898426E+03  0.91856898427E+03  0.25500000920E-02 0. -1.
    10030    2    1    2    0    0  0.00000000000E+00  0.00000000000E+00  0.20579966205E+04  0.38951345890E+04  0.33070717223E+04 0.  0.
        5    1    3    3  502    0 -0.12498447255E+04  0.81469309602E+03  0.18687450765E+04  0.23912479858E+04  0.46999998093E+01 0.  1.
       -5    1    3    3    0  502  0.12498447255E+04 -0.81469309602E+03  0.18925154393E+03  0.15038866032E+04  0.46999998093E+01 0. -1.
</event>
<event>
 5   0  0.5985183E-07  0.3318129E+04  0.7818609E-02  0.8158298E-01
       -1   -1    0    0    0  501  0.00000000000E+00  0.00000000000E+00  0.18044784627E+04  0.18044784627E+04  0.50400001928E-02 0. -1.
        1   -1    0    0  501    0  0.00000000000E+00  0.00000000000E+00 -0.15253685930E+04  0.15253685930E+04  0.50400001928E-02 0.  1.
    10030    2    1    2    0    0  0.00000000000E+00  0.00000000000E+00  0.27910986974E+03  0.33298470557E+04  0.33181288545E+04 0.  0.
        2    1    3    3  502    0  0.74701686994E+03 -0.82550599711E+03  0.13739397288E+04  0.17683904359E+04  0.25500000920E-02 0. -1.
       -2    1    3    3    0  502 -0.74701686994E+03  0.82550599711E+03 -0.10948298591E+04  0.15614566198E+04  0.25500000920E-02 0.  1.
</event>
<event>
 5   0  0.6085351E-07  0.3083034E+04  0.7818609E-02  0.8220409E-01
        1   -1    0    0  501    0  0.00000000000E+00  0.00000000000E+00  0.17167244359E+04  0.17167244359E+04  0.50400001928E-02 0. -1.
       -1   -1    0    0    0  501  0.00000000000E+00  0.00000000000E+00 -0.13841913832E+04  0.13841913832E+04  0.50400001928E-02 0.  1.
    10030    2    1    2    0    0  0.00000000000E+00  0.00000000000E+00  0.33253305277E+03  0.31009158191E+04  0.30830343310E+04 0.  0.
        1    1    3    3  502    0 -0.12356337571E+04 -0.62872734856E+03  0.84410877810E+03  0.16231477104E+04  0.50400001928E-02 0. -1.
       -1    1    3    3    0  502  0.12356337571E+04  0.62872734856E+03 -0.51157572533E+03  0.14777681087E+04  0.50400001928E-02 0.  1.
</event>
<event>
 5   0  0.1784626E-06  0.3282020E+04  0.7818609E-02  0.8167485E-01
       -2   -1    0    0    0  501  0.00000000000E+00  0.00000000000E+00  0.19083600309E+04  0.19083600309E+04  0.25500000920E-02 0. -1.
        2   -1    0    0  501    0  0.00000000000E+00  0.00000000000E+00 -0.14111142200E+04  0.14111142200E+04  0.25500000920E-02 0.  1.
    10030    2    1    2    0    0  0.00000000000E+00  0.00000000000E+00  0.49724581090E+03  0.33194742510E+04  0.32820200954E+04 0.  0.
        2    1    3    3  502    0 -0.28278670043E+03 -0.56462854014E+03  0.17805498417E+04  0.18892145048E+04  0.25500000920E-02 0. -1.
       -2    1    3    3    0  502  0.28278670043E+03  0.56462854014E+03 -0.12833040308E+04  0.14302597462E+04  0.25500000920E-02 0.  1.
</event>
<event>
 5   0  0.5858859E-07  0.3296262E+04  0.7818609E-02  0.8163847E-01
        1   -1    0    0  501    0  0.00000000000E+00  0.00000000000E+00  0.15368044661E+04  0.15368044661E+04  0.50400001928E-02 0. -1.
       -1   -1    0    0    0  501  0.00000000000E+00  0.00000000000E+00 -0.17675219244E+04  0.17675219244E+04  0.50400001928E-02 0.  1.
    10030    2    1    2    0    0  0.00000000000E+00  0.00000000000E+00 -0.23071745831E+03  0.33043263905E+04  0.32962618751E+04 0.  0.
        3    1    3    3  502    0 -0.55663120878E+03 -0.68096627885E+03 -0.15126060631E+04  0.17497229746E+04  0.10100000352E+00 0.  1.
       -3    1    3    3    0  502  0.55663120878E+03  0.68096627885E+03  0.12818886048E+04  0.15546034159E+04  0.10100000352E+00 0. -1.
</event>
<event>
 5   0  0.5858859E-07  0.3289743E+04  0.7818609E-02  0.8165510E-01
       -1   -1    0    0    0  501  0.00000000000E+00  0.00000000000E+00  0.11414280805E+04  0.11414280806E+04  0.50400001928E-02 0. -1.
        1   -1    0    0  501    0  0.00000000000E+00  0.00000000000E+00 -0.23703659827E+04  0.23703659827E+04  0.50400001928E-02 0.  1.
    10030    2    1    2    0    0  0.00000000000E+00  0.00000000000E+00 -0.12289379021E+04  0.35117940632E+04  0.32897430257E+04 0.  0.
        3    1    3    3  502    0 -0.16437540901E+04  0.37457380404E+02 -0.66534863842E+03  0.17737021691E+04  0.10100000352E+00 0.  1.
       -3    1    3    3    0  502  0.16437540901E+04 -0.37457380404E+02 -0.56358926368E+03  0.17380918941E+04  0.10100000352E+00 0. -1.
</event>
<event>
 5   0  0.1784626E-06  0.3702909E+04  0.7818609E-02  0.8067317E-01
       -2   -1    0    0    0  501  0.00000000000E+00  0.00000000000E+00  0.13874907363E+04  0.13874907363E+04  0.25500000920E-02 0. -1.
        2   -1    0    0  501    0  0.00000000000E+00  0.00000000000E+00 -0.24705631772E+04  0.24705631772E+04  0.25500000920E-02 0.  1.
    10030    2    1    2    0    0  0.00000000000E+00  0.00000000000E+00 -0.10830724409E+04  0.38580539135E+04  0.37029088684E+04 0.  0.
        2    1    3    3  502    0 -0.43924698474E+03 -0.16499995732E+04 -0.12873832304E+04  0.21384087746E+04  0.25500000920E-02 0.  1.
       -2    1    3    3    0  502  0.43924698474E+03  0.16499995732E+04  0.20431078944E+03  0.17196451390E+04  0.25500000920E-02 0. -1.
</event>
<event>
 5   0  0.6023446E-07  0.3333042E+04  0.7818609E-02  0.8154538E-01
        1   -1    0    0  501    0  0.00000000000E+00  0.00000000000E+00  0.19071227079E+04  0.19071227079E+04  0.50400001928E-02 0. -1.
       -1   -1    0    0    0  501  0.00000000000E+00  0.00000000000E+00 -0.14562734030E+04  0.14562734031E+04  0.50400001928E-02 0.  1.
    10030    2    1    2    0    0  0.00000000000E+00  0.00000000000E+00  0.45084930486E+03  0.33633961110E+04  0.33330418995E+04 0.  0.
        5    1    3    3  502    0  0.43689023069E+03 -0.15076861803E+04 -0.33938627464E+03  0.16059874923E+04  0.46999998093E+01 0. -1.
       -5    1    3    3    0  502 -0.43689023069E+03  0.15076861803E+04  0.79023557949E+03  0.17574086187E+04  0.46999998093E+01 0.  1.
</event>
<event>
 5   0  0.1832626E-06  0.3334784E+04  0.7818609E-02  0.8154101E-01
        2   -1    0    0  501    0  0.00000000000E+00  0.00000000000E+00  0.23050675110E+04  0.23050675110E+04  0.25500000920E-02 0.  1.
       -2   -1    0    0    0  501  0.00000000000E+00  0.00000000000E+00 -0.12061232291E+04  0.12061232291E+04  0.25500000920E-02 0. -1.
    10030    2    1    2    0    0  0.00000000000E+00  0.00000000000E+00  0.10989442819E+04  0.35111907401E+04  0.33347836330E+04 0.  0.
        3    1    3    3  502    0  0.13247257059E+04  0.10120919927E+04  0.51672948676E+03  0.17453474641E+04  0.10100000352E+00 0.  1.
       -3    1    3    3    0  502 -0.13247257059E+04 -0.10120919927E+04  0.58221479510E+03  0.17658432760E+04  0.10100000352E+00 0. -1.
</event>
<event>
 5   0  0.1832626E-06  0.3300629E+04  0.7818609E-02  0.8162735E-01
        2   -1    0    0  501    0  0.00000000000E+00  0.00000000000E+00  0.15859282724E+04  0.15859282724E+04  0.25500000920E-02 0. -1.
       -2   -1    0    0    0  501  0.00000000000E+00  0.00000000000E+00 -0.17173146117E+04  0.17173146117E+04  0.25500000920E-02 0.  1.
    10030    2    1    2    0    0  0.00000000000E+00  0.00000000000E+00 -0.13138633935E+03  0.33032428841E+04  0.33006289069E+04 0.  0.
        3    1    3    3  502    0  0.65013619745E+03  0.14581177375E+04 -0.48405937245E+03  0.16682619392E+04  0.10100000352E+00 0.  1.
       -3    1    3    3    0  502 -0.65013619745E+03 -0.14581177375E+04  0.35267303310E+03  0.16349809449E+04  0.10100000352E+00 0. -1.
</event>
<event>
 5   0  0.1784626E-06  0.3279235E+04  0.7818609E-02  0.8168199E-01
       -2   -1    0    0    0  501  0.00000000000E+00  0.00000000000E+00  0.11180297401E+04  0.11180297401E+04  0.25500000920E-02 0.  1.
        2   -1    0    0  501    0  0.00000000000E+00  0.00000000000E+00 -0.24045380320E+04  0.24045380320E+04  0.25500000920E-02 0. -1.
    10030    2    1    2    0    0  0.00000000000E+00  0.00000000000E+00 -0.12865082920E+04  0.35225677721E+04  0.32792346857E+04 0.  0.
        2    1    3    3  502    0 -0.18106732910E+03 -0.16058221562E+04 -0.94113013855E+03  0.18700738254E+04  0.25500000920E-02 0.  1.
       -2    1    3    3    0  502  0.18106732910E+03  0.16058221562E+04 -0.34537815343E+03  0.16524939467E+04  0.25500000920E-02 0. -1.
</event>
<event>
 5   0  0.5988516E-07  0.3357451E+04  0.7818609E-02  0.8148429E-01
        1   -1    0    0  501    0  0.00000000000E+00  0.00000000000E+00  0.12332779393E+04  0.12332779393E+04  0.50400001928E-02 0.  1.
       -1   -1    0    0    0  501  0.00000000000E+00  0.00000000000E+00 -0.22850641716E+04  0.22850641717E+04  0.50400001928E-02 0. -1.
    10030    2    1    2    0    0  0.00000000000E+00  0.00000000000E+00 -0.10517862324E+04  0.35183421109E+04  0.33574509573E+04 0.  0.
        4    1    3    3  502    0 -0.99479481721E+03 -0.87844249508E+03 -0.16031838965E+04  0.20812203546E+04  0.12699999809E+01 0. -1.
       -4    1    3    3    0  502  0.99479481721E+03  0.87844249508E+03  0.55139766414E+03  0.14371217563E+04  0.12699999809E+01 0.  1.
</event>
<event>
 5   0  0.1728937E-06  0.3288756E+04  0.7818609E-02  0.8165762E-01
        2   -1    0    0  501    0  0.00000000000E+00  0.00000000000E+00  0.22178733207E+04  0.22178733207E+04  0.25500000920E-02 0. -1.
       -2   -1    0    0    0  501  0.00000000000E+00  0.00000000000E+00 -0.12191763825E+04  0.12191763825E+04  0.25500000920E-02 0.  1.
    10030    2    1    2    0    0  0.00000000000E+00  0.00000000000E+00  0.99869693824E+03  0.34370497032E+04  0.32887558572E+04 0.  0.
        1    1    3    3  502    0 -0.68290775295E+03  0.82189480401E+03 -0.80685023353E+03  0.13389852005E+04  0.50400001928E-02 0.  1.
       -1    1    3    3    0  502  0.68290775295E+03 -0.82189480401E+03  0.18055471718E+04  0.20980645027E+04  0.50400001928E-02 0. -1.
</event>
<event>
 5   0  0.1784626E-06  0.3311140E+04  0.7818609E-02  0.8160067E-01
        2   -1    0    0  501    0  0.00000000000E+00  0.00000000000E+00  0.12576937599E+04  0.12576937599E+04  0.25500000920E-02 0.  1.
       -2   -1    0    0    0  501  0.00000000000E+00  0.00000000000E+00 -0.21793161572E+04  0.21793161572E+04  0.25500000920E-02 0. -1.
    10030    2    1    2    0    0  0.00000000000E+00  0.00000000000E+00 -0.92162239730E+03  0.34370099172E+04  0.33111401854E+04 0.  0.
        2    1    3    3  502    0 -0.14627463213E+04  0.77167768169E+03 -0.38176462960E+03  0.16973088928E+04  0.25500000920E-02 0. -1.
       -2    1    3    3    0  502  0.14627463213E+04 -0.77167768169E+03 -0.53985776770E+03  0.17397010244E+04  0.25500000920E-02 0.  1.
</event>
<event>
 5   0  0.1728937E-06  0.3295852E+04  0.7818609E-02  0.8163952E-01
       -2   -1    0    0    0  501  0.00000000000E+00  0.00000000000E+00  0.11901266561E+04  0.11901266561E+04  0.25500000920E-02 0. -1.
        2   -1    0    0  501    0  0.00000000000E+00  0.00000000000E+00 -0.22818240412E+04  0.22818240412E+04  0.25500000920E-02 0.  1.
    10030    2    1    2    0    0  0.00000000000E+00  0.00000000000E+00 -0.10916973850E+04  0.34719506973E+04  0.32958517054E+04 0.  0.
        1    1    3    3  502    0 -0.98214589168E+03 -0.13189039398E+04 -0.65901998615E+03  0.17715601873E+04  0.50400001928E-02 0. -1.
       -1    1    3    3    0  502  0.98214589168E+03  0.13189039398E+04 -0.43267739890E+03  0.17003905100E+04  0.50400001928E-02 0.  1.
</event>
<event>
 5   0  0.1832626E-06  0.3311240E+04  0.7818609E-02  0.8160041E-01
       -2   -1    0    0    0  501  0.00000000000E+00  0.00000000000E+00  0.12935076195E+04  0.12935076195E+04  0.25500000920E-02 0. -1.
        2   -1    0    0  501    0  0.00000000000E+00  0.00000000000E+00 -0.21191037569E+04  0.21191037569E+04  0.25500000920E-02 0.  1.
    10030    2    1    2    0    0  0.00000000000E+00  0.00000000000E+00 -0.82559613734E+03  0.34126113764E+04  0.33112395601E+04 0.  0.
        3    1    3    3  502    0 -0.36423765033E+03 -0.67577637357E+03  0.10989886675E+04  0.13405666244E+04  0.10100000352E+00 0. -1.
       -3    1    3    3    0  502  0.36423765033E+03  0.67577637357E+03 -0.19245848048E+04  0.20720447520E+04  0.10100000352E+00 0.  1.
</event>
<event>
 5   0  0.5985183E-07  0.3268836E+04  0.7818609E-02  0.8170871E-01
       -1   -1    0    0    0  501  0.00000000000E+00  0.00000000000E+00  0.19375684212E+04  0.19375684212E+04  0.50400001928E-02 0. -1.
        1   -1    0    0  501    0  0.00000000000E+00  0.00000000000E+00 -0.13786980928E+04  0.13786980928E+04  0.50400001928E-02 0.  1.
    10030    2    1    2    0    0  0.00000000000E+00  0.00000000000E+00  0.55887032839E+03  0.33162665140E+04  0.32688358093E+04 0.  0.
        2    1    3    3  502    0  0.51859274486E+03  0.13130116480E+04  0.11150267795E+04  0.17989504557E+04  0.25500000920E-02 0. -1.
       -2    1    3    3    0  502 -0.51859274486E+03 -0.13130116480E+04 -0.55615645111E+03  0.15173160584E+04  0.25500000920E-02 0.  1.
</event>
<event>
 5   0  0.1728937E-06  0.3294679E+04  0.7818609E-02  0.8164251E-01
        2   -1    0    0  501    0  0.00000000000E+00  0.00000000000E+00  0.25496399831E+04  0.25496399831E+04  0.25500000920E-02 0.  1.
       -2   -1    0    0    0  501  0.00000000000E+00  0.00000000000E+00 -0.10643571613E+04  0.10643571613E+04  0.25500000920E-02 0. -1.
    10030    2    1    2    0    0  0.00000000000E+00  0.00000000000E+00  0.14852828218E+04  0.36139971445E+04  0.32946790890E+04 0.  0.
        1    1    3    3  502    0  0.11765692885E+03  0.10342136281E+04 -0.65793453776E+03  0.12313889870E+04  0.50400001928E-02 0. -1.
       -1    1    3    3    0  502 -0.11765692885E+03 -0.10342136281E+04  0.21432173596E+04  0.23826081574E+04  0.50400001928E-02 0.  1.
</event>
<event>
 5   0  0.1696681E-06  0.3258371E+04  0.7818609E-02  0.8173569E-01
        2   -1    0    0  501    0  0.00000000000E+00  0.00000000000E+00  0.23325428908E+04  0.23325428908E+04  0.25500000920E-02 0.  1.
       -2   -1    0    0    0  501  0.00000000000E+00  0.00000000000E+00 -0.11379193474E+04  0.11379193474E+04  0.25500000920E-02 0. -1.
    10030    2    1    2    0    0  0.00000000000E+00  0.00000000000E+00  0.11946235434E+04  0.34704622381E+04  0.32583711784E+04 0.  0.
        4    1    3    3  502    0  0.10998360829E+04 -0.94522054619E+03  0.13880390277E+04  0.20074200471E+04  0.12699999809E+01 0.  1.
       -4    1    3    3    0  502 -0.10998360829E+04  0.94522054619E+03 -0.19341548428E+03  0.14630421910E+04  0.12699999809E+01 0. -1.
</event>
<event>
 5   0  0.6085351E-07  0.3290160E+04  0.7818609E-02  0.8165404E-01
       -1   -1    0    0    0  501  0.00000000000E+00  0.00000000000E+00  0.13466661874E+04  0.13466661874E+04  0.50400001928E-02 0. -1.
        1   -1    0    0  501    0  0.00000000000E+00  0.00000000000E+00 -0.20096206849E+04  0.20096206849E+04  0.50400001928E-02 0.  1.
    10030    2    1    2    0    0  0.00000000000E+00  0.00000000000E+00 -0.66295449757E+03  0.33562868723E+04  0.32901600118E+04 0.  0.
        1    1    3    3  502    0 -0.99431098658E+03  0.12683455950E+04  0.52067397562E+01  0.16116395368E+04  0.50400001928E-02 0. -1.
       -1    1    3    3    0  502  0.99431098658E+03 -0.12683455950E+04 -0.66816123733E+03  0.17446473355E+04  0.50400001928E-02 0.  1.
</event>
<event>
 5   0  0.5985183E-07  0.3306604E+04  0.7818609E-02  0.8161217E-01
       -1   -1    0    0    0  501  0.00000000000E+00  0.00000000000E+00  0.13631935077E+04  0.13631935078E+04  0.50400001928E-02 0. -1.
        1   -1    0    0  501    0  0.00000000000E+00  0.00000000000E+00 -0.20051501678E+04  0.20051501678E+04  0.50400001928E-02 0.  1.
    10030    2    1    2    0    0  0.00000000000E+00  0.00000000000E+00 -0.64195666003E+03  0.33683436755E+04  0.33066041135E+04 0.  0.
        2    1    3    3  502    0  0.14458778400E+04 -0.57073521977E+03 -0.89461460985E+03  0.17934984581E+04  0.25500000920E-02 0.  1.
       -2    1    3    3    0  502 -0.14458778400E+04  0.57073521977E+03  0.25265794982E+03  0.15748452174E+04  0.25500000920E-02 0. -1.
</event>
<event>
 5   0  0.6023446E-07  0.3267482E+04  0.7818609E-02  0.8171219E-01
       -1   -1    0    0    0  501  0.00000000000E+00  0.00000000000E+00  0.18986390165E+04  0.18986390165E+04  0.50400001928E-02 0.  1.
        1   -1    0    0  501    0  0.00000000000E+00  0.00000000000E+00 -0.14058019439E+04  0.14058019440E+04  0.50400001928E-02 0. -1.
    10030    2    1    2    0    0  0.00000000000E+00  0.00000000000E+00  0.49283707257E+03  0.33044409605E+04  0.32674824684E+04 0.  0.
        5    1    3    3  502    0  0.50352967625E+03 -0.14828446085E+04  0.71721401705E+03  0.17224367344E+04  0.46999998093E+01 0.  1.
       -5    1    3    3    0  502 -0.50352967625E+03  0.14828446085E+04 -0.22437694449E+03  0.15820042260E+04  0.46999998093E+01 0. -1.
</event>
<event>
 5   0  0.5858859E-07  0.3275311E+04  0.7818609E-02  0.8169206E-01
        1   -1    0    0  501    0  0.00000000000E+00  0.00000000000E+00  0.14637675581E+04  0.14637675581E+04  0.50400001928E-02 0. -1.
       -1   -1    0    0    0  501  0.00000000000E+00  0.00000000000E+00 -0.18322003520E+04  0.18322003520E+04  0.50400001928E-02 0.  1.
    10030    2    1    2    0    0  0.00000000000E+00  0.00000000000E+00 -0.36843279389E+03  0.32959679100E+04  0.32753109380E+04 0.  0.
        3    1    3    3  502    0 -0.62097249483E+01 -0.18065452454E+03  0.14536978373E+04  0.14648931805E+04  0.10100000352E+00 0. -1.
       -3    1    3    3    0  502  0.62097249483E+01  0.18065452454E+03 -0.18221306312E+04  0.18310747296E+04  0.10100000352E+00 0.  1.
</event>
<event>
 5   0  0.1696681E-06  0.3295604E+04  0.7818609E-02  0.8164015E-01
        2   -1    0    0  501    0  0.00000000000E+00  0.00000000000E+00  0.17090751725E+04  0.17090751725E+04  0.25500000920E-02 0.  1.
       -2   -1    0    0    0  501  0.00000000000E+00  0.00000000000E+00 -0.15887251630E+04  0.15887251630E+04  0.25500000920E-02 0. -1.
    10030    2    1    2    0    0  0.00000000000E+00  0.00000000000E+00  0.12035000955E+03  0.32978003355E+04  0.32956035757E+04 0.  0.
        4    1    3    3  502    0  0.22593883214E+02  0.69824695763E+03 -0.14331970118E+04  0.15944010113E+04  0.12699999809E+01 0. -1.
       -4    1    3    3    0  502 -0.22593883214E+02 -0.69824695763E+03  0.15535470213E+04  0.17033993242E+04  0.12699999809E+01 0.  1.
</event>
<event>
 5   0  0.6085351E-07  0.3296827E+04  0.7818609E-02  0.8163703E-01
       -1   -1    0    0    0  501  0.00000000000E+00  0.00000000000E+00  0.19443235778E+04  0.19443235778E+04  0.50400001928E-02 0.  1.
        1   -1    0    0  501    0  0.00000000000E+00  0.00000000000E+00 -0.13975380927E+04  0.13975380927E+04  0.50400001928E-02 0. -1.
    10030    2    1    2    0    0  0.00000000000E+00  0.00000000000E+00  0.54678548512E+03  0.33418616705E+04  0.32968265132E+04 0.  0.
        1    1    3    3  502    0 -0.36510418120E+03 -0.19524301290E+03 -0.13439735425E+04  0.14063021653E+04  0.50400001928E-02 0. -1.
       -1    1    3    3    0  502  0.36510418120E+03  0.19524301290E+03  0.18907590276E+04  0.19355595051E+04  0.50400001928E-02 0.  1.
</event>
<event>
 5   0  0.1743810E-06  0.3364265E+04  0.7818609E-02  0.8146733E-01
        2   -1    0    0  501    0  0.00000000000E+00  0.00000000000E+00  0.17729816949E+04  0.17729816949E+04  0.25500000920E-02 0. -1.
       -2   -1    0    0    0  501  0.00000000000E+00  0.00000000000E+00 -0.15959388661E+04  0.15959388661E+04  0.25500000920E-02 0.  1.
    10030    2    1    2    0    0  0.00000000000E+00  0.00000000000E+00  0.17704282879E+03  0.33689205609E+04  0.33642653853E+04 0.  0.
        5    1    3    3  502    0 -0.89035699691E+03 -0.78072702326E+02  0.15155256620E+04  0.17594519177E+04  0.46999998093E+01 0. -1.
       -5    1    3    3    0  502  0.89035699691E+03  0.78072702326E+02 -0.13384828332E+04  0.16094686432E+04  0.46999998093E+01 0.  1.
</event>
<event>
 5   0  0.1743810E-06  0.3082871E+04  0.7818609E-02  0.8220455E-01
        2   -1    0    0  501    0  0.00000000000E+00  0.00000000000E+00  0.24897438813E+04  0.24897438813E+04  0.25500000920E-02 0.  1.
       -2   -1    0    0    0  501  0.00000000000E+00  0.00000000000E+00 -0.95432430573E+03  0.95432430574E+03  0.25500000920E-02 0. -1.
    10030    2    1    2    0    0  0.00000000000E+00  0.00000000000E+00  0.15354195755E+04  0.34440681870E+04  0.30828708056E+04 0.  0.
        5    1    3    3  502    0  0.93998542603E+03  0.10935427653E+04  0.13761201383E+04  0.19932729632E+04  0.46999998093E+01 0. -1.
       -5    1    3    3    0  502 -0.93998542603E+03 -0.10935427653E+04  0.15929943725E+03  0.14507952238E+04  0.46999998093E+01 0.  1.
</event>
<event>
 5   0  0.1743810E-06  0.3286482E+04  0.7818609E-02  0.8166344E-01
        2   -1    0    0  501    0  0.00000000000E+00  0.00000000000E+00  0.25316734905E+04  0.25316734905E+04  0.25500000920E-02 0. -1.
       -2   -1    0    0    0  501  0.00000000000E+00  0.00000000000E+00 -0.10665833867E+04  0.10665833867E+04  0.25500000920E-02 0.  1.
    10030    2    1    2    0    0  0.00000000000E+00  0.00000000000E+00  0.14650901038E+04  0.35982568772E+04  0.32864819400E+04 0.  0.
        5    1    3    3  502    0 -0.13955315398E+04  0.46861480529E+03  0.15319551060E+04  0.21246215313E+04  0.46999998093E+01 0. -1.
       -5    1    3    3    0  502  0.13955315398E+04 -0.46861480529E+03 -0.66865002170E+02  0.14736353459E+04  0.46999998093E+01 0.  1.
</event>
<event>
 5   0  0.1784626E-06  0.3287009E+04  0.7818609E-02  0.8166209E-01
       -2   -1    0    0    0  501  0.00000000000E+00  0.00000000000E+00  0.93216004860E+03  0.93216004860E+03  0.25500000920E-02 0. -1.
        2   -1    0    0  501    0  0.00000000000E+00  0.00000000000E+00 -0.28976862571E+04  0.28976862571E+04  0.25500000920E-02 0.  1.
    10030    2    1    2    0    0  0.00000000000E+00  0.00000000000E+00 -0.19655262085E+04  0.38298463057E+04  0.32870091951E+04 0.  0.
        2    1    3    3  502    0  0.13487798127E+04  0.47129470054E+03 -0.36350415299E+02  0.14292120314E+04  0.25500000920E-02 0. -1.
       -2    1    3    3    0  502 -0.13487798127E+04 -0.47129470054E+03 -0.19291757932E+04  0.24006342743E+04  0.25500000920E-02 0.  1.
</event>
<event>
 5   0  0.5988516E-07  0.3316397E+04  0.7818609E-02  0.8158736E-01
        1   -1    0    0  501    0  0.00000000000E+00  0.00000000000E+00  0.17876421482E+04  0.17876421482E+04  0.50400001928E-02 0. -1.
       -1   -1    0    0    0  501  0.00000000000E+00  0.00000000000E+00 -0.15381275574E+04  0.15381275574E+04  0.50400001928E-02 0.  1.
    10030    2    1    2    0    0  0.00000000000E+00  0.00000000000E+00  0.24951459077E+03  0.33257697056E+04  0.33163966294E+04 0.  0.
        4    1    3    3  502    0  0.16209358634E+04  0.34839601314E+03  0.15324855377E+03  0.16650223985E+04  0.12699999809E+01 0.  1.
       -4    1    3    3    0  502 -0.16209358634E+04 -0.34839601314E+03  0.96266037010E+02  0.16607473071E+04  0.12699999809E+01 0. -1.
</event>
<event>
 5   0  0.1728937E-06  0.3292537E+04  0.7818609E-02  0.8164797E-01
       -2   -1    0    0    0  501  0.00000000000E+00  0.00000000000E+00  0.22531725124E+04  0.22531725124E+04  0.25500000920E-02 0.  1.
        2   -1    0    0  501    0  0.00000000000E+00  0.00000000000E+00 -0.12028376705E+04  0.12028376706E+04  0.25500000920E-02 0. -1.
    10030    2    1    2    0    0  0.00000000000E+00  0.00000000000E+00  0.10503348418E+04  0.34560101829E+04  0.32925374872E+04 0.  0.
        1    1    3    3  502    0 -0.73036154009E+03  0.14503690152E+04  0.80916019567E+03  0.18143148794E+04  0.50400001928E-02 0. -1.
       -1    1    3    3    0  502  0.73036154009E+03 -0.14503690152E+04  0.24117464614E+03  0.16416953035E+04  0.50400001928E-02 0.  1.
</event>
<event>
 5   0  0.1743810E-06  0.3182158E+04  0.7818609E-02  0.8193545E-01
       -2   -1    0    0    0  501  0.00000000000E+00  0.00000000000E+00  0.15177119382E+04  0.15177119382E+04  0.25500000920E-02 0.  1.
        2   -1    0    0  501    0  0.00000000000E+00  0.00000000000E+00 -0.16679929229E+04  0.16679929229E+04  0.25500000920E-02 0. -1.
    10030    2    1    2    0    0  0.00000000000E+00  0.00000000000E+00 -0.15028098470E+03  0.31857048612E+04  0.31821582437E+04 0.  0.
        5    1    3    3  502    0 -0.15008330100E+04  0.37968824568E+03 -0.44276604395E+03  0.16101946303E+04  0.46999998093E+01 0. -1.
       -5    1    3    3    0  502  0.15008330100E+04 -0.37968824568E+03  0.29248505925E+03  0.15755102309E+04  0.46999998093E+01 0.  1.
</event>
<event>
 5   0  0.1696681E-06  0.3304650E+04  0.7818609E-02  0.8161713E-01
        2   -1    0    0  501    0  0.00000000000E+00  0.00000000000E+00  0.18336689581E+04  0.18336689581E+04  0.25500000920E-02 0.  1.
       -2   -1    0    0    0  501  0.00000000000E+00  0.00000000000E+00 -0.14889151237E+04  0.14889151237E+04  0.25500000920E-02 0. -1.
    10030    2    1    2    0    0  0.00000000000E+00  0.00000000000E+00  0.34475383437E+03  0.33225840818E+04  0.33046497203E+04 0.  0.
        4    1    3    3  502    0 -0.10669417797E+04  0.11880185680E+04 -0.25469050024E+03  0.16169792030E+04  0.12699999809E+01 0. -1.
       -4    1    3    3    0  502  0.10669417797E+04 -0.11880185680E+04  0.59944433461E+03  0.17056048787E+04  0.12699999809E+01 0.  1.
</event>
<event>
 5   0  0.1832626E-06  0.3431150E+04  0.7818609E-02  0.8130303E-01
        2   -1    0    0  501    0  0.00000000000E+00  0.00000000000E+00  0.25255609975E+04  0.25255609975E+04  0.25500000920E-02 0.  1.
       -2   -1    0    0    0  501  0.00000000000E+00  0.00000000000E+00 -0.11653635914E+04  0.11653635914E+04  0.25500000920E-02 0. -1.
    10030    2    1    2    0    0  0.00000000000E+00  0.00000000000E+00  0.13601974061E+04  0.36909245889E+04  0.34311495650E+04 0.  0.
        3    1    3    3  502    0  0.89797815479E+03 -0.95695404439E+03 -0.50858411064E+03  0.14074031467E+04  0.10100000352E+00 0. -1.
       -3    1    3    3    0  502 -0.89797815479E+03  0.95695404439E+03  0.18687815167E+04  0.22835214422E+04  0.10100000352E+00 0.  1.
</event>
<event>
 5   0  0.1743810E-06  0.3301672E+04  0.7818609E-02  0.8162470E-01
       -2   -1    0    0    0  501  0.00000000000E+00  0.00000000000E+00  0.12591713418E+04  0.12591713418E+04  0.25500000920E-02 0.  1.
        2   -1    0    0  501    0  0.00000000000E+00  0.00000000000E+00 -0.21643271727E+04  0.21643271727E+04  0.25500000920E-02 0. -1.
    10030    2    1    2    0    0  0.00000000000E+00  0.00000000000E+00 -0.90515583086E+03  0.34234985144E+04  0.33016715464E+04 0.  0.
        5    1    3    3  502    0 -0.14377567360E+04  0.56228710275E+03  0.15374221216E+03  0.15514412575E+04  0.46999998093E+01 0.  1.
       -5    1    3    3    0  502  0.14377567360E+04 -0.56228710275E+03 -0.10588980430E+04  0.18720572569E+04  0.46999998093E+01 0. -1.
</event>
<event>
 5   0  0.5988516E-07  0.3341751E+04  0.7818609E-02  0.8152352E-01
        1   -1    0    0  501    0  0.00000000000E+00  0.00000000000E+00  0.23238747369E+04  0.23238747369E+04  0.50400001928E-02 0.  1.
       -1   -1    0    0    0  501  0.00000000000E+00  0.00000000000E+00 -0.12013664103E+04  0.12013664103E+04  0.50400001928E-02 0. -1.
    10030    2    1    2    0    0  0.00000000000E+00  0.00000000000E+00  0.11225083266E+04  0.35252411473E+04  0.33417510684E+04 0.  0.
        4    1    3    3  502    0 -0.76039758828E+03 -0.10769947596E+04  0.16441170750E+04  0.21074261016E+04  0.12699999809E+01 0.  1.
       -4    1    3    3    0  502  0.76039758828E+03  0.10769947596E+04 -0.52160874839E+03  0.14178150457E+04  0.12699999809E+01 0. -1.
</event>
<event>
 5   0  0.5858859E-07  0.3338154E+04  0.7818609E-02  0.8153254E-01
       -1   -1    0    0    0  501  0.00000000000E+00  0.00000000000E+00  0.11631301948E+04  0.11631301948E+04  0.50400001928E-02 0.  1.
        1   -1    0    0  501    0  0.00000000000E+00  0.00000000000E+00 -0.23951042800E+04  0.23951042800E+04  0.50400001928E-02 0. -1.
    10030    2    1    2    0    0  0.00000000000E+00  0.00000000000E+00 -0.12319740852E+04  0.35582344748E+04  0.33381540454E+04 0.  0.
        3    1    3    3  502    0  0.11157292753E+04  0.50404094257E+03  0.59322401449E+03  0.13604498628E+04  0.10100000352E+00 0.  1.
       -3    1    3    3    0  502 -0.11157292753E+04 -0.50404094257E+03 -0.18251980997E+04  0.21977846120E+04  0.10100000352E+00 0. -1.
</event>
<event>
 5   0  0.6023446E-07  0.3266975E+04  0.7818609E-02  0.8171350E-01
       -1   -1    0    0    0  501  0.00000000000E+00  0.00000000000E+00  0.88580729352E+03  0.88580729354E+03  0.50400001928E-02 0. -1.
        1   -1    0    0  501    0  0.00000000000E+00  0.00000000000E+00 -0.30122594164E+04  0.30122594164E+04  0.50400001928E-02 0.  1.
    10030    2    1    2    0    0  0.00000000000E+00  0.00000000000E+00 -0.21264521229E+04  0.38980667100E+04  0.32669749684E+04 0.  0.
        5    1    3    3  502    0  0.68275139883E+03 -0.14785041173E+04 -0.91166313760E+03  0.18663535742E+04  0.46999998093E+01 0. -1.
       -5    1    3    3    0  502 -0.68275139883E+03  0.14785041173E+04 -0.12147889853E+04  0.20317131358E+04  0.46999998093E+01 0.  1.
</event>
<event>
 5   0  0.1728937E-06  0.3285517E+04  0.7818609E-02  0.8166590E-01
        2   -1    0    0  501    0  0.00000000000E+00  0.00000000000E+00  0.16980165760E+04  0.16980165760E+04  0.25500000920E-02 0. -1.
       -2   -1    0    0    0  501  0.00000000000E+00  0.00000000000E+00 -0.15892983386E+04  0.15892983386E+04  0.25500000920E-02 0.  1.
    10030    2    1    2    0    0  0.00000000000E+00  0.00000000000E+00  0.10871823734E+03  0.32873149146E+04  0.32855166554E+04 0.  0.
        1    1    3    3  502    0 -0.51605351588E+03  0.12044791594E+04 -0.93692713083E+03  0.16108735907E+04  0.50400001928E-02 0.  1.
       -1    1    3    3    0  502  0.51605351588E+03 -0.12044791594E+04  0.10456453682E+04  0.16764413239E+04  0.50400001928E-02 0. -1.
</event>
<event>
 5   0  0.1743810E-06  0.2978766E+04  0.7818609E-02  0.8249820E-01
       -2   -1    0    0    0  501  0.00000000000E+00  0.00000000000E+00  0.10549718403E+04  0.10549718403E+04  0.25500000920E-02 0. -1.
        2   -1    0    0  501    0  0.00000000000E+00  0.00000000000E+00 -0.21026742797E+04  0.21026742797E+04  0.25500000920E-02 0.  1.
    10030    2    1    2    0    0  0.00000000000E+00  0.00000000000E+00 -0.10477024394E+04  0.31576461200E+04  0.29787662913E+04 0.  0.
        5    1    3    3  502    0 -0.41768352073E+03 -0.14293228940E+04 -0.49355885292E+03  0.15687720963E+04  0.46999998093E+01 0.  1.
       -5    1    3    3    0  502  0.41768352073E+03  0.14293228940E+04 -0.55414358644E+03  0.15888740237E+04  0.46999998093E+01 0. -1.
</event>
<event>
 5   0  0.6023446E-07  0.3310905E+04  0.7818609E-02  0.8160126E-01
       -1   -1    0    0    0  501  0.00000000000E+00  0.00000000000E+00  0.19050659103E+04  0.19050659103E+04  0.50400001928E-02 0.  1.
        1   -1    0    0  501    0  0.00000000000E+00  0.00000000000E+00 -0.14385447427E+04  0.14385447427E+04  0.50400001928E-02 0. -1.
    10030    2    1    2    0    0  0.00000000000E+00  0.00000000000E+00  0.46652116759E+03  0.33436106531E+04  0.33109047403E+04 0.  0.
        5    1    3    3  502    0  0.37090992081E+03  0.15558621022E+04  0.66434897897E+03  0.17319534366E+04  0.46999998093E+01 0.  1.
       -5    1    3    3    0  502 -0.37090992081E+03 -0.15558621022E+04 -0.19782781138E+03  0.16116572165E+04  0.46999998093E+01 0. -1.
</event>
<event>
 5   0  0.6085351E-07  0.3271306E+04  0.7818609E-02  0.8170235E-01
       -1   -1    0    0    0  501  0.00000000000E+00  0.00000000000E+00  0.14909796462E+04  0.14909796462E+04  0.50400001928E-02 0.  1.
        1   -1    0    0  501    0  0.00000000000E+00  0.00000000000E+00 -0.17943647767E+04  0.17943647767E+04  0.50400001928E-02 0. -1.
    10030    2    1    2    0    0  0.00000000000E+00  0.00000000000E+00 -0.30338513046E+03  0.32853444229E+04  0.32713063812E+04 0.  0.
        1    1    3    3  502    0  0.45386173779E+03 -0.39349284198E+03  0.13761953386E+04  0.15015794031E+04  0.50400001928E-02 0.  1.
       -1    1    3    3    0  502 -0.45386173779E+03  0.39349284198E+03 -0.16795804691E+04  0.17837650198E+04  0.50400001928E-02 0. -1.
</event>
<event>
 5   0  0.1696681E-06  0.3307687E+04  0.7818609E-02  0.8160942E-01
        2   -1    0    0  501    0  0.00000000000E+00  0.00000000000E+00  0.18829231463E+04  0.18829231463E+04  0.25500000920E-02 0. -1.
       -2   -1    0    0    0  501  0.00000000000E+00  0.00000000000E+00 -0.14526344898E+04  0.14526344898E+04  0.25500000920E-02 0.  1.
    10030    2    1    2    0    0  0.00000000000E+00  0.00000000000E+00  0.43028865643E+03  0.33355576361E+04  0.33076874725E+04 0.  0.
        4    1    3    3  502    0 -0.26804767285E+03  0.13234942488E+03  0.18554510994E+04  0.18793792380E+04  0.12699999809E+01 0. -1.
       -4    1    3    3    0  502  0.26804767285E+03 -0.13234942488E+03 -0.14251624430E+04  0.14561783981E+04  0.12699999809E+01 0.  1.
</event>
<event>
 5   0  0.6085351E-07  0.3286478E+04  0.7818609E-02  0.8166345E-01
       -1   -1    0    0    0  501  0.00000000000E+00  0.00000000000E+00  0.11854005035E+04  0.11854005035E+04  0.50400001928E-02 0. -1.
        1   -1    0    0  501    0  0.00000000000E+00  0.00000000000E+00 -0.22779082918E+04  0.22779082918E+04  0.50400001928E-02 0.  1.
    10030    2    1    2    0    0  0.00000000000E+00  0.00000000000E+00 -0.10925077883E+04  0.34633087953E+04  0.32864775283E+04 0.  0.
        1    1    3    3  502    0 -0.15969893835E+04  0.80324327274E+02 -0.14718760866E+03  0.16057681280E+04  0.50400001928E-02 0. -1.
       -1    1    3    3    0  502  0.15969893835E+04 -0.80324327274E+02 -0.94532017963E+03  0.18575406673E+04  0.50400001928E-02 0.  1.
</event>
<event>
 5   0  0.1696681E-06  0.3309723E+04  0.7818609E-02  0.8160426E-01
        2   -1    0    0  501    0  0.00000000000E+00  0.00000000000E+00  0.18656203644E+04  0.18656203644E+04  0.25500000920E-02 0. -1.
       -2   -1    0    0    0  501  0.00000000000E+00  0.00000000000E+00 -0.14679124053E+04  0.14679124053E+04  0.25500000920E-02 0.  1.
    10030    2    1    2    0    0  0.00000000000E+00  0.00000000000E+00  0.39770795901E+03  0.33335327697E+04  0.33097234184E+04 0.  0.
        4    1    3    3  502    0  0.63450972104E+03 -0.83147080360E+03 -0.10927986360E+04  0.15126654472E+04  0.12699999809E+01 0.  1.
       -4    1    3    3    0  502 -0.63450972104E+03  0.83147080360E+03  0.14905065951E+04  0.18208673225E+04  0.12699999809E+01 0. -1.
</event>
<event>
 5   0  0.1728937E-06  0.3038940E+04  0.7818609E-02  0.8232698E-01
        2   -1    0    0  501    0  0.00000000000E+00  0.00000000000E+00  0.19276459213E+04  0.19276459213E+04  0.25500000920E-02 0.  1.
       -2   -1    0    0    0  501  0.00000000000E+00  0.00000000000E+00 -0.11977245769E+04  0.11977245769E+04  0.25500000920E-02 0. -1.
    10030    2    1    2    0    0  0.00000000000E+00  0.00000000000E+00  0.72992134441E+03  0.31253704982E+04  0.30389398780E+04 0.  0.
        1    1    3    3  502    0 -0.42465713177E+03 -0.23637909514E+03 -0.11156301954E+04  0.12168974850E+04  0.50400001928E-02 0. -1.
       -1    1    3    3    0  502  0.42465713177E+03  0.23637909514E+03  0.18455515398E+04  0.19084730132E+04  0.50400001928E-02 0.  1.
</event>
<event>
 5   0  0.5685000E-07  0.3296054E+04  0.7818609E-02  0.8163900E-01
        4   -1    0    0  501    0  0.00000000000E+00  0.00000000000E+00  0.15416866447E+04  0.15416871678E+04  0.12699999809E+01 0. -1.
       -4   -1    0    0    0  501  0.00000000000E+00  0.00000000000E+00 -0.17617012223E+04  0.17617016800E+04  0.12699999809E+01 0.  1.
    10030    2    1    2    0    0  0.00000000000E+00  0.00000000000E+00 -0.22001457753E+03  0.33033888478E+04  0.32960539234E+04 0.  0.
        3    1    3    3  502    0 -0.18305461370E+03 -0.15292019990E+04  0.47783450771E+03  0.16125425800E+04  0.10100000352E+00 0.  1.
       -3    1    3    3    0  502  0.18305461370E+03  0.15292019990E+04 -0.69784908524E+03  0.16908462678E+04  0.10100000352E+00 0. -1.
</event>
<event>
 5   0  0.6085351E-07  0.3463982E+04  0.7818609E-02  0.8122379E-01
       -1   -1    0    0    0  501  0.00000000000E+00  0.00000000000E+00  0.15580587035E+04  0.15580587035E+04  0.50400001928E-02 0. -1.
        1   -1    0    0  501    0  0.00000000000E+00  0.00000000000E+00 -0.19253401904E+04  0.19253401904E+04  0.50400001928E-02 0.  1.
    10030    2    1    2    0    0  0.00000000000E+00  0.00000000000E+00 -0.36728148690E+03  0.34833988939E+04  0.34639821252E+04 0.  0.
        1    1    3    3  502    0  0.23926294869E+03  0.17102787461E+04 -0.31664280926E+03  0.17557228758E+04  0.50400001928E-02 0. -1.
       -1    1    3    3    0  502 -0.23926294869E+03 -0.17102787461E+04 -0.50638677640E+02  0.17276760181E+04  0.50400001928E-02 0.  1.
</event>
<event>
 5   0  0.5685000E-07  0.3493622E+04  0.7818609E-02  0.8115303E-01
        3   -1    0    0  501    0  0.00000000000E+00  0.00000000000E+00  0.20136947339E+04  0.20136947365E+04  0.10100000352E+00 0. -1.
       -3   -1    0    0    0  501  0.00000000000E+00  0.00000000000E+00 -0.15152983654E+04  0.15152983688E+04  0.10100000352E+00 0.  1.
    10030    2    1    2    0    0  0.00000000000E+00  0.00000000000E+00  0.49839636848E+03  0.35289931053E+04  0.34936218165E+04 0.  0.
        3    1    3    3  502    0 -0.75771128311E+03  0.12680876590E+04  0.11909331416E+04  0.18974968926E+04  0.10100000352E+00 0.  1.
       -3    1    3    3    0  502  0.75771128311E+03 -0.12680876590E+04 -0.69253677315E+03  0.16314962126E+04  0.10100000352E+00 0. -1.
</event>
<event>
 5   0  0.1696681E-06  0.3183075E+04  0.7818609E-02  0.8193301E-01
        2   -1    0    0  501    0  0.00000000000E+00  0.00000000000E+00  0.15027264394E+04  0.15027264394E+04  0.25500000920E-02 0.  1.
       -2   -1    0    0    0  501  0.00000000000E+00  0.00000000000E+00 -0.16855974684E+04  0.16855974684E+04  0.25500000920E-02 0. -1.
    10030    2    1    2    0    0  0.00000000000E+00  0.00000000000E+00 -0.18287102905E+03  0.31883239078E+04  0.31830751684E+04 0.  0.
        4    1    3    3  502    0 -0.55001763304E+03  0.68430683321E+03 -0.14211014023E+04  0.16704269057E+04  0.12699999809E+01 0. -1.
       -4    1    3    3    0  502  0.55001763304E+03 -0.68430683321E+03  0.12382303733E+04  0.15178970021E+04  0.12699999809E+01 0.  1.
</event>
<event>
 5   0  0.5988516E-07  0.3307744E+04  0.7818609E-02  0.8160928E-01
        1   -1    0    0  501    0  0.00000000000E+00  0.00000000000E+00  0.20171572871E+04  0.20171572871E+04  0.50400001928E-02 0.  1.
       -1   -1    0    0    0  501  0.00000000000E+00  0.00000000000E+00 -0.13560137051E+04  0.13560137051E+04  0.50400001928E-02 0. -1.
    10030    2    1    2    0    0  0.00000000000E+00  0.00000000000E+00  0.66114358204E+03  0.33731709922E+04  0.33077442021E+04 0.  0.
        4    1    3    3  502    0 -0.12334181122E+04  0.10795892653E+04  0.55505796464E+03  0.17305849237E+04  0.12699999809E+01 0. -1.
       -4    1    3    3    0  502  0.12334181122E+04 -0.10795892653E+04  0.10608561740E+03  0.16425860685E+04  0.12699999809E+01 0.  1.
</event>
<event>
 5   0  0.1696681E-06  0.3364343E+04  0.7818609E-02  0.8146713E-01
       -2   -1    0    0    0  501  0.00000000000E+00  0.00000000000E+00  0.12341657649E+04  0.12341657649E+04  0.25500000920E-02 0.  1.
        2   -1    0    0  501    0  0.00000000000E+00  0.00000000000E+00 -0.22928050398E+04  0.22928050398E+04  0.25500000920E-02 0. -1.
    10030    2    1    2    0    0  0.00000000000E+00  0.00000000000E+00 -0.10586392749E+04  0.35269708047E+04  0.33643433153E+04 0.  0.
        4    1    3    3  502    0  0.78641960844E+02 -0.43810154152E+03  0.11713111632E+04  0.12530319120E+04  0.12699999809E+01 0.  1.
       -4    1    3    3    0  502 -0.78641960844E+02  0.43810154152E+03 -0.22299504380E+04  0.22739388927E+04  0.12699999809E+01 0. -1.
</event>
<event>
 5   0  0.5985183E-07  0.3275206E+04  0.7818609E-02  0.8169233E-01
        1   -1    0    0  501    0  0.00000000000E+00  0.00000000000E+00  0.14527268718E+04  0.14527268718E+04  0.50400001928E-02 0. -1.
       -1   -1    0    0    0  501  0.00000000000E+00  0.00000000000E+00 -0.18460071785E+04  0.18460071785E+04  0.50400001928E-02 0.  1.
    10030    2    1    2    0    0  0.00000000000E+00  0.00000000000E+00 -0.39328030677E+03  0.32987340503E+04  0.32752063958E+04 0.  0.
        2    1    3    3  502    0 -0.98826803633E+03  0.62889200351E+03  0.95594287676E+03  0.15119542478E+04  0.25500000920E-02 0. -1.
       -2    1    3    3    0  502  0.98826803633E+03 -0.62889200351E+03 -0.13492231835E+04  0.17867798025E+04  0.25500000920E-02 0.  1.
</event>
<event>
 5   0  0.1728937E-06  0.3294355E+04  0.7818609E-02  0.8164333E-01
       -2   -1    0    0    0  501  0.00000000000E+00  0.00000000000E+00  0.15665055908E+04  0.15665055908E+04  0.25500000920E-02 0.  1.
        2   -1    0    0  501    0  0.00000000000E+00  0.00000000000E+00 -0.17320037951E+04  0.17320037951E+04  0.25500000920E-02 0. -1.
    10030    2    1    2    0    0  0.00000000000E+00  0.00000000000E+00 -0.16549820431E+03  0.32985093858E+04  0.32943549464E+04 0.  0.
        1    1    3    3  502    0 -0.31459737062E+03  0.85146744183E+03  0.12934751690E+04  0.15802045193E+04  0.50400001928E-02 0.  1.
       -1    1    3    3    0  502  0.31459737062E+03 -0.85146744183E+03 -0.14589733733E+04  0.17183048665E+04  0.50400001928E-02 0. -1.
</event>
<event>
 5   0  0.5858859E-07  0.3306410E+04  0.7818609E-02  0.8161266E-01
        1   -1    0    0  501    0  0.00000000000E+00  0.00000000000E+00  0.22805365882E+04  0.22805365882E+04  0.50400001928E-02 0. -1.
       -1   -1    0    0    0  501  0.00000000000E+00  0.00000000000E+00 -0.11984402586E+04  0.11984402587E+04  0.50400001928E-02 0.  1.
    10030    2    1    2    0    0  0.00000000000E+00  0.00000000000E+00  0.10820963295E+04  0.34789768468E+04  0.33064100524E+04 0.  0.
        3    1    3    3  502    0  0.62083114121E+03 -0.15210443810E+04  0.73528949676E+03  0.17999049889E+04  0.10100000352E+00 0. -1.
       -3    1    3    3    0  502 -0.62083114121E+03  0.15210443810E+04  0.34680683278E+03  0.16790718580E+04  0.10100000352E+00 0.  1.
</event>
<event>
 5   0  0.6085351E-07  0.3310382E+04  0.7818609E-02  0.8160259E-01
       -1   -1    0    0    0  501  0.00000000000E+00  0.00000000000E+00  0.17619668428E+04  0.17619668428E+04  0.50400001928E-02 0. -1.
        1   -1    0    0  501    0  0.00000000000E+00  0.00000000000E+00 -0.15548860351E+04  0.15548860352E+04  0.50400001928E-02 0.  1.
    10030    2    1    2    0    0  0.00000000000E+00  0.00000000000E+00  0.20708080761E+03  0.33168528779E+04  0.33103822367E+04 0.  0.
        1    1    3    3  502    0  0.14320167628E+04  0.57965171528E+03  0.69883092901E+03  0.16955921642E+04  0.50400001928E-02 0. -1.
       -1    1    3    3    0  502 -0.14320167628E+04 -0.57965171528E+03 -0.49175012139E+03  0.16212607137E+04  0.50400001928E-02 0.  1.
</event>
<event>
 5   0  0.5858859E-07  0.3311857E+04  0.7818609E-02  0.8159885E-01
       -1   -1    0    0    0  501  0.00000000000E+00  0.00000000000E+00  0.14895576564E+04  0.14895576565E+04  0.50400001928E-02 0.  1.
        1   -1    0    0  501    0  0.00000000000E+00  0.00000000000E+00 -0.18408811465E+04  0.18408811465E+04  0.50400001928E-02 0. -1.
    10030    2    1    2    0    0  0.00000000000E+00  0.00000000000E+00 -0.35132349004E+03  0.33304388029E+04  0.33118566433E+04 0.  0.
        3    1    3    3  502    0  0.99561132941E+03 -0.13025600377E+04 -0.40976401908E+03  0.16899145341E+04  0.10100000352E+00 0. -1.
       -3    1    3    3    0  502 -0.99561132941E+03  0.13025600377E+04  0.58440529033E+02  0.16405242688E+04  0.10100000352E+00 0.  1.
</event>
<event>
 5   0  0.1832626E-06  0.3313135E+04  0.7818609E-02  0.8159561E-01
       -2   -1    0    0    0  501  0.00000000000E+00  0.00000000000E+00  0.14786135503E+04  0.14786135503E+04  0.25500000920E-02 0.  1.
        2   -1    0    0  501    0  0.00000000000E+00  0.00000000000E+00 -0.18559381291E+04  0.18559381291E+04  0.25500000920E-02 0. -1.
    10030    2    1    2    0    0  0.00000000000E+00  0.00000000000E+00 -0.37732457878E+03  0.33345516794E+04  0.33131346282E+04 0.  0.
        3    1    3    3  502    0 -0.42331563494E+02  0.16554233686E+04 -0.14368825230E+03  0.16621867569E+04  0.10100000352E+00 0. -1.
       -3    1    3    3    0  502  0.42331563494E+02 -0.16554233686E+04 -0.23363632648E+03  0.16723649225E+04  0.10100000352E+00 0.  1.
</event>
<event>
 5   0  0.1784626E-06  0.3289139E+04  0.7818609E-02  0.8165665E-01
        2   -1    0    0  501    0  0.00000000000E+00  0.00000000000E+00  0.19008676091E+04  0.19008676091E+04  0.25500000920E-02 0. -1.
       -2   -1    0    0    0  501  0.00000000000E+00  0.00000000000E+00 -0.14228282231E+04  0.14228282231E+04  0.25500000920E-02 0.  1.
    10030    2    1    2    0    0  0.00000000000E+00  0.00000000000E+00  0.47803938603E+03  0.33236958322E+04  0.32891385393E+04 0.  0.
        2    1    3    3  502    0  0.69846153268E+03  0.14829847961E+04  0.37275695111E+03  0.16810830327E+04  0.25500000920E-02 0.  1.
       -2    1    3    3    0  502 -0.69846153268E+03 -0.14829847961E+04  0.10528243492E+03  0.16426127995E+04  0.25500000920E-02 0. -1.
</event>
<event>
 5   0  0.5988516E-07  0.3146430E+04  0.7818609E-02  0.8203110E-01
       -1   -1    0    0    0  501  0.00000000000E+00  0.00000000000E+00  0.14775271261E+04  0.14775271261E+04  0.50400001928E-02 0.  1.
        1   -1    0    0  501    0  0.00000000000E+00  0.00000000000E+00 -0.16750997382E+04  0.16750997382E+04  0.50400001928E-02 0. -1.
    10030    2    1    2    0    0  0.00000000000E+00  0.00000000000E+00 -0.19757261206E+03  0.31526268643E+04  0.31464299148E+04 0.  0.
        4    1    3    3  502    0 -0.34619368182E+03 -0.23614015996E+03 -0.16181472745E+04  0.16715305727E+04  0.12699999809E+01 0. -1.
       -4    1    3    3    0  502  0.34619368182E+03  0.23614015996E+03  0.14205746625E+04  0.14810962916E+04  0.12699999809E+01 0.  1.
</event>
<event>
 5   0  0.1728937E-06  0.3303503E+04  0.7818609E-02  0.8162005E-01
       -2   -1    0    0    0  501  0.00000000000E+00  0.00000000000E+00  0.96433879626E+03  0.96433879626E+03  0.25500000920E-02 0. -1.
        2   -1    0    0  501    0  0.00000000000E+00  0.00000000000E+00 -0.28291744056E+04  0.28291744056E+04  0.25500000920E-02 0.  1.
    10030    2    1    2    0    0  0.00000000000E+00  0.00000000000E+00 -0.18648356094E+04  0.37935132019E+04  0.33035027717E+04 0.  0.
        1    1    3    3  502    0  0.13921814428E+04 -0.79786456375E+03 -0.48247497155E+03  0.16755712847E+04  0.50400001928E-02 0.  1.
       -1    1    3    3    0  502 -0.13921814428E+04  0.79786456375E+03 -0.13823606378E+04  0.21179419172E+04  0.50400001928E-02 0. -1.
</event>
<event>
 5   0  0.1743810E-06  0.3293191E+04  0.7818609E-02  0.8164630E-01
        2   -1    0    0  501    0  0.00000000000E+00  0.00000000000E+00  0.97713083741E+03  0.97713083741E+03  0.25500000920E-02 0.  1.
       -2   -1    0    0    0  501  0.00000000000E+00  0.00000000000E+00 -0.27747329780E+04  0.27747329780E+04  0.25500000920E-02 0. -1.
    10030    2    1    2    0    0  0.00000000000E+00  0.00000000000E+00 -0.17976021406E+04  0.37518638154E+04  0.32931912537E+04 0.  0.
        5    1    3    3  502    0 -0.10808424574E+04 -0.70333695811E+03 -0.20652980804E+04  0.24348267998E+04  0.46999998093E+01 0. -1.
       -5    1    3    3    0  502  0.10808424574E+04  0.70333695811E+03  0.26769593974E+03  0.13170370156E+04  0.46999998093E+01 0.  1.
</event>
<event>
 5   0  0.5988516E-07  0.3288546E+04  0.7818609E-02  0.8165816E-01
       -1   -1    0    0    0  501  0.00000000000E+00  0.00000000000E+00  0.21736484530E+04  0.21736484530E+04  0.50400001928E-02 0. -1.
        1   -1    0    0  501    0  0.00000000000E+00  0.00000000000E+00 -0.12438226434E+04  0.12438226434E+04  0.50400001928E-02 0.  1.
    10030    2    1    2    0    0  0.00000000000E+00  0.00000000000E+00  0.92982580964E+03  0.34174710964E+04  0.32885456753E+04 0.  0.
        4    1    3    3  502    0  0.46196185536E+03 -0.97748457084E+03  0.17523301652E+04  0.20590161395E+04  0.12699999809E+01 0. -1.
       -4    1    3    3    0  502 -0.46196185536E+03  0.97748457084E+03 -0.82250435556E+03  0.13584549569E+04  0.12699999809E+01 0.  1.
</event>
<event>
 5   0  0.1728937E-06  0.3408543E+04  0.7818609E-02  0.8135813E-01
        2   -1    0    0  501    0  0.00000000000E+00  0.00000000000E+00  0.19554072137E+04  0.19554072137E+04  0.25500000920E-02 0.  1.
       -2   -1    0    0    0  501  0.00000000000E+00  0.00000000000E+00 -0.14853899337E+04  0.14853899337E+04  0.25500000920E-02 0. -1.
    10030    2    1    2    0    0  0.00000000000E+00  0.00000000000E+00  0.47001728006E+03  0.34407971474E+04  0.34085434963E+04 0.  0.
        1    1    3    3  502    0  0.38619390355E+03  0.10763897745E+04 -0.10405868560E+04  0.15461506015E+04  0.50400001928E-02 0. -1.
       -1    1    3    3    0  502 -0.38619390355E+03 -0.10763897745E+04  0.15106041361E+04  0.18946465458E+04  0.50400001928E-02 0.  1.
</event>
<event>
 5   0  0.6085351E-07  0.3269629E+04  0.7818609E-02  0.8170667E-01
       -1   -1    0    0    0  501  0.00000000000E+00  0.00000000000E+00  0.12771942783E+04  0.12771942783E+04  0.50400001928E-02 0.  1.
        1   -1    0    0  501    0  0.00000000000E+00  0.00000000000E+00 -0.20925701740E+04  0.20925701741E+04  0.50400001928E-02 0. -1.
    10030    2    1    2    0    0  0.00000000000E+00  0.00000000000E+00 -0.81537589578E+03  0.33697644523E+04  0.32696291246E+04 0.  0.
        1    1    3    3  502    0  0.10918339582E+04 -0.84598858980E+03 -0.13090117299E+04  0.19029739345E+04  0.50400001928E-02 0. -1.
       -1    1    3    3    0  502 -0.10918339582E+04  0.84598858980E+03  0.49363583409E+03  0.14667905178E+04  0.50400001928E-02 0.  1.
</event>
<event>
 5   0  0.1728937E-06  0.3367173E+04  0.7818609E-02  0.8146010E-01
       -2   -1    0    0    0  501  0.00000000000E+00  0.00000000000E+00  0.14162310478E+04  0.14162310478E+04  0.25500000920E-02 0.  1.
        2   -1    0    0  501    0  0.00000000000E+00  0.00000000000E+00 -0.20014136846E+04  0.20014136846E+04  0.25500000920E-02 0. -1.
    10030    2    1    2    0    0  0.00000000000E+00  0.00000000000E+00 -0.58518263680E+03  0.34176447324E+04  0.33671734138E+04 0.  0.
        1    1    3    3  502    0 -0.27405383048E+03  0.77155117084E+03 -0.17857186042E+04  0.19644815206E+04  0.50400001928E-02 0. -1.
       -1    1    3    3    0  502  0.27405383048E+03 -0.77155117084E+03  0.12005359674E+04  0.14531632119E+04  0.50400001928E-02 0.  1.
</event>
<event>
 5   0  0.5988516E-07  0.2836128E+04  0.7818609E-02  0.8292139E-01
        1   -1    0    0  501    0  0.00000000000E+00  0.00000000000E+00  0.16977497033E+04  0.16977497033E+04  0.50400001928E-02 0.  1.
       -1   -1    0    0    0  501  0.00000000000E+00  0.00000000000E+00 -0.11844532436E+04  0.11844532436E+04  0.50400001928E-02 0. -1.
    10030    2    1    2    0    0  0.00000000000E+00  0.00000000000E+00  0.51329645975E+03  0.28822029469E+04  0.28361277425E+04 0.  0.
        4    1    3    3  502    0 -0.40369491895E+03 -0.12015699004E+03  0.16327127004E+04  0.16861671521E+04  0.12699999809E+01 0.  1.
       -4    1    3    3    0  502  0.40369491895E+03  0.12015699004E+03 -0.11194162406E+04  0.11960357948E+04  0.12699999809E+01 0. -1.
</event>
<event>
 5   0  0.1784626E-06  0.3293756E+04  0.7818609E-02  0.8164486E-01
       -2   -1    0    0    0  501  0.00000000000E+00  0.00000000000E+00  0.96477566661E+03  0.96477566661E+03  0.25500000920E-02 0.  1.
        2   -1    0    0  501    0  0.00000000000E+00  0.00000000000E+00 -0.28112301609E+04  0.28112301609E+04  0.25500000920E-02 0. -1.
    10030    2    1    2    0    0  0.00000000000E+00  0.00000000000E+00 -0.18464544943E+04  0.37760058275E+04  0.32937555783E+04 0.  0.
        2    1    3    3  502    0 -0.85895958380E+03  0.81636417497E+03  0.38787310018E+03  0.12468791339E+04  0.25500000920E-02 0.  1.
       -2    1    3    3    0  502  0.85895958380E+03 -0.81636417497E+03 -0.22343275945E+04  0.25291266936E+04  0.25500000920E-02 0. -1.
</event>
<event>
 5   0  0.1784626E-06  0.3317610E+04  0.7818609E-02  0.8158429E-01
       -2   -1    0    0    0  501  0.00000000000E+00  0.00000000000E+00  0.13317425945E+04  0.13317425945E+04  0.25500000920E-02 0.  1.
        2   -1    0    0  501    0  0.00000000000E+00  0.00000000000E+00 -0.20661910312E+04  0.20661910312E+04  0.25500000920E-02 0. -1.
    10030    2    1    2    0    0  0.00000000000E+00  0.00000000000E+00 -0.73444843674E+03  0.33979336257E+04  0.33176103475E+04 0.  0.
        2    1    3    3  502    0 -0.58876403707E+03  0.67749512886E+03  0.10615382203E+04  0.13901460838E+04  0.25500000920E-02 0.  1.
       -2    1    3    3    0  502  0.58876403707E+03 -0.67749512886E+03 -0.17959866571E+04  0.20077875419E+04  0.25500000920E-02 0. -1.
</event>
<event>
 5   0  0.5988516E-07  0.3153031E+04  0.7818609E-02  0.8201333E-01
       -1   -1    0    0    0  501  0.00000000000E+00  0.00000000000E+00  0.12180285293E+04  0.12180285293E+04  0.50400001928E-02 0.  1.
        1   -1    0    0  501    0  0.00000000000E+00  0.00000000000E+00 -0.20405109156E+04  0.20405109156E+04  0.50400001928E-02 0. -1.
    10030    2    1    2    0    0  0.00000000000E+00  0.00000000000E+00 -0.82248238632E+03  0.32585394449E+04  0.31530306117E+04 0.  0.
        4    1    3    3  502    0 -0.52342759292E+03  0.44316708058E+03  0.10557755036E+04  0.12589825389E+04  0.12699999809E+01 0.  1.
       -4    1    3    3    0  502  0.52342759292E+03 -0.44316708058E+03 -0.18782578899E+04  0.19995569060E+04  0.12699999809E+01 0. -1.
</event>
<event>
 5   0  0.6023446E-07  0.3329306E+04  0.7818609E-02  0.8155478E-01
       -1   -1    0    0    0  501  0.00000000000E+00  0.00000000000E+00  0.17606048595E+04  0.17606048595E+04  0.50400001928E-02 0.  1.
        1   -1    0    0  501    0  0.00000000000E+00  0.00000000000E+00 -0.15739304330E+04  0.15739304330E+04  0.50400001928E-02 0. -1.
    10030    2    1    2    0    0  0.00000000000E+00  0.00000000000E+00  0.18667442650E+03  0.33345352926E+04  0.33293059751E+04 0.  0.
        5    1    3    3  502    0 -0.87789009825E+03  0.99175981353E+03 -0.91659619975E+03  0.16107294111E+04  0.46999998093E+01 0. -1.
       -5    1    3    3    0  502  0.87789009825E+03 -0.99175981353E+03  0.11032706262E+04  0.17238058815E+04  0.46999998093E+01 0.  1.
</event>
<event>
 5   0  0.5985183E-07  0.3281727E+04  0.7818609E-02  0.8167561E-01
        1   -1    0    0  501    0  0.00000000000E+00  0.00000000000E+00  0.18395610446E+04  0.18395610446E+04  0.50400001928E-02 0. -1.
       -1   -1    0    0    0  501  0.00000000000E+00  0.00000000000E+00 -0.14636278771E+04  0.14636278771E+04  0.50400001928E-02 0.  1.
    10030    2    1    2    0    0  0.00000000000E+00  0.00000000000E+00  0.37593316750E+03  0.33031889217E+04  0.32817268786E+04 0.  0.
        2    1    3    3  502    0  0.13930171313E+04 -0.56622450901E+03 -0.47308256400E+03  0.15763610104E+04  0.25500000920E-02 0.  1.
       -2    1    3    3    0  502 -0.13930171313E+04  0.56622450901E+03  0.84901573150E+03  0.17268279113E+04  0.25500000920E-02 0. -1.
</event>
<event>
 5   0  0.1832626E-06  0.3316435E+04  0.7818609E-02  0.8158726E-01
       -2   -1    0    0    0  501  0.00000000000E+00  0.00000000000E+00  0.14091725978E+04  0.14091725978E+04  0.25500000920E-02 0. -1.
        2   -1    0    0  501    0  0.00000000000E+00  0.00000000000E+00 -0.19512760667E+04  0.19512760667E+04  0.25500000920E-02 0.  1.
    10030    2    1    2    0    0  0.00000000000E+00  0.00000000000E+00 -0.54210346892E+03  0.33604486645E+04  0.33164346904E+04 0.  0.
        3    1    3    3  502    0  0.11055601366E+04 -0.61124889337E+03  0.81735292511E+03  0.15046442236E+04  0.10100000352E+00 0.  1.
       -3    1    3    3    0  502 -0.11055601366E+04  0.61124889337E+03 -0.13594563940E+04  0.18558044409E+04  0.10100000352E+00 0. -1.
</event>
<event>
 5   0  0.5985183E-07  0.3292958E+04  0.7818609E-02  0.8164690E-01
       -1   -1    0    0    0  501  0.00000000000E+00  0.00000000000E+00  0.12278817419E+04  0.12278817419E+04  0.50400001928E-02 0. -1.
        1   -1    0    0  501    0  0.00000000000E+00  0.00000000000E+00 -0.22077796228E+04  0.22077796228E+04  0.50400001928E-02 0.  1.
    10030    2    1    2    0    0  0.00000000000E+00  0.00000000000E+00 -0.97989788095E+03  0.34356613647E+04  0.32929575090E+04 0.  0.
        2    1    3    3  502    0  0.25383711581E+03  0.12394311475E+04 -0.15893051076E+04  0.20313821836E+04  0.25500000920E-02 0.  1.
       -2    1    3    3    0  502 -0.25383711581E+03 -0.12394311475E+04  0.60940722662E+03  0.14042791812E+04  0.25500000920E-02 0. -1.
</event>
<event>
 5   0  0.6085351E-07  0.3301901E+04  0.7818609E-02  0.8162412E-01
       -1   -1    0    0    0  501  0.00000000000E+00  0.00000000000E+00  0.17913481764E+04  0.17913481764E+04  0.50400001928E-02 0.  1.
        1   -1    0    0  501    0  0.00000000000E+00  0.00000000000E+00 -0.15215567732E+04  0.15215567732E+04  0.50400001928E-02 0. -1.
    10030    2    1    2    0    0  0.00000000000E+00  0.00000000000E+00  0.26979140324E+03  0.33129049496E+04  0.33019012408E+04 0.  0.
        1    1    3    3  502    0 -0.18880676588E+03  0.10757307089E+04  0.13770819208E+04  0.17576117801E+04  0.50400001928E-02 0.  1.
       -1    1    3    3    0  502  0.18880676588E+03 -0.10757307089E+04 -0.11072905175E+04  0.15552931695E+04  0.50400001928E-02 0. -1.
</event>
<event>
 5   0  0.1728937E-06  0.3346449E+04  0.7818609E-02  0.8151176E-01
       -2   -1    0    0    0  501  0.00000000000E+00  0.00000000000E+00  0.15597459976E+04  0.15597459976E+04  0.25500000920E-02 0.  1.
        2   -1    0    0  501    0  0.00000000000E+00  0.00000000000E+00 -0.17949590596E+04  0.17949590596E+04  0.25500000920E-02 0. -1.
    10030    2    1    2    0    0  0.00000000000E+00  0.00000000000E+00 -0.23521306205E+03  0.33547050572E+04  0.33464489890E+04 0.  0.
        1    1    3    3  502    0 -0.28994518935E+03 -0.65287875497E+03 -0.16344029870E+04  0.17837017703E+04  0.50400001928E-02 0. -1.
       -1    1    3    3    0  502  0.28994518935E+03  0.65287875497E+03  0.13991899249E+04  0.15710032869E+04  0.50400001928E-02 0.  1.
</event>
<event>
 5   0  0.5685000E-07  0.2809891E+04  0.7818609E-02  0.8300204E-01
       -3   -1    0    0    0  501  0.00000000000E+00  0.00000000000E+00  0.15800951149E+04  0.15800951181E+04  0.10100000352E+00 0.  1.
        3   -1    0    0  501    0  0.00000000000E+00  0.00000000000E+00 -0.12492111453E+04  0.12492111494E+04  0.10100000352E+00 0. -1.
    10030    2    1    2    0    0  0.00000000000E+00  0.00000000000E+00  0.33088396953E+03  0.28293062675E+04  0.28098914132E+04 0.  0.
        2    1    3    3  502    0 -0.74998387638E+03 -0.77319597640E+03  0.10736523364E+04  0.15208672435E+04  0.25500000920E-02 0.  1.
       -2    1    3    3    0  502  0.74998387638E+03  0.77319597640E+03 -0.74276836690E+03  0.13084390240E+04  0.25500000920E-02 0. -1.
</event>
<event>
 5   0  0.6023446E-07  0.3313331E+04  0.7818609E-02  0.8159512E-01
        1   -1    0    0  501    0  0.00000000000E+00  0.00000000000E+00  0.21447189207E+04  0.21447189208E+04  0.50400001928E-02 0. -1.
       -1   -1    0    0    0  501  0.00000000000E+00  0.00000000000E+00 -0.12796737502E+04  0.12796737502E+04  0.50400001928E-02 0.  1.
    10030    2    1    2    0    0  0.00000000000E+00  0.00000000000E+00  0.86504517059E+03  0.34243926709E+04  0.33133309550E+04 0.  0.
        5    1    3    3  502    0  0.59174547882E+03  0.13442321130E+04 -0.35958492883E+03  0.15120998963E+04  0.46999998093E+01 0.  1.
       -5    1    3    3    0  502 -0.59174547882E+03 -0.13442321130E+04  0.12246300994E+04  0.19122927746E+04  0.46999998093E+01 0. -1.
</event>
<event>
 5   0  0.1784626E-06  0.3211230E+04  0.7818609E-02  0.8185858E-01
        2   -1    0    0  501    0  0.00000000000E+00  0.00000000000E+00  0.13699469640E+04  0.13699469641E+04  0.25500000920E-02 0.  1.
       -2   -1    0    0    0  501  0.00000000000E+00  0.00000000000E+00 -0.18818242159E+04  0.18818242159E+04  0.25500000920E-02 0. -1.
    10030    2    1    2    0    0  0.00000000000E+00  0.00000000000E+00 -0.51187725186E+03  0.32517711800E+04  0.32112299024E+04 0.  0.
        2    1    3    3  502    0 -0.66848560350E+03  0.36340240270E+03 -0.16876716520E+04  0.18512617085E+04  0.25500000920E-02 0. -1.
       -2    1    3    3    0  502  0.66848560350E+03 -0.36340240270E+03  0.11757944001E+04  0.14005094715E+04  0.25500000920E-02 0.  1.
</event>
<event>
 5   0  0.1784626E-06  0.3288521E+04  0.7818609E-02  0.8165822E-01
        2   -1    0    0  501    0  0.00000000000E+00  0.00000000000E+00  0.20920907780E+04  0.20920907780E+04  0.25500000920E-02 0. -1.
       -2   -1    0    0    0  501  0.00000000000E+00  0.00000000000E+00 -0.12922918488E+04  0.12922918488E+04  0.25500000920E-02 0.  1.
    10030    2    1    2    0    0  0.00000000000E+00  0.00000000000E+00  0.79979892918E+03  0.33843826269E+04  0.32885205546E+04 0.  0.
        2    1    3    3  502    0  0.13711681655E+04 -0.25940353466E+03  0.12948460124E+04  0.19036855118E+04  0.25500000920E-02 0. -1.
       -2    1    3    3    0  502 -0.13711681655E+04  0.25940353466E+03 -0.49504708322E+03  0.14806971151E+04  0.25500000920E-02 0.  1.
</event>
<event>
 5   0  0.5858859E-07  0.3294015E+04  0.7818609E-02  0.8164420E-01
       -1   -1    0    0    0  501  0.00000000000E+00  0.00000000000E+00  0.13043427590E+04  0.13043427590E+04  0.50400001928E-02 0.  1.
        1   -1    0    0  501    0  0.00000000000E+00  0.00000000000E+00 -0.20796945323E+04  0.20796945323E+04  0.50400001928E-02 0. -1.
    10030    2    1    2    0    0  0.00000000000E+00  0.00000000000E+00 -0.77535177326E+03  0.33840372913E+04  0.32940154852E+04 0.  0.
        3    1    3    3  502    0  0.16076125778E+04  0.20359331082E+03 -0.85065077998E+02  0.16226843544E+04  0.10100000352E+00 0. -1.
       -3    1    3    3    0  502 -0.16076125778E+04 -0.20359331082E+03 -0.69028669527E+03  0.17613529369E+04  0.10100000352E+00 0.  1.
</event>
<event>
 5   0  0.1743810E-06  0.3303025E+04  0.7818609E-02  0.8162126E-01
       -2   -1    0    0    0  501  0.00000000000E+00  0.00000000000E+00  0.98800854811E+03  0.98800854811E+03  0.25500000920E-02 0.  1.
        2   -1    0    0  501    0  0.00000000000E+00  0.00000000000E+00 -0.27605979109E+04  0.27605979109E+04  0.25500000920E-02 0. -1.
    10030    2    1    2    0    0  0.00000000000E+00  0.00000000000E+00 -0.17725893628E+04  0.37486064591E+04  0.33030254821E+04 0.  0.
        5    1    3    3  502    0 -0.10707861984E+04  0.11549298634E+04 -0.32222934850E+03  0.16075757883E+04  0.46999998093E+01 0.  1.
       -5    1    3    3    0  502  0.10707861984E+04 -0.11549298634E+04 -0.14503600143E+04  0.21410306708E+04  0.46999998093E+01 0. -1.
</event>
<event>
 5   0  0.5988516E-07  0.3342604E+04  0.7818609E-02  0.8152139E-01
        1   -1    0    0  501    0  0.00000000000E+00  0.00000000000E+00  0.13153860561E+04  0.13153860561E+04  0.50400001928E-02 0. -1.
       -1   -1    0    0    0  501  0.00000000000E+00  0.00000000000E+00 -0.21235207329E+04  0.21235207329E+04  0.50400001928E-02 0.  1.
    10030    2    1    2    0    0  0.00000000000E+00  0.00000000000E+00 -0.80813467677E+03  0.34389067890E+04  0.33426035134E+04 0.  0.
        4    1    3    3  502    0 -0.96043501831E+03 -0.44096905546E+03  0.92797807244E+03  0.14064259839E+04  0.12699999809E+01 0. -1.
       -4    1    3    3    0  502  0.96043501831E+03  0.44096905546E+03 -0.17361127492E+04  0.20324808051E+04  0.12699999809E+01 0.  1.
</event>
<event>
 5   0  0.1784626E-06  0.3330769E+04  0.7818609E-02  0.8155110E-01
        2   -1    0    0  501    0  0.00000000000E+00  0.00000000000E+00  0.23085025427E+04  0.23085025427E+04  0.25500000920E-02 0. -1.
       -2   -1    0    0    0  501  0.00000000000E+00  0.00000000000E+00 -0.12014306811E+04  0.12014306811E+04  0.25500000920E-02 0.  1.
    10030    2    1    2    0    0  0.00000000000E+00  0.00000000000E+00  0.11070718616E+04  0.35099332238E+04  0.33307691497E+04 0.  0.
        2    1    3    3  502    0 -0.11836310753E+04  0.21387472109E+03  0.17673548997E+04  0.21378185751E+04  0.25500000920E-02 0. -1.
       -2    1    3    3    0  502  0.11836310753E+04 -0.21387472109E+03 -0.66028303805E+03  0.13721146486E+04  0.25500000920E-02 0.  1.
</event>
<event>
 5   0  0.6023446E-07  0.3289926E+04  0.7818609E-02  0.8165464E-01
        1   -1    0    0  501    0  0.00000000000E+00  0.00000000000E+00  0.15380728104E+04  0.15380728104E+04  0.50400001928E-02 0. -1.
       -1   -1    0    0    0  501  0.00000000000E+00  0.00000000000E+00 -0.17592812659E+04  0.17592812659E+04  0.50400001928E-02 0.  1.
    10030    2    1    2    0    0  0.00000000000E+00  0.00000000000E+00 -0.22120845545E+03  0.32973540763E+04  0.32899256411E+04 0.  0.
        5    1    3    3  502    0  0.14306829498E+04 -0.17420760093E+03  0.68407862391E+03  0.15953644238E+04  0.46999998093E+01 0. -1.
       -5    1    3    3    0  502 -0.14306829498E+04  0.17420760093E+03 -0.90528707937E+03  0.17019896525E+04  0.46999998093E+01 0.  1.
</event>
<event>
 5   0  0.5685000E-07  0.3283485E+04  0.7818609E-02  0.8167110E-01
        3   -1    0    0  501    0  0.00000000000E+00  0.00000000000E+00  0.18502878306E+04  0.18502878334E+04  0.10100000352E+00 0.  1.
       -3   -1    0    0    0  501  0.00000000000E+00  0.00000000000E+00 -0.14567019998E+04  0.14567020033E+04  0.10100000352E+00 0. -1.
    10030    2    1    2    0    0  0.00000000000E+00  0.00000000000E+00  0.39358583084E+03  0.33069898367E+04  0.32834847302E+04 0.  0.
        2    1    3    3  502    0 -0.95278652625E+03 -0.75378564432E+03  0.13089272474E+04  0.17858570775E+04  0.25500000920E-02 0.  1.
       -2    1    3    3    0  502  0.95278652625E+03  0.75378564432E+03 -0.91534141658E+03  0.15211327592E+04  0.25500000920E-02 0. -1.
</event>
<event>
 5   0  0.5985183E-07  0.3278273E+04  0.7818609E-02  0.8168446E-01
       -1   -1    0    0    0  501  0.00000000000E+00  0.00000000000E+00  0.10903887097E+04  0.10903887097E+04  0.50400001928E-02 0.  1.
        1   -1    0    0  501    0  0.00000000000E+00  0.00000000000E+00 -0.24640458060E+04  0.24640458060E+04  0.50400001928E-02 0. -1.
    10030    2    1    2    0    0  0.00000000000E+00  0.00000000000E+00 -0.13736570963E+04  0.35544345156E+04  0.32782725494E+04 0.  0.
        2    1    3    3  502    0 -0.12374047118E+04 -0.84297312754E+03 -0.14101017076E+04  0.20567355057E+04  0.25500000920E-02 0. -1.
       -2    1    3    3    0  502  0.12374047118E+04  0.84297312754E+03  0.36444611348E+02  0.14976990099E+04  0.25500000920E-02 0.  1.
</event>
<event>
 5   0  0.6023446E-07  0.3246594E+04  0.7818609E-02  0.8176619E-01
        1   -1    0    0  501    0  0.00000000000E+00  0.00000000000E+00  0.13017387108E+04  0.13017387109E+04  0.50400001928E-02 0.  1.
       -1   -1    0    0    0  501  0.00000000000E+00  0.00000000000E+00 -0.20242870360E+04  0.20242870360E+04  0.50400001928E-02 0. -1.
    10030    2    1    2    0    0  0.00000000000E+00  0.00000000000E+00 -0.72254832515E+03  0.33260257469E+04  0.32465937822E+04 0.  0.
        5    1    3    3  502    0  0.13430199233E+04  0.51859618910E+03 -0.11295734319E+04  0.18299187823E+04  0.46999998093E+01 0. -1.
       -5    1    3    3    0  502 -0.13430199233E+04 -0.51859618910E+03  0.40702510674E+03  0.14961069645E+04  0.46999998093E+01 0.  1.
</event>
<event>
 5   0  0.1784626E-06  0.3228121E+04  0.7818609E-02  0.8181430E-01
       -2   -1    0    0    0  501  0.00000000000E+00  0.00000000000E+00  0.11189963348E+04  0.11189963348E+04  0.25500000920E-02 0. -1.
        2   -1    0    0  501    0  0.00000000000E+00  0.00000000000E+00 -0.23281497012E+04  0.23281497013E+04  0.25500000920E-02 0.  1.
    10030    2    1    2    0    0  0.00000000000E+00  0.00000000000E+00 -0.12091533664E+04  0.34471460361E+04  0.32281208048E+04 0.  0.
        2    1    3    3  502    0  0.26442243073E+03  0.83022118042E+03  0.84628592256E+03  0.12146548041E+04  0.25500000920E-02 0. -1.
       -2    1    3    3    0  502 -0.26442243073E+03 -0.83022118042E+03 -0.20554392890E+04  0.22324912320E+04  0.25500000920E-02 0.  1.
</event>
<event>
 5   0  0.1784626E-06  0.3270546E+04  0.7818609E-02  0.8170431E-01
        2   -1    0    0  501    0  0.00000000000E+00  0.00000000000E+00  0.10591286860E+04  0.10591286860E+04  0.25500000920E-02 0. -1.
       -2   -1    0    0    0  501  0.00000000000E+00  0.00000000000E+00 -0.25248276081E+04  0.25248276081E+04  0.25500000920E-02 0.  1.
    10030    2    1    2    0    0  0.00000000000E+00  0.00000000000E+00 -0.14656989221E+04  0.35839562940E+04  0.32705457323E+04 0.  0.
        2    1    3    3  502    0  0.15259072662E+04  0.33147391632E+02 -0.13761534642E+04  0.20550644981E+04  0.25500000920E-02 0.  1.
       -2    1    3    3    0  502 -0.15259072662E+04 -0.33147391632E+02 -0.89545457939E+02  0.15288917959E+04  0.25500000920E-02 0. -1.
</event>
<event>
 5   0  0.5988516E-07  0.3232676E+04  0.7818609E-02  0.8180240E-01
       -1   -1    0    0    0  501  0.00000000000E+00  0.00000000000E+00  0.11091084836E+04  0.11091084836E+04  0.50400001928E-02 0. -1.
        1   -1    0    0  501    0  0.00000000000E+00  0.00000000000E+00 -0.23555395676E+04  0.23555395676E+04  0.50400001928E-02 0.  1.
    10030    2    1    2    0    0  0.00000000000E+00  0.00000000000E+00 -0.12464310840E+04  0.34646480513E+04  0.32326762399E+04 0.  0.
        4    1    3    3  502    0 -0.39195440295E+03 -0.24304384153E+02 -0.23036317345E+04  0.23368653659E+04  0.12699999809E+01 0.  1.
       -4    1    3    3    0  502  0.39195440295E+03  0.24304384153E+02  0.10572006505E+04  0.11277826854E+04  0.12699999809E+01 0. -1.
</event>
<event>
 5   0  0.1696681E-06  0.3299437E+04  0.7818609E-02  0.8163039E-01
       -2   -1    0    0    0  501  0.00000000000E+00  0.00000000000E+00  0.15967397647E+04  0.15967397647E+04  0.25500000920E-02 0.  1.
        2   -1    0    0  501    0  0.00000000000E+00  0.00000000000E+00 -0.17044549641E+04  0.17044549641E+04  0.25500000920E-02 0. -1.
    10030    2    1    2    0    0  0.00000000000E+00  0.00000000000E+00 -0.10771519939E+03  0.33011947287E+04  0.32994369327E+04 0.  0.
        4    1    3    3  502    0  0.20131109322E+03  0.43190285850E+02  0.15838338568E+04  0.15971608736E+04  0.12699999809E+01 0.  1.
       -4    1    3    3    0  502 -0.20131109322E+03 -0.43190285850E+02 -0.16915490562E+04  0.17040338552E+04  0.12699999809E+01 0. -1.
</event>
<event>
 5   0  0.5685000E-07  0.3293759E+04  0.7818609E-02  0.8164485E-01
       -3   -1    0    0    0  501  0.00000000000E+00  0.00000000000E+00  0.12700148164E+04  0.12700148204E+04  0.10100000352E+00 0. -1.
        3   -1    0    0  501    0  0.00000000000E+00  0.00000000000E+00 -0.21355755512E+04  0.21355755536E+04  0.10100000352E+00 0.  1.
    10030    2    1    2    0    0  0.00000000000E+00  0.00000000000E+00 -0.86556073487E+03  0.34055903740E+04  0.32937593127E+04 0.  0.
        5    1    3    3  502    0 -0.30928732578E+03 -0.60445889746E+03 -0.19841091727E+04  0.20970790419E+04  0.46999998093E+01 0.  1.
       -5    1    3    3    0  502  0.30928732578E+03  0.60445889746E+03  0.11185484378E+04  0.13085113322E+04  0.46999998093E+01 0. -1.
</event>
<event>
 5   0  0.5685000E-07  0.3341525E+04  0.7818609E-02  0.8152409E-01
       -3   -1    0    0    0  501  0.00000000000E+00  0.00000000000E+00  0.23073391093E+04  0.23073391115E+04  0.10100000352E+00 0.  1.
        3   -1    0    0  501    0  0.00000000000E+00  0.00000000000E+00 -0.12098120313E+04  0.12098120355E+04  0.10100000352E+00 0. -1.
    10030    2    1    2    0    0  0.00000000000E+00  0.00000000000E+00  0.10975270780E+04  0.35171511471E+04  0.33415245779E+04 0.  0.
        2    1    3    3  502    0  0.80783396548E+03  0.13297479113E+04 -0.92020403441E+02  0.15586189329E+04  0.25500000920E-02 0. -1.
       -2    1    3    3    0  502 -0.80783396548E+03 -0.13297479113E+04  0.11895474815E+04  0.19585322142E+04  0.25500000920E-02 0.  1.
</event>
<event>
 5   0  0.5858859E-07  0.3282163E+04  0.7818609E-02  0.8167449E-01
       -1   -1    0    0    0  501  0.00000000000E+00  0.00000000000E+00  0.30712288189E+04  0.30712288189E+04  0.50400001928E-02 0. -1.
        1   -1    0    0  501    0  0.00000000000E+00  0.00000000000E+00 -0.87689630925E+03  0.87689630927E+03  0.50400001928E-02 0.  1.
    10030    2    1    2    0    0  0.00000000000E+00  0.00000000000E+00  0.21943325097E+04  0.39481251282E+04  0.32821634427E+04 0.  0.
        3    1    3    3  502    0 -0.64529480137E+03  0.11334833879E+04  0.22952236296E+04  0.26399320998E+04  0.10100000352E+00 0. -1.
       -3    1    3    3    0  502  0.64529480137E+03 -0.11334833879E+04 -0.10089111995E+03  0.13081930284E+04  0.10100000352E+00 0.  1.
</event>
<event>
 5   0  0.1784626E-06  0.3315161E+04  0.7818609E-02  0.8159048E-01
       -2   -1    0    0    0  501  0.00000000000E+00  0.00000000000E+00  0.13161072510E+04  0.13161072510E+04  0.25500000920E-02 0. -1.
        2   -1    0    0  501    0  0.00000000000E+00  0.00000000000E+00 -0.20876516812E+04  0.20876516812E+04  0.25500000920E-02 0.  1.
    10030    2    1    2    0    0  0.00000000000E+00  0.00000000000E+00 -0.77154443028E+03  0.34037589322E+04  0.33151612420E+04 0.  0.
        2    1    3    3  502    0 -0.41609446252E+03 -0.33485351895E+03 -0.19968840263E+04  0.20670769931E+04  0.25500000920E-02 0.  1.
       -2    1    3    3    0  502  0.41609446252E+03  0.33485351895E+03  0.12253395960E+04  0.13366819391E+04  0.25500000920E-02 0. -1.
</event>
<event>
 5   0  0.6085351E-07  0.3171686E+04  0.7818609E-02  0.8196335E-01
       -1   -1    0    0    0  501  0.00000000000E+00  0.00000000000E+00  0.15058106928E+04  0.15058106928E+04  0.50400001928E-02 0.  1.
        1   -1    0    0  501    0  0.00000000000E+00  0.00000000000E+00 -0.16701286879E+04  0.16701286879E+04  0.50400001928E-02 0. -1.
    10030    2    1    2    0    0  0.00000000000E+00  0.00000000000E+00 -0.16431799512E+03  0.31759393807E+04  0.31716857578E+04 0.  0.
        1    1    3    3  502    0  0.15019565154E+04 -0.35500160678E+03 -0.44733716580E+03  0.16068634214E+04  0.50400001928E-02 0. -1.
       -1    1    3    3    0  502 -0.15019565154E+04  0.35500160678E+03  0.28301917068E+03  0.15690759593E+04  0.50400001928E-02 0.  1.
</event>
<event>
 5   0  0.1784626E-06  0.3244832E+04  0.7818609E-02  0.8177076E-01
       -2   -1    0    0    0  501  0.00000000000E+00  0.00000000000E+00  0.13195169332E+04  0.13195169332E+04  0.25500000920E-02 0.  1.
        2   -1    0    0  501    0  0.00000000000E+00  0.00000000000E+00 -0.19948467547E+04  0.19948467547E+04  0.25500000920E-02 0. -1.
    10030    2    1    2    0    0  0.00000000000E+00  0.00000000000E+00 -0.67532982147E+03  0.33143636879E+04  0.32448322434E+04 0.  0.
        2    1    3    3  502    0 -0.32107309218E+03  0.88349345509E+02 -0.19595633887E+04  0.19876574684E+04  0.25500000920E-02 0. -1.
       -2    1    3    3    0  502  0.32107309218E+03 -0.88349345509E+02  0.12842335673E+04  0.13267062194E+04  0.25500000920E-02 0.  1.
</event>
<event>
 5   0  0.1784626E-06  0.3287456E+04  0.7818609E-02  0.8166094E-01
        2   -1    0    0  501    0  0.00000000000E+00  0.00000000000E+00  0.33786380987E+04  0.33786380987E+04  0.25500000920E-02 0.  1.
       -2   -1    0    0    0  501  0.00000000000E+00  0.00000000000E+00 -0.79968386760E+03  0.79968386761E+03  0.25500000920E-02 0. -1.
    10030    2    1    2    0    0  0.00000000000E+00  0.00000000000E+00  0.25789542311E+04  0.41783219663E+04  0.32874563918E+04 0.  0.
        2    1    3    3  502    0  0.68512537233E+03  0.10160863076E+04  0.26817844085E+04  0.29485243384E+04  0.25500000920E-02 0. -1.
       -2    1    3    3    0  502 -0.68512537233E+03 -0.10160863076E+04 -0.10283017740E+03  0.12297976279E+04  0.25500000920E-02 0.  1.
</event>
<event>
 5   0  0.5858859E-07  0.3285612E+04  0.7818609E-02  0.8166566E-01
       -1   -1    0    0    0  501  0.00000000000E+00  0.00000000000E+00  0.12708443077E+04  0.12708443077E+04  0.50400001928E-02 0.  1.
        1   -1    0    0  501    0  0.00000000000E+00  0.00000000000E+00 -0.21236366527E+04  0.21236366527E+04  0.50400001928E-02 0. -1.
    10030    2    1    2    0    0  0.00000000000E+00  0.00000000000E+00 -0.85279234501E+03  0.33944809605E+04  0.32856119989E+04 0.  0.
        3    1    3    3  502    0  0.95176858223E+03  0.12371966708E+03  0.95106446666E+03  0.13511823045E+04  0.10100000352E+00 0.  1.
       -3    1    3    3    0  502 -0.95176858223E+03 -0.12371966708E+03 -0.18038568117E+04  0.20432986559E+04  0.10100000352E+00 0. -1.
</event>
<event>
 5   0  0.6085351E-07  0.3261198E+04  0.7818609E-02  0.8172839E-01
        1   -1    0    0  501    0  0.00000000000E+00  0.00000000000E+00  0.19209358804E+04  0.19209358804E+04  0.50400001928E-02 0.  1.
       -1   -1    0    0    0  501  0.00000000000E+00  0.00000000000E+00 -0.13841450036E+04  0.13841450036E+04  0.50400001928E-02 0. -1.
    10030    2    1    2    0    0  0.00000000000E+00  0.00000000000E+00  0.53679087680E+03  0.33050808839E+04  0.32611984306E+04 0.  0.
        1    1    3    3  502    0  0.28956434217E+03 -0.76167599526E+03  0.16997942098E+04  0.18850194125E+04  0.50400001928E-02 0.  1.
       -1    1    3    3    0  502 -0.28956434217E+03  0.76167599526E+03 -0.11630033330E+04  0.14200614714E+04  0.50400001928E-02 0. -1.
</event>
<event>
 5   0  0.5858859E-07  0.3302199E+04  0.7818609E-02  0.8162336E-01
        1   -1    0    0  501    0  0.00000000000E+00  0.00000000000E+00  0.22547295808E+04  0.22547295808E+04  0.50400001928E-02 0. -1.
       -1   -1    0    0    0  501  0.00000000000E+00  0.00000000000E+00 -0.12090714248E+04  0.12090714248E+04  0.50400001928E-02 0.  1.
    10030    2    1    2    0    0  0.00000000000E+00  0.00000000000E+00  0.10456581560E+04  0.34638010057E+04  0.33021987262E+04 0.  0.
        3    1    3    3  502    0 -0.84161248720E+03 -0.13379577047E+04  0.10233457615E+04  0.18829973330E+04  0.10100000352E+00 0. -1.
       -3    1    3    3    0  502  0.84161248720E+03  0.13379577047E+04  0.22312394507E+02  0.15808036726E+04  0.10100000352E+00 0.  1.
</event>
<event>
 5   0  0.5685000E-07  0.3308919E+04  0.7818609E-02  0.8160630E-01
       -3   -1    0    0    0  501  0.00000000000E+00  0.00000000000E+00  0.10980624278E+04  0.10980624325E+04  0.10100000352E+00 0. -1.
        3   -1    0    0  501    0  0.00000000000E+00  0.00000000000E+00 -0.24927878163E+04  0.24927878183E+04  0.10100000352E+00 0.  1.
    10030    2    1    2    0    0  0.00000000000E+00  0.00000000000E+00 -0.13947253885E+04  0.35908502508E+04  0.33089192517E+04 0.  0.
        1    1    3    3  502    0 -0.11868589832E+03 -0.15122361176E+04  0.19440392966E+02  0.15170109910E+04  0.50400001928E-02 0. -1.
       -1    1    3    3    0  502  0.11868589832E+03  0.15122361176E+04 -0.14141657815E+04  0.20738392598E+04  0.50400001928E-02 0.  1.
</event>
<event>
 5   0  0.5988516E-07  0.3314653E+04  0.7818609E-02  0.8159177E-01
        1   -1    0    0  501    0  0.00000000000E+00  0.00000000000E+00  0.12668674904E+04  0.12668674904E+04  0.50400001928E-02 0.  1.
       -1   -1    0    0    0  501  0.00000000000E+00  0.00000000000E+00 -0.21681287849E+04  0.21681287849E+04  0.50400001928E-02 0. -1.
    10030    2    1    2    0    0  0.00000000000E+00  0.00000000000E+00 -0.90126129445E+03  0.34349962753E+04  0.33146534495E+04 0.  0.
        4    1    3    3  502    0  0.40623127520E+03  0.16064840266E+04 -0.48198611720E+03  0.17257250669E+04  0.12699999809E+01 0.  1.
       -4    1    3    3    0  502 -0.40623127520E+03 -0.16064840266E+04 -0.41927517725E+03  0.17092712084E+04  0.12699999809E+01 0. -1.
</event>
<event>
 5   0  0.5988516E-07  0.3315053E+04  0.7818609E-02  0.8159076E-01
        1   -1    0    0  501    0  0.00000000000E+00  0.00000000000E+00  0.13221396592E+04  0.13221396592E+04  0.50400001928E-02 0. -1.
       -1   -1    0    0    0  501  0.00000000000E+00  0.00000000000E+00 -0.20779906737E+04  0.20779906737E+04  0.50400001928E-02 0.  1.
    10030    2    1    2    0    0  0.00000000000E+00  0.00000000000E+00 -0.75585101446E+03  0.34001303329E+04  0.33150528690E+04 0.  0.
        4    1    3    3  502    0 -0.38722611186E+03  0.34745520718E+03 -0.19920752890E+04  0.20588916321E+04  0.12699999809E+01 0.  1.
       -4    1    3    3    0  502  0.38722611186E+03 -0.34745520718E+03  0.12362242745E+04  0.13412387008E+04  0.12699999809E+01 0. -1.
</event>
<event>
 5   0  0.1728937E-06  0.3239837E+04  0.7818609E-02  0.8178375E-01
        2   -1    0    0  501    0  0.00000000000E+00  0.00000000000E+00  0.23908042803E+04  0.23908042803E+04  0.25500000920E-02 0.  1.
       -2   -1    0    0    0  501  0.00000000000E+00  0.00000000000E+00 -0.10975951520E+04  0.10975951520E+04  0.25500000920E-02 0. -1.
    10030    2    1    2    0    0  0.00000000000E+00  0.00000000000E+00  0.12932091284E+04  0.34883994323E+04  0.32398365313E+04 0.  0.
        1    1    3    3  502    0  0.38457904776E+03 -0.85940082984E+03 -0.77273417198E+03  0.12180266544E+04  0.50400001928E-02 0. -1.
       -1    1    3    3    0  502 -0.38457904776E+03  0.85940082984E+03  0.20659433003E+04  0.22703727779E+04  0.50400001928E-02 0.  1.
</event>
<event>
 5   0  0.1832626E-06  0.3279885E+04  0.7818609E-02  0.8168033E-01
       -2   -1    0    0    0  501  0.00000000000E+00  0.00000000000E+00  0.12511814720E+04  0.12511814720E+04  0.25500000920E-02 0. -1.
        2   -1    0    0  501    0  0.00000000000E+00  0.00000000000E+00 -0.21494969827E+04  0.21494969827E+04  0.25500000920E-02 0.  1.
    10030    2    1    2    0    0  0.00000000000E+00  0.00000000000E+00 -0.89831551072E+03  0.34006784546E+04  0.32798846314E+04 0.  0.
        3    1    3    3  502    0  0.90033642353E+03 -0.66346521952E+02  0.97035244158E+03  0.13253646319E+04  0.10100000352E+00 0. -1.
       -3    1    3    3    0  502 -0.90033642353E+03  0.66346521952E+02 -0.18686679523E+04  0.20753138227E+04  0.10100000352E+00 0.  1.
</event>
<event>
 5   0  0.5685000E-07  0.3160753E+04  0.7818609E-02  0.8199260E-01
        3   -1    0    0  501    0  0.00000000000E+00  0.00000000000E+00  0.15045437821E+04  0.15045437855E+04  0.10100000352E+00 0.  1.
       -3   -1    0    0    0  501  0.00000000000E+00  0.00000000000E+00 -0.16600318733E+04  0.16600318764E+04  0.10100000352E+00 0. -1.
    10030    2    1    2    0    0  0.00000000000E+00  0.00000000000E+00 -0.15548809118E+03  0.31645756619E+04  0.31607534819E+04 0.  0.
        2    1    3    3  502    0  0.48970321648E+03  0.12763081605E+04 -0.87168397783E+03  0.16212972331E+04  0.25500000920E-02 0. -1.
       -2    1    3    3    0  502 -0.48970321648E+03 -0.12763081605E+04  0.71619588665E+03  0.15432784288E+04  0.25500000920E-02 0.  1.
</event>
<event>
 5   0  0.1784626E-06  0.3323727E+04  0.7818609E-02  0.8156884E-01
        2   -1    0    0  501    0  0.00000000000E+00  0.00000000000E+00  0.12237411337E+04  0.12237411337E+04  0.25500000920E-02 0.  1.
       -2   -1    0    0    0  501  0.00000000000E+00  0.00000000000E+00 -0.22568417601E+04  0.22568417601E+04  0.25500000920E-02 0. -1.
    10030    2    1    2    0    0  0.00000000000E+00  0.00000000000E+00 -0.10331006264E+04  0.34805828938E+04  0.33237268805E+04 0.  0.
        2    1    3    3  502    0 -0.10290583721E+04 -0.53562772700E+02 -0.18819066239E+04  0.21455541581E+04  0.25500000920E-02 0. -1.
       -2    1    3    3    0  502  0.10290583721E+04  0.53562772700E+02  0.84880599751E+03  0.13350287358E+04  0.25500000920E-02 0.  1.
</event>
<event>
 5   0  0.1696681E-06  0.3461445E+04  0.7818609E-02  0.8122988E-01
       -2   -1    0    0    0  501  0.00000000000E+00  0.00000000000E+00  0.19650838216E+04  0.19650838216E+04  0.25500000920E-02 0.  1.
        2   -1    0    0  501    0  0.00000000000E+00  0.00000000000E+00 -0.15243120676E+04  0.15243120676E+04  0.25500000920E-02 0. -1.
    10030    2    1    2    0    0  0.00000000000E+00  0.00000000000E+00  0.44077175395E+03  0.34893958892E+04  0.34614453531E+04 0.  0.
        4    1    3    3  502    0 -0.55897327996E+03  0.81660356973E+03  0.16517480582E+04  0.19255040323E+04  0.12699999809E+01 0.  1.
       -4    1    3    3    0  502  0.55897327996E+03 -0.81660356973E+03 -0.12109763042E+04  0.15638918569E+04  0.12699999809E+01 0. -1.
</event>
<event>
 5   0  0.5988516E-07  0.3385017E+04  0.7818609E-02  0.8141593E-01
       -1   -1    0    0    0  501  0.00000000000E+00  0.00000000000E+00  0.21685953889E+04  0.21685953889E+04  0.50400001928E-02 0.  1.
        1   -1    0    0  501    0  0.00000000000E+00  0.00000000000E+00 -0.13209403586E+04  0.13209403586E+04  0.50400001928E-02 0. -1.
    10030    2    1    2    0    0  0.00000000000E+00  0.00000000000E+00  0.84765503028E+03  0.34895357475E+04  0.33850170875E+04 0.  0.
        4    1    3    3  502    0  0.18201793552E+03 -0.16188761583E+04 -0.49358448373E+02  0.16298246574E+04  0.12699999809E+01 0. -1.
       -4    1    3    3    0  502 -0.18201793552E+03  0.16188761583E+04  0.89701347865E+03  0.18597110901E+04  0.12699999809E+01 0.  1.
</event>
<event>
 5   0  0.1743810E-06  0.3306968E+04  0.7818609E-02  0.8161125E-01
       -2   -1    0    0    0  501  0.00000000000E+00  0.00000000000E+00  0.11085590983E+04  0.11085590983E+04  0.25500000920E-02 0. -1.
        2   -1    0    0  501    0  0.00000000000E+00  0.00000000000E+00 -0.24662733028E+04  0.24662733028E+04  0.25500000920E-02 0.  1.
    10030    2    1    2    0    0  0.00000000000E+00  0.00000000000E+00 -0.13577142045E+04  0.35748324011E+04  0.33069682241E+04 0.  0.
        5    1    3    3  502    0  0.63333008712E+03 -0.75579451959E+03 -0.21136397860E+04  0.23323437976E+04  0.46999998093E+01 0.  1.
       -5    1    3    3    0  502 -0.63333008712E+03  0.75579451959E+03  0.75592558154E+03  0.12424886035E+04  0.46999998093E+01 0. -1.
</event>
<event>
 5   0  0.1728937E-06  0.3318931E+04  0.7818609E-02  0.8158095E-01
       -2   -1    0    0    0  501  0.00000000000E+00  0.00000000000E+00  0.22557363349E+04  0.22557363349E+04  0.25500000920E-02 0.  1.
        2   -1    0    0  501    0  0.00000000000E+00  0.00000000000E+00 -0.12208103374E+04  0.12208103374E+04  0.25500000920E-02 0. -1.
    10030    2    1    2    0    0  0.00000000000E+00  0.00000000000E+00  0.10349259975E+04  0.34765466723E+04  0.33189312955E+04 0.  0.
        1    1    3    3  502    0  0.77102725247E+02  0.10872395315E+04 -0.79327769300E+03  0.13480816471E+04  0.50400001928E-02 0. -1.
       -1    1    3    3    0  502 -0.77102725247E+02 -0.10872395315E+04  0.18282036905E+04  0.21284650251E+04  0.50400001928E-02 0.  1.
</event>
<event>
 5   0  0.5988516E-07  0.3387114E+04  0.7818609E-02  0.8141076E-01
       -1   -1    0    0    0  501  0.00000000000E+00  0.00000000000E+00  0.13709944593E+04  0.13709944593E+04  0.50400001928E-02 0.  1.
        1   -1    0    0  501    0  0.00000000000E+00  0.00000000000E+00 -0.20920112244E+04  0.20920112244E+04  0.50400001928E-02 0. -1.
    10030    2    1    2    0    0  0.00000000000E+00  0.00000000000E+00 -0.72101676504E+03  0.34630056837E+04  0.33871142865E+04 0.  0.
        4    1    3    3  502    0  0.10483832831E+04  0.11737623224E+04 -0.10000710397E+04  0.18646632927E+04  0.12699999809E+01 0. -1.
       -4    1    3    3    0  502 -0.10483832831E+04 -0.11737623224E+04  0.27905427469E+03  0.15983423910E+04  0.12699999809E+01 0.  1.
</event>
<event>
 5   0  0.5858859E-07  0.3296283E+04  0.7818609E-02  0.8163842E-01
        1   -1    0    0  501    0  0.00000000000E+00  0.00000000000E+00  0.13015378575E+04  0.13015378575E+04  0.50400001928E-02 0.  1.
       -1   -1    0    0    0  501  0.00000000000E+00  0.00000000000E+00 -0.20870467674E+04  0.20870467674E+04  0.50400001928E-02 0. -1.
    10030    2    1    2    0    0  0.00000000000E+00  0.00000000000E+00 -0.78550890993E+03  0.33885846249E+04  0.32962829843E+04 0.  0.
        3    1    3    3  502    0  0.66347383330E+03  0.52494488840E+03 -0.18467885787E+04  0.20313524381E+04  0.10100000352E+00 0. -1.
       -3    1    3    3    0  502 -0.66347383330E+03 -0.52494488840E+03  0.10612796688E+04  0.13572321868E+04  0.10100000352E+00 0.  1.
</event>
<event>
 5   0  0.1696681E-06  0.3312012E+04  0.7818609E-02  0.8159846E-01
        2   -1    0    0  501    0  0.00000000000E+00  0.00000000000E+00  0.21626188849E+04  0.21626188849E+04  0.25500000920E-02 0.  1.
       -2   -1    0    0    0  501  0.00000000000E+00  0.00000000000E+00 -0.12680715484E+04  0.12680715484E+04  0.25500000920E-02 0. -1.
    10030    2    1    2    0    0  0.00000000000E+00  0.00000000000E+00  0.89454733652E+03  0.34306904333E+04  0.33120117620E+04 0.  0.
        4    1    3    3  502    0  0.21595150677E+02 -0.19954470586E+03 -0.12554254560E+04  0.12713689978E+04  0.12699999809E+01 0. -1.
       -4    1    3    3    0  502 -0.21595150677E+02  0.19954470586E+03  0.21499727925E+04  0.21593214355E+04  0.12699999809E+01 0.  1.
</event>
<event>
 5   0  0.1832626E-06  0.3309200E+04  0.7818609E-02  0.8160558E-01
        2   -1    0    0  501    0  0.00000000000E+00  0.00000000000E+00  0.18842092203E+04  0.18842092203E+04  0.25500000920E-02 0.  1.
       -2   -1    0    0    0  501  0.00000000000E+00  0.00000000000E+00 -0.14529710741E+04  0.14529710741E+04  0.25500000920E-02 0. -1.
    10030    2    1    2    0    0  0.00000000000E+00  0.00000000000E+00  0.43123814620E+03  0.33371802944E+04  0.33092002023E+04 0.  0.
        3    1    3    3  502    0 -0.83058499101E+02 -0.10881409351E+04  0.14698196090E+04  0.18306608375E+04  0.10100000352E+00 0.  1.
       -3    1    3    3    0  502  0.83058499101E+02  0.10881409351E+04 -0.10385814628E+04  0.15065194569E+04  0.10100000352E+00 0. -1.
</event>
<event>
 5   0  0.1784626E-06  0.3310228E+04  0.7818609E-02  0.8160298E-01
       -2   -1    0    0    0  501  0.00000000000E+00  0.00000000000E+00  0.14605026838E+04  0.14605026838E+04  0.25500000920E-02 0.  1.
        2   -1    0    0  501    0  0.00000000000E+00  0.00000000000E+00 -0.18756574031E+04  0.18756574031E+04  0.25500000920E-02 0. -1.
    10030    2    1    2    0    0  0.00000000000E+00  0.00000000000E+00 -0.41515471930E+03  0.33361600869E+04  0.33102281922E+04 0.  0.
        2    1    3    3  502    0 -0.13119896515E+04 -0.18682957453E+03 -0.12068996742E+04  0.17924365984E+04  0.25500000920E-02 0. -1.
       -2    1    3    3    0  502  0.13119896515E+04  0.18682957453E+03  0.79174495489E+03  0.15437234886E+04  0.25500000920E-02 0.  1.
</event>
<event>
 5   0  0.1784626E-06  0.3171653E+04  0.7818609E-02  0.8196344E-01
        2   -1    0    0  501    0  0.00000000000E+00  0.00000000000E+00  0.23201990442E+04  0.23201990442E+04  0.25500000920E-02 0. -1.
       -2   -1    0    0    0  501  0.00000000000E+00  0.00000000000E+00 -0.10838922345E+04  0.10838922345E+04  0.25500000920E-02 0.  1.
    10030    2    1    2    0    0  0.00000000000E+00  0.00000000000E+00  0.12363068097E+04  0.34040912787E+04  0.31716530243E+04 0.  0.
        2    1    3    3  502    0  0.10022710539E+04  0.90507057443E+03 -0.27412490793E+03  0.13779856586E+04  0.25500000920E-02 0.  1.
       -2    1    3    3    0  502 -0.10022710539E+04 -0.90507057443E+03  0.15104317176E+04  0.20261056201E+04  0.25500000920E-02 0. -1.
</event>
<event>
 5   0  0.1696681E-06  0.3314050E+04  0.7818609E-02  0.8159330E-01
        2   -1    0    0  501    0  0.00000000000E+00  0.00000000000E+00  0.19637747934E+04  0.19637747934E+04  0.25500000920E-02 0. -1.
       -2   -1    0    0    0  501  0.00000000000E+00  0.00000000000E+00 -0.13981907965E+04  0.13981907965E+04  0.25500000920E-02 0.  1.
    10030    2    1    2    0    0  0.00000000000E+00  0.00000000000E+00  0.56558399696E+03  0.33619655899E+04  0.33140499951E+04 0.  0.
        4    1    3    3  502    0 -0.10861374673E+04  0.85928052636E+03 -0.64012681621E+03  0.15257200184E+04  0.12699999809E+01 0.  1.
       -4    1    3    3    0  502  0.10861374673E+04 -0.85928052636E+03  0.12057108132E+04  0.18362455715E+04  0.12699999809E+01 0. -1.
</event>
<event>
 5   0  0.1743810E-06  0.3251759E+04  0.7818609E-02  0.8175280E-01
        2   -1    0    0  501    0  0.00000000000E+00  0.00000000000E+00  0.15484716920E+04  0.15484716920E+04  0.25500000920E-02 0. -1.
       -2   -1    0    0    0  501  0.00000000000E+00  0.00000000000E+00 -0.17071569403E+04  0.17071569403E+04  0.25500000920E-02 0.  1.
    10030    2    1    2    0    0  0.00000000000E+00  0.00000000000E+00 -0.15868524830E+03  0.32556286324E+04  0.32517590292E+04 0.  0.
        5    1    3    3  502    0 -0.11452366158E+02 -0.13107036068E+03  0.15431263233E+04  0.15487322350E+04  0.46999998093E+01 0. -1.
       -5    1    3    3    0  502  0.11452366158E+02  0.13107036068E+03 -0.17018115716E+04  0.17068963974E+04  0.46999998093E+01 0.  1.
</event>
<event>
 5   0  0.1743810E-06  0.3307166E+04  0.7818609E-02  0.8161074E-01
       -2   -1    0    0    0  501  0.00000000000E+00  0.00000000000E+00  0.11694668444E+04  0.11694668444E+04  0.25500000920E-02 0. -1.
        2   -1    0    0  501    0  0.00000000000E+00  0.00000000000E+00 -0.23381048157E+04  0.23381048157E+04  0.25500000920E-02 0.  1.
    10030    2    1    2    0    0  0.00000000000E+00  0.00000000000E+00 -0.11686379713E+04  0.35075716601E+04  0.33071655905E+04 0.  0.
        5    1    3    3  502    0  0.15646956779E+04  0.15507719196E+03 -0.41450017103E+02  0.15729150307E+04  0.46999998093E+01 0. -1.
       -5    1    3    3    0  502 -0.15646956779E+04 -0.15507719196E+03 -0.11271879542E+04  0.19346566295E+04  0.46999998093E+01 0.  1.
</event>
<event>
 5   0  0.1832626E-06  0.3231172E+04  0.7818609E-02  0.8180633E-01
       -2   -1    0    0    0  501  0.00000000000E+00  0.00000000000E+00  0.12107650811E+04  0.12107650811E+04  0.25500000920E-02 0.  1.
        2   -1    0    0  501    0  0.00000000000E+00  0.00000000000E+00 -0.21557586879E+04  0.21557586879E+04  0.25500000920E-02 0. -1.
    10030    2    1    2    0    0  0.00000000000E+00  0.00000000000E+00 -0.94499360678E+03  0.33665237690E+04  0.32311715167E+04 0.  0.
        3    1    3    3  502    0 -0.89093423367E+03  0.13257896193E+04 -0.72478774199E+03  0.17540807292E+04  0.10100000352E+00 0. -1.
       -3    1    3    3    0  502  0.89093423367E+03 -0.13257896193E+04 -0.22020586479E+03  0.16124430398E+04  0.10100000352E+00 0.  1.
</event>
<event>
 5   0  0.6085351E-07  0.3211160E+04  0.7818609E-02  0.8185876E-01
       -1   -1    0    0    0  501  0.00000000000E+00  0.00000000000E+00  0.16370815751E+04  0.16370815751E+04  0.50400001928E-02 0. -1.
        1   -1    0    0  501    0  0.00000000000E+00  0.00000000000E+00 -0.15746850185E+04  0.15746850185E+04  0.50400001928E-02 0.  1.
    10030    2    1    2    0    0  0.00000000000E+00  0.00000000000E+00  0.62396556604E+02  0.32117665936E+04  0.32111604322E+04 0.  0.
        1    1    3    3  502    0  0.41446626880E+03  0.15373048333E+04 -0.17572091244E+03  0.16018633767E+04  0.50400001928E-02 0.  1.
       -1    1    3    3    0  502 -0.41446626880E+03 -0.15373048333E+04  0.23811746905E+03  0.16099032169E+04  0.50400001928E-02 0. -1.
</event>
<event>
 5   0  0.6085351E-07  0.2899107E+04  0.7818609E-02  0.8273143E-01
       -1   -1    0    0    0  501  0.00000000000E+00  0.00000000000E+00  0.10254986547E+04  0.10254986547E+04  0.50400001928E-02 0. -1.
        1   -1    0    0  501    0  0.00000000000E+00  0.00000000000E+00 -0.20489601105E+04  0.20489601105E+04  0.50400001928E-02 0.  1.
    10030    2    1    2    0    0  0.00000000000E+00  0.00000000000E+00 -0.10234614558E+04  0.30744587652E+04  0.28991073363E+04 0.  0.
        1    1    3    3  502    0  0.30526162625E+03 -0.68054634514E+03 -0.18298401082E+04  0.19760169053E+04  0.50400001928E-02 0.  1.
       -1    1    3    3    0  502 -0.30526162625E+03  0.68054634514E+03  0.80637865248E+03  0.10984418599E+04  0.50400001928E-02 0. -1.
</event>
<event>
 5   0  0.1784626E-06  0.3373735E+04  0.7818609E-02  0.8144383E-01
       -2   -1    0    0    0  501  0.00000000000E+00  0.00000000000E+00  0.17497688898E+04  0.17497688898E+04  0.25500000920E-02 0.  1.
        2   -1    0    0  501    0  0.00000000000E+00  0.00000000000E+00 -0.16262268655E+04  0.16262268655E+04  0.25500000920E-02 0. -1.
    10030    2    1    2    0    0  0.00000000000E+00  0.00000000000E+00  0.12354202430E+03  0.33759957554E+04  0.33737345344E+04 0.  0.
        2    1    3    3  502    0  0.14007658582E+03 -0.22533580588E+03  0.17287577431E+04  0.17490000027E+04  0.25500000920E-02 0.  1.
       -2    1    3    3    0  502 -0.14007658582E+03  0.22533580588E+03 -0.16052157188E+04  0.16269957527E+04  0.25500000920E-02 0. -1.
</event>
<event>
 5   0  0.1696681E-06  0.3218507E+04  0.7818609E-02  0.8183947E-01
        2   -1    0    0  501    0  0.00000000000E+00  0.00000000000E+00  0.19507594728E+04  0.19507594728E+04  0.25500000920E-02 0.  1.
       -2   -1    0    0    0  501  0.00000000000E+00  0.00000000000E+00 -0.13275325181E+04  0.13275325181E+04  0.25500000920E-02 0. -1.
    10030    2    1    2    0    0  0.00000000000E+00  0.00000000000E+00  0.62322695472E+03  0.32782919909E+04  0.32185068806E+04 0.  0.
        4    1    3    3  502    0  0.14890220233E+04 -0.60781490678E+03  0.36804545518E+03  0.16498741215E+04  0.12699999809E+01 0. -1.
       -4    1    3    3    0  502 -0.14890220233E+04  0.60781490678E+03  0.25518149954E+03  0.16284178694E+04  0.12699999809E+01 0.  1.
</event>
<event>
 5   0  0.6023446E-07  0.3322798E+04  0.7818609E-02  0.8157118E-01
       -1   -1    0    0    0  501  0.00000000000E+00  0.00000000000E+00  0.12214514116E+04  0.12214514117E+04  0.50400001928E-02 0.  1.
        1   -1    0    0  501    0  0.00000000000E+00  0.00000000000E+00 -0.22598092425E+04  0.22598092425E+04  0.50400001928E-02 0. -1.
    10030    2    1    2    0    0  0.00000000000E+00  0.00000000000E+00 -0.10383578309E+04  0.34812606542E+04  0.33227983323E+04 0.  0.
        5    1    3    3  502    0 -0.62897766248E+03 -0.14011640655E+04 -0.11829143167E+04  0.19386031076E+04  0.46999998093E+01 0. -1.
       -5    1    3    3    0  502  0.62897766248E+03  0.14011640655E+04  0.14455648581E+03  0.15426575465E+04  0.46999998093E+01 0.  1.
</event>
<event>
 5   0  0.1728937E-06  0.3601041E+04  0.7818609E-02  0.8090253E-01
        2   -1    0    0  501    0  0.00000000000E+00  0.00000000000E+00  0.20434749237E+04  0.20434749237E+04  0.25500000920E-02 0.  1.
       -2   -1    0    0    0  501  0.00000000000E+00  0.00000000000E+00 -0.15864514489E+04  0.15864514489E+04  0.25500000920E-02 0. -1.
    10030    2    1    2    0    0  0.00000000000E+00  0.00000000000E+00  0.45702347481E+03  0.36299263727E+04  0.36010408238E+04 0.  0.
        1    1    3    3  502    0  0.29219381317E+03 -0.13417894179E+03  0.20143014702E+04  0.20398018594E+04  0.50400001928E-02 0.  1.
       -1    1    3    3    0  502 -0.29219381317E+03  0.13417894179E+03 -0.15572779954E+04  0.15901245133E+04  0.50400001928E-02 0. -1.
</event>
<event>
 5   0  0.6023446E-07  0.3300768E+04  0.7818609E-02  0.8162700E-01
       -1   -1    0    0    0  501  0.00000000000E+00  0.00000000000E+00  0.16918996170E+04  0.16918996170E+04  0.50400001928E-02 0. -1.
        1   -1    0    0  501    0  0.00000000000E+00  0.00000000000E+00 -0.16098869051E+04  0.16098869051E+04  0.50400001928E-02 0.  1.
    10030    2    1    2    0    0  0.00000000000E+00  0.00000000000E+00  0.82012711903E+02  0.33017865221E+04  0.33007678126E+04 0.  0.
        5    1    3    3  502    0 -0.74258355781E+03 -0.14209085005E+04 -0.35069289332E+03  0.16411638865E+04  0.46999998093E+01 0.  1.
       -5    1    3    3    0  502  0.74258355781E+03  0.14209085005E+04  0.43270560523E+03  0.16606226356E+04  0.46999998093E+01 0. -1.
</event>
<event>
 5   0  0.5988516E-07  0.3322501E+04  0.7818609E-02  0.8157194E-01
        1   -1    0    0  501    0  0.00000000000E+00  0.00000000000E+00  0.25444166160E+04  0.25444166160E+04  0.50400001928E-02 0.  1.
       -1   -1    0    0    0  501  0.00000000000E+00  0.00000000000E+00 -0.10846307676E+04  0.10846307677E+04  0.50400001928E-02 0. -1.
    10030    2    1    2    0    0  0.00000000000E+00  0.00000000000E+00  0.14597858484E+04  0.36290473837E+04  0.33225005929E+04 0.  0.
        4    1    3    3  502    0 -0.11124033000E+04  0.12317245851E+04  0.65139889330E+03  0.17829494346E+04  0.12699999809E+01 0. -1.
       -4    1    3    3    0  502  0.11124033000E+04 -0.12317245851E+04  0.80838695505E+03  0.18460979490E+04  0.12699999809E+01 0.  1.
</event>
<event>
 5   0  0.6085351E-07  0.3504822E+04  0.7818609E-02  0.8112648E-01
        1   -1    0    0  501    0  0.00000000000E+00  0.00000000000E+00  0.20159337781E+04  0.20159337781E+04  0.50400001928E-02 0. -1.
       -1   -1    0    0    0  501  0.00000000000E+00  0.00000000000E+00 -0.15233361028E+04  0.15233361028E+04  0.50400001928E-02 0.  1.
    10030    2    1    2    0    0  0.00000000000E+00  0.00000000000E+00  0.49259767528E+03  0.35392698809E+04  0.35048222237E+04 0.  0.
        1    1    3    3  502    0  0.59281659272E+03  0.15012663105E+04 -0.44283996976E+03  0.16737201936E+04  0.50400001928E-02 0. -1.
       -1    1    3    3    0  502 -0.59281659272E+03 -0.15012663105E+04  0.93543764505E+03  0.18655496872E+04  0.50400001928E-02 0.  1.
</event>
<event>
 5   0  0.6085351E-07  0.3315108E+04  0.7818609E-02  0.8159062E-01
       -1   -1    0    0    0  501  0.00000000000E+00  0.00000000000E+00  0.16869079296E+04  0.16869079296E+04  0.50400001928E-02 0. -1.
        1   -1    0    0  501    0  0.00000000000E+00  0.00000000000E+00 -0.16287108534E+04  0.16287108534E+04  0.50400001928E-02 0.  1.
    10030    2    1    2    0    0  0.00000000000E+00  0.00000000000E+00  0.58197076187E+02  0.33156187829E+04  0.33151079943E+04 0.  0.
        1    1    3    3  502    0 -0.14712678307E+04 -0.32269373806E+03 -0.66290761042E+03  0.16456630209E+04  0.50400001928E-02 0.  1.
       -1    1    3    3    0  502  0.14712678307E+04  0.32269373806E+03  0.72110468660E+03  0.16699557621E+04  0.50400001928E-02 0. -1.
</event>
<event>
 5   0  0.6085351E-07  0.3251126E+04  0.7818609E-02  0.8175444E-01
       -1   -1    0    0    0  501  0.00000000000E+00  0.00000000000E+00  0.14064949399E+04  0.14064949399E+04  0.50400001928E-02 0.  1.
        1   -1    0    0  501    0  0.00000000000E+00  0.00000000000E+00 -0.18787514997E+04  0.18787514997E+04  0.50400001928E-02 0. -1.
    10030    2    1    2    0    0  0.00000000000E+00  0.00000000000E+00 -0.47225655975E+03  0.32852464396E+04  0.32511256375E+04 0.  0.
        1    1    3    3  502    0 -0.27850892711E+02  0.82286026262E+03 -0.16524732250E+04  0.18462238335E+04  0.50400001928E-02 0. -1.
       -1    1    3    3    0  502  0.27850892711E+02 -0.82286026262E+03  0.11802166652E+04  0.14390226061E+04  0.50400001928E-02 0.  1.
</event>
<event>
 5   0  0.5985183E-07  0.3309429E+04  0.7818609E-02  0.8160500E-01
        1   -1    0    0  501    0  0.00000000000E+00  0.00000000000E+00  0.16076011834E+04  0.16076011834E+04  0.50400001928E-02 0.  1.
       -1   -1    0    0    0  501  0.00000000000E+00  0.00000000000E+00 -0.17032088699E+04  0.17032088699E+04  0.50400001928E-02 0. -1.
    10030    2    1    2    0    0  0.00000000000E+00  0.00000000000E+00 -0.95607686523E+02  0.33108100533E+04  0.33094293133E+04 0.  0.
        2    1    3    3  502    0 -0.56173192534E+03  0.20882742997E+03 -0.15908250363E+04  0.16999635136E+04  0.25500000920E-02 0. -1.
       -2    1    3    3    0  502  0.56173192534E+03 -0.20882742997E+03  0.14952173498E+04  0.16108465397E+04  0.25500000920E-02 0.  1.
</event>
<event>
 5   0  0.6023446E-07  0.3288486E+04  0.7818609E-02  0.8165831E-01
        1   -1    0    0  501    0  0.00000000000E+00  0.00000000000E+00  0.14495115183E+04  0.14495115183E+04  0.50400001928E-02 0.  1.
       -1   -1    0    0    0  501  0.00000000000E+00  0.00000000000E+00 -0.18651354418E+04  0.18651354418E+04  0.50400001928E-02 0. -1.
    10030    2    1    2    0    0  0.00000000000E+00  0.00000000000E+00 -0.41562392353E+03  0.33146469601E+04  0.32884861600E+04 0.  0.
        5    1    3    3  502    0  0.82992657204E+03 -0.69197009948E+03  0.10413665228E+04  0.15006888613E+04  0.46999998093E+01 0.  1.
       -5    1    3    3    0  502 -0.82992657204E+03  0.69197009948E+03 -0.14569904464E+04  0.18139580988E+04  0.46999998093E+01 0. -1.
</event>
<event>
 5   0  0.1832626E-06  0.3293387E+04  0.7818609E-02  0.8164580E-01
        2   -1    0    0  501    0  0.00000000000E+00  0.00000000000E+00  0.20114828446E+04  0.20114828446E+04  0.25500000920E-02 0. -1.
       -2   -1    0    0    0  501  0.00000000000E+00  0.00000000000E+00 -0.13480597078E+04  0.13480597078E+04  0.25500000920E-02 0.  1.
    10030    2    1    2    0    0  0.00000000000E+00  0.00000000000E+00  0.66342313688E+03  0.33595425524E+04  0.32933866920E+04 0.  0.
        3    1    3    3  502    0 -0.11595186076E+04 -0.10342043936E+04  0.88813804946E+03  0.17896511767E+04  0.10100000352E+00 0. -1.
       -3    1    3    3    0  502  0.11595186076E+04  0.10342043936E+04 -0.22471491259E+03  0.15698913757E+04  0.10100000352E+00 0.  1.
</event>
<event>
 5   0  0.5858859E-07  0.3312876E+04  0.7818609E-02  0.8159627E-01
       -1   -1    0    0    0  501  0.00000000000E+00  0.00000000000E+00  0.16272868311E+04  0.16272868311E+04  0.50400001928E-02 0. -1.
        1   -1    0    0  501    0  0.00000000000E+00  0.00000000000E+00 -0.16861114120E+04  0.16861114121E+04  0.50400001928E-02 0.  1.
    10030    2    1    2    0    0  0.00000000000E+00  0.00000000000E+00 -0.58824580984E+02  0.33133982431E+04  0.33128760294E+04 0.  0.
        3    1    3    3  502    0  0.13142558954E+04  0.91017191002E+03 -0.46319187658E+03  0.16644002491E+04  0.10100000352E+00 0.  1.
       -3    1    3    3    0  502 -0.13142558954E+04 -0.91017191002E+03  0.40436729560E+03  0.16489979940E+04  0.10100000352E+00 0. -1.
</event>
<event>
 5   0  0.5985183E-07  0.3267007E+04  0.7818609E-02  0.8171342E-01
       -1   -1    0    0    0  501  0.00000000000E+00  0.00000000000E+00  0.14232385432E+04  0.14232385433E+04  0.50400001928E-02 0.  1.
        1   -1    0    0  501    0  0.00000000000E+00  0.00000000000E+00 -0.18748325475E+04  0.18748325475E+04  0.50400001928E-02 0. -1.
    10030    2    1    2    0    0  0.00000000000E+00  0.00000000000E+00 -0.45159400426E+03  0.32980710908E+04  0.32670071587E+04 0.  0.
        2    1    3    3  502    0 -0.24381111899E+03  0.15406735613E+04 -0.71539821889E+03  0.17160750263E+04  0.25500000920E-02 0.  1.
       -2    1    3    3    0  502  0.24381111899E+03 -0.15406735613E+04  0.26380421463E+03  0.15819960645E+04  0.25500000920E-02 0. -1.
</event>
<event>
 5   0  0.1743810E-06  0.3275650E+04  0.7818609E-02  0.8169119E-01
        2   -1    0    0  501    0  0.00000000000E+00  0.00000000000E+00  0.21643941412E+04  0.21643941412E+04  0.25500000920E-02 0.  1.
       -2   -1    0    0    0  501  0.00000000000E+00  0.00000000000E+00 -0.12393629848E+04  0.12393629848E+04  0.25500000920E-02 0. -1.
    10030    2    1    2    0    0  0.00000000000E+00  0.00000000000E+00  0.92503115643E+03  0.34037571260E+04  0.32756495436E+04 0.  0.
        5    1    3    3  502    0  0.90441104567E+03  0.13358940888E+04  0.16883986792E+03  0.16220669983E+04  0.46999998093E+01 0.  1.
       -5    1    3    3    0  502 -0.90441104567E+03 -0.13358940888E+04  0.75619128851E+03  0.17816901276E+04  0.46999998093E+01 0. -1.
</event>
<event>
 5   0  0.1832626E-06  0.3182565E+04  0.7818609E-02  0.8193437E-01
       -2   -1    0    0    0  501  0.00000000000E+00  0.00000000000E+00  0.14980935624E+04  0.14980935624E+04  0.25500000920E-02 0. -1.
        2   -1    0    0  501    0  0.00000000000E+00  0.00000000000E+00 -0.16902677931E+04  0.16902677931E+04  0.25500000920E-02 0.  1.
    10030    2    1    2    0    0  0.00000000000E+00  0.00000000000E+00 -0.19217423071E+03  0.31883613555E+04  0.31825645631E+04 0.  0.
        3    1    3    3  502    0  0.90305696489E+03 -0.90950016395E+03  0.84875151388E+03  0.15372317888E+04  0.10100000352E+00 0. -1.
       -3    1    3    3    0  502 -0.90305696489E+03  0.90950016395E+03 -0.10409257446E+04  0.16511295667E+04  0.10100000352E+00 0.  1.
</event>
<event>
 5   0  0.6085351E-07  0.3349119E+04  0.7818609E-02  0.8150508E-01
       -1   -1    0    0    0  501  0.00000000000E+00  0.00000000000E+00  0.20020009997E+04  0.20020009997E+04  0.50400001928E-02 0. -1.
        1   -1    0    0  501    0  0.00000000000E+00  0.00000000000E+00 -0.14006736447E+04  0.14006736447E+04  0.50400001928E-02 0.  1.
    10030    2    1    2    0    0  0.00000000000E+00  0.00000000000E+00  0.60132735495E+03  0.34026746444E+04  0.33491193093E+04 0.  0.
        1    1    3    3  502    0 -0.13679455470E+04 -0.95687967413E+03  0.16719980288E+03  0.16777513238E+04  0.50400001928E-02 0.  1.
       -1    1    3    3    0  502  0.13679455470E+04  0.95687967413E+03  0.43412755207E+03  0.17249233206E+04  0.50400001928E-02 0. -1.
</event>
<event>
 5   0  0.1696681E-06  0.3288963E+04  0.7818609E-02  0.8165709E-01
        2   -1    0    0  501    0  0.00000000000E+00  0.00000000000E+00  0.17834633336E+04  0.17834633336E+04  0.25500000920E-02 0. -1.
       -2   -1    0    0    0  501  0.00000000000E+00  0.00000000000E+00 -0.15163303756E+04  0.15163303756E+04  0.25500000920E-02 0.  1.
    10030    2    1    2    0    0  0.00000000000E+00  0.00000000000E+00  0.26713295800E+03  0.32997937091E+04  0.32889631353E+04 0.  0.
        4    1    3    3  502    0  0.14780478279E+04  0.46177803023E+03  0.68897201848E+03  0.16948594000E+04  0.12699999809E+01 0.  1.
       -4    1    3    3    0  502 -0.14780478279E+04 -0.46177803023E+03 -0.42183906049E+03  0.16049343091E+04  0.12699999809E+01 0. -1.
</event>
<event>
 5   0  0.1728937E-06  0.3302430E+04  0.7818609E-02  0.8162277E-01
       -2   -1    0    0    0  501  0.00000000000E+00  0.00000000000E+00  0.20192913177E+04  0.20192913177E+04  0.25500000920E-02 0. -1.
        2   -1    0    0  501    0  0.00000000000E+00  0.00000000000E+00 -0.13502314474E+04  0.13502314474E+04  0.25500000920E-02 0.  1.
    10030    2    1    2    0    0  0.00000000000E+00  0.00000000000E+00  0.66905987032E+03  0.33695227652E+04  0.33024297956E+04 0.  0.
        1    1    3    3  502    0 -0.11880256136E+03  0.37237101734E+03  0.19714099059E+04  0.20097838790E+04  0.50400001928E-02 0. -1.
       -1    1    3    3    0  502  0.11880256136E+03 -0.37237101734E+03 -0.13023500356E+04  0.13597388861E+04  0.50400001928E-02 0.  1.
</event>
<event>
 5   0  0.1832626E-06  0.3300450E+04  0.7818609E-02  0.8162781E-01
       -2   -1    0    0    0  501  0.00000000000E+00  0.00000000000E+00  0.11832329210E+04  0.11832329210E+04  0.25500000920E-02 0. -1.
        2   -1    0    0  501    0  0.00000000000E+00  0.00000000000E+00 -0.23015266220E+04  0.23015266220E+04  0.25500000920E-02 0.  1.
    10030    2    1    2    0    0  0.00000000000E+00  0.00000000000E+00 -0.11182937010E+04  0.34847595431E+04  0.33004497074E+04 0.  0.
        3    1    3    3  502    0 -0.13587310424E+04  0.44148454999E+03 -0.14312146920E+04  0.20222349414E+04  0.10100000352E+00 0.  1.
       -3    1    3    3    0  502  0.13587310424E+04 -0.44148454999E+03  0.31292099097E+03  0.14625246016E+04  0.10100000352E+00 0. -1.
</event>
<event>
 5   0  0.6023446E-07  0.3291489E+04  0.7818609E-02  0.8165064E-01
       -1   -1    0    0    0  501  0.00000000000E+00  0.00000000000E+00  0.17051066292E+04  0.17051066292E+04  0.50400001928E-02 0.  1.
        1   -1    0    0  501    0  0.00000000000E+00  0.00000000000E+00 -0.15884489358E+04  0.15884489358E+04  0.50400001928E-02 0. -1.
    10030    2    1    2    0    0  0.00000000000E+00  0.00000000000E+00  0.11665769339E+03  0.32935555650E+04  0.32914889096E+04 0.  0.
        5    1    3    3  502    0  0.42319666342E+03 -0.82711219429E+03 -0.13009211770E+04  0.15986331651E+04  0.46999998093E+01 0. -1.
       -5    1    3    3    0  502 -0.42319666342E+03  0.82711219429E+03  0.14175788704E+04  0.16949223999E+04  0.46999998093E+01 0.  1.
</event>
<event>
 5   0  0.5985183E-07  0.3276552E+04  0.7818609E-02  0.8168888E-01
       -1   -1    0    0    0  501  0.00000000000E+00  0.00000000000E+00  0.14516102324E+04  0.14516102325E+04  0.50400001928E-02 0.  1.
        1   -1    0    0  501    0  0.00000000000E+00  0.00000000000E+00 -0.18489451790E+04  0.18489451790E+04  0.50400001928E-02 0. -1.
    10030    2    1    2    0    0  0.00000000000E+00  0.00000000000E+00 -0.39733494655E+03  0.33005554115E+04  0.32765516880E+04 0.  0.
        2    1    3    3  502    0  0.11316196102E+04  0.57565075074E+03  0.84429727142E+03  0.15247211586E+04  0.25500000920E-02 0.  1.
       -2    1    3    3    0  502 -0.11316196102E+04 -0.57565075074E+03 -0.12416322180E+04  0.17758342529E+04  0.25500000920E-02 0. -1.
</event>
<event>
 5   0  0.5858859E-07  0.3263641E+04  0.7818609E-02  0.8172209E-01
        1   -1    0    0  501    0  0.00000000000E+00  0.00000000000E+00  0.18086069804E+04  0.18086069804E+04  0.50400001928E-02 0.  1.
       -1   -1    0    0    0  501  0.00000000000E+00  0.00000000000E+00 -0.14723142803E+04  0.14723142804E+04  0.50400001928E-02 0. -1.
    10030    2    1    2    0    0  0.00000000000E+00  0.00000000000E+00  0.33629270006E+03  0.32809212608E+04  0.32636408410E+04 0.  0.
        3    1    3    3  502    0  0.10708788152E+04  0.81453629226E+03 -0.76009907763E+03  0.15453159633E+04  0.10100000352E+00 0. -1.
       -3    1    3    3    0  502 -0.10708788152E+04 -0.81453629226E+03  0.10963917777E+04  0.17356052975E+04  0.10100000352E+00 0.  1.
</event>
<event>
 5   0  0.1784626E-06  0.3280499E+04  0.7818609E-02  0.8167875E-01
       -2   -1    0    0    0  501  0.00000000000E+00  0.00000000000E+00  0.20123815534E+04  0.20123815534E+04  0.25500000920E-02 0. -1.
        2   -1    0    0  501    0  0.00000000000E+00  0.00000000000E+00 -0.13369326048E+04  0.13369326048E+04  0.25500000920E-02 0.  1.
    10030    2    1    2    0    0  0.00000000000E+00  0.00000000000E+00  0.67544894860E+03  0.33493141583E+04  0.32804990548E+04 0.  0.
        2    1    3    3  502    0  0.80418773451E+01 -0.14323470740E+04 -0.47824998178E+03  0.15101012739E+04  0.25500000920E-02 0. -1.
       -2    1    3    3    0  502 -0.80418773451E+01  0.14323470740E+04  0.11536989304E+04  0.18392128844E+04  0.25500000920E-02 0.  1.
</event>
<event>
 5   0  0.1696681E-06  0.3285137E+04  0.7818609E-02  0.8166688E-01
       -2   -1    0    0    0  501  0.00000000000E+00  0.00000000000E+00  0.14094525254E+04  0.14094525254E+04  0.25500000920E-02 0.  1.
        2   -1    0    0  501    0  0.00000000000E+00  0.00000000000E+00 -0.19142406221E+04  0.19142406221E+04  0.25500000920E-02 0. -1.
    10030    2    1    2    0    0  0.00000000000E+00  0.00000000000E+00 -0.50478809669E+03  0.33236931474E+04  0.32851370011E+04 0.  0.
        4    1    3    3  502    0  0.31918816270E+03 -0.40056180127E+03 -0.18313835021E+04  0.19016566421E+04  0.12699999809E+01 0. -1.
       -4    1    3    3    0  502 -0.31918816270E+03  0.40056180127E+03  0.13265954054E+04  0.14220365053E+04  0.12699999809E+01 0.  1.
</event>
<event>
 5   0  0.5985183E-07  0.3300007E+04  0.7818609E-02  0.8162894E-01
        1   -1    0    0  501    0  0.00000000000E+00  0.00000000000E+00  0.13224983713E+04  0.13224983713E+04  0.50400001928E-02 0.  1.
       -1   -1    0    0    0  501  0.00000000000E+00  0.00000000000E+00 -0.20586127668E+04  0.20586127668E+04  0.50400001928E-02 0. -1.
    10030    2    1    2    0    0  0.00000000000E+00  0.00000000000E+00 -0.73611439551E+03  0.33811111381E+04  0.33000072916E+04 0.  0.
        2    1    3    3  502    0  0.78950615687E+03 -0.26671464127E+02 -0.18522729474E+04  0.20136897503E+04  0.25500000920E-02 0. -1.
       -2    1    3    3    0  502 -0.78950615687E+03  0.26671464127E+02  0.11161585519E+04  0.13674213878E+04  0.25500000920E-02 0.  1.
</event>
<event>
 5   0  0.6023446E-07  0.3284071E+04  0.7818609E-02  0.8166960E-01
        1   -1    0    0  501    0  0.00000000000E+00  0.00000000000E+00  0.18095349458E+04  0.18095349458E+04  0.50400001928E-02 0.  1.
       -1   -1    0    0    0  501  0.00000000000E+00  0.00000000000E+00 -0.14900402864E+04  0.14900402864E+04  0.50400001928E-02 0. -1.
    10030    2    1    2    0    0  0.00000000000E+00  0.00000000000E+00  0.31949465939E+03  0.32995752321E+04  0.32840706258E+04 0.  0.
        5    1    3    3  502    0  0.11279324299E+04  0.39901373622E+03  0.12896965815E+04  0.17591995027E+04  0.46999998093E+01 0.  1.
       -5    1    3    3    0  502 -0.11279324299E+04 -0.39901373622E+03 -0.97020192215E+03  0.15403757294E+04  0.46999998093E+01 0. -1.
</event>
<event>
 5   0  0.5985183E-07  0.3292510E+04  0.7818609E-02  0.8164804E-01
       -1   -1    0    0    0  501  0.00000000000E+00  0.00000000000E+00  0.15250472349E+04  0.15250472349E+04  0.50400001928E-02 0. -1.
        1   -1    0    0  501    0  0.00000000000E+00  0.00000000000E+00 -0.17770965410E+04  0.17770965410E+04  0.50400001928E-02 0.  1.
    10030    2    1    2    0    0  0.00000000000E+00  0.00000000000E+00 -0.25204930609E+03  0.33021437759E+04  0.32925103893E+04 0.  0.
        2    1    3    3  502    0 -0.36724242256E+03 -0.15380445377E+04 -0.58530355840E+03  0.16861281839E+04  0.25500000920E-02 0. -1.
       -2    1    3    3    0  502  0.36724242256E+03  0.15380445377E+04  0.33325425231E+03  0.16160155920E+04  0.25500000920E-02 0.  1.
</event>
<event>
 5   0  0.1784626E-06  0.3309714E+04  0.7818609E-02  0.8160428E-01
        2   -1    0    0  501    0  0.00000000000E+00  0.00000000000E+00  0.30738926982E+04  0.30738926982E+04  0.25500000920E-02 0. -1.
       -2   -1    0    0    0  501  0.00000000000E+00  0.00000000000E+00 -0.89090650578E+03  0.89090650579E+03  0.25500000920E-02 0.  1.
    10030    2    1    2    0    0  0.00000000000E+00  0.00000000000E+00  0.21829861924E+04  0.39647992039E+04  0.33097135845E+04 0.  0.
        2    1    3    3  502    0 -0.12930678147E+04  0.95547929304E+03  0.62202451882E+03  0.17239140219E+04  0.25500000920E-02 0.  1.
       -2    1    3    3    0  502  0.12930678147E+04 -0.95547929304E+03  0.15609616736E+04  0.22408851821E+04  0.25500000920E-02 0. -1.
</event>
<event>
 5   0  0.1832626E-06  0.3298341E+04  0.7818609E-02  0.8163318E-01
        2   -1    0    0  501    0  0.00000000000E+00  0.00000000000E+00  0.17491905139E+04  0.17491905139E+04  0.25500000920E-02 0. -1.
       -2   -1    0    0    0  501  0.00000000000E+00  0.00000000000E+00 -0.15548694918E+04  0.15548694918E+04  0.25500000920E-02 0.  1.
    10030    2    1    2    0    0  0.00000000000E+00  0.00000000000E+00  0.19432102207E+03  0.33040600057E+04  0.32983407740E+04 0.  0.
        3    1    3    3  502    0 -0.20086941145E+03 -0.79826708452E+03  0.15286885122E+04  0.17362221736E+04  0.10100000352E+00 0. -1.
       -3    1    3    3    0  502  0.20086941145E+03  0.79826708452E+03 -0.13343674901E+04  0.15678378320E+04  0.10100000352E+00 0.  1.
</event>
<event>
 5   0  0.1784626E-06  0.3295500E+04  0.7818609E-02  0.8164041E-01
        2   -1    0    0  501    0  0.00000000000E+00  0.00000000000E+00  0.12588221024E+04  0.12588221024E+04  0.25500000920E-02 0.  1.
       -2   -1    0    0    0  501  0.00000000000E+00  0.00000000000E+00 -0.21568421381E+04  0.21568421381E+04  0.25500000920E-02 0. -1.
    10030    2    1    2    0    0  0.00000000000E+00  0.00000000000E+00 -0.89802003570E+03  0.34156642405E+04  0.32955002988E+04 0.  0.
        2    1    3    3  502    0 -0.13459152692E+04  0.88476399420E+03 -0.80922426878E+03  0.18025368663E+04  0.25500000920E-02 0. -1.
       -2    1    3    3    0  502  0.13459152692E+04 -0.88476399420E+03 -0.88795766922E+02  0.16131273742E+04  0.25500000920E-02 0.  1.
</event>
<event>
 5   0  0.5858859E-07  0.3290859E+04  0.7818609E-02  0.8165225E-01
        1   -1    0    0  501    0  0.00000000000E+00  0.00000000000E+00  0.14132878719E+04  0.14132878719E+04  0.50400001928E-02 0. -1.
       -1   -1    0    0    0  501  0.00000000000E+00  0.00000000000E+00 -0.19157019819E+04  0.19157019819E+04  0.50400001928E-02 0.  1.
    10030    2    1    2    0    0  0.00000000000E+00  0.00000000000E+00 -0.50241411000E+03  0.33289898537E+04  0.32908590836E+04 0.  0.
        3    1    3    3  502    0  0.44856490847E+03 -0.10157685999E+04  0.97712854333E+03  0.14791134257E+04  0.10100000352E+00 0. -1.
       -3    1    3    3    0  502 -0.44856490847E+03  0.10157685999E+04 -0.14795426533E+04  0.18498764280E+04  0.10100000352E+00 0.  1.
</event>
<event>
 5   0  0.6023446E-07  0.3297129E+04  0.7818609E-02  0.8163626E-01
        1   -1    0    0  501    0  0.00000000000E+00  0.00000000000E+00  0.13821264023E+04  0.13821264023E+04  0.50400001928E-02 0.  1.
       -1   -1    0    0    0  501  0.00000000000E+00  0.00000000000E+00 -0.19663653180E+04  0.19663653180E+04  0.50400001928E-02 0. -1.
    10030    2    1    2    0    0  0.00000000000E+00  0.00000000000E+00 -0.58423891566E+03  0.33484917203E+04  0.32971293106E+04 0.  0.
        5    1    3    3  502    0 -0.14573996976E+04 -0.22637016679E+03 -0.10401296533E+04  0.18047573567E+04  0.46999998093E+01 0. -1.
       -5    1    3    3    0  502  0.14573996976E+04  0.22637016679E+03  0.45589073761E+03  0.15437343637E+04  0.46999998093E+01 0.  1.
</event>
<event>
 5   0  0.1743810E-06  0.3303765E+04  0.7818609E-02  0.8161938E-01
        2   -1    0    0  501    0  0.00000000000E+00  0.00000000000E+00  0.22180422499E+04  0.22180422499E+04  0.25500000920E-02 0. -1.
       -2   -1    0    0    0  501  0.00000000000E+00  0.00000000000E+00 -0.12302363906E+04  0.12302363906E+04  0.25500000920E-02 0.  1.
    10030    2    1    2    0    0  0.00000000000E+00  0.00000000000E+00  0.98780585932E+03  0.34482786405E+04  0.33037653014E+04 0.  0.
        5    1    3    3  502    0 -0.12411815632E+04  0.88991865605E+03 -0.16308048919E+03  0.15359375714E+04  0.46999998093E+01 0. -1.
       -5    1    3    3    0  502  0.12411815632E+04 -0.88991865605E+03  0.11508863485E+04  0.19123410691E+04  0.46999998093E+01 0.  1.
</event>
<event>
 5   0  0.6023446E-07  0.3171345E+04  0.7818609E-02  0.8196426E-01
        1   -1    0    0  501    0  0.00000000000E+00  0.00000000000E+00  0.19660342282E+04  0.19660342282E+04  0.50400001928E-02 0. -1.
       -1   -1    0    0    0  501  0.00000000000E+00  0.00000000000E+00 -0.12788982769E+04  0.12788982769E+04  0.50400001928E-02 0.  1.
    10030    2    1    2    0    0  0.00000000000E+00  0.00000000000E+00  0.68713595132E+03  0.32449325051E+04  0.31713453214E+04 0.  0.
        5    1    3    3  502    0  0.16870182571E+03  0.99288716889E+03  0.15967526300E+04  0.18878364038E+04  0.46999998093E+01 0. -1.
       -5    1    3    3    0  502 -0.16870182571E+03 -0.99288716889E+03 -0.90961667867E+03  0.13570961013E+04  0.46999998093E+01 0.  1.
</event>
<event>
 5   0  0.5985183E-07  0.3343093E+04  0.7818609E-02  0.8152016E-01
        1   -1    0    0  501    0  0.00000000000E+00  0.00000000000E+00  0.22885549848E+04  0.22885549848E+04  0.50400001928E-02 0.  1.
       -1   -1    0    0    0  501  0.00000000000E+00  0.00000000000E+00 -0.12208871542E+04  0.12208871543E+04  0.50400001928E-02 0. -1.
    10030    2    1    2    0    0  0.00000000000E+00  0.00000000000E+00  0.10676678305E+04  0.35094421390E+04  0.33430928092E+04 0.  0.
        2    1    3    3  502    0 -0.34237411580E+03 -0.38102469139E+03 -0.11364603462E+04  0.12465720875E+04  0.25500000920E-02 0. -1.
       -2    1    3    3    0  502  0.34237411580E+03  0.38102469139E+03  0.22041281768E+04  0.22628700516E+04  0.25500000920E-02 0.  1.
</event>
<event>
 5   0  0.1743810E-06  0.3289691E+04  0.7818609E-02  0.8165524E-01
       -2   -1    0    0    0  501  0.00000000000E+00  0.00000000000E+00  0.13106452025E+04  0.13106452025E+04  0.25500000920E-02 0.  1.
        2   -1    0    0  501    0  0.00000000000E+00  0.00000000000E+00 -0.20642629731E+04  0.20642629731E+04  0.25500000920E-02 0. -1.
    10030    2    1    2    0    0  0.00000000000E+00  0.00000000000E+00 -0.75361777066E+03  0.33749081756E+04  0.32896907833E+04 0.  0.
        5    1    3    3  502    0  0.81651622245E+03  0.14080707426E+04 -0.61986880985E+03  0.17417294248E+04  0.46999998093E+01 0. -1.
       -5    1    3    3    0  502 -0.81651622245E+03 -0.14080707426E+04 -0.13374896081E+03  0.16331787508E+04  0.46999998093E+01 0.  1.
</event>
<event>
 5   0  0.6085351E-07  0.3273996E+04  0.7818609E-02  0.8169544E-01
       -1   -1    0    0    0  501  0.00000000000E+00  0.00000000000E+00  0.12389733952E+04  0.12389733952E+04  0.50400001928E-02 0. -1.
        1   -1    0    0  501    0  0.00000000000E+00  0.00000000000E+00 -0.21628893242E+04  0.21628893242E+04  0.50400001928E-02 0.  1.
    10030    2    1    2    0    0  0.00000000000E+00  0.00000000000E+00 -0.92391592899E+03  0.34018627194E+04  0.32739959251E+04 0.  0.
        1    1    3    3  502    0  0.22732803161E+03 -0.13222849130E+04 -0.14364826366E+04  0.19656036707E+04  0.50400001928E-02 0.  1.
       -1    1    3    3    0  502 -0.22732803161E+03  0.13222849130E+04  0.51256670763E+03  0.14362590487E+04  0.50400001928E-02 0. -1.
</event>
<event>
 5   0  0.1832626E-06  0.3283625E+04  0.7818609E-02  0.8167075E-01
       -2   -1    0    0    0  501  0.00000000000E+00  0.00000000000E+00  0.20591100556E+04  0.20591100556E+04  0.25500000920E-02 0. -1.
        2   -1    0    0  501    0  0.00000000000E+00  0.00000000000E+00 -0.13090842365E+04  0.13090842365E+04  0.25500000920E-02 0.  1.
    10030    2    1    2    0    0  0.00000000000E+00  0.00000000000E+00  0.75002581907E+03  0.33681942921E+04  0.32836251400E+04 0.  0.
        3    1    3    3  502    0  0.10683462209E+03 -0.12653935865E+04 -0.69241987056E+03  0.14464023827E+04  0.10100000352E+00 0.  1.
       -3    1    3    3    0  502 -0.10683462209E+03  0.12653935865E+04  0.14424456896E+04  0.19217919094E+04  0.10100000352E+00 0. -1.
</event>
<event>
 5   0  0.1728937E-06  0.3298426E+04  0.7818609E-02  0.8163296E-01
       -2   -1    0    0    0  501  0.00000000000E+00  0.00000000000E+00  0.90969928310E+03  0.90969928311E+03  0.25500000920E-02 0. -1.
        2   -1    0    0  501    0  0.00000000000E+00  0.00000000000E+00 -0.29898931698E+04  0.29898931698E+04  0.25500000920E-02 0.  1.
    10030    2    1    2    0    0  0.00000000000E+00  0.00000000000E+00 -0.20801938867E+04  0.38995924529E+04  0.32984260932E+04 0.  0.
        1    1    3    3  502    0  0.11821932065E+04  0.20662288930E+03 -0.23774764055E+04  0.26632063110E+04  0.50400001928E-02 0.  1.
       -1    1    3    3    0  502 -0.11821932065E+04 -0.20662288930E+03  0.29728251888E+03  0.12363861419E+04  0.50400001928E-02 0. -1.
</event>
<event>
 5   0  0.1832626E-06  0.3324577E+04  0.7818609E-02  0.8156670E-01
       -2   -1    0    0    0  501  0.00000000000E+00  0.00000000000E+00  0.16475387699E+04  0.16475387699E+04  0.25500000920E-02 0. -1.
        2   -1    0    0  501    0  0.00000000000E+00  0.00000000000E+00 -0.16771698780E+04  0.16771698780E+04  0.25500000920E-02 0.  1.
    10030    2    1    2    0    0  0.00000000000E+00  0.00000000000E+00 -0.29631108119E+02  0.33247086479E+04  0.33245766032E+04 0.  0.
        3    1    3    3  502    0  0.10303645924E+04  0.92360813095E+03  0.90636120257E+03  0.16541444352E+04  0.10100000352E+00 0. -1.
       -3    1    3    3    0  502 -0.10303645924E+04 -0.92360813095E+03 -0.93599231069E+03  0.16705642127E+04  0.10100000352E+00 0.  1.
</event>
<event>
 5   0  0.5985183E-07  0.3303868E+04  0.7818609E-02  0.8161912E-01
        1   -1    0    0  501    0  0.00000000000E+00  0.00000000000E+00  0.21707784333E+04  0.21707784333E+04  0.50400001928E-02 0. -1.
       -1   -1    0    0    0  501  0.00000000000E+00  0.00000000000E+00 -0.12570999495E+04  0.12570999495E+04  0.50400001928E-02 0.  1.
    10030    2    1    2    0    0  0.00000000000E+00  0.00000000000E+00  0.91367848386E+03  0.34278783828E+04  0.33038677085E+04 0.  0.
        2    1    3    3  502    0  0.75808661119E+03 -0.98957089050E+03  0.15814714759E+04  0.20137025318E+04  0.25500000920E-02 0. -1.
       -2    1    3    3    0  502 -0.75808661119E+03  0.98957089050E+03 -0.66779299204E+03  0.14141758510E+04  0.25500000920E-02 0.  1.
</event>
<event>
 5   0  0.1696681E-06  0.3306630E+04  0.7818609E-02  0.8161210E-01
       -2   -1    0    0    0  501  0.00000000000E+00  0.00000000000E+00  0.14395394906E+04  0.14395394906E+04  0.25500000920E-02 0. -1.
        2   -1    0    0  501    0  0.00000000000E+00  0.00000000000E+00 -0.18988365777E+04  0.18988365777E+04  0.25500000920E-02 0.  1.
    10030    2    1    2    0    0  0.00000000000E+00  0.00000000000E+00 -0.45929708709E+03  0.33383760683E+04  0.33066298492E+04 0.  0.
        4    1    3    3  502    0  0.70469623557E+03  0.11274110451E+04 -0.12218329969E+04  0.18056937543E+04  0.12699999809E+01 0.  1.
       -4    1    3    3    0  502 -0.70469623557E+03 -0.11274110451E+04  0.76253590982E+03  0.15326823140E+04  0.12699999809E+01 0. -1.
</event>
<event>
 5   0  0.6023446E-07  0.3258666E+04  0.7818609E-02  0.8173493E-01
       -1   -1    0    0    0  501  0.00000000000E+00  0.00000000000E+00  0.11787595474E+04  0.11787595475E+04  0.50400001928E-02 0.  1.
        1   -1    0    0  501    0  0.00000000000E+00  0.00000000000E+00 -0.22521359991E+04  0.22521359991E+04  0.50400001928E-02 0. -1.
    10030    2    1    2    0    0  0.00000000000E+00  0.00000000000E+00 -0.10733764517E+04  0.34308955466E+04  0.32586664826E+04 0.  0.
        5    1    3    3  502    0 -0.26117277946E+03 -0.13750145466E+04 -0.14149392966E+04  0.19902139401E+04  0.46999998093E+01 0. -1.
       -5    1    3    3    0  502  0.26117277946E+03  0.13750145466E+04  0.34156284497E+03  0.14406816065E+04  0.46999998093E+01 0.  1.
</event>
<event>
 5   0  0.5985183E-07  0.3362251E+04  0.7818609E-02  0.8147234E-01
       -1   -1    0    0    0  501  0.00000000000E+00  0.00000000000E+00  0.18651035075E+04  0.18651035075E+04  0.50400001928E-02 0.  1.
        1   -1    0    0  501    0  0.00000000000E+00  0.00000000000E+00 -0.15152959135E+04  0.15152959135E+04  0.50400001928E-02 0. -1.
    10030    2    1    2    0    0  0.00000000000E+00  0.00000000000E+00  0.34980759405E+03  0.33803994210E+04  0.33622514619E+04 0.  0.
        2    1    3    3  502    0 -0.14012646670E+04 -0.92651255251E+02  0.11040439001E+04  0.17863481899E+04  0.25500000920E-02 0.  1.
       -2    1    3    3    0  502  0.14012646670E+04  0.92651255251E+02 -0.75423630609E+03  0.15940512311E+04  0.25500000920E-02 0. -1.
</event>
<event>
 5   0  0.5985183E-07  0.3306735E+04  0.7818609E-02  0.8161184E-01
       -1   -1    0    0    0  501  0.00000000000E+00  0.00000000000E+00  0.18684191842E+04  0.18684191843E+04  0.50400001928E-02 0.  1.
        1   -1    0    0  501    0  0.00000000000E+00  0.00000000000E+00 -0.14630678641E+04  0.14630678641E+04  0.50400001928E-02 0. -1.
    10030    2    1    2    0    0  0.00000000000E+00  0.00000000000E+00  0.40535132016E+03  0.33314870483E+04  0.33067349849E+04 0.  0.
        2    1    3    3  502    0 -0.78124322968E+02  0.77563688856E+03 -0.12662877544E+04  0.14870106488E+04  0.25500000920E-02 0. -1.
       -2    1    3    3    0  502  0.78124322968E+02 -0.77563688856E+03  0.16716390746E+04  0.18444763995E+04  0.25500000920E-02 0.  1.
</event>
<event>
 5   0  0.5858859E-07  0.3310285E+04  0.7818609E-02  0.8160283E-01
        1   -1    0    0  501    0  0.00000000000E+00  0.00000000000E+00  0.16393090764E+04  0.16393090764E+04  0.50400001928E-02 0.  1.
       -1   -1    0    0    0  501  0.00000000000E+00  0.00000000000E+00 -0.16711289687E+04  0.16711289687E+04  0.50400001928E-02 0. -1.
    10030    2    1    2    0    0  0.00000000000E+00  0.00000000000E+00 -0.31819892359E+02  0.33104380451E+04  0.33102851154E+04 0.  0.
        3    1    3    3  502    0 -0.60683327946E+03 -0.34617470676E+03  0.14846304056E+04  0.16407958460E+04  0.10100000352E+00 0.  1.
       -3    1    3    3    0  502  0.60683327946E+03  0.34617470676E+03 -0.15164502980E+04  0.16696421991E+04  0.10100000352E+00 0. -1.
</event>
<event>
 5   0  0.6023446E-07  0.3261624E+04  0.7818609E-02  0.8172729E-01
        1   -1    0    0  501    0  0.00000000000E+00  0.00000000000E+00  0.18419353929E+04  0.18419353929E+04  0.50400001928E-02 0. -1.
       -1   -1    0    0    0  501  0.00000000000E+00  0.00000000000E+00 -0.14438872734E+04  0.14438872734E+04  0.50400001928E-02 0.  1.
    10030    2    1    2    0    0  0.00000000000E+00  0.00000000000E+00  0.39804811947E+03  0.32858226664E+04  0.32616235665E+04 0.  0.
        5    1    3    3  502    0  0.12339880161E+03 -0.88881537251E+03 -0.11728077336E+04  0.14767261427E+04  0.46999998093E+01 0.  1.
       -5    1    3    3    0  502 -0.12339880161E+03  0.88881537251E+03  0.15708558531E+04  0.18090965236E+04  0.46999998093E+01 0. -1.
</event>
<event>
 5   0  0.1743810E-06  0.3276271E+04  0.7818609E-02  0.8168960E-01
        2   -1    0    0  501    0  0.00000000000E+00  0.00000000000E+00  0.25591096160E+04  0.25591096160E+04  0.25500000920E-02 0. -1.
       -2   -1    0    0    0  501  0.00000000000E+00  0.00000000000E+00 -0.10486018624E+04  0.10486018624E+04  0.25500000920E-02 0.  1.
    10030    2    1    2    0    0  0.00000000000E+00  0.00000000000E+00  0.15105077536E+04  0.36077114784E+04  0.32762705074E+04 0.  0.
        5    1    3    3  502    0  0.72513808692E+03  0.14684068193E+04  0.79676626332E+03  0.18212365032E+04  0.46999998093E+01 0.  1.
       -5    1    3    3    0  502 -0.72513808692E+03 -0.14684068193E+04  0.71374149032E+03  0.17864749752E+04  0.46999998093E+01 0. -1.
</event>
<event>
 5   0  0.6085351E-07  0.3279460E+04  0.7818609E-02  0.8168141E-01
       -1   -1    0    0    0  501  0.00000000000E+00  0.00000000000E+00  0.14038882593E+04  0.14038882593E+04  0.50400001928E-02 0.  1.
        1   -1    0    0  501    0  0.00000000000E+00  0.00000000000E+00 -0.19151916060E+04  0.19151916060E+04  0.50400001928E-02 0. -1.
    10030    2    1    2    0    0  0.00000000000E+00  0.00000000000E+00 -0.51130334674E+03  0.33190798653E+04  0.32794603276E+04 0.  0.
        1    1    3    3  502    0  0.50719938516E+03  0.12999129881E+04 -0.11272703711E+04  0.17938125550E+04  0.50400001928E-02 0. -1.
       -1    1    3    3    0  502 -0.50719938516E+03 -0.12999129881E+04  0.61596702437E+03  0.15252673103E+04  0.50400001928E-02 0.  1.
</event>
<event>
 5   0  0.6023446E-07  0.3111991E+04  0.7818609E-02  0.8212455E-01
       -1   -1    0    0    0  501  0.00000000000E+00  0.00000000000E+00  0.10081001270E+04  0.10081001271E+04  0.50400001928E-02 0.  1.
        1   -1    0    0  501    0  0.00000000000E+00  0.00000000000E+00 -0.24016687412E+04  0.24016687412E+04  0.50400001928E-02 0. -1.
    10030    2    1    2    0    0  0.00000000000E+00  0.00000000000E+00 -0.13935686141E+04  0.34097688682E+04  0.31119913645E+04 0.  0.
        5    1    3    3  502    0 -0.12874631733E+04 -0.86780181342E+03 -0.80883974809E+03  0.17506813640E+04  0.46999998093E+01 0.  1.
       -5    1    3    3    0  502  0.12874631733E+04  0.86780181342E+03 -0.58472886602E+03  0.16590875043E+04  0.46999998093E+01 0. -1.
</event>
<event>
 5   0  0.5988516E-07  0.3279750E+04  0.7818609E-02  0.8168067E-01
        1   -1    0    0  501    0  0.00000000000E+00  0.00000000000E+00  0.18972068706E+04  0.18972068706E+04  0.50400001928E-02 0.  1.
       -1   -1    0    0    0  501  0.00000000000E+00  0.00000000000E+00 -0.14174465501E+04  0.14174465501E+04  0.50400001928E-02 0. -1.
    10030    2    1    2    0    0  0.00000000000E+00  0.00000000000E+00  0.47976032046E+03  0.33146534207E+04  0.32797495841E+04 0.  0.
        4    1    3    3  502    0 -0.60823737075E+03 -0.43113642868E+03 -0.12362652734E+04  0.14436705851E+04  0.12699999809E+01 0. -1.
       -4    1    3    3    0  502  0.60823737075E+03  0.43113642868E+03  0.17160255938E+04  0.18709828356E+04  0.12699999809E+01 0.  1.
</event>
<event>
 5   0  0.5985183E-07  0.3311992E+04  0.7818609E-02  0.8159851E-01
        1   -1    0    0  501    0  0.00000000000E+00  0.00000000000E+00  0.27430780555E+04  0.27430780555E+04  0.50400001928E-02 0. -1.
       -1   -1    0    0    0  501  0.00000000000E+00  0.00000000000E+00 -0.99972459643E+03  0.99972459644E+03  0.50400001928E-02 0.  1.
    10030    2    1    2    0    0  0.00000000000E+00  0.00000000000E+00  0.17433534591E+04  0.37428026520E+04  0.33119919095E+04 0.  0.
        2    1    3    3  502    0 -0.19580077262E+03 -0.10902263618E+04 -0.51946069152E+03  0.12234258753E+04  0.25500000920E-02 0.  1.
       -2    1    3    3    0  502  0.19580077262E+03  0.10902263618E+04  0.22628141506E+04  0.25193767766E+04  0.25500000920E-02 0. -1.
</event>
<event>
 5   0  0.1784626E-06  0.3258979E+04  0.7818609E-02  0.8173412E-01
       -2   -1    0    0    0  501  0.00000000000E+00  0.00000000000E+00  0.18288721022E+04  0.18288721022E+04  0.25500000920E-02 0.  1.
        2   -1    0    0  501    0  0.00000000000E+00  0.00000000000E+00 -0.14518434542E+04  0.14518434542E+04  0.25500000920E-02 0. -1.
    10030    2    1    2    0    0  0.00000000000E+00  0.00000000000E+00  0.37702864802E+03  0.32807155564E+04  0.32589789751E+04 0.  0.
        2    1    3    3  502    0 -0.11061422912E+04  0.10580879643E+03  0.13883066143E+04  0.17782411324E+04  0.25500000920E-02 0.  1.
       -2    1    3    3    0  502  0.11061422912E+04 -0.10580879643E+03 -0.10112779663E+04  0.15024744240E+04  0.25500000920E-02 0. -1.
</event>
<event>
 5   0  0.1832626E-06  0.3304647E+04  0.7818609E-02  0.8161714E-01
       -2   -1    0    0    0  501  0.00000000000E+00  0.00000000000E+00  0.33236530526E+04  0.33236530526E+04  0.25500000920E-02 0. -1.
        2   -1    0    0  501    0  0.00000000000E+00  0.00000000000E+00 -0.82143756817E+03  0.82143756817E+03  0.25500000920E-02 0.  1.
    10030    2    1    2    0    0  0.00000000000E+00  0.00000000000E+00  0.25022154845E+04  0.41450906208E+04  0.33046473222E+04 0.  0.
        3    1    3    3  502    0  0.15482193676E+04 -0.11976471903E+03  0.54283609533E+03  0.16449917430E+04  0.10100000352E+00 0.  1.
       -3    1    3    3    0  502 -0.15482193676E+04  0.11976471903E+03  0.19593793892E+04  0.25000988778E+04  0.10100000352E+00 0. -1.
</event>
<event>
 5   0  0.1696681E-06  0.3368954E+04  0.7818609E-02  0.8145568E-01
        2   -1    0    0  501    0  0.00000000000E+00  0.00000000000E+00  0.16714104408E+04  0.16714104408E+04  0.25500000920E-02 0. -1.
       -2   -1    0    0    0  501  0.00000000000E+00  0.00000000000E+00 -0.16976458462E+04  0.16976458462E+04  0.25500000920E-02 0.  1.
    10030    2    1    2    0    0  0.00000000000E+00  0.00000000000E+00 -0.26235405412E+02  0.33690562871E+04  0.33689541358E+04 0.  0.
        4    1    3    3  502    0 -0.12828830209E+04 -0.10843474581E+04 -0.13907041606E+03  0.16855089584E+04  0.12699999809E+01 0.  1.
       -4    1    3    3    0  502  0.12828830209E+04  0.10843474581E+04  0.11283501065E+03  0.16835473287E+04  0.12699999809E+01 0. -1.
</event>
<event>
 5   0  0.6023446E-07  0.3346975E+04  0.7818609E-02  0.8151044E-01
       -1   -1    0    0    0  501  0.00000000000E+00  0.00000000000E+00  0.15841160662E+04  0.15841160662E+04  0.50400001928E-02 0.  1.
        1   -1    0    0  501    0  0.00000000000E+00  0.00000000000E+00 -0.17679008651E+04  0.17679008651E+04  0.50400001928E-02 0. -1.
    10030    2    1    2    0    0  0.00000000000E+00  0.00000000000E+00 -0.18378479885E+03  0.33520169313E+04  0.33469748513E+04 0.  0.
        5    1    3    3  502    0 -0.13594790759E+04 -0.81836166995E+02 -0.10658066114E+04  0.17294063545E+04  0.46999998093E+01 0. -1.
       -5    1    3    3    0  502  0.13594790759E+04  0.81836166995E+02  0.88202181257E+03  0.16226105768E+04  0.46999998093E+01 0.  1.
</event>
<event>
 5   0  0.1728937E-06  0.3309533E+04  0.7818609E-02  0.8160474E-01
       -2   -1    0    0    0  501  0.00000000000E+00  0.00000000000E+00  0.15824741901E+04  0.15824741901E+04  0.25500000920E-02 0. -1.
        2   -1    0    0  501    0  0.00000000000E+00  0.00000000000E+00 -0.17303614210E+04  0.17303614210E+04  0.25500000920E-02 0.  1.
    10030    2    1    2    0    0  0.00000000000E+00  0.00000000000E+00 -0.14788723096E+03  0.33128356111E+04  0.33095330718E+04 0.  0.
        1    1    3    3  502    0 -0.33928775524E+03 -0.16144146631E+04  0.55805956306E+02  0.16506256966E+04  0.50400001928E-02 0.  1.
       -1    1    3    3    0  502  0.33928775524E+03  0.16144146631E+04 -0.20369318726E+03  0.16622099145E+04  0.50400001928E-02 0. -1.
</event>
<event>
 5   0  0.1743810E-06  0.2971337E+04  0.7818609E-02  0.8251964E-01
       -2   -1    0    0    0  501  0.00000000000E+00  0.00000000000E+00  0.12280781059E+04  0.12280781059E+04  0.25500000920E-02 0.  1.
        2   -1    0    0  501    0  0.00000000000E+00  0.00000000000E+00 -0.17972881524E+04  0.17972881524E+04  0.25500000920E-02 0. -1.
    10030    2    1    2    0    0  0.00000000000E+00  0.00000000000E+00 -0.56921004650E+03  0.30253662583E+04  0.29713365544E+04 0.  0.
        5    1    3    3  502    0 -0.17279242540E+03  0.11864269158E+04  0.60868624451E+03  0.13446141019E+04  0.46999998093E+01 0.  1.
       -5    1    3    3    0  502  0.17279242540E+03 -0.11864269158E+04 -0.11778962910E+04  0.16807521564E+04  0.46999998093E+01 0. -1.
</event>
<event>
 5   0  0.5988516E-07  0.3309541E+04  0.7818609E-02  0.8160472E-01
       -1   -1    0    0    0  501  0.00000000000E+00  0.00000000000E+00  0.97118152531E+03  0.97118152533E+03  0.50400001928E-02 0.  1.
        1   -1    0    0  501    0  0.00000000000E+00  0.00000000000E+00 -0.28195199671E+04  0.28195199671E+04  0.50400001928E-02 0. -1.
    10030    2    1    2    0    0  0.00000000000E+00  0.00000000000E+00 -0.18483384418E+04  0.37907014925E+04  0.33095411781E+04 0.  0.
        4    1    3    3  502    0  0.28600943966E+03  0.15883405750E+04 -0.13428808335E+04  0.20995136884E+04  0.12699999809E+01 0. -1.
       -4    1    3    3    0  502 -0.28600943966E+03 -0.15883405750E+04 -0.50545760833E+03  0.16911878041E+04  0.12699999809E+01 0.  1.
</event>
<event>
 5   0  0.5985183E-07  0.3333762E+04  0.7818609E-02  0.8154357E-01
       -1   -1    0    0    0  501  0.00000000000E+00  0.00000000000E+00  0.10065831045E+04  0.10065831045E+04  0.50400001928E-02 0.  1.
        1   -1    0    0  501    0  0.00000000000E+00  0.00000000000E+00 -0.27603203768E+04  0.27603203768E+04  0.50400001928E-02 0. -1.
    10030    2    1    2    0    0  0.00000000000E+00  0.00000000000E+00 -0.17537372724E+04  0.37669034813E+04  0.33337617517E+04 0.  0.
        2    1    3    3  502    0  0.69131147934E+03  0.61148645546E+03  0.69151749273E+03  0.11532665301E+04  0.25500000920E-02 0.  1.
       -2    1    3    3    0  502 -0.69131147934E+03 -0.61148645546E+03 -0.24452547651E+04  0.26136369512E+04  0.25500000920E-02 0. -1.
</event>
<event>
 5   0  0.5985183E-07  0.3300951E+04  0.7818609E-02  0.8162653E-01
        1   -1    0    0  501    0  0.00000000000E+00  0.00000000000E+00  0.18332900265E+04  0.18332900265E+04  0.50400001928E-02 0.  1.
       -1   -1    0    0    0  501  0.00000000000E+00  0.00000000000E+00 -0.14858909785E+04  0.14858909785E+04  0.50400001928E-02 0. -1.
    10030    2    1    2    0    0  0.00000000000E+00  0.00000000000E+00  0.34739904798E+03  0.33191810050E+04  0.33009508396E+04 0.  0.
        2    1    3    3  502    0 -0.10524866345E+04 -0.12535725617E+04  0.38675843838E+03  0.16818901191E+04  0.25500000920E-02 0. -1.
       -2    1    3    3    0  502  0.10524866345E+04  0.12535725617E+04 -0.39359390391E+02  0.16372908858E+04  0.25500000920E-02 0.  1.
</event>
<event>
 5   0  0.6023446E-07  0.3287155E+04  0.7818609E-02  0.8166171E-01
        1   -1    0    0  501    0  0.00000000000E+00  0.00000000000E+00  0.87911771357E+03  0.87911771358E+03  0.50400001928E-02 0. -1.
       -1   -1    0    0    0  501  0.00000000000E+00  0.00000000000E+00 -0.30727936426E+04  0.30727936426E+04  0.50400001928E-02 0.  1.
    10030    2    1    2    0    0  0.00000000000E+00  0.00000000000E+00 -0.21936759290E+04  0.39519113562E+04  0.32871551964E+04 0.  0.
        5    1    3    3  502    0 -0.16075424244E+04  0.92467783530E+02 -0.70068173279E+03  0.17560523677E+04  0.46999998093E+01 0. -1.
       -5    1    3    3    0  502  0.16075424244E+04 -0.92467783530E+02 -0.14929941962E+04  0.21958589885E+04  0.46999998093E+01 0.  1.
</event>
<event>
 5   0  0.5985183E-07  0.3288134E+04  0.7818609E-02  0.8165921E-01
       -1   -1    0    0    0  501  0.00000000000E+00  0.00000000000E+00  0.11451774534E+04  0.11451774534E+04  0.50400001928E-02 0. -1.
        1   -1    0    0  501    0  0.00000000000E+00  0.00000000000E+00 -0.23602949848E+04  0.23602949848E+04  0.50400001928E-02 0.  1.
    10030    2    1    2    0    0  0.00000000000E+00  0.00000000000E+00 -0.12151175314E+04  0.35054724382E+04  0.32881341822E+04 0.  0.
        2    1    3    3  502    0  0.63675847381E+03 -0.10541166490E+04  0.55362349386E+03  0.13502304383E+04  0.25500000920E-02 0. -1.
       -2    1    3    3    0  502 -0.63675847381E+03  0.10541166490E+04 -0.17687410253E+04  0.21552419999E+04  0.25500000920E-02 0.  1.
</event>
<event>
 5   0  0.1784626E-06  0.3171978E+04  0.7818609E-02  0.8196257E-01
        2   -1    0    0  501    0  0.00000000000E+00  0.00000000000E+00  0.22571250313E+04  0.22571250313E+04  0.25500000920E-02 0. -1.
       -2   -1    0    0    0  501  0.00000000000E+00  0.00000000000E+00 -0.11144094195E+04  0.11144094195E+04  0.25500000920E-02 0.  1.
    10030    2    1    2    0    0  0.00000000000E+00  0.00000000000E+00  0.11427156118E+04  0.33715344508E+04  0.31719781815E+04 0.  0.
        2    1    3    3  502    0 -0.51567950362E+03  0.12048679139E+04 -0.37798966398E+03  0.13640044819E+04  0.25500000920E-02 0.  1.
       -2    1    3    3    0  502  0.51567950362E+03 -0.12048679139E+04  0.15207052758E+04  0.20075299690E+04  0.25500000920E-02 0. -1.
</event>
<event>
 5   0  0.1784626E-06  0.3193298E+04  0.7818609E-02  0.8190589E-01
        2   -1    0    0  501    0  0.00000000000E+00  0.00000000000E+00  0.16174439346E+04  0.16174439346E+04  0.25500000920E-02 0.  1.
       -2   -1    0    0    0  501  0.00000000000E+00  0.00000000000E+00 -0.15761212354E+04  0.15761212354E+04  0.25500000920E-02 0. -1.
    10030    2    1    2    0    0  0.00000000000E+00  0.00000000000E+00  0.41322699221E+02  0.31935651700E+04  0.31932978141E+04 0.  0.
        2    1    3    3  502    0 -0.69890906295E+03 -0.71151778717E+03  0.12675842066E+04  0.16129169726E+04  0.25500000920E-02 0.  1.
       -2    1    3    3    0  502  0.69890906295E+03  0.71151778717E+03 -0.12262615073E+04  0.15806481975E+04  0.25500000920E-02 0. -1.
</event>
<event>
 5   0  0.1832626E-06  0.3343428E+04  0.7818609E-02  0.8151932E-01
        2   -1    0    0  501    0  0.00000000000E+00  0.00000000000E+00  0.23219618331E+04  0.23219618331E+04  0.25500000920E-02 0. -1.
       -2   -1    0    0    0  501  0.00000000000E+00  0.00000000000E+00 -0.12035630913E+04  0.12035630913E+04  0.25500000920E-02 0.  1.
    10030    2    1    2    0    0  0.00000000000E+00  0.00000000000E+00  0.11183987418E+04  0.35255249244E+04  0.33434279186E+04 0.  0.
        3    1    3    3  502    0  0.43441371158E+03  0.13879265753E+04 -0.31006042806E+03  0.14870080465E+04  0.10100000352E+00 0.  1.
       -3    1    3    3    0  502 -0.43441371158E+03 -0.13879265753E+04  0.14284591699E+04  0.20385168779E+04  0.10100000352E+00 0. -1.
</event>
<event>
 5   0  0.6085351E-07  0.3336331E+04  0.7818609E-02  0.8153712E-01
        1   -1    0    0  501    0  0.00000000000E+00  0.00000000000E+00  0.19359704129E+04  0.19359704129E+04  0.50400001928E-02 0. -1.
       -1   -1    0    0    0  501  0.00000000000E+00  0.00000000000E+00 -0.14374060623E+04  0.14374060623E+04  0.50400001928E-02 0.  1.
    10030    2    1    2    0    0  0.00000000000E+00  0.00000000000E+00  0.49856435058E+03  0.33733764752E+04  0.33363306838E+04 0.  0.
        1    1    3    3  502    0 -0.95381030880E+03  0.53273663908E+02  0.16320135699E+04  0.18910474560E+04  0.50400001928E-02 0. -1.
       -1    1    3    3    0  502  0.95381030880E+03 -0.53273663908E+02 -0.11334492193E+04  0.14823290192E+04  0.50400001928E-02 0.  1.
</event>
<event>
 5   0  0.5985183E-07  0.3341376E+04  0.7818609E-02  0.8152446E-01
        1   -1    0    0  501    0  0.00000000000E+00  0.00000000000E+00  0.12248943888E+04  0.12248943888E+04  0.50400001928E-02 0.  1.
       -1   -1    0    0    0  501  0.00000000000E+00  0.00000000000E+00 -0.22787261919E+04  0.22787261919E+04  0.50400001928E-02 0. -1.
    10030    2    1    2    0    0  0.00000000000E+00  0.00000000000E+00 -0.10538318032E+04  0.35036205807E+04  0.33413763188E+04 0.  0.
        2    1    3    3  502    0 -0.14438984348E+04  0.73550700928E+03 -0.95333890420E+03  0.18800713596E+04  0.25500000920E-02 0. -1.
       -2    1    3    3    0  502  0.14438984348E+04 -0.73550700928E+03 -0.10049289895E+03  0.16235492211E+04  0.25500000920E-02 0.  1.
</event>
<event>
 5   0  0.5985183E-07  0.3347784E+04  0.7818609E-02  0.8150842E-01
       -1   -1    0    0    0  501  0.00000000000E+00  0.00000000000E+00  0.11561705950E+04  0.11561705950E+04  0.50400001928E-02 0.  1.
        1   -1    0    0  501    0  0.00000000000E+00  0.00000000000E+00 -0.24234442985E+04  0.24234442985E+04  0.50400001928E-02 0. -1.
    10030    2    1    2    0    0  0.00000000000E+00  0.00000000000E+00 -0.12672737035E+04  0.35796148935E+04  0.33477843637E+04 0.  0.
        2    1    3    3  502    0 -0.13199066365E+04 -0.79619150407E+03 -0.13313908928E+04  0.20368299266E+04  0.25500000920E-02 0. -1.
       -2    1    3    3    0  502  0.13199066365E+04  0.79619150407E+03  0.64117189268E+02  0.15427849669E+04  0.25500000920E-02 0.  1.
</event>
<event>
 5   0  0.1832626E-06  0.3266232E+04  0.7818609E-02  0.8171541E-01
        2   -1    0    0  501    0  0.00000000000E+00  0.00000000000E+00  0.97031255486E+03  0.97031255487E+03  0.25500000920E-02 0.  1.
       -2   -1    0    0    0  501  0.00000000000E+00  0.00000000000E+00 -0.27486692971E+04  0.27486692971E+04  0.25500000920E-02 0. -1.
    10030    2    1    2    0    0  0.00000000000E+00  0.00000000000E+00 -0.17783567422E+04  0.37189818519E+04  0.32662322809E+04 0.  0.
        3    1    3    3  502    0  0.67662672627E+02 -0.50585043356E+03 -0.26555392503E+04  0.27041360207E+04  0.10100000352E+00 0. -1.
       -3    1    3    3    0  502 -0.67662672627E+02  0.50585043356E+03  0.87718250811E+03  0.10148458312E+04  0.10100000352E+00 0.  1.
</event>
<event>
 5   0  0.1784626E-06  0.3302649E+04  0.7818609E-02  0.8162222E-01
       -2   -1    0    0    0  501  0.00000000000E+00  0.00000000000E+00  0.10096694255E+04  0.10096694255E+04  0.25500000920E-02 0. -1.
        2   -1    0    0  501    0  0.00000000000E+00  0.00000000000E+00 -0.27007572376E+04  0.27007572376E+04  0.25500000920E-02 0.  1.
    10030    2    1    2    0    0  0.00000000000E+00  0.00000000000E+00 -0.16910878121E+04  0.37104266631E+04  0.33026486392E+04 0.  0.
        2    1    3    3  502    0  0.12383763286E+04  0.91955876799E+03 -0.18307017111E+03  0.15532800606E+04  0.25500000920E-02 0. -1.
       -2    1    3    3    0  502 -0.12383763286E+04 -0.91955876799E+03 -0.15080176410E+04  0.21571466025E+04  0.25500000920E-02 0.  1.
</event>
<event>
 5   0  0.1784626E-06  0.3367966E+04  0.7818609E-02  0.8145814E-01
        2   -1    0    0  501    0  0.00000000000E+00  0.00000000000E+00  0.16408106523E+04  0.16408106523E+04  0.25500000920E-02 0. -1.
       -2   -1    0    0    0  501  0.00000000000E+00  0.00000000000E+00 -0.17282912101E+04  0.17282912101E+04  0.25500000920E-02 0.  1.
    10030    2    1    2    0    0  0.00000000000E+00  0.00000000000E+00 -0.87480557791E+02  0.33691018623E+04  0.33679659308E+04 0.  0.
        2    1    3    3  502    0  0.30959206299E+03  0.13054442878E+04  0.97432916298E+03  0.16581162058E+04  0.25500000920E-02 0. -1.
       -2    1    3    3    0  502 -0.30959206299E+03 -0.13054442878E+04 -0.10618097208E+04  0.17109856566E+04  0.25500000920E-02 0.  1.
</event>
<event>
 5   0  0.5988516E-07  0.3246544E+04  0.7818609E-02  0.8176632E-01
       -1   -1    0    0    0  501  0.00000000000E+00  0.00000000000E+00  0.24925849922E+04  0.24925849922E+04  0.50400001928E-02 0.  1.
        1   -1    0    0  501    0  0.00000000000E+00  0.00000000000E+00 -0.10571404230E+04  0.10571404230E+04  0.50400001928E-02 0. -1.
    10030    2    1    2    0    0  0.00000000000E+00  0.00000000000E+00  0.14354445692E+04  0.35497254152E+04  0.32465442261E+04 0.  0.
        4    1    3    3  502    0  0.14812122719E+04  0.63492004556E+03  0.50486985528E+03  0.16887890461E+04  0.12699999809E+01 0.  1.
       -4    1    3    3    0  502 -0.14812122719E+04 -0.63492004556E+03  0.93057471389E+03  0.18609363691E+04  0.12699999809E+01 0. -1.
</event>
<event>
 5   0  0.5685000E-07  0.3209461E+04  0.7818609E-02  0.8186323E-01
        3   -1    0    0  501    0  0.00000000000E+00  0.00000000000E+00  0.10985570153E+04  0.10985570200E+04  0.10100000352E+00 0.  1.
       -3   -1    0    0    0  501  0.00000000000E+00  0.00000000000E+00 -0.23441289597E+04  0.23441289619E+04  0.10100000352E+00 0. -1.
    10030    2    1    2    0    0  0.00000000000E+00  0.00000000000E+00 -0.12455719444E+04  0.34426859819E+04  0.32094605935E+04 0.  0.
        3    1    3    3  502    0 -0.97332335679E+03  0.11240144564E+04 -0.12703013017E+04  0.19556155712E+04  0.10100000352E+00 0.  1.
       -3    1    3    3    0  502  0.97332335679E+03 -0.11240144564E+04  0.24729357277E+02  0.14870704107E+04  0.10100000352E+00 0. -1.
</event>
<event>
 5   0  0.1728937E-06  0.3330878E+04  0.7818609E-02  0.8155083E-01
       -2   -1    0    0    0  501  0.00000000000E+00  0.00000000000E+00  0.15813563328E+04  0.15813563328E+04  0.25500000920E-02 0. -1.
        2   -1    0    0  501    0  0.00000000000E+00  0.00000000000E+00 -0.17539923300E+04  0.17539923300E+04  0.25500000920E-02 0.  1.
    10030    2    1    2    0    0  0.00000000000E+00  0.00000000000E+00 -0.17263599712E+03  0.33353486628E+04  0.33308778895E+04 0.  0.
        1    1    3    3  502    0  0.89661366138E+03 -0.13751010264E+04 -0.36752939020E+03  0.16822296939E+04  0.50400001928E-02 0. -1.
       -1    1    3    3    0  502 -0.89661366138E+03  0.13751010264E+04  0.19489339307E+03  0.16531189689E+04  0.50400001928E-02 0.  1.
</event>
<event>
 5   0  0.1832626E-06  0.3325303E+04  0.7818609E-02  0.8156487E-01
        2   -1    0    0  501    0  0.00000000000E+00  0.00000000000E+00  0.26875745111E+04  0.26875745111E+04  0.25500000920E-02 0. -1.
       -2   -1    0    0    0  501  0.00000000000E+00  0.00000000000E+00 -0.10285889468E+04  0.10285889469E+04  0.25500000920E-02 0.  1.
    10030    2    1    2    0    0  0.00000000000E+00  0.00000000000E+00  0.16589855643E+04  0.37161634580E+04  0.33253026545E+04 0.  0.
        3    1    3    3  502    0  0.15651111357E+04 -0.53077310033E+03  0.62612334849E+03  0.17672926777E+04  0.10100000352E+00 0.  1.
       -3    1    3    3    0  502 -0.15651111357E+04  0.53077310033E+03  0.10328622158E+04  0.19488707802E+04  0.10100000352E+00 0. -1.
</event>
<event>
 5   0  0.5985183E-07  0.3263454E+04  0.7818609E-02  0.8172257E-01
       -1   -1    0    0    0  501  0.00000000000E+00  0.00000000000E+00  0.16115356484E+04  0.16115356484E+04  0.50400001928E-02 0.  1.
        1   -1    0    0  501    0  0.00000000000E+00  0.00000000000E+00 -0.16521714874E+04  0.16521714874E+04  0.50400001928E-02 0. -1.
    10030    2    1    2    0    0  0.00000000000E+00  0.00000000000E+00 -0.40635838996E+02  0.32637071358E+04  0.32634541512E+04 0.  0.
        2    1    3    3  502    0  0.11763117998E+04 -0.28752173573E+03  0.10734555994E+04  0.16182351877E+04  0.25500000920E-02 0.  1.
       -2    1    3    3    0  502 -0.11763117998E+04  0.28752173573E+03 -0.11140914384E+04  0.16454719481E+04  0.25500000920E-02 0. -1.
</event>
<event>
 5   0  0.1832626E-06  0.3321446E+04  0.7818609E-02  0.8157460E-01
       -2   -1    0    0    0  501  0.00000000000E+00  0.00000000000E+00  0.16455115146E+04  0.16455115146E+04  0.25500000920E-02 0. -1.
        2   -1    0    0  501    0  0.00000000000E+00  0.00000000000E+00 -0.16760747588E+04  0.16760747588E+04  0.25500000920E-02 0.  1.
    10030    2    1    2    0    0  0.00000000000E+00  0.00000000000E+00 -0.30563244179E+02  0.33215862734E+04  0.33214456581E+04 0.  0.
        3    1    3    3  502    0  0.96471105203E+02 -0.15914564153E+04 -0.48001637973E+03  0.16650693472E+04  0.10100000352E+00 0.  1.
       -3    1    3    3    0  502 -0.96471105203E+02  0.15914564153E+04  0.44945313555E+03  0.16565169263E+04  0.10100000352E+00 0. -1.
</event>
<event>
 5   0  0.1784626E-06  0.3307035E+04  0.7818609E-02  0.8161108E-01
       -2   -1    0    0    0  501  0.00000000000E+00  0.00000000000E+00  0.15047487152E+04  0.15047487152E+04  0.25500000920E-02 0. -1.
        2   -1    0    0  501    0  0.00000000000E+00  0.00000000000E+00 -0.18169942755E+04  0.18169942755E+04  0.25500000920E-02 0.  1.
    10030    2    1    2    0    0  0.00000000000E+00  0.00000000000E+00 -0.31224556028E+03  0.33217429907E+04  0.33070348057E+04 0.  0.
        2    1    3    3  502    0  0.10222070808E+04 -0.61685772892E+03 -0.13051945400E+04  0.17688848355E+04  0.25500000920E-02 0.  1.
       -2    1    3    3    0  502 -0.10222070808E+04  0.61685772892E+03  0.99294897976E+03  0.15528581552E+04  0.25500000920E-02 0. -1.
</event>
<event>
 5   0  0.1743810E-06  0.3294571E+04  0.7818609E-02  0.8164278E-01
        2   -1    0    0  501    0  0.00000000000E+00  0.00000000000E+00  0.22744574858E+04  0.22744574858E+04  0.25500000920E-02 0.  1.
       -2   -1    0    0    0  501  0.00000000000E+00  0.00000000000E+00 -0.11930532106E+04  0.11930532106E+04  0.25500000920E-02 0. -1.
    10030    2    1    2    0    0  0.00000000000E+00  0.00000000000E+00  0.10814042753E+04  0.34675106964E+04  0.32945705673E+04 0.  0.
        5    1    3    3  502    0 -0.33416284598E+03 -0.16040442272E+04  0.36176595791E+03  0.16779509494E+04  0.46999998093E+01 0. -1.
       -5    1    3    3    0  502  0.33416284598E+03  0.16040442272E+04  0.71963831735E+03  0.17895597470E+04  0.46999998093E+01 0.  1.
</event>
<event>
 5   0  0.6023446E-07  0.3306024E+04  0.7818609E-02  0.8161364E-01
        1   -1    0    0  501    0  0.00000000000E+00  0.00000000000E+00  0.91255600691E+03  0.91255600693E+03  0.50400001928E-02 0.  1.
       -1   -1    0    0    0  501  0.00000000000E+00  0.00000000000E+00 -0.29942811672E+04  0.29942811672E+04  0.50400001928E-02 0. -1.
    10030    2    1    2    0    0  0.00000000000E+00  0.00000000000E+00 -0.20817251603E+04  0.39068371741E+04  0.33060243590E+04 0.  0.
        5    1    3    3  502    0  0.13133291491E+04 -0.91315407579E+02  0.14042999611E+03  0.13239768243E+04  0.46999998093E+01 0.  1.
       -5    1    3    3    0  502 -0.13133291491E+04  0.91315407579E+02 -0.22221551564E+04  0.25828603498E+04  0.46999998093E+01 0. -1.
</event>
<event>
 5   0  0.6023446E-07  0.3305816E+04  0.7818609E-02  0.8161417E-01
        1   -1    0    0  501    0  0.00000000000E+00  0.00000000000E+00  0.94429355711E+03  0.94429355712E+03  0.50400001928E-02 0.  1.
       -1   -1    0    0    0  501  0.00000000000E+00  0.00000000000E+00 -0.28932785653E+04  0.28932785653E+04  0.50400001928E-02 0. -1.
    10030    2    1    2    0    0  0.00000000000E+00  0.00000000000E+00 -0.19489850082E+04  0.38375721224E+04  0.33058156683E+04 0.  0.
        5    1    3    3  502    0  0.77507807253E+03  0.11177651271E+04 -0.20646689065E+04  0.24724531707E+04  0.46999998093E+01 0. -1.
       -5    1    3    3    0  502 -0.77507807253E+03 -0.11177651271E+04  0.11568389833E+03  0.13651189517E+04  0.46999998093E+01 0.  1.
</event>
<event>
 5   0  0.1728937E-06  0.3256100E+04  0.7818609E-02  0.8174157E-01
       -2   -1    0    0    0  501  0.00000000000E+00  0.00000000000E+00  0.11814534593E+04  0.11814534593E+04  0.25500000920E-02 0. -1.
        2   -1    0    0  501    0  0.00000000000E+00  0.00000000000E+00 -0.22434621544E+04  0.22434621544E+04  0.25500000920E-02 0.  1.
    10030    2    1    2    0    0  0.00000000000E+00  0.00000000000E+00 -0.10620086951E+04  0.34249156137E+04  0.32560995827E+04 0.  0.
        1    1    3    3  502    0  0.18868273166E+03 -0.16011730835E+04 -0.29302267259E+03  0.16386636943E+04  0.50400001928E-02 0.  1.
       -1    1    3    3    0  502 -0.18868273166E+03  0.16011730835E+04 -0.76898602252E+03  0.17862519193E+04  0.50400001928E-02 0. -1.
</event>
<event>
 5   0  0.5988516E-07  0.3341928E+04  0.7818609E-02  0.8152308E-01
        1   -1    0    0  501    0  0.00000000000E+00  0.00000000000E+00  0.19014055554E+04  0.19014055554E+04  0.50400001928E-02 0.  1.
       -1   -1    0    0    0  501  0.00000000000E+00  0.00000000000E+00 -0.14684512648E+04  0.14684512648E+04  0.50400001928E-02 0. -1.
    10030    2    1    2    0    0  0.00000000000E+00  0.00000000000E+00  0.43295429053E+03  0.33698568202E+04  0.33419284210E+04 0.  0.
        4    1    3    3  502    0  0.14257270288E+04 -0.86673386525E+03  0.30775782615E+03  0.16966560189E+04  0.12699999809E+01 0.  1.
       -4    1    3    3    0  502 -0.14257270288E+04  0.86673386525E+03  0.12519646438E+03  0.16732008013E+04  0.12699999809E+01 0. -1.
</event>
<event>
 5   0  0.1784626E-06  0.3320883E+04  0.7818609E-02  0.8157602E-01
       -2   -1    0    0    0  501  0.00000000000E+00  0.00000000000E+00  0.17760798825E+04  0.17760798825E+04  0.25500000920E-02 0.  1.
        2   -1    0    0  501    0  0.00000000000E+00  0.00000000000E+00 -0.15523317591E+04  0.15523317591E+04  0.25500000920E-02 0. -1.
    10030    2    1    2    0    0  0.00000000000E+00  0.00000000000E+00  0.22374812344E+03  0.33284116415E+04  0.33208825383E+04 0.  0.
        2    1    3    3  502    0  0.13057818227E+04  0.10107573740E+04  0.28653496187E+03  0.16759471716E+04  0.25500000920E-02 0. -1.
       -2    1    3    3    0  502 -0.13057818227E+04 -0.10107573740E+04 -0.62786838426E+02  0.16524644700E+04  0.25500000920E-02 0.  1.
</event>
<event>
 5   0  0.6085351E-07  0.3332929E+04  0.7818609E-02  0.8154567E-01
       -1   -1    0    0    0  501  0.00000000000E+00  0.00000000000E+00  0.19932866598E+04  0.19932866598E+04  0.50400001928E-02 0. -1.
        1   -1    0    0  501    0  0.00000000000E+00  0.00000000000E+00 -0.13932286225E+04  0.13932286225E+04  0.50400001928E-02 0.  1.
    10030    2    1    2    0    0  0.00000000000E+00  0.00000000000E+00  0.60005803734E+03  0.33865152824E+04  0.33329290586E+04 0.  0.
        1    1    3    3  502    0  0.26068680242E+03  0.16456701611E+04  0.33078345285E+03  0.16987070320E+04  0.50400001928E-02 0. -1.
       -1    1    3    3    0  502 -0.26068680242E+03 -0.16456701611E+04  0.26927458449E+03  0.16878082503E+04  0.50400001928E-02 0.  1.
</event>
<event>
 5   0  0.1696681E-06  0.3299440E+04  0.7818609E-02  0.8163038E-01
        2   -1    0    0  501    0  0.00000000000E+00  0.00000000000E+00  0.12515880529E+04  0.12515880529E+04  0.25500000920E-02 0.  1.
       -2   -1    0    0    0  501  0.00000000000E+00  0.00000000000E+00 -0.21744985029E+04  0.21744985030E+04  0.25500000920E-02 0. -1.
    10030    2    1    2    0    0  0.00000000000E+00  0.00000000000E+00 -0.92291045010E+03  0.34260865558E+04  0.32994401630E+04 0.  0.
        4    1    3    3  502    0 -0.10928782230E+03  0.45425841023E+03  0.11814511183E+04  0.12704813612E+04  0.12699999809E+01 0.  1.
       -4    1    3    3    0  502  0.10928782230E+03 -0.45425841023E+03 -0.21043615684E+04  0.21556051946E+04  0.12699999809E+01 0. -1.
</event>
<event>
 5   0  0.5988516E-07  0.3292151E+04  0.7818609E-02  0.8164895E-01
        1   -1    0    0  501    0  0.00000000000E+00  0.00000000000E+00  0.13411308544E+04  0.13411308544E+04  0.50400001928E-02 0. -1.
       -1   -1    0    0    0  501  0.00000000000E+00  0.00000000000E+00 -0.20203583126E+04  0.20203583126E+04  0.50400001928E-02 0.  1.
    10030    2    1    2    0    0  0.00000000000E+00  0.00000000000E+00 -0.67922745821E+03  0.33614891669E+04  0.32921511933E+04 0.  0.
        4    1    3    3  502    0  0.13373927240E+04  0.31486541639E+03 -0.12652406934E+04  0.18677781329E+04  0.12699999809E+01 0.  1.
       -4    1    3    3    0  502 -0.13373927240E+04 -0.31486541639E+03  0.58601323519E+03  0.14937110341E+04  0.12699999809E+01 0. -1.
</event>
<event>
 5   0  0.1743810E-06  0.3292594E+04  0.7818609E-02  0.8164782E-01
        2   -1    0    0  501    0  0.00000000000E+00  0.00000000000E+00  0.19690258800E+04  0.19690258800E+04  0.25500000920E-02 0. -1.
       -2   -1    0    0    0  501  0.00000000000E+00  0.00000000000E+00 -0.13764646783E+04  0.13764646783E+04  0.25500000920E-02 0.  1.
    10030    2    1    2    0    0  0.00000000000E+00  0.00000000000E+00  0.59256120168E+03  0.33454905583E+04  0.32925944630E+04 0.  0.
        5    1    3    3  502    0 -0.14076311629E+04  0.83972229666E+03  0.13981494956E+03  0.16450317128E+04  0.46999998093E+01 0. -1.
       -5    1    3    3    0  502  0.14076311629E+04 -0.83972229666E+03  0.45274625211E+03  0.17004588454E+04  0.46999998093E+01 0.  1.
</event>
<event>
 5   0  0.5988516E-07  0.3313040E+04  0.7818609E-02  0.8159585E-01
        1   -1    0    0  501    0  0.00000000000E+00  0.00000000000E+00  0.21533379892E+04  0.21533379892E+04  0.50400001928E-02 0. -1.
       -1   -1    0    0    0  501  0.00000000000E+00  0.00000000000E+00 -0.12743280561E+04  0.12743280562E+04  0.50400001928E-02 0.  1.
    10030    2    1    2    0    0  0.00000000000E+00  0.00000000000E+00  0.87900993305E+03  0.34276660454E+04  0.33130403040E+04 0.  0.
        4    1    3    3  502    0 -0.47699541756E+03 -0.15605872419E+04  0.73413894808E+03  0.17893906158E+04  0.12699999809E+01 0. -1.
       -4    1    3    3    0  502  0.47699541756E+03  0.15605872419E+04  0.14487098498E+03  0.16382754296E+04  0.12699999809E+01 0.  1.
</event>
<event>
 5   0  0.6023446E-07  0.3256085E+04  0.7818609E-02  0.8174160E-01
       -1   -1    0    0    0  501  0.00000000000E+00  0.00000000000E+00  0.17768309890E+04  0.17768309890E+04  0.50400001928E-02 0. -1.
        1   -1    0    0  501    0  0.00000000000E+00  0.00000000000E+00 -0.14917136072E+04  0.14917136072E+04  0.50400001928E-02 0.  1.
    10030    2    1    2    0    0  0.00000000000E+00  0.00000000000E+00  0.28511738178E+03  0.32685445962E+04  0.32560853576E+04 0.  0.
        5    1    3    3  502    0  0.49298031728E+03 -0.91528126416E+03 -0.11151246798E+04  0.15245637171E+04  0.46999998093E+01 0.  1.
       -5    1    3    3    0  502 -0.49298031728E+03  0.91528126416E+03  0.14002420616E+04  0.17439808792E+04  0.46999998093E+01 0. -1.
</event>
<event>
 5   0  0.1728937E-06  0.3297640E+04  0.7818609E-02  0.8163496E-01
       -2   -1    0    0    0  501  0.00000000000E+00  0.00000000000E+00  0.12527263751E+04  0.12527263751E+04  0.25500000920E-02 0. -1.
        2   -1    0    0  501    0  0.00000000000E+00  0.00000000000E+00 -0.21701529371E+04  0.21701529371E+04  0.25500000920E-02 0.  1.
    10030    2    1    2    0    0  0.00000000000E+00  0.00000000000E+00 -0.91742656195E+03  0.34228793122E+04  0.32976402607E+04 0.  0.
        1    1    3    3  502    0 -0.49100824072E+03 -0.65869649972E+03 -0.19425641571E+04  0.21091528337E+04  0.50400001928E-02 0.  1.
       -1    1    3    3    0  502  0.49100824072E+03  0.65869649972E+03  0.10251375952E+04  0.13137264785E+04  0.50400001928E-02 0. -1.
</event>
<event>
 5   0  0.6023446E-07  0.3410959E+04  0.7818609E-02  0.8135222E-01
       -1   -1    0    0    0  501  0.00000000000E+00  0.00000000000E+00  0.95883516017E+03  0.95883516019E+03  0.50400001928E-02 0. -1.
        1   -1    0    0  501    0  0.00000000000E+00  0.00000000000E+00 -0.30335361744E+04  0.30335361744E+04  0.50400001928E-02 0.  1.
    10030    2    1    2    0    0  0.00000000000E+00  0.00000000000E+00 -0.20747010142E+04  0.39923713346E+04  0.34109594801E+04 0.  0.
        5    1    3    3  502    0  0.40411892981E+03  0.14190473743E+04 -0.36197250724E+02  0.14759200150E+04  0.46999998093E+01 0. -1.
       -5    1    3    3    0  502 -0.40411892981E+03 -0.14190473743E+04 -0.20385037635E+04  0.25164513196E+04  0.46999998093E+01 0.  1.
</event>
<event>
 5   0  0.1728937E-06  0.3273065E+04  0.7818609E-02  0.8169783E-01
       -2   -1    0    0    0  501  0.00000000000E+00  0.00000000000E+00  0.11170102660E+04  0.11170102660E+04  0.25500000920E-02 0.  1.
        2   -1    0    0  501    0  0.00000000000E+00  0.00000000000E+00 -0.23976853317E+04  0.23976853317E+04  0.25500000920E-02 0. -1.
    10030    2    1    2    0    0  0.00000000000E+00  0.00000000000E+00 -0.12806750657E+04  0.35146955977E+04  0.32730653095E+04 0.  0.
        1    1    3    3  502    0  0.40171823198E+03 -0.67524265560E+03 -0.21819046884E+04  0.23190597774E+04  0.50400001928E-02 0. -1.
       -1    1    3    3    0  502 -0.40171823198E+03  0.67524265560E+03  0.90122962272E+03  0.11956358203E+04  0.50400001928E-02 0.  1.
</event>
<event>
 5   0  0.5858859E-07  0.3325160E+04  0.7818609E-02  0.8156523E-01
       -1   -1    0    0    0  501  0.00000000000E+00  0.00000000000E+00  0.18023469365E+04  0.18023469365E+04  0.50400001928E-02 0. -1.
        1   -1    0    0  501    0  0.00000000000E+00  0.00000000000E+00 -0.15336511961E+04  0.15336511961E+04  0.50400001928E-02 0.  1.
    10030    2    1    2    0    0  0.00000000000E+00  0.00000000000E+00  0.26869574039E+03  0.33359981326E+04  0.33251595661E+04 0.  0.
        3    1    3    3  502    0  0.14955335602E+03  0.87131440272E+03  0.15469916757E+04  0.17817795177E+04  0.10100000352E+00 0. -1.
       -3    1    3    3    0  502 -0.14955335602E+03 -0.87131440272E+03 -0.12782959353E+04  0.15542186150E+04  0.10100000352E+00 0.  1.
</event>
<event>
 5   0  0.6023446E-07  0.3353155E+04  0.7818609E-02  0.8149500E-01
       -1   -1    0    0    0  501  0.00000000000E+00  0.00000000000E+00  0.19167612034E+04  0.19167612035E+04  0.50400001928E-02 0.  1.
        1   -1    0    0  501    0  0.00000000000E+00  0.00000000000E+00 -0.14664907314E+04  0.14664907315E+04  0.50400001928E-02 0. -1.
    10030    2    1    2    0    0  0.00000000000E+00  0.00000000000E+00  0.45027047200E+03  0.33832519349E+04  0.33531552539E+04 0.  0.
        5    1    3    3  502    0  0.15112865697E+02  0.15316182515E+04 -0.46275204376E+03  0.16000763767E+04  0.46999998093E+01 0.  1.
       -5    1    3    3    0  502 -0.15112865697E+02 -0.15316182515E+04  0.91302251576E+03  0.17831755582E+04  0.46999998093E+01 0. -1.
</event>
<event>
 5   0  0.1696681E-06  0.3267645E+04  0.7818609E-02  0.8171177E-01
       -2   -1    0    0    0  501  0.00000000000E+00  0.00000000000E+00  0.13561654520E+04  0.13561654520E+04  0.25500000920E-02 0. -1.
        2   -1    0    0  501    0  0.00000000000E+00  0.00000000000E+00 -0.19683256690E+04  0.19683256690E+04  0.25500000920E-02 0.  1.
    10030    2    1    2    0    0  0.00000000000E+00  0.00000000000E+00 -0.61216021698E+03  0.33244911210E+04  0.32676445771E+04 0.  0.
        4    1    3    3  502    0  0.25488496811E+03  0.13309418894E+04  0.62248663653E+03  0.14912625139E+04  0.12699999809E+01 0. -1.
       -4    1    3    3    0  502 -0.25488496811E+03 -0.13309418894E+04 -0.12346468535E+04  0.18332286071E+04  0.12699999809E+01 0.  1.
</event>
<event>
 5   0  0.1784626E-06  0.3335022E+04  0.7818609E-02  0.8154041E-01
        2   -1    0    0  501    0  0.00000000000E+00  0.00000000000E+00  0.13027836092E+04  0.13027836092E+04  0.25500000920E-02 0.  1.
       -2   -1    0    0    0  501  0.00000000000E+00  0.00000000000E+00 -0.21343477877E+04  0.21343477877E+04  0.25500000920E-02 0. -1.
    10030    2    1    2    0    0  0.00000000000E+00  0.00000000000E+00 -0.83156417841E+03  0.34371313969E+04  0.33350222273E+04 0.  0.
        2    1    3    3  502    0  0.92350635271E+03  0.13626962234E+04 -0.14157527317E+03  0.16522253293E+04  0.25500000920E-02 0. -1.
       -2    1    3    3    0  502 -0.92350635271E+03 -0.13626962234E+04 -0.68998890524E+03  0.17849060676E+04  0.25500000920E-02 0.  1.
</event>
<event>
 5   0  0.5988516E-07  0.3288144E+04  0.7818609E-02  0.8165919E-01
       -1   -1    0    0    0  501  0.00000000000E+00  0.00000000000E+00  0.29803256481E+04  0.29803256481E+04  0.50400001928E-02 0.  1.
        1   -1    0    0  501    0  0.00000000000E+00  0.00000000000E+00 -0.90693852402E+03  0.90693852403E+03  0.50400001928E-02 0. -1.
    10030    2    1    2    0    0  0.00000000000E+00  0.00000000000E+00  0.20733871241E+04  0.38872641721E+04  0.32881436370E+04 0.  0.
        4    1    3    3  502    0 -0.16370558169E+03 -0.16228966092E+04  0.79332666517E+03  0.18138251658E+04  0.12699999809E+01 0. -1.
       -4    1    3    3    0  502  0.16370558169E+03  0.16228966092E+04  0.12800604589E+04  0.20734390063E+04  0.12699999809E+01 0.  1.
</event>
<event>
 5   0  0.1743810E-06  0.3348471E+04  0.7818609E-02  0.8150670E-01
        2   -1    0    0  501    0  0.00000000000E+00  0.00000000000E+00  0.18879257812E+04  0.18879257812E+04  0.25500000920E-02 0. -1.
       -2   -1    0    0    0  501  0.00000000000E+00  0.00000000000E+00 -0.14847322094E+04  0.14847322094E+04  0.25500000920E-02 0.  1.
    10030    2    1    2    0    0  0.00000000000E+00  0.00000000000E+00  0.40319357171E+03  0.33726579906E+04  0.33484708249E+04 0.  0.
        5    1    3    3  502    0 -0.86114575727E+03 -0.11611427229E+04 -0.64902565612E+03  0.15846390221E+04  0.46999998093E+01 0.  1.
       -5    1    3    3    0  502  0.86114575727E+03  0.11611427229E+04  0.10522192278E+04  0.17880189685E+04  0.46999998093E+01 0. -1.
</event>
<event>
 5   0  0.6085351E-07  0.3294310E+04  0.7818609E-02  0.8164345E-01
        1   -1    0    0  501    0  0.00000000000E+00  0.00000000000E+00  0.18404463921E+04  0.18404463921E+04  0.50400001928E-02 0. -1.
       -1   -1    0    0    0  501  0.00000000000E+00  0.00000000000E+00 -0.14741639084E+04  0.14741639084E+04  0.50400001928E-02 0.  1.
    10030    2    1    2    0    0  0.00000000000E+00  0.00000000000E+00  0.36628248368E+03  0.33146103006E+04  0.32943100320E+04 0.  0.
        1    1    3    3  502    0 -0.71786697221E+02 -0.22206160883E+03  0.18237272219E+04  0.18385988328E+04  0.50400001928E-02 0. -1.
       -1    1    3    3    0  502  0.71786697221E+02  0.22206160883E+03 -0.14574447382E+04  0.14760114678E+04  0.50400001928E-02 0.  1.
</event>
<event>
 5   0  0.1696681E-06  0.3306875E+04  0.7818609E-02  0.8161148E-01
       -2   -1    0    0    0  501  0.00000000000E+00  0.00000000000E+00  0.10848281073E+04  0.10848281073E+04  0.25500000920E-02 0.  1.
        2   -1    0    0  501    0  0.00000000000E+00  0.00000000000E+00 -0.25200825586E+04  0.25200825586E+04  0.25500000920E-02 0. -1.
    10030    2    1    2    0    0  0.00000000000E+00  0.00000000000E+00 -0.14352544513E+04  0.36049106659E+04  0.33068754995E+04 0.  0.
        4    1    3    3  502    0  0.13535264403E+04 -0.88485439105E+03 -0.10934498710E+04  0.19520848729E+04  0.12699999809E+01 0. -1.
       -4    1    3    3    0  502 -0.13535264403E+04  0.88485439105E+03 -0.34180458030E+03  0.16528257930E+04  0.12699999809E+01 0.  1.
</event>
<event>
 5   0  0.5985183E-07  0.3267153E+04  0.7818609E-02  0.8171304E-01
        1   -1    0    0  501    0  0.00000000000E+00  0.00000000000E+00  0.11612334295E+04  0.11612334295E+04  0.50400001928E-02 0. -1.
       -1   -1    0    0    0  501  0.00000000000E+00  0.00000000000E+00 -0.22980492470E+04  0.22980492470E+04  0.50400001928E-02 0.  1.
    10030    2    1    2    0    0  0.00000000000E+00  0.00000000000E+00 -0.11368158175E+04  0.34592826766E+04  0.32671526492E+04 0.  0.
        2    1    3    3  502    0 -0.19662736760E+03 -0.43559016403E+03  0.10855586014E+04  0.11861022678E+04  0.25500000920E-02 0. -1.
       -2    1    3    3    0  502  0.19662736760E+03  0.43559016403E+03 -0.22223744189E+04  0.22731804087E+04  0.25500000920E-02 0.  1.
</event>
<event>
 5   0  0.5985183E-07  0.3373289E+04  0.7818609E-02  0.8144493E-01
       -1   -1    0    0    0  501  0.00000000000E+00  0.00000000000E+00  0.17612500809E+04  0.17612500809E+04  0.50400001928E-02 0. -1.
        1   -1    0    0  501    0  0.00000000000E+00  0.00000000000E+00 -0.16151993348E+04  0.16151993348E+04  0.50400001928E-02 0.  1.
    10030    2    1    2    0    0  0.00000000000E+00  0.00000000000E+00  0.14605074613E+03  0.33764494157E+04  0.33732891718E+04 0.  0.
        2    1    3    3  502    0 -0.14532308545E+04  0.60152796826E+03 -0.53668743729E+03  0.16618511420E+04  0.25500000920E-02 0.  1.
       -2    1    3    3    0  502  0.14532308545E+04 -0.60152796826E+03  0.68273818342E+03  0.17145982737E+04  0.25500000920E-02 0. -1.
</event>
<event>
 5   0  0.1784626E-06  0.3120435E+04  0.7818609E-02  0.8210152E-01
        2   -1    0    0  501    0  0.00000000000E+00  0.00000000000E+00  0.18268097449E+04  0.18268097449E+04  0.25500000920E-02 0.  1.
       -2   -1    0    0    0  501  0.00000000000E+00  0.00000000000E+00 -0.13325299838E+04  0.13325299838E+04  0.25500000920E-02 0. -1.
    10030    2    1    2    0    0  0.00000000000E+00  0.00000000000E+00  0.49427976117E+03  0.31593397287E+04  0.31204350721E+04 0.  0.
        2    1    3    3  502    0 -0.10504617623E+03 -0.15565699040E+04  0.22863096910E+03  0.15767741389E+04  0.25500000920E-02 0.  1.
       -2    1    3    3    0  502  0.10504617623E+03  0.15565699040E+04  0.26564879207E+03  0.15825655898E+04  0.25500000920E-02 0. -1.
</event>
<event>
 5   0  0.6023446E-07  0.3246120E+04  0.7818609E-02  0.8176742E-01
       -1   -1    0    0    0  501  0.00000000000E+00  0.00000000000E+00  0.28892943303E+04  0.28892943303E+04  0.50400001928E-02 0. -1.
        1   -1    0    0  501    0  0.00000000000E+00  0.00000000000E+00 -0.91175345814E+03  0.91175345816E+03  0.50400001928E-02 0.  1.
    10030    2    1    2    0    0  0.00000000000E+00  0.00000000000E+00  0.19775408721E+04  0.38010477884E+04  0.32461202056E+04 0.  0.
        5    1    3    3  502    0  0.18047749995E+03  0.11168484007E+04  0.23514976292E+04  0.26094991221E+04  0.46999998093E+01 0. -1.
       -5    1    3    3    0  502 -0.18047749995E+03 -0.11168484007E+04 -0.37395675710E+03  0.11915486663E+04  0.46999998093E+01 0.  1.
</event>
<event>
 5   0  0.6085351E-07  0.2972109E+04  0.7818609E-02  0.8251741E-01
       -1   -1    0    0    0  501  0.00000000000E+00  0.00000000000E+00  0.13549067389E+04  0.13549067389E+04  0.50400001928E-02 0.  1.
        1   -1    0    0  501    0  0.00000000000E+00  0.00000000000E+00 -0.16298962555E+04  0.16298962555E+04  0.50400001928E-02 0. -1.
    10030    2    1    2    0    0  0.00000000000E+00  0.00000000000E+00 -0.27498951664E+03  0.29848029944E+04  0.29721086254E+04 0.  0.
        1    1    3    3  502    0  0.22474286253E+03 -0.11966463946E+04 -0.99312287201E+03  0.15712304055E+04  0.50400001928E-02 0. -1.
       -1    1    3    3    0  502 -0.22474286253E+03  0.11966463946E+04  0.71813335537E+03  0.14135725889E+04  0.50400001928E-02 0.  1.
</event>
<event>
 5   0  0.6023446E-07  0.3290084E+04  0.7818609E-02  0.8165423E-01
        1   -1    0    0  501    0  0.00000000000E+00  0.00000000000E+00  0.15256256800E+04  0.15256256800E+04  0.50400001928E-02 0.  1.
       -1   -1    0    0    0  501  0.00000000000E+00  0.00000000000E+00 -0.17738050574E+04  0.17738050574E+04  0.50400001928E-02 0. -1.
    10030    2    1    2    0    0  0.00000000000E+00  0.00000000000E+00 -0.24817937742E+03  0.32994307374E+04  0.32900836140E+04 0.  0.
        5    1    3    3  502    0  0.88248993949E+03  0.64073024605E+03 -0.13591797691E+04  0.17426174211E+04  0.46999998093E+01 0. -1.
       -5    1    3    3    0  502 -0.88248993949E+03 -0.64073024605E+03  0.11110003917E+04  0.15568133163E+04  0.46999998093E+01 0.  1.
</event>
<event>
 5   0  0.1784626E-06  0.3318647E+04  0.7818609E-02  0.8158167E-01
        2   -1    0    0  501    0  0.00000000000E+00  0.00000000000E+00  0.13731273819E+04  0.13731273819E+04  0.25500000920E-02 0.  1.
       -2   -1    0    0    0  501  0.00000000000E+00  0.00000000000E+00 -0.20051701617E+04  0.20051701617E+04  0.25500000920E-02 0. -1.
    10030    2    1    2    0    0  0.00000000000E+00  0.00000000000E+00 -0.63204277983E+03  0.33782975435E+04  0.33186467449E+04 0.  0.
        2    1    3    3  502    0 -0.49040328119E+03 -0.11526954970E+04 -0.14237683196E+04  0.18963961914E+04  0.25500000920E-02 0. -1.
       -2    1    3    3    0  502  0.49040328119E+03  0.11526954970E+04  0.79172553977E+03  0.14819013521E+04  0.25500000920E-02 0.  1.
</event>
<event>
 5   0  0.1784626E-06  0.3278729E+04  0.7818609E-02  0.8168329E-01
        2   -1    0    0  501    0  0.00000000000E+00  0.00000000000E+00  0.14628462624E+04  0.14628462624E+04  0.25500000920E-02 0. -1.
       -2   -1    0    0    0  501  0.00000000000E+00  0.00000000000E+00 -0.18371831869E+04  0.18371831869E+04  0.25500000920E-02 0.  1.
    10030    2    1    2    0    0  0.00000000000E+00  0.00000000000E+00 -0.37433692448E+03  0.33000294493E+04  0.32787293626E+04 0.  0.
        2    1    3    3  502    0  0.34063507563E+03 -0.15533240576E+04 -0.58808857493E+03  0.16954928648E+04  0.25500000920E-02 0. -1.
       -2    1    3    3    0  502 -0.34063507563E+03  0.15533240576E+04  0.21375165045E+03  0.16045365845E+04  0.25500000920E-02 0.  1.
</event>
<event>
 5   0  0.6085351E-07  0.3236890E+04  0.7818609E-02  0.8179142E-01
        1   -1    0    0  501    0  0.00000000000E+00  0.00000000000E+00  0.12273626701E+04  0.12273626701E+04  0.50400001928E-02 0.  1.
       -1   -1    0    0    0  501  0.00000000000E+00  0.00000000000E+00 -0.21341402928E+04  0.21341402928E+04  0.50400001928E-02 0. -1.
    10030    2    1    2    0    0  0.00000000000E+00  0.00000000000E+00 -0.90677762270E+03  0.33615029630E+04  0.32368899445E+04 0.  0.
        1    1    3    3  502    0 -0.38384725898E+03 -0.13883702461E+04  0.31288847011E+03  0.14740454041E+04  0.50400001928E-02 0.  1.
       -1    1    3    3    0  502  0.38384725898E+03  0.13883702461E+04 -0.12196660928E+04  0.18874575589E+04  0.50400001928E-02 0. -1.
</event>
<event>
 5   0  0.1832626E-06  0.3304644E+04  0.7818609E-02  0.8161715E-01
       -2   -1    0    0    0  501  0.00000000000E+00  0.00000000000E+00  0.17296639985E+04  0.17296639985E+04  0.25500000920E-02 0. -1.
        2   -1    0    0  501    0  0.00000000000E+00  0.00000000000E+00 -0.15784386108E+04  0.15784386108E+04  0.25500000920E-02 0.  1.
    10030    2    1    2    0    0  0.00000000000E+00  0.00000000000E+00  0.15122538763E+03  0.33081026093E+04  0.33046442707E+04 0.  0.
        3    1    3    3  502    0  0.15289619206E+04 -0.42575780797E+03 -0.38440511621E+03  0.16330222194E+04  0.10100000352E+00 0.  1.
       -3    1    3    3    0  502 -0.15289619206E+04  0.42575780797E+03  0.53563050384E+03  0.16750803899E+04  0.10100000352E+00 0. -1.
</event>
<event>
 5   0  0.1832626E-06  0.3167101E+04  0.7818609E-02  0.8197560E-01
        2   -1    0    0  501    0  0.00000000000E+00  0.00000000000E+00  0.69219229791E+03  0.69219229792E+03  0.25500000920E-02 0.  1.
       -2   -1    0    0    0  501  0.00000000000E+00  0.00000000000E+00 -0.36227389172E+04  0.36227389172E+04  0.25500000920E-02 0. -1.
    10030    2    1    2    0    0  0.00000000000E+00  0.00000000000E+00 -0.29305466192E+04  0.43149312151E+04  0.31671008672E+04 0.  0.
        3    1    3    3  502    0 -0.17867000376E+03  0.10913918994E+04 -0.30094298623E+04  0.32062013902E+04  0.10100000352E+00 0. -1.
       -3    1    3    3    0  502  0.17867000376E+03 -0.10913918994E+04  0.78883243066E+02  0.11087298249E+04  0.10100000352E+00 0.  1.
</event>
<event>
 5   0  0.1696681E-06  0.2717253E+04  0.7818609E-02  0.8329429E-01
       -2   -1    0    0    0  501  0.00000000000E+00  0.00000000000E+00  0.13333716276E+04  0.13333716276E+04  0.25500000920E-02 0. -1.
        2   -1    0    0  501    0  0.00000000000E+00  0.00000000000E+00 -0.13843595940E+04  0.13843595940E+04  0.25500000920E-02 0.  1.
    10030    2    1    2    0    0  0.00000000000E+00  0.00000000000E+00 -0.50987966340E+02  0.27177312216E+04  0.27172528811E+04 0.  0.
        4    1    3    3  502    0 -0.44202783680E+03  0.11640026792E+04 -0.56925626576E+03  0.13690672572E+04  0.12699999809E+01 0.  1.
       -4    1    3    3    0  502  0.44202783680E+03 -0.11640026792E+04  0.51826829942E+03  0.13486639644E+04  0.12699999809E+01 0. -1.
</event>
<event>
 5   0  0.5988516E-07  0.3263029E+04  0.7818609E-02  0.8172367E-01
       -1   -1    0    0    0  501  0.00000000000E+00  0.00000000000E+00  0.17548736748E+04  0.17548736749E+04  0.50400001928E-02 0. -1.
        1   -1    0    0  501    0  0.00000000000E+00  0.00000000000E+00 -0.15168269860E+04  0.15168269860E+04  0.50400001928E-02 0.  1.
    10030    2    1    2    0    0  0.00000000000E+00  0.00000000000E+00  0.23804668888E+03  0.32717006608E+04  0.32630291123E+04 0.  0.
        4    1    3    3  502    0  0.42668545470E+03 -0.19708556124E+03  0.16855244837E+04  0.17498278754E+04  0.12699999809E+01 0. -1.
       -4    1    3    3    0  502 -0.42668545470E+03  0.19708556124E+03 -0.14474777948E+04  0.15218727854E+04  0.12699999809E+01 0.  1.
</event>
<event>
 5   0  0.5988516E-07  0.3306660E+04  0.7818609E-02  0.8161203E-01
        1   -1    0    0  501    0  0.00000000000E+00  0.00000000000E+00  0.18265724762E+04  0.18265724763E+04  0.50400001928E-02 0. -1.
       -1   -1    0    0    0  501  0.00000000000E+00  0.00000000000E+00 -0.14965187358E+04  0.14965187358E+04  0.50400001928E-02 0.  1.
    10030    2    1    2    0    0  0.00000000000E+00  0.00000000000E+00  0.33005374044E+03  0.33230912121E+04  0.33066599057E+04 0.  0.
        4    1    3    3  502    0  0.16260500705E+04  0.21186722737E+03  0.37719622473E+03  0.16826185422E+04  0.12699999809E+01 0.  1.
       -4    1    3    3    0  502 -0.16260500705E+04 -0.21186722737E+03 -0.47142484298E+02  0.16404726698E+04  0.12699999809E+01 0. -1.
</event>
<event>
 5   0  0.1743810E-06  0.3279206E+04  0.7818609E-02  0.8168207E-01
        2   -1    0    0  501    0  0.00000000000E+00  0.00000000000E+00  0.18489061453E+04  0.18489061453E+04  0.25500000920E-02 0. -1.
       -2   -1    0    0    0  501  0.00000000000E+00  0.00000000000E+00 -0.14539941588E+04  0.14539941588E+04  0.25500000920E-02 0.  1.
    10030    2    1    2    0    0  0.00000000000E+00  0.00000000000E+00  0.39491198647E+03  0.33029003041E+04  0.32792064500E+04 0.  0.
        5    1    3    3  502    0 -0.25730298096E+03  0.91648367929E+03  0.15420659829E+04  0.18122187352E+04  0.46999998093E+01 0. -1.
       -5    1    3    3    0  502  0.25730298096E+03 -0.91648367929E+03 -0.11471539964E+04  0.14906815689E+04  0.46999998093E+01 0.  1.
</event>
<event>
 5   0  0.5988516E-07  0.3312367E+04  0.7818609E-02  0.8159756E-01
       -1   -1    0    0    0  501  0.00000000000E+00  0.00000000000E+00  0.28562869918E+04  0.28562869918E+04  0.50400001928E-02 0. -1.
        1   -1    0    0  501    0  0.00000000000E+00  0.00000000000E+00 -0.96031818696E+03  0.96031818698E+03  0.50400001928E-02 0.  1.
    10030    2    1    2    0    0  0.00000000000E+00  0.00000000000E+00  0.18959688048E+04  0.38166051788E+04  0.33123673380E+04 0.  0.
        4    1    3    3  502    0 -0.12916690422E+04 -0.16708825220E+03  0.21267631256E+04  0.24938825963E+04  0.12699999809E+01 0. -1.
       -4    1    3    3    0  502  0.12916690422E+04  0.16708825220E+03 -0.23079432081E+03  0.13227225825E+04  0.12699999809E+01 0.  1.
</event>
<event>
 5   0  0.1832626E-06  0.3319882E+04  0.7818609E-02  0.8157855E-01
       -2   -1    0    0    0  501  0.00000000000E+00  0.00000000000E+00  0.95707638583E+03  0.95707638583E+03  0.25500000920E-02 0.  1.
        2   -1    0    0  501    0  0.00000000000E+00  0.00000000000E+00 -0.28789809449E+04  0.28789809449E+04  0.25500000920E-02 0. -1.
    10030    2    1    2    0    0  0.00000000000E+00  0.00000000000E+00 -0.19219045591E+04  0.38360573308E+04  0.33198823338E+04 0.  0.
        3    1    3    3  502    0 -0.65433221357E+03  0.14821582879E+04 -0.54360030864E+03  0.17089309939E+04  0.10100000352E+00 0. -1.
       -3    1    3    3    0  502  0.65433221357E+03 -0.14821582879E+04 -0.13783042505E+04  0.21271263369E+04  0.10100000352E+00 0.  1.
</event>
<event>
 5   0  0.1832626E-06  0.3301491E+04  0.7818609E-02  0.8162516E-01
        2   -1    0    0  501    0  0.00000000000E+00  0.00000000000E+00  0.22434756292E+04  0.22434756292E+04  0.25500000920E-02 0.  1.
       -2   -1    0    0    0  501  0.00000000000E+00  0.00000000000E+00 -0.12146153473E+04  0.12146153473E+04  0.25500000920E-02 0. -1.
    10030    2    1    2    0    0  0.00000000000E+00  0.00000000000E+00  0.10288602818E+04  0.34580909765E+04  0.33014905304E+04 0.  0.
        3    1    3    3  502    0 -0.96081200746E+02  0.15330587240E+04  0.11476373505E+04  0.19174389552E+04  0.10100000352E+00 0.  1.
       -3    1    3    3    0  502  0.96081200746E+02 -0.15330587240E+04 -0.11877706866E+03  0.15406520213E+04  0.10100000352E+00 0. -1.
</event>
<event>
 5   0  0.5988516E-07  0.3300430E+04  0.7818609E-02  0.8162786E-01
        1   -1    0    0  501    0  0.00000000000E+00  0.00000000000E+00  0.25729050950E+04  0.25729050950E+04  0.50400001928E-02 0. -1.
       -1   -1    0    0    0  501  0.00000000000E+00  0.00000000000E+00 -0.10584180519E+04  0.10584180519E+04  0.50400001928E-02 0.  1.
    10030    2    1    2    0    0  0.00000000000E+00  0.00000000000E+00  0.15144870431E+04  0.36313231469E+04  0.33004297893E+04 0.  0.
        4    1    3    3  502    0  0.65337380554E+03 -0.10486409645E+04 -0.44635104719E+03  0.13136879661E+04  0.12699999809E+01 0.  1.
       -4    1    3    3    0  502 -0.65337380554E+03  0.10486409645E+04  0.19608380903E+04  0.23176351808E+04  0.12699999809E+01 0. -1.
</event>
<event>
 5   0  0.5858859E-07  0.3383844E+04  0.7818609E-02  0.8141883E-01
        1   -1    0    0  501    0  0.00000000000E+00  0.00000000000E+00  0.15100375634E+04  0.15100375634E+04  0.50400001928E-02 0.  1.
       -1   -1    0    0    0  501  0.00000000000E+00  0.00000000000E+00 -0.18957145263E+04  0.18957145263E+04  0.50400001928E-02 0. -1.
    10030    2    1    2    0    0  0.00000000000E+00  0.00000000000E+00 -0.38567696291E+03  0.34057520897E+04  0.33838440533E+04 0.  0.
        3    1    3    3  502    0  0.11895669212E+04 -0.48845187203E+03 -0.12994776634E+04  0.18281949840E+04  0.10100000352E+00 0. -1.
       -3    1    3    3    0  502 -0.11895669212E+04  0.48845187203E+03  0.91380070053E+03  0.15775571057E+04  0.10100000352E+00 0.  1.
</event>
<event>
 5   0  0.5988516E-07  0.3305028E+04  0.7818609E-02  0.8161617E-01
       -1   -1    0    0    0  501  0.00000000000E+00  0.00000000000E+00  0.14331459655E+04  0.14331459655E+04  0.50400001928E-02 0.  1.
        1   -1    0    0  501    0  0.00000000000E+00  0.00000000000E+00 -0.19054598225E+04  0.19054598225E+04  0.50400001928E-02 0. -1.
    10030    2    1    2    0    0  0.00000000000E+00  0.00000000000E+00 -0.47231385695E+03  0.33386057880E+04  0.33050277197E+04 0.  0.
        4    1    3    3  502    0 -0.11103629118E+04 -0.74633918942E+03  0.74368363530E+03  0.15306844691E+04  0.12699999809E+01 0.  1.
       -4    1    3    3    0  502  0.11103629118E+04  0.74633918942E+03 -0.12159974922E+04  0.18079213190E+04  0.12699999809E+01 0. -1.
</event>
<event>
 5   0  0.1743810E-06  0.2734971E+04  0.7818609E-02  0.8323747E-01
        2   -1    0    0  501    0  0.00000000000E+00  0.00000000000E+00  0.91296111328E+03  0.91296111328E+03  0.25500000920E-02 0.  1.
       -2   -1    0    0    0  501  0.00000000000E+00  0.00000000000E+00 -0.20482979783E+04  0.20482979783E+04  0.25500000920E-02 0. -1.
    10030    2    1    2    0    0  0.00000000000E+00  0.00000000000E+00 -0.11353368650E+04  0.29612590916E+04  0.27349708610E+04 0.  0.
        5    1    3    3  502    0 -0.74893044524E+03 -0.89756717914E+03 -0.13359329697E+04  0.17751796085E+04  0.46999998093E+01 0. -1.
       -5    1    3    3    0  502  0.74893044524E+03  0.89756717914E+03  0.20059610473E+03  0.11860794830E+04  0.46999998093E+01 0.  1.
</event>
<event>
 5   0  0.5988516E-07  0.3269161E+04  0.7818609E-02  0.8170787E-01
       -1   -1    0    0    0  501  0.00000000000E+00  0.00000000000E+00  0.11315501064E+04  0.11315501064E+04  0.50400001928E-02 0.  1.
        1   -1    0    0  501    0  0.00000000000E+00  0.00000000000E+00 -0.23612336418E+04  0.23612336418E+04  0.50400001928E-02 0. -1.
    10030    2    1    2    0    0  0.00000000000E+00  0.00000000000E+00 -0.12296835354E+04  0.34927837483E+04  0.32691614697E+04 0.  0.
        4    1    3    3  502    0  0.29539741025E+03  0.62909385771E+03  0.96583010223E+03  0.11898941596E+04  0.12699999809E+01 0.  1.
       -4    1    3    3    0  502 -0.29539741025E+03 -0.62909385771E+03 -0.21955136376E+04  0.23028895887E+04  0.12699999809E+01 0. -1.
</event>
<event>
 5   0  0.5985183E-07  0.3149423E+04  0.7818609E-02  0.8202304E-01
        1   -1    0    0  501    0  0.00000000000E+00  0.00000000000E+00  0.22980715624E+04  0.22980715624E+04  0.50400001928E-02 0.  1.
       -1   -1    0    0    0  501  0.00000000000E+00  0.00000000000E+00 -0.10790420452E+04  0.10790420452E+04  0.50400001928E-02 0. -1.
    10030    2    1    2    0    0  0.00000000000E+00  0.00000000000E+00  0.12190295172E+04  0.33771136076E+04  0.31494227018E+04 0.  0.
        2    1    3    3  502    0 -0.11642440757E+04 -0.79417803098E+03 -0.14379351786E+03  0.14166367172E+04  0.25500000920E-02 0. -1.
       -2    1    3    3    0  502  0.11642440757E+04  0.79417803098E+03  0.13628230351E+04  0.19604768904E+04  0.25500000920E-02 0.  1.
</event>
<event>
 5   0  0.6023446E-07  0.3366068E+04  0.7818609E-02  0.8146285E-01
       -1   -1    0    0    0  501  0.00000000000E+00  0.00000000000E+00  0.29743475759E+04  0.29743475759E+04  0.50400001928E-02 0. -1.
        1   -1    0    0  501    0  0.00000000000E+00  0.00000000000E+00 -0.95234462207E+03  0.95234462209E+03  0.50400001928E-02 0.  1.
    10030    2    1    2    0    0  0.00000000000E+00  0.00000000000E+00  0.20220029539E+04  0.39266921980E+04  0.33660682810E+04 0.  0.
        5    1    3    3  502    0  0.16124179835E+03 -0.14726152458E+04  0.19427740812E+04  0.24431512030E+04  0.46999998093E+01 0. -1.
       -5    1    3    3    0  502 -0.16124179835E+03  0.14726152458E+04  0.79228872620E+02  0.14835409951E+04  0.46999998093E+01 0.  1.
</event>
<event>
 5   0  0.1784626E-06  0.3202219E+04  0.7818609E-02  0.8188231E-01
        2   -1    0    0  501    0  0.00000000000E+00  0.00000000000E+00  0.29715504073E+04  0.29715504073E+04  0.25500000920E-02 0. -1.
       -2   -1    0    0    0  501  0.00000000000E+00  0.00000000000E+00 -0.86269830679E+03  0.86269830679E+03  0.25500000920E-02 0.  1.
    10030    2    1    2    0    0  0.00000000000E+00  0.00000000000E+00  0.21088521005E+04  0.38342487141E+04  0.32022189213E+04 0.  0.
        2    1    3    3  502    0 -0.10878767671E+03 -0.25843010069E+03 -0.83307149663E+03  0.87899317065E+03  0.25500000920E-02 0.  1.
       -2    1    3    3    0  502  0.10878767671E+03  0.25843010069E+03  0.29419235971E+04  0.29552555434E+04  0.25500000920E-02 0. -1.
</event>
<event>
 5   0  0.1696681E-06  0.3295725E+04  0.7818609E-02  0.8163984E-01
       -2   -1    0    0    0  501  0.00000000000E+00  0.00000000000E+00  0.17181371365E+04  0.17181371365E+04  0.25500000920E-02 0.  1.
        2   -1    0    0  501    0  0.00000000000E+00  0.00000000000E+00 -0.15804621844E+04  0.15804621844E+04  0.25500000920E-02 0. -1.
    10030    2    1    2    0    0  0.00000000000E+00  0.00000000000E+00  0.13767495207E+03  0.32985993208E+04  0.32957249714E+04 0.  0.
        4    1    3    3  502    0  0.13318336699E+03 -0.88992091253E+03 -0.13128563223E+04  0.15916313567E+04  0.12699999809E+01 0. -1.
       -4    1    3    3    0  502 -0.13318336699E+03  0.88992091253E+03  0.14505312744E+04  0.17069679641E+04  0.12699999809E+01 0.  1.
</event>
<event>
 5   0  0.1832626E-06  0.3300521E+04  0.7818609E-02  0.8162763E-01
       -2   -1    0    0    0  501  0.00000000000E+00  0.00000000000E+00  0.11106718950E+04  0.11106718950E+04  0.25500000920E-02 0.  1.
        2   -1    0    0  501    0  0.00000000000E+00  0.00000000000E+00 -0.24519934435E+04  0.24519934435E+04  0.25500000920E-02 0. -1.
    10030    2    1    2    0    0  0.00000000000E+00  0.00000000000E+00 -0.13413215485E+04  0.35626653385E+04  0.33005212949E+04 0.  0.
        3    1    3    3  502    0 -0.12328696176E+03 -0.11551167743E+04  0.59455511944E+03  0.13049866810E+04  0.10100000352E+00 0.  1.
       -3    1    3    3    0  502  0.12328696176E+03  0.11551167743E+04 -0.19358766680E+04  0.22576786576E+04  0.10100000352E+00 0. -1.
</event>
<event>
 5   0  0.6085351E-07  0.3305201E+04  0.7818609E-02  0.8161573E-01
       -1   -1    0    0    0  501  0.00000000000E+00  0.00000000000E+00  0.17224026343E+04  0.17224026343E+04  0.50400001928E-02 0. -1.
        1   -1    0    0  501    0  0.00000000000E+00  0.00000000000E+00 -0.15856266932E+04  0.15856266932E+04  0.50400001928E-02 0.  1.
    10030    2    1    2    0    0  0.00000000000E+00  0.00000000000E+00  0.13677594109E+03  0.33080293274E+04  0.33052005042E+04 0.  0.
        1    1    3    3  502    0 -0.64407721980E+03  0.81441372563E+03 -0.12183960439E+04  0.16008104514E+04  0.50400001928E-02 0.  1.
       -1    1    3    3    0  502  0.64407721980E+03 -0.81441372563E+03  0.13551719850E+04  0.17072188760E+04  0.50400001928E-02 0. -1.
</event>
<event>
 5   0  0.5858859E-07  0.3280018E+04  0.7818609E-02  0.8167998E-01
        1   -1    0    0  501    0  0.00000000000E+00  0.00000000000E+00  0.21116660472E+04  0.21116660472E+04  0.50400001928E-02 0. -1.
       -1   -1    0    0    0  501  0.00000000000E+00  0.00000000000E+00 -0.12737004514E+04  0.12737004514E+04  0.50400001928E-02 0.  1.
    10030    2    1    2    0    0  0.00000000000E+00  0.00000000000E+00  0.83796559579E+03  0.33853664987E+04  0.32800182912E+04 0.  0.
        3    1    3    3  502    0 -0.62805561455E+03 -0.14781148886E+04  0.76184572752E+03  0.17775506748E+04  0.10100000352E+00 0. -1.
       -3    1    3    3    0  502  0.62805561455E+03  0.14781148886E+04  0.76119868269E+02  0.16078158238E+04  0.10100000352E+00 0.  1.
</event>
<event>
 5   0  0.6023446E-07  0.3297720E+04  0.7818609E-02  0.8163476E-01
       -1   -1    0    0    0  501  0.00000000000E+00  0.00000000000E+00  0.12598976430E+04  0.12598976430E+04  0.50400001928E-02 0.  1.
        1   -1    0    0  501    0  0.00000000000E+00  0.00000000000E+00 -0.21579055261E+04  0.21579055261E+04  0.50400001928E-02 0. -1.
    10030    2    1    2    0    0  0.00000000000E+00  0.00000000000E+00 -0.89800788314E+03  0.34178031692E+04  0.32977204771E+04 0.  0.
        5    1    3    3  502    0  0.11054901670E+04  0.11875044689E+04 -0.14428659627E+03  0.16288388763E+04  0.46999998093E+01 0.  1.
       -5    1    3    3    0  502 -0.11054901670E+04 -0.11875044689E+04 -0.75372128686E+03  0.17889642929E+04  0.46999998093E+01 0. -1.
</event>
<event>
 5   0  0.6023446E-07  0.2920383E+04  0.7818609E-02  0.8266839E-01
       -1   -1    0    0    0  501  0.00000000000E+00  0.00000000000E+00  0.79669897023E+03  0.79669897024E+03  0.50400001928E-02 0.  1.
        1   -1    0    0  501    0  0.00000000000E+00  0.00000000000E+00 -0.26762423379E+04  0.26762423379E+04  0.50400001928E-02 0. -1.
    10030    2    1    2    0    0  0.00000000000E+00  0.00000000000E+00 -0.18795433677E+04  0.34729413082E+04  0.29203832041E+04 0.  0.
        5    1    3    3  502    0 -0.91416046529E+03  0.11290420018E+04 -0.11150022175E+04  0.18313047898E+04  0.46999998093E+01 0.  1.
       -5    1    3    3    0  502  0.91416046529E+03 -0.11290420018E+04 -0.76454115016E+03  0.16416365184E+04  0.46999998093E+01 0. -1.
</event>
<event>
 5   0  0.1784626E-06  0.3291820E+04  0.7818609E-02  0.8164980E-01
       -2   -1    0    0    0  501  0.00000000000E+00  0.00000000000E+00  0.16851241023E+04  0.16851241023E+04  0.25500000920E-02 0.  1.
        2   -1    0    0  501    0  0.00000000000E+00  0.00000000000E+00 -0.16076080812E+04  0.16076080812E+04  0.25500000920E-02 0. -1.
    10030    2    1    2    0    0  0.00000000000E+00  0.00000000000E+00  0.77516021111E+02  0.32927321836E+04  0.32918196335E+04 0.  0.
        2    1    3    3  502    0  0.56945287569E+03 -0.63191591679E+03  0.14481996599E+04  0.16795465336E+04  0.25500000920E-02 0.  1.
       -2    1    3    3    0  502 -0.56945287569E+03  0.63191591679E+03 -0.13706836388E+04  0.16131856500E+04  0.25500000920E-02 0. -1.
</event>
<event>
 5   0  0.1784626E-06  0.3386108E+04  0.7818609E-02  0.8141324E-01
       -2   -1    0    0    0  501  0.00000000000E+00  0.00000000000E+00  0.11520834895E+04  0.11520834895E+04  0.25500000920E-02 0. -1.
        2   -1    0    0  501    0  0.00000000000E+00  0.00000000000E+00 -0.24880411094E+04  0.24880411094E+04  0.25500000920E-02 0.  1.
    10030    2    1    2    0    0  0.00000000000E+00  0.00000000000E+00 -0.13359576199E+04  0.36401245989E+04  0.33861075490E+04 0.  0.
        2    1    3    3  502    0  0.46345201051E+03  0.65353811038E+03  0.93539489728E+03  0.12316101013E+04  0.25500000920E-02 0. -1.
       -2    1    3    3    0  502 -0.46345201051E+03 -0.65353811038E+03 -0.22713525172E+04  0.24085144976E+04  0.25500000920E-02 0.  1.
</event>
<event>
 5   0  0.5858859E-07  0.3290856E+04  0.7818609E-02  0.8165226E-01
       -1   -1    0    0    0  501  0.00000000000E+00  0.00000000000E+00  0.17507848495E+04  0.17507848495E+04  0.50400001928E-02 0. -1.
        1   -1    0    0  501    0  0.00000000000E+00  0.00000000000E+00 -0.15464115534E+04  0.15464115534E+04  0.50400001928E-02 0.  1.
    10030    2    1    2    0    0  0.00000000000E+00  0.00000000000E+00  0.20437329604E+03  0.32971964029E+04  0.32908563742E+04 0.  0.
        3    1    3    3  502    0 -0.14396912326E+04 -0.31927642213E+03  0.83351454511E+03  0.16939288019E+04  0.10100000352E+00 0. -1.
       -3    1    3    3    0  502  0.14396912326E+04  0.31927642213E+03 -0.62914124908E+03  0.16032676010E+04  0.10100000352E+00 0.  1.
</event>
<event>
 5   0  0.6085351E-07  0.3426851E+04  0.7818609E-02  0.8131348E-01
       -1   -1    0    0    0  501  0.00000000000E+00  0.00000000000E+00  0.95633974163E+03  0.95633974165E+03  0.50400001928E-02 0.  1.
        1   -1    0    0  501    0  0.00000000000E+00  0.00000000000E+00 -0.30698575554E+04  0.30698575554E+04  0.50400001928E-02 0. -1.
    10030    2    1    2    0    0  0.00000000000E+00  0.00000000000E+00 -0.21135178138E+04  0.40261972970E+04  0.34268509051E+04 0.  0.
        1    1    3    3  502    0 -0.57950597181E+02  0.10784768306E+04 -0.26195735932E+04  0.28334848431E+04  0.50400001928E-02 0.  1.
       -1    1    3    3    0  502  0.57950597181E+02 -0.10784768306E+04  0.50605577941E+03  0.11927124540E+04  0.50400001928E-02 0. -1.
</event>
<event>
 5   0  0.1728937E-06  0.3351172E+04  0.7818609E-02  0.8149995E-01
       -2   -1    0    0    0  501  0.00000000000E+00  0.00000000000E+00  0.14322171006E+04  0.14322171006E+04  0.25500000920E-02 0. -1.
        2   -1    0    0  501    0  0.00000000000E+00  0.00000000000E+00 -0.19603092297E+04  0.19603092297E+04  0.25500000920E-02 0.  1.
    10030    2    1    2    0    0  0.00000000000E+00  0.00000000000E+00 -0.52809212917E+03  0.33925263303E+04  0.33511719748E+04 0.  0.
        1    1    3    3  502    0 -0.12727427992E+04 -0.10224438837E+04  0.11786615762E+03  0.16368134162E+04  0.50400001928E-02 0. -1.
       -1    1    3    3    0  502  0.12727427992E+04  0.10224438837E+04 -0.64595828679E+03  0.17557129141E+04  0.50400001928E-02 0.  1.
</event>
<event>
 5   0  0.1743810E-06  0.3302730E+04  0.7818609E-02  0.8162201E-01
       -2   -1    0    0    0  501  0.00000000000E+00  0.00000000000E+00  0.13569739199E+04  0.13569739199E+04  0.25500000920E-02 0.  1.
        2   -1    0    0  501    0  0.00000000000E+00  0.00000000000E+00 -0.20096235892E+04  0.20096235892E+04  0.25500000920E-02 0. -1.
    10030    2    1    2    0    0  0.00000000000E+00  0.00000000000E+00 -0.65264966933E+03  0.33665975091E+04  0.33027302641E+04 0.  0.
        5    1    3    3  502    0  0.10490035253E+04 -0.12499771356E+04 -0.58446790646E+03  0.17333424530E+04  0.46999998093E+01 0.  1.
       -5    1    3    3    0  502 -0.10490035253E+04  0.12499771356E+04 -0.68181762871E+02  0.16332550561E+04  0.46999998093E+01 0. -1.
</event>
<event>
 5   0  0.5985183E-07  0.3468149E+04  0.7818609E-02  0.8121380E-01
        1   -1    0    0  501    0  0.00000000000E+00  0.00000000000E+00  0.17661684070E+04  0.17661684070E+04  0.50400001928E-02 0.  1.
       -1   -1    0    0    0  501  0.00000000000E+00  0.00000000000E+00 -0.17025637832E+04  0.17025637832E+04  0.50400001928E-02 0. -1.
    10030    2    1    2    0    0  0.00000000000E+00  0.00000000000E+00  0.63604623818E+02  0.34687321902E+04  0.34681489961E+04 0.  0.
        2    1    3    3  502    0  0.67070831179E+03  0.26261372838E+03 -0.15458654738E+04  0.17054370915E+04  0.25500000920E-02 0. -1.
       -2    1    3    3    0  502 -0.67070831179E+03 -0.26261372838E+03  0.16094700976E+04  0.17632950987E+04  0.25500000920E-02 0.  1.
</event>
<event>
 5   0  0.5985183E-07  0.3329739E+04  0.7818609E-02  0.8155369E-01
       -1   -1    0    0    0  501  0.00000000000E+00  0.00000000000E+00  0.12612738470E+04  0.12612738470E+04  0.50400001928E-02 0. -1.
        1   -1    0    0  501    0  0.00000000000E+00  0.00000000000E+00 -0.21976125358E+04  0.21976125358E+04  0.50400001928E-02 0.  1.
    10030    2    1    2    0    0  0.00000000000E+00  0.00000000000E+00 -0.93633868879E+03  0.34588863829E+04  0.33297394597E+04 0.  0.
        2    1    3    3  502    0 -0.46101646532E+03 -0.65225159157E+03  0.10492486480E+04  0.13186701807E+04  0.25500000920E-02 0. -1.
       -2    1    3    3    0  502  0.46101646532E+03  0.65225159157E+03 -0.19855873368E+04  0.21402162022E+04  0.25500000920E-02 0.  1.
</event>
<event>
 5   0  0.5858859E-07  0.3307058E+04  0.7818609E-02  0.8161102E-01
       -1   -1    0    0    0  501  0.00000000000E+00  0.00000000000E+00  0.95240657823E+03  0.95240657824E+03  0.50400001928E-02 0.  1.
        1   -1    0    0  501    0  0.00000000000E+00  0.00000000000E+00 -0.28707895872E+04  0.28707895872E+04  0.50400001928E-02 0. -1.
    10030    2    1    2    0    0  0.00000000000E+00  0.00000000000E+00 -0.19183830089E+04  0.38231961654E+04  0.33070584437E+04 0.  0.
        3    1    3    3  502    0  0.92037955229E+03  0.77270060807E+01  0.62888250035E+03  0.11147427669E+04  0.10100000352E+00 0.  1.
       -3    1    3    3    0  502 -0.92037955229E+03 -0.77270060807E+01 -0.25472655093E+04  0.27084533985E+04  0.10100000352E+00 0. -1.
</event>
<event>
 5   0  0.1832626E-06  0.3303528E+04  0.7818609E-02  0.8161998E-01
       -2   -1    0    0    0  501  0.00000000000E+00  0.00000000000E+00  0.15398070817E+04  0.15398070817E+04  0.25500000920E-02 0.  1.
        2   -1    0    0  501    0  0.00000000000E+00  0.00000000000E+00 -0.17718613336E+04  0.17718613336E+04  0.25500000920E-02 0. -1.
    10030    2    1    2    0    0  0.00000000000E+00  0.00000000000E+00 -0.23205425185E+03  0.33116684153E+04  0.33035281922E+04 0.  0.
        3    1    3    3  502    0 -0.11399627488E+04  0.61166889980E+03  0.91347505413E+03  0.15836952347E+04  0.10100000352E+00 0.  1.
       -3    1    3    3    0  502  0.11399627488E+04 -0.61166889980E+03 -0.11455293060E+04  0.17279731806E+04  0.10100000352E+00 0. -1.
</event>
<event>
 5   0  0.6023446E-07  0.3181833E+04  0.7818609E-02  0.8193632E-01
       -1   -1    0    0    0  501  0.00000000000E+00  0.00000000000E+00  0.22528013907E+04  0.22528013907E+04  0.50400001928E-02 0.  1.
        1   -1    0    0  501    0  0.00000000000E+00  0.00000000000E+00 -0.11234967641E+04  0.11234967641E+04  0.50400001928E-02 0. -1.
    10030    2    1    2    0    0  0.00000000000E+00  0.00000000000E+00  0.11293046266E+04  0.33762981548E+04  0.31818328508E+04 0.  0.
        5    1    3    3  502    0  0.13341676040E+04 -0.30808867873E+03  0.14241385001E+04  0.19756301240E+04  0.46999998093E+01 0.  1.
       -5    1    3    3    0  502 -0.13341676040E+04  0.30808867873E+03 -0.29483387347E+03  0.14006680308E+04  0.46999998093E+01 0. -1.
</event>
<event>
 5   0  0.5985183E-07  0.3288453E+04  0.7818609E-02  0.8165840E-01
       -1   -1    0    0    0  501  0.00000000000E+00  0.00000000000E+00  0.19186897284E+04  0.19186897284E+04  0.50400001928E-02 0. -1.
        1   -1    0    0  501    0  0.00000000000E+00  0.00000000000E+00 -0.14090248149E+04  0.14090248149E+04  0.50400001928E-02 0.  1.
    10030    2    1    2    0    0  0.00000000000E+00  0.00000000000E+00  0.50966491351E+03  0.33277145434E+04  0.32884533991E+04 0.  0.
        2    1    3    3  502    0 -0.59883536550E+03  0.93624798376E+03 -0.97137609123E+03  0.14760540616E+04  0.25500000920E-02 0.  1.
       -2    1    3    3    0  502  0.59883536550E+03 -0.93624798376E+03  0.14810410047E+04  0.18516604818E+04  0.25500000920E-02 0. -1.
</event>
<event>
 5   0  0.1832626E-06  0.3004753E+04  0.7818609E-02  0.8242375E-01
       -2   -1    0    0    0  501  0.00000000000E+00  0.00000000000E+00  0.97601205350E+03  0.97601205351E+03  0.25500000920E-02 0.  1.
        2   -1    0    0  501    0  0.00000000000E+00  0.00000000000E+00 -0.23126105657E+04  0.23126105657E+04  0.25500000920E-02 0. -1.
    10030    2    1    2    0    0  0.00000000000E+00  0.00000000000E+00 -0.13365985122E+04  0.32886226192E+04  0.30047534256E+04 0.  0.
        3    1    3    3  502    0  0.33837954305E+03 -0.13858669587E+04 -0.15260849471E+03  0.14347185456E+04  0.10100000352E+00 0.  1.
       -3    1    3    3    0  502 -0.33837954305E+03  0.13858669587E+04 -0.11839900175E+04  0.18539040736E+04  0.10100000352E+00 0. -1.
</event>
<event>
 5   0  0.1743810E-06  0.3279501E+04  0.7818609E-02  0.8168131E-01
        2   -1    0    0  501    0  0.00000000000E+00  0.00000000000E+00  0.27057574335E+04  0.27057574335E+04  0.25500000920E-02 0. -1.
       -2   -1    0    0    0  501  0.00000000000E+00  0.00000000000E+00 -0.99372613472E+03  0.99372613472E+03  0.25500000920E-02 0.  1.
    10030    2    1    2    0    0  0.00000000000E+00  0.00000000000E+00  0.17120312987E+04  0.36994835682E+04  0.32795011059E+04 0.  0.
        5    1    3    3  502    0  0.35320273483E+03  0.15508728218E+03  0.26538363599E+04  0.26817296195E+04  0.46999998093E+01 0. -1.
       -5    1    3    3    0  502 -0.35320273483E+03 -0.15508728218E+03 -0.94180506112E+03  0.10177539487E+04  0.46999998093E+01 0.  1.
</event>
<event>
 5   0  0.1743810E-06  0.3275990E+04  0.7818609E-02  0.8169032E-01
        2   -1    0    0  501    0  0.00000000000E+00  0.00000000000E+00  0.21527389395E+04  0.21527389395E+04  0.25500000920E-02 0.  1.
       -2   -1    0    0    0  501  0.00000000000E+00  0.00000000000E+00 -0.12463321282E+04  0.12463321282E+04  0.25500000920E-02 0. -1.
    10030    2    1    2    0    0  0.00000000000E+00  0.00000000000E+00  0.90640681131E+03  0.33990710677E+04  0.32759900512E+04 0.  0.
        5    1    3    3  502    0  0.10176805836E+04 -0.68947901634E+02 -0.87657928511E+03  0.13449315657E+04  0.46999998093E+01 0. -1.
       -5    1    3    3    0  502 -0.10176805836E+04  0.68947901634E+02  0.17829860964E+04  0.20541395019E+04  0.46999998093E+01 0.  1.
</event>
<event>
 5   0  0.1743810E-06  0.3289802E+04  0.7818609E-02  0.8165495E-01
       -2   -1    0    0    0  501  0.00000000000E+00  0.00000000000E+00  0.20671530670E+04  0.20671530670E+04  0.25500000920E-02 0.  1.
        2   -1    0    0  501    0  0.00000000000E+00  0.00000000000E+00 -0.13089010181E+04  0.13089010181E+04  0.25500000920E-02 0. -1.
    10030    2    1    2    0    0  0.00000000000E+00  0.00000000000E+00  0.75825204884E+03  0.33760540851E+04  0.32898016682E+04 0.  0.
        5    1    3    3  502    0 -0.11331699063E+03 -0.48224581989E+03 -0.12305241328E+04  0.13265042414E+04  0.46999998093E+01 0. -1.
       -5    1    3    3    0  502  0.11331699063E+03  0.48224581989E+03  0.19887761816E+04  0.20495498437E+04  0.46999998093E+01 0.  1.
</event>
<event>
 5   0  0.1784626E-06  0.3302231E+04  0.7818609E-02  0.8162328E-01
        2   -1    0    0  501    0  0.00000000000E+00  0.00000000000E+00  0.18711228393E+04  0.18711228393E+04  0.25500000920E-02 0.  1.
       -2   -1    0    0    0  501  0.00000000000E+00  0.00000000000E+00 -0.14569766654E+04  0.14569766654E+04  0.25500000920E-02 0. -1.
    10030    2    1    2    0    0  0.00000000000E+00  0.00000000000E+00  0.41414617388E+03  0.33280995047E+04  0.33022309519E+04 0.  0.
        2    1    3    3  502    0 -0.13530987440E+04 -0.70059884745E+03 -0.43388642704E+03  0.15842892374E+04  0.25500000920E-02 0. -1.
       -2    1    3    3    0  502  0.13530987440E+04  0.70059884745E+03  0.84803260091E+03  0.17438102673E+04  0.25500000920E-02 0.  1.
</event>
<event>
 5   0  0.1696681E-06  0.3278966E+04  0.7818609E-02  0.8168268E-01
        2   -1    0    0  501    0  0.00000000000E+00  0.00000000000E+00  0.26848695857E+04  0.26848695857E+04  0.25500000920E-02 0.  1.
       -2   -1    0    0    0  501  0.00000000000E+00  0.00000000000E+00 -0.10011302656E+04  0.10011302656E+04  0.25500000920E-02 0. -1.
    10030    2    1    2    0    0  0.00000000000E+00  0.00000000000E+00  0.16837393200E+04  0.36859998513E+04  0.32789658134E+04 0.  0.
        4    1    3    3  502    0  0.42422562695E+03  0.15268414800E+04  0.13143946482E+04  0.20588460826E+04  0.12699999809E+01 0. -1.
       -4    1    3    3    0  502 -0.42422562695E+03 -0.15268414800E+04  0.36934467181E+03  0.16271537687E+04  0.12699999809E+01 0.  1.
</event>
<event>
 5   0  0.1832626E-06  0.3255159E+04  0.7818609E-02  0.8174400E-01
       -2   -1    0    0    0  501  0.00000000000E+00  0.00000000000E+00  0.12380393021E+04  0.12380393021E+04  0.25500000920E-02 0.  1.
        2   -1    0    0  501    0  0.00000000000E+00  0.00000000000E+00 -0.21396850805E+04  0.21396850805E+04  0.25500000920E-02 0. -1.
    10030    2    1    2    0    0  0.00000000000E+00  0.00000000000E+00 -0.90164577839E+03  0.33777243826E+04  0.32551585054E+04 0.  0.
        3    1    3    3  502    0  0.48868815550E+02  0.28926013151E+03 -0.21120252022E+04  0.21323015851E+04  0.10100000352E+00 0. -1.
       -3    1    3    3    0  502 -0.48868815550E+02 -0.28926013151E+03  0.12103794238E+04  0.12454227975E+04  0.10100000352E+00 0.  1.
</event>
<event>
 5   0  0.1743810E-06  0.3285754E+04  0.7818609E-02  0.8166530E-01
       -2   -1    0    0    0  501  0.00000000000E+00  0.00000000000E+00  0.11720445346E+04  0.11720445346E+04  0.25500000920E-02 0. -1.
        2   -1    0    0  501    0  0.00000000000E+00  0.00000000000E+00 -0.23028523882E+04  0.23028523882E+04  0.25500000920E-02 0.  1.
    10030    2    1    2    0    0  0.00000000000E+00  0.00000000000E+00 -0.11308078536E+04  0.34748969228E+04  0.32857544373E+04 0.  0.
        5    1    3    3  502    0  0.11713599605E+04 -0.43537127326E+03 -0.16932809469E+04  0.21044844399E+04  0.46999998093E+01 0. -1.
       -5    1    3    3    0  502 -0.11713599605E+04  0.43537127326E+03  0.56247309331E+03  0.13704124829E+04  0.46999998093E+01 0.  1.
</event>
<event>
 5   0  0.1728937E-06  0.3281768E+04  0.7818609E-02  0.8167550E-01
       -2   -1    0    0    0  501  0.00000000000E+00  0.00000000000E+00  0.15887491025E+04  0.15887491025E+04  0.25500000920E-02 0.  1.
        2   -1    0    0  501    0  0.00000000000E+00  0.00000000000E+00 -0.16947298049E+04  0.16947298049E+04  0.25500000920E-02 0. -1.
    10030    2    1    2    0    0  0.00000000000E+00  0.00000000000E+00 -0.10598070234E+03  0.32834789074E+04  0.32817680945E+04 0.  0.
        1    1    3    3  502    0 -0.90944539413E+03 -0.11724382944E+04 -0.75392531602E+03  0.16643635003E+04  0.50400001928E-02 0. -1.
       -1    1    3    3    0  502  0.90944539413E+03  0.11724382944E+04  0.64794461368E+03  0.16191154071E+04  0.50400001928E-02 0.  1.
</event>
<event>
 5   0  0.1728937E-06  0.3285604E+04  0.7818609E-02  0.8166568E-01
        2   -1    0    0  501    0  0.00000000000E+00  0.00000000000E+00  0.13675916290E+04  0.13675916290E+04  0.25500000920E-02 0.  1.
       -2   -1    0    0    0  501  0.00000000000E+00  0.00000000000E+00 -0.19733952077E+04  0.19733952077E+04  0.25500000920E-02 0. -1.
    10030    2    1    2    0    0  0.00000000000E+00  0.00000000000E+00 -0.60580357866E+03  0.33409868367E+04  0.32856042165E+04 0.  0.
        1    1    3    3  502    0  0.30296620598E+03 -0.90940488442E+02 -0.19421357351E+04  0.19677270919E+04  0.50400001928E-02 0. -1.
       -1    1    3    3    0  502 -0.30296620598E+03  0.90940488442E+02  0.13363321565E+04  0.13732597449E+04  0.50400001928E-02 0.  1.
</event>
<event>
 5   0  0.5985183E-07  0.3107793E+04  0.7818609E-02  0.8213603E-01
       -1   -1    0    0    0  501  0.00000000000E+00  0.00000000000E+00  0.11753131332E+04  0.11753131332E+04  0.50400001928E-02 0. -1.
        1   -1    0    0  501    0  0.00000000000E+00  0.00000000000E+00 -0.20544257672E+04  0.20544257672E+04  0.50400001928E-02 0.  1.
    10030    2    1    2    0    0  0.00000000000E+00  0.00000000000E+00 -0.87911263398E+03  0.32297389004E+04  0.31077925191E+04 0.  0.
        2    1    3    3  502    0 -0.12773140794E+04  0.55630975215E+03 -0.11547322541E+04  0.18095354035E+04  0.25500000920E-02 0.  1.
       -2    1    3    3    0  502  0.12773140794E+04 -0.55630975215E+03  0.27561962014E+03  0.14202034970E+04  0.25500000920E-02 0. -1.
</event>
<event>
 5   0  0.1832626E-06  0.2982153E+04  0.7818609E-02  0.8248846E-01
        2   -1    0    0  501    0  0.00000000000E+00  0.00000000000E+00  0.19065800582E+04  0.19065800582E+04  0.25500000920E-02 0.  1.
       -2   -1    0    0    0  501  0.00000000000E+00  0.00000000000E+00 -0.11661238220E+04  0.11661238220E+04  0.25500000920E-02 0. -1.
    10030    2    1    2    0    0  0.00000000000E+00  0.00000000000E+00  0.74045623624E+03  0.30727038802E+04  0.29821525276E+04 0.  0.
        3    1    3    3  502    0  0.51622982104E+03  0.74126347707E+02 -0.10690845793E+04  0.11895082141E+04  0.10100000352E+00 0. -1.
       -3    1    3    3    0  502 -0.51622982104E+03 -0.74126347707E+02  0.18095408155E+04  0.18831956661E+04  0.10100000352E+00 0.  1.
</event>
<event>
 5   0  0.5988516E-07  0.3373562E+04  0.7818609E-02  0.8144426E-01
        1   -1    0    0  501    0  0.00000000000E+00  0.00000000000E+00  0.87309606156E+03  0.87309606157E+03  0.50400001928E-02 0.  1.
       -1   -1    0    0    0  501  0.00000000000E+00  0.00000000000E+00 -0.32587819341E+04  0.32587819341E+04  0.50400001928E-02 0. -1.
    10030    2    1    2    0    0  0.00000000000E+00  0.00000000000E+00 -0.23856858726E+04  0.41318779957E+04  0.33735617215E+04 0.  0.
        4    1    3    3  502    0  0.12748980939E+04 -0.50760445961E+03  0.85681792840E+01  0.13722618059E+04  0.12699999809E+01 0.  1.
       -4    1    3    3    0  502 -0.12748980939E+04  0.50760445961E+03 -0.23942540519E+04  0.27596161898E+04  0.12699999809E+01 0. -1.
</event>
<event>
 5   0  0.6085351E-07  0.3351887E+04  0.7818609E-02  0.8149817E-01
       -1   -1    0    0    0  501  0.00000000000E+00  0.00000000000E+00  0.17787036470E+04  0.17787036470E+04  0.50400001928E-02 0. -1.
        1   -1    0    0  501    0  0.00000000000E+00  0.00000000000E+00 -0.15791200617E+04  0.15791200617E+04  0.50400001928E-02 0.  1.
    10030    2    1    2    0    0  0.00000000000E+00  0.00000000000E+00  0.19958358530E+03  0.33578237087E+04  0.33518869986E+04 0.  0.
        1    1    3    3  502    0  0.82055759485E+03  0.14477052194E+04 -0.99612118444E+02  0.16670596099E+04  0.50400001928E-02 0.  1.
       -1    1    3    3    0  502 -0.82055759485E+03 -0.14477052194E+04  0.29919570375E+03  0.16907640988E+04  0.50400001928E-02 0. -1.
</event>
<event>
 5   0  0.6023446E-07  0.3301773E+04  0.7818609E-02  0.8162444E-01
       -1   -1    0    0    0  501  0.00000000000E+00  0.00000000000E+00  0.27408898856E+04  0.27408898856E+04  0.50400001928E-02 0. -1.
        1   -1    0    0  501    0  0.00000000000E+00  0.00000000000E+00 -0.99435826098E+03  0.99435826099E+03  0.50400001928E-02 0.  1.
    10030    2    1    2    0    0  0.00000000000E+00  0.00000000000E+00  0.17465316246E+04  0.37352481466E+04  0.33017731601E+04 0.  0.
        5    1    3    3  502    0  0.13391482114E+04 -0.95328150928E+03  0.10461003317E+04  0.19484382366E+04  0.46999998093E+01 0.  1.
       -5    1    3    3    0  502 -0.13391482114E+04  0.95328150928E+03  0.70043129297E+03  0.17868099100E+04  0.46999998093E+01 0. -1.
</event>
<event>
 5   0  0.1696681E-06  0.3204199E+04  0.7818609E-02  0.8187709E-01
       -2   -1    0    0    0  501  0.00000000000E+00  0.00000000000E+00  0.14470803406E+04  0.14470803406E+04  0.25500000920E-02 0.  1.
        2   -1    0    0  501    0  0.00000000000E+00  0.00000000000E+00 -0.17737251588E+04  0.17737251588E+04  0.25500000920E-02 0. -1.
    10030    2    1    2    0    0  0.00000000000E+00  0.00000000000E+00 -0.32664481820E+03  0.32208054995E+04  0.32041989995E+04 0.  0.
        4    1    3    3  502    0 -0.10201597236E+04 -0.10878432857E+04 -0.75166979625E+03  0.16700712474E+04  0.12699999809E+01 0. -1.
       -4    1    3    3    0  502  0.10201597236E+04  0.10878432857E+04  0.42502497805E+03  0.15507342521E+04  0.12699999809E+01 0.  1.
</event>
<event>
 5   0  0.5985183E-07  0.3290046E+04  0.7818609E-02  0.8165433E-01
        1   -1    0    0  501    0  0.00000000000E+00  0.00000000000E+00  0.16618534924E+04  0.16618534924E+04  0.50400001928E-02 0. -1.
       -1   -1    0    0    0  501  0.00000000000E+00  0.00000000000E+00 -0.16283624953E+04  0.16283624953E+04  0.50400001928E-02 0.  1.
    10030    2    1    2    0    0  0.00000000000E+00  0.00000000000E+00  0.33490997112E+02  0.32902159878E+04  0.32900455315E+04 0.  0.
        2    1    3    3  502    0  0.11616419256E+04 -0.87728635286E+03 -0.74949038136E+03  0.16373085048E+04  0.25500000920E-02 0.  1.
       -2    1    3    3    0  502 -0.11616419256E+04  0.87728635286E+03  0.78298137848E+03  0.16529074830E+04  0.25500000920E-02 0. -1.
</event>
<event>
 5   0  0.1784626E-06  0.3066509E+04  0.7818609E-02  0.8224990E-01
        2   -1    0    0  501    0  0.00000000000E+00  0.00000000000E+00  0.26020090562E+04  0.26020090562E+04  0.25500000920E-02 0. -1.
       -2   -1    0    0    0  501  0.00000000000E+00  0.00000000000E+00 -0.90348222760E+03  0.90348222760E+03  0.25500000920E-02 0.  1.
    10030    2    1    2    0    0  0.00000000000E+00  0.00000000000E+00  0.16985268286E+04  0.35054912838E+04  0.30665087238E+04 0.  0.
        2    1    3    3  502    0  0.14731140316E+04 -0.47198805330E+02  0.13323406250E+04  0.19868125775E+04  0.25500000920E-02 0.  1.
       -2    1    3    3    0  502 -0.14731140316E+04  0.47198805330E+02  0.36618620364E+03  0.15186787063E+04  0.25500000920E-02 0. -1.
</event>
<event>
 5   0  0.1728937E-06  0.2977029E+04  0.7818609E-02  0.8250321E-01
       -2   -1    0    0    0  501  0.00000000000E+00  0.00000000000E+00  0.73348905912E+03  0.73348905912E+03  0.25500000920E-02 0. -1.
        2   -1    0    0  501    0  0.00000000000E+00  0.00000000000E+00 -0.30207345290E+04  0.30207345290E+04  0.25500000920E-02 0.  1.
    10030    2    1    2    0    0  0.00000000000E+00  0.00000000000E+00 -0.22872454698E+04  0.37542235881E+04  0.29770292088E+04 0.  0.
        1    1    3    3  502    0 -0.11797298890E+04  0.18689179880E+03 -0.22637601243E+04  0.25595509480E+04  0.50400001928E-02 0.  1.
       -1    1    3    3    0  502  0.11797298890E+04 -0.18689179880E+03 -0.23485345562E+02  0.11946726400E+04  0.50400001928E-02 0. -1.
</event>
<event>
 5   0  0.1743810E-06  0.3260618E+04  0.7818609E-02  0.8172989E-01
       -2   -1    0    0    0  501  0.00000000000E+00  0.00000000000E+00  0.13568911842E+04  0.13568911842E+04  0.25500000920E-02 0. -1.
        2   -1    0    0  501    0  0.00000000000E+00  0.00000000000E+00 -0.19588209322E+04  0.19588209322E+04  0.25500000920E-02 0.  1.
    10030    2    1    2    0    0  0.00000000000E+00  0.00000000000E+00 -0.60192974794E+03  0.33157121164E+04  0.32606176436E+04 0.  0.
        5    1    3    3  502    0  0.98115501172E+03 -0.57686551139E+03 -0.14879261691E+04  0.18733353544E+04  0.46999998093E+01 0. -1.
       -5    1    3    3    0  502 -0.98115501172E+03  0.57686551139E+03  0.88599642120E+03  0.14423767620E+04  0.46999998093E+01 0.  1.
</event>
<event>
 5   0  0.5985183E-07  0.3305759E+04  0.7818609E-02  0.8161431E-01
        1   -1    0    0  501    0  0.00000000000E+00  0.00000000000E+00  0.99200201316E+03  0.99200201317E+03  0.50400001928E-02 0. -1.
       -1   -1    0    0    0  501  0.00000000000E+00  0.00000000000E+00 -0.27540379259E+04  0.27540379259E+04  0.50400001928E-02 0.  1.
    10030    2    1    2    0    0  0.00000000000E+00  0.00000000000E+00 -0.17620359127E+04  0.37460399390E+04  0.33057593178E+04 0.  0.
        2    1    3    3  502    0  0.29302158151E+02  0.15433790688E+04 -0.21144640034E+03  0.15580716115E+04  0.25500000920E-02 0. -1.
       -2    1    3    3    0  502 -0.29302158151E+02 -0.15433790688E+04 -0.15505895124E+04  0.21879683275E+04  0.25500000920E-02 0.  1.
</event>
<event>
 5   0  0.5988516E-07  0.3230319E+04  0.7818609E-02  0.8180856E-01
        1   -1    0    0  501    0  0.00000000000E+00  0.00000000000E+00  0.14890260664E+04  0.14890260664E+04  0.50400001928E-02 0. -1.
       -1   -1    0    0    0  501  0.00000000000E+00  0.00000000000E+00 -0.17519775746E+04  0.17519775746E+04  0.50400001928E-02 0.  1.
    10030    2    1    2    0    0  0.00000000000E+00  0.00000000000E+00 -0.26295150818E+03  0.32410036410E+04  0.32303190408E+04 0.  0.
        4    1    3    3  502    0 -0.92326698085E+03 -0.85029939630E+03  0.88840390639E+03  0.15377561884E+04  0.12699999809E+01 0.  1.
       -4    1    3    3    0  502  0.92326698085E+03  0.85029939630E+03 -0.11513554146E+04  0.17032474526E+04  0.12699999809E+01 0. -1.
</event>
<event>
 5   0  0.1696681E-06  0.3294921E+04  0.7818609E-02  0.8164189E-01
       -2   -1    0    0    0  501  0.00000000000E+00  0.00000000000E+00  0.12004631076E+04  0.12004631076E+04  0.25500000920E-02 0. -1.
        2   -1    0    0  501    0  0.00000000000E+00  0.00000000000E+00 -0.22608997626E+04  0.22608997626E+04  0.25500000920E-02 0.  1.
    10030    2    1    2    0    0  0.00000000000E+00  0.00000000000E+00 -0.10604366550E+04  0.34613628701E+04  0.32949213981E+04 0.  0.
        4    1    3    3  502    0  0.73879015572E+03 -0.84138534635E+03 -0.17997272156E+04  0.21196131389E+04  0.12699999809E+01 0.  1.
       -4    1    3    3    0  502 -0.73879015572E+03  0.84138534635E+03  0.73929056064E+03  0.13417497312E+04  0.12699999809E+01 0. -1.
</event>
<event>
 5   0  0.1832626E-06  0.3331389E+04  0.7818609E-02  0.8154954E-01
        2   -1    0    0  501    0  0.00000000000E+00  0.00000000000E+00  0.17486443026E+04  0.17486443026E+04  0.25500000920E-02 0. -1.
       -2   -1    0    0    0  501  0.00000000000E+00  0.00000000000E+00 -0.15866796253E+04  0.15866796253E+04  0.25500000920E-02 0.  1.
    10030    2    1    2    0    0  0.00000000000E+00  0.00000000000E+00  0.16196467728E+03  0.33353239279E+04  0.33313890717E+04 0.  0.
        3    1    3    3  502    0 -0.49858577879E+03  0.40568292875E+03 -0.14575082861E+04  0.15929522377E+04  0.10100000352E+00 0.  1.
       -3    1    3    3    0  502  0.49858577879E+03 -0.40568292875E+03  0.16194729634E+04  0.17423716902E+04  0.10100000352E+00 0. -1.
</event>
<event>
 5   0  0.6085351E-07  0.3264139E+04  0.7818609E-02  0.8172081E-01
       -1   -1    0    0    0  501  0.00000000000E+00  0.00000000000E+00  0.83773901833E+03  0.83773901835E+03  0.50400001928E-02 0.  1.
        1   -1    0    0  501    0  0.00000000000E+00  0.00000000000E+00 -0.31795717947E+04  0.31795717948E+04  0.50400001928E-02 0. -1.
    10030    2    1    2    0    0  0.00000000000E+00  0.00000000000E+00 -0.23418327764E+04  0.40173108131E+04  0.32641393071E+04 0.  0.
        1    1    3    3  502    0  0.12070166345E+04 -0.10487001664E+04 -0.15734838459E+04  0.22433262376E+04  0.50400001928E-02 0.  1.
       -1    1    3    3    0  502 -0.12070166345E+04  0.10487001664E+04 -0.76834893053E+03  0.17739845755E+04  0.50400001928E-02 0. -1.
</event>
<event>
 5   0  0.5858859E-07  0.3324563E+04  0.7818609E-02  0.8156673E-01
        1   -1    0    0  501    0  0.00000000000E+00  0.00000000000E+00  0.22446188818E+04  0.22446188818E+04  0.50400001928E-02 0.  1.
       -1   -1    0    0    0  501  0.00000000000E+00  0.00000000000E+00 -0.12310240492E+04  0.12310240492E+04  0.50400001928E-02 0. -1.
    10030    2    1    2    0    0  0.00000000000E+00  0.00000000000E+00  0.10135948326E+04  0.34756429310E+04  0.33245630238E+04 0.  0.
        3    1    3    3  502    0  0.30024161356E+03 -0.14386315826E+04  0.13188681579E+04  0.19746440401E+04  0.10100000352E+00 0.  1.
       -3    1    3    3    0  502 -0.30024161356E+03  0.14386315826E+04 -0.30527332533E+03  0.15009988909E+04  0.10100000352E+00 0. -1.
</event>
<event>
 5   0  0.5985183E-07  0.3390613E+04  0.7818609E-02  0.8140214E-01
        1   -1    0    0  501    0  0.00000000000E+00  0.00000000000E+00  0.16978200425E+04  0.16978200425E+04  0.50400001928E-02 0. -1.
       -1   -1    0    0    0  501  0.00000000000E+00  0.00000000000E+00 -0.16927965921E+04  0.16927965921E+04  0.50400001928E-02 0.  1.
    10030    2    1    2    0    0  0.00000000000E+00  0.00000000000E+00  0.50234503875E+01  0.33906166346E+04  0.33906129133E+04 0.  0.
        2    1    3    3  502    0  0.10163982937E+04 -0.10015923818E+04  0.91783299690E+03  0.16966644338E+04  0.25500000920E-02 0. -1.
       -2    1    3    3    0  502 -0.10163982937E+04  0.10015923818E+04 -0.91280954651E+03  0.16939522009E+04  0.25500000920E-02 0.  1.
</event>
<event>
 5   0  0.5985183E-07  0.3319201E+04  0.7818609E-02  0.8158027E-01
       -1   -1    0    0    0  501  0.00000000000E+00  0.00000000000E+00  0.98036741369E+03  0.98036741370E+03  0.50400001928E-02 0.  1.
        1   -1    0    0  501    0  0.00000000000E+00  0.00000000000E+00 -0.28094296998E+04  0.28094296998E+04  0.50400001928E-02 0. -1.
    10030    2    1    2    0    0  0.00000000000E+00  0.00000000000E+00 -0.18290622861E+04  0.37897971135E+04  0.33192007042E+04 0.  0.
        2    1    3    3  502    0 -0.92692913227E+03 -0.13231088810E+04 -0.13484955890E+04  0.21043419591E+04  0.25500000920E-02 0. -1.
       -2    1    3    3    0  502  0.92692913227E+03  0.13231088810E+04 -0.48056669713E+03  0.16854551544E+04  0.25500000920E-02 0.  1.
</event>
<event>
 5   0  0.1743810E-06  0.3270954E+04  0.7818609E-02  0.8170326E-01
        2   -1    0    0  501    0  0.00000000000E+00  0.00000000000E+00  0.12886140385E+04  0.12886140385E+04  0.25500000920E-02 0. -1.
       -2   -1    0    0    0  501  0.00000000000E+00  0.00000000000E+00 -0.20757072582E+04  0.20757072582E+04  0.25500000920E-02 0.  1.
    10030    2    1    2    0    0  0.00000000000E+00  0.00000000000E+00 -0.78709321971E+03  0.33643212967E+04  0.32709543028E+04 0.  0.
        5    1    3    3  502    0 -0.10870981190E+04  0.44233284708E+03  0.77796610288E+03  0.14080816792E+04  0.46999998093E+01 0. -1.
       -5    1    3    3    0  502  0.10870981190E+04 -0.44233284708E+03 -0.15650593226E+04  0.19562396175E+04  0.46999998093E+01 0.  1.
</event>
<event>
 5   0  0.6023446E-07  0.3278693E+04  0.7818609E-02  0.8168338E-01
       -1   -1    0    0    0  501  0.00000000000E+00  0.00000000000E+00  0.93729622623E+03  0.93729622624E+03  0.50400001928E-02 0. -1.
        1   -1    0    0  501    0  0.00000000000E+00  0.00000000000E+00 -0.28672438670E+04  0.28672438670E+04  0.50400001928E-02 0.  1.
    10030    2    1    2    0    0  0.00000000000E+00  0.00000000000E+00 -0.19299476408E+04  0.38045400933E+04  0.32786929446E+04 0.  0.
        5    1    3    3  502    0 -0.48647198358E+03 -0.10088211784E+01 -0.27815494047E+04  0.28237732184E+04  0.46999998093E+01 0.  1.
       -5    1    3    3    0  502  0.48647198358E+03  0.10088211784E+01  0.85160176388E+03  0.98076687483E+03  0.46999998093E+01 0. -1.
</event>
<event>
 5   0  0.5858859E-07  0.3264680E+04  0.7818609E-02  0.8171941E-01
        1   -1    0    0  501    0  0.00000000000E+00  0.00000000000E+00  0.32729523177E+04  0.32729523177E+04  0.50400001928E-02 0.  1.
       -1   -1    0    0    0  501  0.00000000000E+00  0.00000000000E+00 -0.81410734719E+03  0.81410734721E+03  0.50400001928E-02 0. -1.
    10030    2    1    2    0    0  0.00000000000E+00  0.00000000000E+00  0.24588449705E+04  0.40870596649E+04  0.32646804002E+04 0.  0.
        3    1    3    3  502    0  0.10547855983E+03 -0.80859006787E+03 -0.54085310511E+03  0.97850177105E+03  0.10100000352E+00 0. -1.
       -3    1    3    3    0  502 -0.10547855983E+03  0.80859006787E+03  0.29996980756E+04  0.31085578938E+04  0.10100000352E+00 0.  1.
</event>
<event>
 5   0  0.6023446E-07  0.3323914E+04  0.7818609E-02  0.8156837E-01
       -1   -1    0    0    0  501  0.00000000000E+00  0.00000000000E+00  0.24281970565E+04  0.24281970565E+04  0.50400001928E-02 0.  1.
        1   -1    0    0  501    0  0.00000000000E+00  0.00000000000E+00 -0.11375111150E+04  0.11375111150E+04  0.50400001928E-02 0. -1.
    10030    2    1    2    0    0  0.00000000000E+00  0.00000000000E+00  0.12906859415E+04  0.35657081715E+04  0.33239140429E+04 0.  0.
        5    1    3    3  502    0  0.11792555890E+04 -0.70327963704E+03  0.16498534454E+04  0.21464585888E+04  0.46999998093E+01 0.  1.
       -5    1    3    3    0  502 -0.11792555890E+04  0.70327963704E+03 -0.35916750386E+03  0.14192495827E+04  0.46999998093E+01 0. -1.
</event>
<event>
 5   0  0.6085351E-07  0.3296979E+04  0.7818609E-02  0.8163664E-01
       -1   -1    0    0    0  501  0.00000000000E+00  0.00000000000E+00  0.20753304918E+04  0.20753304918E+04  0.50400001928E-02 0. -1.
        1   -1    0    0  501    0  0.00000000000E+00  0.00000000000E+00 -0.13094387347E+04  0.13094387347E+04  0.50400001928E-02 0.  1.
    10030    2    1    2    0    0  0.00000000000E+00  0.00000000000E+00  0.76589175711E+03  0.33847692264E+04  0.32969793043E+04 0.  0.
        1    1    3    3  502    0  0.14155057901E+04 -0.83441672726E+03  0.24670884108E+03  0.16615574528E+04  0.50400001928E-02 0.  1.
       -1    1    3    3    0  502 -0.14155057901E+04  0.83441672726E+03  0.51918291603E+03  0.17232117737E+04  0.50400001928E-02 0. -1.
</event>
<event>
 5   0  0.1784626E-06  0.3298030E+04  0.7818609E-02  0.8163397E-01
        2   -1    0    0  501    0  0.00000000000E+00  0.00000000000E+00  0.20298927609E+04  0.20298927609E+04  0.25500000920E-02 0.  1.
       -2   -1    0    0    0  501  0.00000000000E+00  0.00000000000E+00 -0.13396032625E+04  0.13396032625E+04  0.25500000920E-02 0. -1.
    10030    2    1    2    0    0  0.00000000000E+00  0.00000000000E+00  0.69028949838E+03  0.33694960235E+04  0.32980303001E+04 0.  0.
        2    1    3    3  502    0 -0.97291731389E+03  0.53165317106E+03  0.15922625789E+04  0.19402379530E+04  0.25500000920E-02 0.  1.
       -2    1    3    3    0  502  0.97291731389E+03 -0.53165317106E+03 -0.90197308055E+03  0.14292580705E+04  0.25500000920E-02 0. -1.
</event>
<event>
 5   0  0.1728937E-06  0.3289837E+04  0.7818609E-02  0.8165486E-01
       -2   -1    0    0    0  501  0.00000000000E+00  0.00000000000E+00  0.23346974641E+04  0.23346974641E+04  0.25500000920E-02 0. -1.
        2   -1    0    0  501    0  0.00000000000E+00  0.00000000000E+00 -0.11589322976E+04  0.11589322976E+04  0.25500000920E-02 0.  1.
    10030    2    1    2    0    0  0.00000000000E+00  0.00000000000E+00  0.11757651666E+04  0.34936297617E+04  0.32898366502E+04 0.  0.
        1    1    3    3  502    0 -0.60211693812E+03  0.47426467982E+02  0.22126819698E+04  0.22936337059E+04  0.50400001928E-02 0. -1.
       -1    1    3    3    0  502  0.60211693812E+03 -0.47426467982E+02 -0.10369168033E+04  0.11999960558E+04  0.50400001928E-02 0.  1.
</event>
<event>
 5   0  0.5685000E-07  0.3263051E+04  0.7818609E-02  0.8172361E-01
        3   -1    0    0  501    0  0.00000000000E+00  0.00000000000E+00  0.18867762710E+04  0.18867762737E+04  0.10100000352E+00 0. -1.
       -3   -1    0    0    0  501  0.00000000000E+00  0.00000000000E+00 -0.14108060505E+04  0.14108060542E+04  0.10100000352E+00 0.  1.
    10030    2    1    2    0    0  0.00000000000E+00  0.00000000000E+00  0.47597022049E+03  0.32975823279E+04  0.32630509586E+04 0.  0.
        2    1    3    3  502    0  0.14089160562E+04  0.24499653034E+03 -0.55569712871E+03  0.15342317466E+04  0.25500000920E-02 0.  1.
       -2    1    3    3    0  502 -0.14089160562E+04 -0.24499653034E+03  0.10316673492E+04  0.17633505813E+04  0.25500000920E-02 0. -1.
</event>
<event>
 5   0  0.5985183E-07  0.3300971E+04  0.7818609E-02  0.8162648E-01
       -1   -1    0    0    0  501  0.00000000000E+00  0.00000000000E+00  0.17343150408E+04  0.17343150408E+04  0.50400001928E-02 0. -1.
        1   -1    0    0  501    0  0.00000000000E+00  0.00000000000E+00 -0.15707077378E+04  0.15707077379E+04  0.50400001928E-02 0.  1.
    10030    2    1    2    0    0  0.00000000000E+00  0.00000000000E+00  0.16360730291E+03  0.33050227786E+04  0.33009707993E+04 0.  0.
        2    1    3    3  502    0  0.33161701925E+03 -0.15364281366E+04  0.58593019256E+03  0.16774669764E+04  0.25500000920E-02 0. -1.
       -2    1    3    3    0  502 -0.33161701925E+03  0.15364281366E+04 -0.42232288966E+03  0.16275558022E+04  0.25500000920E-02 0.  1.
</event>
<event>
 5   0  0.5858859E-07  0.3284698E+04  0.7818609E-02  0.8166800E-01
       -1   -1    0    0    0  501  0.00000000000E+00  0.00000000000E+00  0.15660611649E+04  0.15660611649E+04  0.50400001928E-02 0.  1.
        1   -1    0    0  501    0  0.00000000000E+00  0.00000000000E+00 -0.17223527496E+04  0.17223527496E+04  0.50400001928E-02 0. -1.
    10030    2    1    2    0    0  0.00000000000E+00  0.00000000000E+00 -0.15629158467E+03  0.32884139145E+04  0.32846977050E+04 0.  0.
        3    1    3    3  502    0 -0.75750238261E+03 -0.22426596397E+02 -0.15368450211E+04  0.17135359468E+04  0.10100000352E+00 0. -1.
       -3    1    3    3    0  502  0.75750238261E+03  0.22426596397E+02  0.13805534365E+04  0.15748779677E+04  0.10100000352E+00 0.  1.
</event>
<event>
 5   0  0.1784626E-06  0.3288740E+04  0.7818609E-02  0.8165766E-01
        2   -1    0    0  501    0  0.00000000000E+00  0.00000000000E+00  0.23225933799E+04  0.23225933799E+04  0.25500000920E-02 0. -1.
       -2   -1    0    0    0  501  0.00000000000E+00  0.00000000000E+00 -0.11641956096E+04  0.11641956096E+04  0.25500000920E-02 0.  1.
    10030    2    1    2    0    0  0.00000000000E+00  0.00000000000E+00  0.11583977703E+04  0.34867889895E+04  0.32887401939E+04 0.  0.
        2    1    3    3  502    0 -0.25236852486E+02  0.50860371874E+03  0.22368892459E+04  0.22941203412E+04  0.25500000920E-02 0. -1.
       -2    1    3    3    0  502  0.25236852486E+02 -0.50860371874E+03 -0.10784914757E+04  0.11926686483E+04  0.25500000920E-02 0.  1.
</event>
<event>
 5   0  0.1728937E-06  0.3343424E+04  0.7818609E-02  0.8151933E-01
       -2   -1    0    0    0  501  0.00000000000E+00  0.00000000000E+00  0.13026418536E+04  0.13026418536E+04  0.25500000920E-02 0. -1.
        2   -1    0    0  501    0  0.00000000000E+00  0.00000000000E+00 -0.21453483193E+04  0.21453483193E+04  0.25500000920E-02 0.  1.
    10030    2    1    2    0    0  0.00000000000E+00  0.00000000000E+00 -0.84270646572E+03  0.34479901729E+04  0.33434237011E+04 0.  0.
        1    1    3    3  502    0 -0.13279319798E+04 -0.10083211438E+04 -0.29714710026E+03  0.16936384712E+04  0.50400001928E-02 0.  1.
       -1    1    3    3    0  502  0.13279319798E+04  0.10083211438E+04 -0.54555936546E+03  0.17543517017E+04  0.50400001928E-02 0. -1.
</event>
<event>
 5   0  0.6085351E-07  0.3307550E+04  0.7818609E-02  0.8160977E-01
        1   -1    0    0  501    0  0.00000000000E+00  0.00000000000E+00  0.11498988887E+04  0.11498988887E+04  0.50400001928E-02 0. -1.
       -1   -1    0    0    0  501  0.00000000000E+00  0.00000000000E+00 -0.23784453722E+04  0.23784453722E+04  0.50400001928E-02 0.  1.
    10030    2    1    2    0    0  0.00000000000E+00  0.00000000000E+00 -0.12285464836E+04  0.35283442609E+04  0.33075499635E+04 0.  0.
        1    1    3    3  502    0  0.65130325502E+03 -0.10966815066E+04 -0.17371891717E+04  0.21551641412E+04  0.50400001928E-02 0.  1.
       -1    1    3    3    0  502 -0.65130325502E+03  0.10966815066E+04  0.50864268818E+03  0.13731801197E+04  0.50400001928E-02 0. -1.
</event>
<event>
 5   0  0.1784626E-06  0.3362058E+04  0.7818609E-02  0.8147282E-01
        2   -1    0    0  501    0  0.00000000000E+00  0.00000000000E+00  0.15031202211E+04  0.15031202211E+04  0.25500000920E-02 0. -1.
       -2   -1    0    0    0  501  0.00000000000E+00  0.00000000000E+00 -0.18799950851E+04  0.18799950851E+04  0.25500000920E-02 0.  1.
    10030    2    1    2    0    0  0.00000000000E+00  0.00000000000E+00 -0.37687486407E+03  0.33831153062E+04  0.33620580768E+04 0.  0.
        2    1    3    3  502    0 -0.12078246495E+04  0.55601718066E+03 -0.12234040234E+04  0.18068516523E+04  0.25500000920E-02 0. -1.
       -2    1    3    3    0  502  0.12078246495E+04 -0.55601718066E+03  0.84652915930E+03  0.15762636539E+04  0.25500000920E-02 0.  1.
</event>
<event>
 5   0  0.5988516E-07  0.3377392E+04  0.7818609E-02  0.8143477E-01
        1   -1    0    0  501    0  0.00000000000E+00  0.00000000000E+00  0.19315642882E+04  0.19315642882E+04  0.50400001928E-02 0. -1.
       -1   -1    0    0    0  501  0.00000000000E+00  0.00000000000E+00 -0.14763651663E+04  0.14763651663E+04  0.50400001928E-02 0.  1.
    10030    2    1    2    0    0  0.00000000000E+00  0.00000000000E+00  0.45519912196E+03  0.34079294545E+04  0.33773920303E+04 0.  0.
        4    1    3    3  502    0 -0.83441185125E+03  0.14453555048E+04  0.48760544341E+03  0.17386938644E+04  0.12699999809E+01 0. -1.
       -4    1    3    3    0  502  0.83441185125E+03 -0.14453555048E+04 -0.32406321453E+02  0.16692355901E+04  0.12699999809E+01 0.  1.
</event>
<event>
 5   0  0.5858859E-07  0.3277605E+04  0.7818609E-02  0.8168617E-01
        1   -1    0    0  501    0  0.00000000000E+00  0.00000000000E+00  0.13109540271E+04  0.13109540271E+04  0.50400001928E-02 0. -1.
       -1   -1    0    0    0  501  0.00000000000E+00  0.00000000000E+00 -0.20486408907E+04  0.20486408907E+04  0.50400001928E-02 0.  1.
    10030    2    1    2    0    0  0.00000000000E+00  0.00000000000E+00 -0.73768686361E+03  0.33595949178E+04  0.32776052391E+04 0.  0.
        3    1    3    3  502    0  0.13019479334E+04  0.86974134542E+03 -0.86484440911E+03  0.17887074359E+04  0.10100000352E+00 0.  1.
       -3    1    3    3    0  502 -0.13019479334E+04 -0.86974134542E+03  0.12715754550E+03  0.15708874819E+04  0.10100000352E+00 0. -1.
</event>
<event>
 5   0  0.1743810E-06  0.3306252E+04  0.7818609E-02  0.8161306E-01
       -2   -1    0    0    0  501  0.00000000000E+00  0.00000000000E+00  0.18878196687E+04  0.18878196687E+04  0.25500000920E-02 0. -1.
        2   -1    0    0  501    0  0.00000000000E+00  0.00000000000E+00 -0.14476093652E+04  0.14476093652E+04  0.25500000920E-02 0.  1.
    10030    2    1    2    0    0  0.00000000000E+00  0.00000000000E+00  0.44021030348E+03  0.33354290338E+04  0.33062519155E+04 0.  0.
        5    1    3    3  502    0 -0.12795749839E+04  0.54650691570E+03 -0.68042084937E+03  0.15488629928E+04  0.46999998093E+01 0. -1.
       -5    1    3    3    0  502  0.12795749839E+04 -0.54650691570E+03  0.11206311528E+04  0.17865660410E+04  0.46999998093E+01 0.  1.
</event>
<event>
 5   0  0.1784626E-06  0.3281162E+04  0.7818609E-02  0.8167705E-01
        2   -1    0    0  501    0  0.00000000000E+00  0.00000000000E+00  0.17576974078E+04  0.17576974078E+04  0.25500000920E-02 0. -1.
       -2   -1    0    0    0  501  0.00000000000E+00  0.00000000000E+00 -0.15312679670E+04  0.15312679670E+04  0.25500000920E-02 0.  1.
    10030    2    1    2    0    0  0.00000000000E+00  0.00000000000E+00  0.22642944077E+03  0.32889653748E+04  0.32811618285E+04 0.  0.
        2    1    3    3  502    0 -0.99226138249E+03  0.11179798877E+04 -0.56444345683E+03  0.15978291825E+04  0.25500000920E-02 0.  1.
       -2    1    3    3    0  502  0.99226138249E+03 -0.11179798877E+04  0.79087289760E+03  0.16911361923E+04  0.25500000920E-02 0. -1.
</event>
<event>
 5   0  0.5685000E-07  0.3284312E+04  0.7818609E-02  0.8166899E-01
       -3   -1    0    0    0  501  0.00000000000E+00  0.00000000000E+00  0.21853814837E+04  0.21853814860E+04  0.10100000352E+00 0.  1.
        3   -1    0    0  501    0  0.00000000000E+00  0.00000000000E+00 -0.12339611045E+04  0.12339611086E+04  0.10100000352E+00 0. -1.
    10030    2    1    2    0    0  0.00000000000E+00  0.00000000000E+00  0.95142037917E+03  0.34193425946E+04  0.32843116541E+04 0.  0.
        5    1    3    3  502    0 -0.11475412935E+04  0.30077515101E+03 -0.70646399364E+03  0.13807353751E+04  0.46999998093E+01 0. -1.
       -5    1    3    3    0  502  0.11475412935E+04 -0.30077515101E+03  0.16578843728E+04  0.20386072195E+04  0.46999998093E+01 0.  1.
</event>
<event>
 5   0  0.6023446E-07  0.3291833E+04  0.7818609E-02  0.8164976E-01
       -1   -1    0    0    0  501  0.00000000000E+00  0.00000000000E+00  0.17756691268E+04  0.17756691268E+04  0.50400001928E-02 0. -1.
        1   -1    0    0  501    0  0.00000000000E+00  0.00000000000E+00 -0.15256456098E+04  0.15256456098E+04  0.50400001928E-02 0.  1.
    10030    2    1    2    0    0  0.00000000000E+00  0.00000000000E+00  0.25002351696E+03  0.33013147366E+04  0.32918334149E+04 0.  0.
        5    1    3    3  502    0  0.15468475558E+04 -0.44277932429E+03 -0.22272722951E+03  0.16243215198E+04  0.46999998093E+01 0. -1.
       -5    1    3    3    0  502 -0.15468475558E+04  0.44277932429E+03  0.47275074647E+03  0.16769932168E+04  0.46999998093E+01 0.  1.
</event>
<event>
 5   0  0.5985183E-07  0.3312799E+04  0.7818609E-02  0.8159646E-01
        1   -1    0    0  501    0  0.00000000000E+00  0.00000000000E+00  0.17326609252E+04  0.17326609252E+04  0.50400001928E-02 0. -1.
       -1   -1    0    0    0  501  0.00000000000E+00  0.00000000000E+00 -0.15834941825E+04  0.15834941825E+04  0.50400001928E-02 0.  1.
    10030    2    1    2    0    0  0.00000000000E+00  0.00000000000E+00  0.14916674278E+03  0.33161551077E+04  0.33127985120E+04 0.  0.
        2    1    3    3  502    0  0.72218703837E+03 -0.14540737189E+04 -0.25403876006E+03  0.16432955273E+04  0.25500000920E-02 0. -1.
       -2    1    3    3    0  502 -0.72218703837E+03  0.14540737189E+04  0.40320550284E+03  0.16728595804E+04  0.25500000920E-02 0.  1.
</event>
<event>
 5   0  0.6085351E-07  0.3285828E+04  0.7818609E-02  0.8166511E-01
       -1   -1    0    0    0  501  0.00000000000E+00  0.00000000000E+00  0.21473766383E+04  0.21473766383E+04  0.50400001928E-02 0.  1.
        1   -1    0    0  501    0  0.00000000000E+00  0.00000000000E+00 -0.12569595941E+04  0.12569595941E+04  0.50400001928E-02 0. -1.
    10030    2    1    2    0    0  0.00000000000E+00  0.00000000000E+00  0.89041704427E+03  0.34043362324E+04  0.32858275473E+04 0.  0.
        1    1    3    3  502    0 -0.29675450463E+03 -0.10810990254E+04  0.16894927524E+04  0.20276153726E+04  0.50400001928E-02 0.  1.
       -1    1    3    3    0  502  0.29675450463E+03  0.10810990254E+04 -0.79907570811E+03  0.13767208599E+04  0.50400001928E-02 0. -1.
</event>
<event>
 5   0  0.1784626E-06  0.3314966E+04  0.7818609E-02  0.8159098E-01
        2   -1    0    0  501    0  0.00000000000E+00  0.00000000000E+00  0.21576273967E+04  0.21576273967E+04  0.25500000920E-02 0.  1.
       -2   -1    0    0    0  501  0.00000000000E+00  0.00000000000E+00 -0.12732735288E+04  0.12732735288E+04  0.25500000920E-02 0. -1.
    10030    2    1    2    0    0  0.00000000000E+00  0.00000000000E+00  0.88435386788E+03  0.34309009256E+04  0.33149659723E+04 0.  0.
        2    1    3    3  502    0  0.16288714554E+04 -0.14355765163E+03  0.16174153210E+03  0.16431650376E+04  0.25500000920E-02 0. -1.
       -2    1    3    3    0  502 -0.16288714554E+04  0.14355765163E+03  0.72261233578E+03  0.17877358880E+04  0.25500000920E-02 0.  1.
</event>
<event>
 5   0  0.6085351E-07  0.3272834E+04  0.7818609E-02  0.8169842E-01
       -1   -1    0    0    0  501  0.00000000000E+00  0.00000000000E+00  0.94099009529E+03  0.94099009530E+03  0.50400001928E-02 0.  1.
        1   -1    0    0  501    0  0.00000000000E+00  0.00000000000E+00 -0.28457897668E+04  0.28457897668E+04  0.50400001928E-02 0. -1.
    10030    2    1    2    0    0  0.00000000000E+00  0.00000000000E+00 -0.19047996715E+04  0.37867798621E+04  0.32728336248E+04 0.  0.
        1    1    3    3  502    0  0.91420556975E+03  0.50646593753E+02 -0.25216737348E+04  0.26827551744E+04  0.50400001928E-02 0. -1.
       -1    1    3    3    0  502 -0.91420556975E+03 -0.50646593753E+02  0.61687406322E+03  0.11040246877E+04  0.50400001928E-02 0.  1.
</event>
<event>
 5   0  0.1743810E-06  0.3300671E+04  0.7818609E-02  0.8162725E-01
       -2   -1    0    0    0  501  0.00000000000E+00  0.00000000000E+00  0.13771474094E+04  0.13771474094E+04  0.25500000920E-02 0. -1.
        2   -1    0    0  501    0  0.00000000000E+00  0.00000000000E+00 -0.19777168555E+04  0.19777168555E+04  0.25500000920E-02 0.  1.
    10030    2    1    2    0    0  0.00000000000E+00  0.00000000000E+00 -0.60056944614E+03  0.33548642649E+04  0.33006712311E+04 0.  0.
        5    1    3    3  502    0 -0.12859015174E+04  0.75149622340E+03 -0.10227978319E+04  0.18067724763E+04  0.46999998093E+01 0.  1.
       -5    1    3    3    0  502  0.12859015174E+04 -0.75149622340E+03  0.42222838571E+03  0.15480917886E+04  0.46999998093E+01 0. -1.
</event>
<event>
 5   0  0.5858859E-07  0.3287736E+04  0.7818609E-02  0.8166023E-01
       -1   -1    0    0    0  501  0.00000000000E+00  0.00000000000E+00  0.10033752988E+04  0.10033752988E+04  0.50400001928E-02 0. -1.
        1   -1    0    0  501    0  0.00000000000E+00  0.00000000000E+00 -0.26932120481E+04  0.26932120481E+04  0.50400001928E-02 0.  1.
    10030    2    1    2    0    0  0.00000000000E+00  0.00000000000E+00 -0.16898367493E+04  0.36965873470E+04  0.32877362690E+04 0.  0.
        3    1    3    3  502    0 -0.16174782480E+04 -0.15130590762E+03 -0.56231977733E+03  0.17191081707E+04  0.10100000352E+00 0.  1.
       -3    1    3    3    0  502  0.16174782480E+04  0.15130590762E+03 -0.11275169720E+04  0.19774791763E+04  0.10100000352E+00 0. -1.
</event>
<event>
 5   0  0.5685000E-07  0.3319275E+04  0.7818609E-02  0.8158008E-01
       -3   -1    0    0    0  501  0.00000000000E+00  0.00000000000E+00  0.17007362245E+04  0.17007362275E+04  0.10100000352E+00 0. -1.
        3   -1    0    0  501    0  0.00000000000E+00  0.00000000000E+00 -0.16195320731E+04  0.16195320763E+04  0.10100000352E+00 0.  1.
    10030    2    1    2    0    0  0.00000000000E+00  0.00000000000E+00  0.81204151381E+02  0.33202683038E+04  0.33192751460E+04 0.  0.
        1    1    3    3  502    0 -0.32607565250E+03 -0.14958873997E+04  0.68141254150E+03  0.16758065209E+04  0.50400001928E-02 0. -1.
       -1    1    3    3    0  502  0.32607565250E+03  0.14958873997E+04 -0.60020839012E+03  0.16444617829E+04  0.50400001928E-02 0.  1.
</event>
<event>
 5   0  0.6023446E-07  0.3339054E+04  0.7818609E-02  0.8153029E-01
       -1   -1    0    0    0  501  0.00000000000E+00  0.00000000000E+00  0.15174609313E+04  0.15174609313E+04  0.50400001928E-02 0.  1.
        1   -1    0    0  501    0  0.00000000000E+00  0.00000000000E+00 -0.18368319830E+04  0.18368319830E+04  0.50400001928E-02 0. -1.
    10030    2    1    2    0    0  0.00000000000E+00  0.00000000000E+00 -0.31937105168E+03  0.33542929143E+04  0.33390542204E+04 0.  0.
        5    1    3    3  502    0  0.10595477405E+04 -0.90324849437E+03 -0.10851932587E+04  0.17652664829E+04  0.46999998093E+01 0. -1.
       -5    1    3    3    0  502 -0.10595477405E+04  0.90324849437E+03  0.76582220705E+03  0.15890264314E+04  0.46999998093E+01 0.  1.
</event>
<event>
 5   0  0.1784626E-06  0.3311976E+04  0.7818609E-02  0.8159855E-01
       -2   -1    0    0    0  501  0.00000000000E+00  0.00000000000E+00  0.11160453248E+04  0.11160453248E+04  0.25500000920E-02 0. -1.
        2   -1    0    0  501    0  0.00000000000E+00  0.00000000000E+00 -0.24571545313E+04  0.24571545313E+04  0.25500000920E-02 0.  1.
    10030    2    1    2    0    0  0.00000000000E+00  0.00000000000E+00 -0.13411092065E+04  0.35731998562E+04  0.33119757409E+04 0.  0.
        2    1    3    3  502    0 -0.57847543775E+03  0.15434984156E+04 -0.49903545337E+03  0.17222246006E+04  0.25500000920E-02 0. -1.
       -2    1    3    3    0  502  0.57847543775E+03 -0.15434984156E+04 -0.84207375313E+03  0.18509752556E+04  0.25500000920E-02 0.  1.
</event>
<event>
 5   0  0.5685000E-07  0.3273154E+04  0.7818609E-02  0.8169760E-01
        3   -1    0    0  501    0  0.00000000000E+00  0.00000000000E+00  0.15805323091E+04  0.15805323123E+04  0.10100000352E+00 0. -1.
       -3   -1    0    0    0  501  0.00000000000E+00  0.00000000000E+00 -0.16946085516E+04  0.16946085546E+04  0.10100000352E+00 0.  1.
    10030    2    1    2    0    0  0.00000000000E+00  0.00000000000E+00 -0.11407624249E+03  0.32751408669E+04  0.32731535725E+04 0.  0.
        3    1    3    3  502    0  0.24756213456E+03 -0.15342993359E+04  0.45613006675E+03  0.16196963019E+04  0.10100000352E+00 0. -1.
       -3    1    3    3    0  502 -0.24756213456E+03  0.15342993359E+04 -0.57020630925E+03  0.16554445650E+04  0.10100000352E+00 0.  1.
</event>
<event>
 5   0  0.6085351E-07  0.3255311E+04  0.7818609E-02  0.8174360E-01
       -1   -1    0    0    0  501  0.00000000000E+00  0.00000000000E+00  0.13295444942E+04  0.13295444942E+04  0.50400001928E-02 0.  1.
        1   -1    0    0  501    0  0.00000000000E+00  0.00000000000E+00 -0.19926093551E+04  0.19926093551E+04  0.50400001928E-02 0. -1.
    10030    2    1    2    0    0  0.00000000000E+00  0.00000000000E+00 -0.66306486091E+03  0.33221538492E+04  0.32553112275E+04 0.  0.
        1    1    3    3  502    0  0.64774786715E+03  0.13610355655E+04  0.29530082547E+03  0.15359679969E+04  0.50400001928E-02 0.  1.
       -1    1    3    3    0  502 -0.64774786715E+03 -0.13610355655E+04 -0.95836568638E+03  0.17861858523E+04  0.50400001928E-02 0. -1.
</event>
<event>
 5   0  0.1784626E-06  0.3147538E+04  0.7818609E-02  0.8202811E-01
        2   -1    0    0  501    0  0.00000000000E+00  0.00000000000E+00  0.28215616886E+04  0.28215616886E+04  0.25500000920E-02 0. -1.
       -2   -1    0    0    0  501  0.00000000000E+00  0.00000000000E+00 -0.87779360742E+03  0.87779360743E+03  0.25500000920E-02 0.  1.
    10030    2    1    2    0    0  0.00000000000E+00  0.00000000000E+00  0.19437680812E+04  0.36993552960E+04  0.31475379669E+04 0.  0.
        2    1    3    3  502    0 -0.13567316981E+04 -0.40613351978E+03  0.16519900161E+03  0.14258176765E+04  0.25500000920E-02 0.  1.
       -2    1    3    3    0  502  0.13567316981E+04  0.40613351978E+03  0.17785690796E+04  0.22735376195E+04  0.25500000920E-02 0. -1.
</event>
<event>
 5   0  0.5985183E-07  0.3271342E+04  0.7818609E-02  0.8170226E-01
       -1   -1    0    0    0  501  0.00000000000E+00  0.00000000000E+00  0.14710558711E+04  0.14710558711E+04  0.50400001928E-02 0.  1.
        1   -1    0    0  501    0  0.00000000000E+00  0.00000000000E+00 -0.18187073762E+04  0.18187073762E+04  0.50400001928E-02 0. -1.
    10030    2    1    2    0    0  0.00000000000E+00  0.00000000000E+00 -0.34765150507E+03  0.32897632474E+04  0.32713423322E+04 0.  0.
        2    1    3    3  502    0 -0.30936987203E+03  0.18734731844E+03 -0.17779920487E+04  0.18144047125E+04  0.25500000920E-02 0. -1.
       -2    1    3    3    0  502  0.30936987203E+03 -0.18734731844E+03  0.14303405437E+04  0.14753585348E+04  0.25500000920E-02 0.  1.
</event>
<event>
 5   0  0.5985183E-07  0.3212496E+04  0.7818609E-02  0.8185525E-01
        1   -1    0    0  501    0  0.00000000000E+00  0.00000000000E+00  0.19984078454E+04  0.19984078454E+04  0.50400001928E-02 0.  1.
       -1   -1    0    0    0  501  0.00000000000E+00  0.00000000000E+00 -0.12910439201E+04  0.12910439201E+04  0.50400001928E-02 0. -1.
    10030    2    1    2    0    0  0.00000000000E+00  0.00000000000E+00  0.70736392528E+03  0.32894517655E+04  0.32124957891E+04 0.  0.
        2    1    3    3  502    0  0.58572990576E+03 -0.54573766023E+03  0.17795641862E+04  0.19513476905E+04  0.25500000920E-02 0.  1.
       -2    1    3    3    0  502 -0.58572990576E+03  0.54573766023E+03 -0.10722002609E+04  0.13381040751E+04  0.25500000920E-02 0. -1.
</event>
<event>
 5   0  0.5988516E-07  0.3071307E+04  0.7818609E-02  0.8223657E-01
        1   -1    0    0  501    0  0.00000000000E+00  0.00000000000E+00  0.16923275257E+04  0.16923275257E+04  0.50400001928E-02 0.  1.
       -1   -1    0    0    0  501  0.00000000000E+00  0.00000000000E+00 -0.13934840669E+04  0.13934840669E+04  0.50400001928E-02 0. -1.
    10030    2    1    2    0    0  0.00000000000E+00  0.00000000000E+00  0.29884345878E+03  0.30858115925E+04  0.30713068508E+04 0.  0.
        4    1    3    3  502    0  0.53339682172E+03 -0.83508874962E+03 -0.10292958599E+04  0.14287536419E+04  0.12699999809E+01 0. -1.
       -4    1    3    3    0  502 -0.53339682172E+03  0.83508874962E+03  0.13281393187E+04  0.16570579507E+04  0.12699999809E+01 0.  1.
</event>
<event>
 5   0  0.5988516E-07  0.3225950E+04  0.7818609E-02  0.8181997E-01
        1   -1    0    0  501    0  0.00000000000E+00  0.00000000000E+00  0.21441843024E+04  0.21441843024E+04  0.50400001928E-02 0. -1.
       -1   -1    0    0    0  501  0.00000000000E+00  0.00000000000E+00 -0.12133698139E+04  0.12133698139E+04  0.50400001928E-02 0.  1.
    10030    2    1    2    0    0  0.00000000000E+00  0.00000000000E+00  0.93081448850E+03  0.33575541163E+04  0.32259500976E+04 0.  0.
        4    1    3    3  502    0  0.55234247254E+03 -0.48760838653E+03 -0.10279955684E+04  0.12647611028E+04  0.12699999809E+01 0.  1.
       -4    1    3    3    0  502 -0.55234247254E+03  0.48760838653E+03  0.19588100569E+04  0.20927930135E+04  0.12699999809E+01 0. -1.
</event>
<event>
 5   0  0.6023446E-07  0.3279898E+04  0.7818609E-02  0.8168029E-01
        1   -1    0    0  501    0  0.00000000000E+00  0.00000000000E+00  0.14308944751E+04  0.14308944751E+04  0.50400001928E-02 0.  1.
       -1   -1    0    0    0  501  0.00000000000E+00  0.00000000000E+00 -0.18795464910E+04  0.18795464911E+04  0.50400001928E-02 0. -1.
    10030    2    1    2    0    0  0.00000000000E+00  0.00000000000E+00 -0.44865201591E+03  0.33104409662E+04  0.32798979800E+04 0.  0.
        5    1    3    3  502    0  0.44774039847E+03  0.44527386312E+03  0.13032639928E+04  0.14481917699E+04  0.46999998093E+01 0.  1.
       -5    1    3    3    0  502 -0.44774039847E+03 -0.44527386312E+03 -0.17519160087E+04  0.18622491963E+04  0.46999998093E+01 0. -1.
</event>
<event>
 5   0  0.5858859E-07  0.3343707E+04  0.7818609E-02  0.8151862E-01
       -1   -1    0    0    0  501  0.00000000000E+00  0.00000000000E+00  0.11274657768E+04  0.11274657768E+04  0.50400001928E-02 0. -1.
        1   -1    0    0  501    0  0.00000000000E+00  0.00000000000E+00 -0.24790942923E+04  0.24790942923E+04  0.50400001928E-02 0.  1.
    10030    2    1    2    0    0  0.00000000000E+00  0.00000000000E+00 -0.13516285155E+04  0.36065600691E+04  0.33437069082E+04 0.  0.
        3    1    3    3  502    0  0.13882601824E+03 -0.16375843009E+04 -0.10067545578E+04  0.19273063471E+04  0.10100000352E+00 0.  1.
       -3    1    3    3    0  502 -0.13882601824E+03  0.16375843009E+04 -0.34487395768E+03  0.16792537220E+04  0.10100000352E+00 0. -1.
</event>
<event>
 5   0  0.1743810E-06  0.3291213E+04  0.7818609E-02  0.8165135E-01
        2   -1    0    0  501    0  0.00000000000E+00  0.00000000000E+00  0.12247232966E+04  0.12247232966E+04  0.25500000920E-02 0. -1.
       -2   -1    0    0    0  501  0.00000000000E+00  0.00000000000E+00 -0.22111292922E+04  0.22111292922E+04  0.25500000920E-02 0.  1.
    10030    2    1    2    0    0  0.00000000000E+00  0.00000000000E+00 -0.98640599559E+03  0.34358525889E+04  0.32912134881E+04 0.  0.
        5    1    3    3  502    0 -0.56736145285E+03  0.53947825759E+03  0.10178408959E+04  0.12841175911E+04  0.46999998093E+01 0. -1.
       -5    1    3    3    0  502  0.56736145285E+03 -0.53947825759E+03 -0.20042468915E+04  0.21517349977E+04  0.46999998093E+01 0.  1.
</event>
<event>
 5   0  0.6023446E-07  0.3212364E+04  0.7818609E-02  0.8185559E-01
       -1   -1    0    0    0  501  0.00000000000E+00  0.00000000000E+00  0.13031430911E+04  0.13031430911E+04  0.50400001928E-02 0.  1.
        1   -1    0    0  501    0  0.00000000000E+00  0.00000000000E+00 -0.19796914506E+04  0.19796914506E+04  0.50400001928E-02 0. -1.
    10030    2    1    2    0    0  0.00000000000E+00  0.00000000000E+00 -0.67654835946E+03  0.32828345418E+04  0.32123643856E+04 0.  0.
        5    1    3    3  502    0 -0.98748699656E+03 -0.11393134012E+04 -0.90416679803E+03  0.17580401825E+04  0.46999998093E+01 0. -1.
       -5    1    3    3    0  502  0.98748699656E+03  0.11393134012E+04  0.22761843857E+03  0.15247943593E+04  0.46999998093E+01 0.  1.
</event>
<event>
 5   0  0.1728937E-06  0.3263288E+04  0.7818609E-02  0.8172300E-01
       -2   -1    0    0    0  501  0.00000000000E+00  0.00000000000E+00  0.16384299514E+04  0.16384299514E+04  0.25500000920E-02 0.  1.
        2   -1    0    0  501    0  0.00000000000E+00  0.00000000000E+00 -0.16248863347E+04  0.16248863347E+04  0.25500000920E-02 0. -1.
    10030    2    1    2    0    0  0.00000000000E+00  0.00000000000E+00  0.13543616663E+02  0.32633162861E+04  0.32632881812E+04 0.  0.
        1    1    3    3  502    0  0.65395753759E+03  0.36926539848E+03 -0.14417726974E+04  0.16256463042E+04  0.50400001928E-02 0. -1.
       -1    1    3    3    0  502 -0.65395753759E+03 -0.36926539848E+03  0.14553163141E+04  0.16376699819E+04  0.50400001928E-02 0.  1.
</event>
<event>
 5   0  0.5858859E-07  0.3275725E+04  0.7818609E-02  0.8169100E-01
        1   -1    0    0  501    0  0.00000000000E+00  0.00000000000E+00  0.19133081751E+04  0.19133081751E+04  0.50400001928E-02 0. -1.
       -1   -1    0    0    0  501  0.00000000000E+00  0.00000000000E+00 -0.14020709447E+04  0.14020709447E+04  0.50400001928E-02 0.  1.
    10030    2    1    2    0    0  0.00000000000E+00  0.00000000000E+00  0.51123723041E+03  0.33153791198E+04  0.32757251414E+04 0.  0.
        3    1    3    3  502    0 -0.13439576115E+04 -0.91423576351E+03  0.51823966416E+02  0.16262640704E+04  0.10100000352E+00 0. -1.
       -3    1    3    3    0  502  0.13439576115E+04  0.91423576351E+03  0.45941326399E+03  0.16891150494E+04  0.10100000352E+00 0.  1.
</event>
<event>
 5   0  0.5988516E-07  0.3335577E+04  0.7818609E-02  0.8153901E-01
        1   -1    0    0  501    0  0.00000000000E+00  0.00000000000E+00  0.23522165699E+04  0.23522165699E+04  0.50400001928E-02 0.  1.
       -1   -1    0    0    0  501  0.00000000000E+00  0.00000000000E+00 -0.11825092865E+04  0.11825092865E+04  0.50400001928E-02 0. -1.
    10030    2    1    2    0    0  0.00000000000E+00  0.00000000000E+00  0.11697072834E+04  0.35347258565E+04  0.33355766745E+04 0.  0.
        4    1    3    3  502    0 -0.15741727313E+04 -0.17808556611E+03  0.11373064788E+04  0.19501799651E+04  0.12699999809E+01 0. -1.
       -4    1    3    3    0  502  0.15741727313E+04  0.17808556611E+03  0.32400804599E+02  0.15845458914E+04  0.12699999809E+01 0.  1.
</event>
<event>
 5   0  0.1728937E-06  0.2912404E+04  0.7818609E-02  0.8269197E-01
        2   -1    0    0  501    0  0.00000000000E+00  0.00000000000E+00  0.14278284243E+04  0.14278284243E+04  0.25500000920E-02 0.  1.
       -2   -1    0    0    0  501  0.00000000000E+00  0.00000000000E+00 -0.14851392287E+04  0.14851392287E+04  0.25500000920E-02 0. -1.
    10030    2    1    2    0    0  0.00000000000E+00  0.00000000000E+00 -0.57310804358E+02  0.29129676530E+04  0.29124038214E+04 0.  0.
        1    1    3    3  502    0  0.11160069793E+04 -0.22598893516E+03 -0.93656536419E+03  0.14743463833E+04  0.50400001928E-02 0. -1.
       -1    1    3    3    0  502 -0.11160069793E+04  0.22598893516E+03  0.87925455983E+03  0.14386212697E+04  0.50400001928E-02 0.  1.
</event>
<event>
 5   0  0.1832626E-06  0.3341534E+04  0.7818609E-02  0.8152407E-01
        2   -1    0    0  501    0  0.00000000000E+00  0.00000000000E+00  0.22584799348E+04  0.22584799348E+04  0.25500000920E-02 0. -1.
       -2   -1    0    0    0  501  0.00000000000E+00  0.00000000000E+00 -0.12359917911E+04  0.12359917911E+04  0.25500000920E-02 0.  1.
    10030    2    1    2    0    0  0.00000000000E+00  0.00000000000E+00  0.10224881437E+04  0.34944717259E+04  0.33415341744E+04 0.  0.
        3    1    3    3  502    0  0.16597844567E+04 -0.25345379499E+02  0.31300037189E+03  0.16892294320E+04  0.10100000352E+00 0.  1.
       -3    1    3    3    0  502 -0.16597844567E+04  0.25345379499E+02  0.70948777176E+03  0.18052422938E+04  0.10100000352E+00 0. -1.
</event>
<event>
 5   0  0.1728937E-06  0.3383382E+04  0.7818609E-02  0.8141997E-01
       -2   -1    0    0    0  501  0.00000000000E+00  0.00000000000E+00  0.18881954000E+04  0.18881954000E+04  0.25500000920E-02 0.  1.
        2   -1    0    0  501    0  0.00000000000E+00  0.00000000000E+00 -0.15156365220E+04  0.15156365220E+04  0.25500000920E-02 0. -1.
    10030    2    1    2    0    0  0.00000000000E+00  0.00000000000E+00  0.37255887804E+03  0.34038319220E+04  0.33833816863E+04 0.  0.
        1    1    3    3  502    0  0.13030118595E+04  0.35619831743E+03  0.12108163025E+04  0.18140543724E+04  0.50400001928E-02 0.  1.
       -1    1    3    3    0  502 -0.13030118595E+04 -0.35619831743E+03 -0.83825742451E+03  0.15897775496E+04  0.50400001928E-02 0. -1.
</event>
<event>
 5   0  0.1832626E-06  0.3191230E+04  0.7818609E-02  0.8191137E-01
       -2   -1    0    0    0  501  0.00000000000E+00  0.00000000000E+00  0.16298214680E+04  0.16298214681E+04  0.25500000920E-02 0.  1.
        2   -1    0    0  501    0  0.00000000000E+00  0.00000000000E+00 -0.15621262908E+04  0.15621262908E+04  0.25500000920E-02 0. -1.
    10030    2    1    2    0    0  0.00000000000E+00  0.00000000000E+00  0.67695177289E+02  0.31919477588E+04  0.31912298347E+04 0.  0.
        3    1    3    3  502    0 -0.95895478256E+03  0.32744850593E+03 -0.11989759028E+04  0.15698280239E+04  0.10100000352E+00 0. -1.
       -3    1    3    3    0  502  0.95895478256E+03 -0.32744850593E+03  0.12666710801E+04  0.16221197349E+04  0.10100000352E+00 0.  1.
</event>
<event>
 5   0  0.1784626E-06  0.3303273E+04  0.7818609E-02  0.8162063E-01
        2   -1    0    0  501    0  0.00000000000E+00  0.00000000000E+00  0.12700428533E+04  0.12700428533E+04  0.25500000920E-02 0. -1.
       -2   -1    0    0    0  501  0.00000000000E+00  0.00000000000E+00 -0.21478827153E+04  0.21478827153E+04  0.25500000920E-02 0.  1.
    10030    2    1    2    0    0  0.00000000000E+00  0.00000000000E+00 -0.87783986199E+03  0.34179255686E+04  0.33032729783E+04 0.  0.
        2    1    3    3  502    0  0.62734953778E+03  0.50477083885E+03  0.10531940150E+04  0.13257370311E+04  0.25500000920E-02 0. -1.
       -2    1    3    3    0  502 -0.62734953778E+03 -0.50477083885E+03 -0.19310338770E+04  0.20921885375E+04  0.25500000920E-02 0.  1.
</event>
<event>
 5   0  0.1728937E-06  0.3307492E+04  0.7818609E-02  0.8160992E-01
       -2   -1    0    0    0  501  0.00000000000E+00  0.00000000000E+00  0.13947654956E+04  0.13947654956E+04  0.25500000920E-02 0. -1.
        2   -1    0    0  501    0  0.00000000000E+00  0.00000000000E+00 -0.19608142861E+04  0.19608142861E+04  0.25500000920E-02 0.  1.
    10030    2    1    2    0    0  0.00000000000E+00  0.00000000000E+00 -0.56604879045E+03  0.33555797817E+04  0.33074921675E+04 0.  0.
        1    1    3    3  502    0 -0.10848321580E+04  0.63459944176E+03 -0.13734999001E+04  0.18617409159E+04  0.50400001928E-02 0.  1.
       -1    1    3    3    0  502  0.10848321580E+04 -0.63459944176E+03  0.80745110963E+03  0.14938388658E+04  0.50400001928E-02 0. -1.
</event>
<event>
 5   0  0.6023446E-07  0.3316516E+04  0.7818609E-02  0.8158706E-01
        1   -1    0    0  501    0  0.00000000000E+00  0.00000000000E+00  0.21421854504E+04  0.21421854504E+04  0.50400001928E-02 0. -1.
       -1   -1    0    0    0  501  0.00000000000E+00  0.00000000000E+00 -0.12836515321E+04  0.12836515321E+04  0.50400001928E-02 0.  1.
    10030    2    1    2    0    0  0.00000000000E+00  0.00000000000E+00  0.85853391826E+03  0.34258369825E+04  0.33165160247E+04 0.  0.
        5    1    3    3  502    0 -0.95198276624E+03  0.52757405258E+03 -0.86304808443E+03  0.13890571098E+04  0.46999998093E+01 0.  1.
       -5    1    3    3    0  502  0.95198276624E+03 -0.52757405258E+03  0.17215820027E+04  0.20367798728E+04  0.46999998093E+01 0. -1.
</event>
<event>
 5   0  0.6023446E-07  0.3293586E+04  0.7818609E-02  0.8164529E-01
        1   -1    0    0  501    0  0.00000000000E+00  0.00000000000E+00  0.17994931308E+04  0.17994931308E+04  0.50400001928E-02 0.  1.
       -1   -1    0    0    0  501  0.00000000000E+00  0.00000000000E+00 -0.15070502758E+04  0.15070502759E+04  0.50400001928E-02 0. -1.
    10030    2    1    2    0    0  0.00000000000E+00  0.00000000000E+00  0.29244285494E+03  0.33065434067E+04  0.32935856565E+04 0.  0.
        5    1    3    3  502    0 -0.66520773983E+03 -0.10785514815E+04 -0.90964341781E+03  0.15598871347E+04  0.46999998093E+01 0. -1.
       -5    1    3    3    0  502  0.66520773983E+03  0.10785514815E+04  0.12020862727E+04  0.17466562720E+04  0.46999998093E+01 0.  1.
</event>
<event>
 5   0  0.1784626E-06  0.3297823E+04  0.7818609E-02  0.8163450E-01
        2   -1    0    0  501    0  0.00000000000E+00  0.00000000000E+00  0.15044016289E+04  0.15044016289E+04  0.25500000920E-02 0. -1.
       -2   -1    0    0    0  501  0.00000000000E+00  0.00000000000E+00 -0.18073022298E+04  0.18073022298E+04  0.25500000920E-02 0.  1.
    10030    2    1    2    0    0  0.00000000000E+00  0.00000000000E+00 -0.30290060093E+03  0.33117038587E+04  0.32978225655E+04 0.  0.
        2    1    3    3  502    0  0.46057555229E+03  0.15618832557E+04  0.10906269937E+03  0.16320244534E+04  0.25500000920E-02 0.  1.
       -2    1    3    3    0  502 -0.46057555229E+03 -0.15618832557E+04 -0.41196330030E+03  0.16796794053E+04  0.25500000920E-02 0. -1.
</event>
<event>
 5   0  0.5858859E-07  0.3302646E+04  0.7818609E-02  0.8162222E-01
        1   -1    0    0  501    0  0.00000000000E+00  0.00000000000E+00  0.15428994731E+04  0.15428994731E+04  0.50400001928E-02 0. -1.
       -1   -1    0    0    0  501  0.00000000000E+00  0.00000000000E+00 -0.17673660624E+04  0.17673660624E+04  0.50400001928E-02 0.  1.
    10030    2    1    2    0    0  0.00000000000E+00  0.00000000000E+00 -0.22446658925E+03  0.33102655355E+04  0.33026463126E+04 0.  0.
        3    1    3    3  502    0 -0.55248265115E+03  0.85577305419E+03  0.11904895921E+04  0.15667961192E+04  0.10100000352E+00 0. -1.
       -3    1    3    3    0  502  0.55248265115E+03 -0.85577305419E+03 -0.14149561814E+04  0.17434694163E+04  0.10100000352E+00 0.  1.
</event>
<event>
 5   0  0.6023446E-07  0.3315816E+04  0.7818609E-02  0.8158883E-01
        1   -1    0    0  501    0  0.00000000000E+00  0.00000000000E+00  0.23831337601E+04  0.23831337601E+04  0.50400001928E-02 0. -1.
       -1   -1    0    0    0  501  0.00000000000E+00  0.00000000000E+00 -0.11533800209E+04  0.11533800210E+04  0.50400001928E-02 0.  1.
    10030    2    1    2    0    0  0.00000000000E+00  0.00000000000E+00  0.12297537391E+04  0.35365137810E+04  0.33158159576E+04 0.  0.
        5    1    3    3  502    0  0.59462930331E+03  0.95179912202E+03  0.19163985859E+04  0.22208357001E+04  0.46999998093E+01 0. -1.
       -5    1    3    3    0  502 -0.59462930331E+03 -0.95179912202E+03 -0.68664484675E+03  0.13156780809E+04  0.46999998093E+01 0.  1.
</event>
<event>
 5   0  0.1743810E-06  0.3303528E+04  0.7818609E-02  0.8161998E-01
       -2   -1    0    0    0  501  0.00000000000E+00  0.00000000000E+00  0.13420593751E+04  0.13420593751E+04  0.25500000920E-02 0.  1.
        2   -1    0    0  501    0  0.00000000000E+00  0.00000000000E+00 -0.20329385779E+04  0.20329385779E+04  0.25500000920E-02 0. -1.
    10030    2    1    2    0    0  0.00000000000E+00  0.00000000000E+00 -0.69087920282E+03  0.33749979529E+04  0.33035279792E+04 0.  0.
        5    1    3    3  502    0 -0.16847928666E+03  0.16183273395E+04 -0.63608255029E+03  0.17469950626E+04  0.46999998093E+01 0. -1.
       -5    1    3    3    0  502  0.16847928666E+03 -0.16183273395E+04 -0.54796652526E+02  0.16280028904E+04  0.46999998093E+01 0.  1.
</event>
<event>
 5   0  0.1832626E-06  0.3267557E+04  0.7818609E-02  0.8171200E-01
       -2   -1    0    0    0  501  0.00000000000E+00  0.00000000000E+00  0.16585090864E+04  0.16585090864E+04  0.25500000920E-02 0.  1.
        2   -1    0    0  501    0  0.00000000000E+00  0.00000000000E+00 -0.16094169365E+04  0.16094169365E+04  0.25500000920E-02 0. -1.
    10030    2    1    2    0    0  0.00000000000E+00  0.00000000000E+00  0.49092149853E+02  0.32679260229E+04  0.32675572607E+04 0.  0.
        3    1    3    3  502    0 -0.14391677260E+04 -0.53351359193E+03  0.58442360310E+03  0.16423737255E+04  0.10100000352E+00 0.  1.
       -3    1    3    3    0  502  0.14391677260E+04  0.53351359193E+03 -0.53533145325E+03  0.16255522973E+04  0.10100000352E+00 0. -1.
</event>
<event>
 5   0  0.6023446E-07  0.3301324E+04  0.7818609E-02  0.8162559E-01
       -1   -1    0    0    0  501  0.00000000000E+00  0.00000000000E+00  0.12449697940E+04  0.12449697940E+04  0.50400001928E-02 0. -1.
        1   -1    0    0  501    0  0.00000000000E+00  0.00000000000E+00 -0.21885553577E+04  0.21885553577E+04  0.50400001928E-02 0.  1.
    10030    2    1    2    0    0  0.00000000000E+00  0.00000000000E+00 -0.94358556369E+03  0.34335251517E+04  0.33013241664E+04 0.  0.
        5    1    3    3  502    0 -0.61124244498E+03  0.39512112636E+03  0.10690627561E+04  0.12933117557E+04  0.46999998093E+01 0. -1.
       -5    1    3    3    0  502  0.61124244498E+03 -0.39512112636E+03 -0.20126483198E+04  0.21402133960E+04  0.46999998093E+01 0.  1.
</event>
<event>
 5   0  0.1784626E-06  0.3238073E+04  0.7818609E-02  0.8178834E-01
        2   -1    0    0  501    0  0.00000000000E+00  0.00000000000E+00  0.18957815983E+04  0.18957815983E+04  0.25500000920E-02 0. -1.
       -2   -1    0    0    0  501  0.00000000000E+00  0.00000000000E+00 -0.13826902998E+04  0.13826902998E+04  0.25500000920E-02 0.  1.
    10030    2    1    2    0    0  0.00000000000E+00  0.00000000000E+00  0.51309129845E+03  0.32784718981E+04  0.32380727765E+04 0.  0.
        2    1    3    3  502    0 -0.10612403135E+04 -0.69389885129E+03 -0.76276819304E+03  0.14797100848E+04  0.25500000920E-02 0.  1.
       -2    1    3    3    0  502  0.10612403135E+04  0.69389885129E+03  0.12758594915E+04  0.17987618133E+04  0.25500000920E-02 0. -1.
</event>
<event>
 5   0  0.6085351E-07  0.3297849E+04  0.7818609E-02  0.8163443E-01
       -1   -1    0    0    0  501  0.00000000000E+00  0.00000000000E+00  0.12522302843E+04  0.12522302843E+04  0.50400001928E-02 0. -1.
        1   -1    0    0  501    0  0.00000000000E+00  0.00000000000E+00 -0.21712876356E+04  0.21712876356E+04  0.50400001928E-02 0.  1.
    10030    2    1    2    0    0  0.00000000000E+00  0.00000000000E+00 -0.91905735131E+03  0.34235179200E+04  0.32978490768E+04 0.  0.
        1    1    3    3  502    0 -0.74796424387E+03 -0.68714543867E+03 -0.18080015022E+04  0.20737619911E+04  0.50400001928E-02 0.  1.
       -1    1    3    3    0  502  0.74796424387E+03  0.68714543867E+03  0.88894415087E+03  0.13497559288E+04  0.50400001928E-02 0. -1.
</event>
<event>
 5   0  0.1728937E-06  0.3305609E+04  0.7818609E-02  0.8161470E-01
       -2   -1    0    0    0  501  0.00000000000E+00  0.00000000000E+00  0.12565377948E+04  0.12565377948E+04  0.25500000920E-02 0.  1.
        2   -1    0    0  501    0  0.00000000000E+00  0.00000000000E+00 -0.21740397401E+04  0.21740397401E+04  0.25500000920E-02 0. -1.
    10030    2    1    2    0    0  0.00000000000E+00  0.00000000000E+00 -0.91750194532E+03  0.34305775348E+04  0.33056092332E+04 0.  0.
        1    1    3    3  502    0  0.11016001031E+04  0.11317553270E+04  0.46874352210E+02  0.15800601610E+04  0.50400001928E-02 0. -1.
       -1    1    3    3    0  502 -0.11016001031E+04 -0.11317553270E+04 -0.96437629753E+03  0.18505173738E+04  0.50400001928E-02 0.  1.
</event>
<event>
 5   0  0.5985183E-07  0.3678134E+04  0.7818609E-02  0.8072825E-01
       -1   -1    0    0    0  501  0.00000000000E+00  0.00000000000E+00  0.13876658079E+04  0.13876658079E+04  0.50400001928E-02 0.  1.
        1   -1    0    0  501    0  0.00000000000E+00  0.00000000000E+00 -0.24373069105E+04  0.24373069105E+04  0.50400001928E-02 0. -1.
    10030    2    1    2    0    0  0.00000000000E+00  0.00000000000E+00 -0.10496411026E+04  0.38249727184E+04  0.36781340177E+04 0.  0.
        2    1    3    3  502    0 -0.10339401048E+04 -0.55064002302E+03  0.94949808311E+03  0.15079068887E+04  0.25500000920E-02 0.  1.
       -2    1    3    3    0  502  0.10339401048E+04  0.55064002302E+03 -0.19991391857E+04  0.23170658297E+04  0.25500000920E-02 0. -1.
</event>
<event>
 5   0  0.5858859E-07  0.3368668E+04  0.7818609E-02  0.8145639E-01
       -1   -1    0    0    0  501  0.00000000000E+00  0.00000000000E+00  0.11383394329E+04  0.11383394329E+04  0.50400001928E-02 0. -1.
        1   -1    0    0  501    0  0.00000000000E+00  0.00000000000E+00 -0.24922098426E+04  0.24922098426E+04  0.50400001928E-02 0.  1.
    10030    2    1    2    0    0  0.00000000000E+00  0.00000000000E+00 -0.13538704097E+04  0.36305492756E+04  0.33686678311E+04 0.  0.
        3    1    3    3  502    0 -0.10066428945E+04 -0.70978582488E+03  0.56122613615E+03  0.13535511148E+04  0.10100000352E+00 0. -1.
       -3    1    3    3    0  502  0.10066428945E+04  0.70978582488E+03 -0.19150965459E+04  0.22769981608E+04  0.10100000352E+00 0.  1.
</event>
<event>
 5   0  0.6023446E-07  0.3255336E+04  0.7818609E-02  0.8174354E-01
        1   -1    0    0  501    0  0.00000000000E+00  0.00000000000E+00  0.15212838105E+04  0.15212838106E+04  0.50400001928E-02 0. -1.
       -1   -1    0    0    0  501  0.00000000000E+00  0.00000000000E+00 -0.17414920540E+04  0.17414920540E+04  0.50400001928E-02 0.  1.
    10030    2    1    2    0    0  0.00000000000E+00  0.00000000000E+00 -0.22020824346E+03  0.32627758646E+04  0.32553363378E+04 0.  0.
        5    1    3    3  502    0 -0.14370454845E+04 -0.74240837931E+03 -0.29221043551E+03  0.16436784828E+04  0.46999998093E+01 0. -1.
       -5    1    3    3    0  502  0.14370454845E+04  0.74240837931E+03  0.72002192044E+02  0.16190973818E+04  0.46999998093E+01 0.  1.
</event>
<event>
 5   0  0.5985183E-07  0.3281395E+04  0.7818609E-02  0.8167646E-01
        1   -1    0    0  501    0  0.00000000000E+00  0.00000000000E+00  0.16652763408E+04  0.16652763408E+04  0.50400001928E-02 0. -1.
       -1   -1    0    0    0  501  0.00000000000E+00  0.00000000000E+00 -0.16164813462E+04  0.16164813462E+04  0.50400001928E-02 0.  1.
    10030    2    1    2    0    0  0.00000000000E+00  0.00000000000E+00  0.48794994653E+02  0.32817576870E+04  0.32813949114E+04 0.  0.
        2    1    3    3  502    0 -0.14120564308E+04  0.23812754552E+03 -0.77649066651E+03  0.16289707938E+04  0.25500000920E-02 0.  1.
       -2    1    3    3    0  502  0.14120564308E+04 -0.23812754552E+03  0.82528566116E+03  0.16527868932E+04  0.25500000920E-02 0. -1.
</event>
<event>
 5   0  0.1696681E-06  0.3418617E+04  0.7818609E-02  0.8133352E-01
       -2   -1    0    0    0  501  0.00000000000E+00  0.00000000000E+00  0.11489187161E+04  0.11489187161E+04  0.25500000920E-02 0. -1.
        2   -1    0    0  501    0  0.00000000000E+00  0.00000000000E+00 -0.25430299976E+04  0.25430299976E+04  0.25500000920E-02 0.  1.
    10030    2    1    2    0    0  0.00000000000E+00  0.00000000000E+00 -0.13941112815E+04  0.36919487138E+04  0.34186165389E+04 0.  0.
        4    1    3    3  502    0  0.48864694926E+03  0.32115398295E+03  0.10375460126E+04  0.11909739976E+04  0.12699999809E+01 0. -1.
       -4    1    3    3    0  502 -0.48864694926E+03 -0.32115398295E+03 -0.24316572941E+04  0.25009747161E+04  0.12699999809E+01 0.  1.
</event>
<event>
 5   0  0.5988516E-07  0.3314949E+04  0.7818609E-02  0.8159102E-01
       -1   -1    0    0    0  501  0.00000000000E+00  0.00000000000E+00  0.12443167779E+04  0.12443167779E+04  0.50400001928E-02 0.  1.
        1   -1    0    0  501    0  0.00000000000E+00  0.00000000000E+00 -0.22078148956E+04  0.22078148957E+04  0.50400001928E-02 0. -1.
    10030    2    1    2    0    0  0.00000000000E+00  0.00000000000E+00 -0.96349811772E+03  0.34521316736E+04  0.33149486375E+04 0.  0.
        4    1    3    3  502    0  0.10469907423E+04 -0.96236013659E+03 -0.13683893422E+04  0.19735292376E+04  0.12699999809E+01 0. -1.
       -4    1    3    3    0  502 -0.10469907423E+04  0.96236013659E+03  0.40489122448E+03  0.14786024360E+04  0.12699999809E+01 0.  1.
</event>
<event>
 5   0  0.6023446E-07  0.3401622E+04  0.7818609E-02  0.8137508E-01
       -1   -1    0    0    0  501  0.00000000000E+00  0.00000000000E+00  0.18912374751E+04  0.18912374751E+04  0.50400001928E-02 0.  1.
        1   -1    0    0  501    0  0.00000000000E+00  0.00000000000E+00 -0.15295584856E+04  0.15295584856E+04  0.50400001928E-02 0. -1.
    10030    2    1    2    0    0  0.00000000000E+00  0.00000000000E+00  0.36167898950E+03  0.34207959608E+04  0.34016221592E+04 0.  0.
        5    1    3    3  502    0  0.16051596846E+04  0.54256121151E+03  0.32270648888E+02  0.16946898731E+04  0.46999998093E+01 0.  1.
       -5    1    3    3    0  502 -0.16051596846E+04 -0.54256121151E+03  0.32940834061E+03  0.17261060877E+04  0.46999998093E+01 0. -1.
</event>
<event>
 5   0  0.5985183E-07  0.3242761E+04  0.7818609E-02  0.8177614E-01
        1   -1    0    0  501    0  0.00000000000E+00  0.00000000000E+00  0.23267005758E+04  0.23267005758E+04  0.50400001928E-02 0. -1.
       -1   -1    0    0    0  501  0.00000000000E+00  0.00000000000E+00 -0.11298724381E+04  0.11298724381E+04  0.50400001928E-02 0.  1.
    10030    2    1    2    0    0  0.00000000000E+00  0.00000000000E+00  0.11968281377E+04  0.34565730139E+04  0.32427610780E+04 0.  0.
        2    1    3    3  502    0 -0.51520495516E+03  0.11860923821E+04 -0.44414656268E+03  0.13673029854E+04  0.25500000920E-02 0.  1.
       -2    1    3    3    0  502  0.51520495516E+03 -0.11860923821E+04  0.16409747004E+04  0.20892700285E+04  0.25500000920E-02 0. -1.
</event>
<event>
 5   0  0.1728937E-06  0.3093750E+04  0.7818609E-02  0.8217455E-01
        2   -1    0    0  501    0  0.00000000000E+00  0.00000000000E+00  0.13889985311E+04  0.13889985311E+04  0.25500000920E-02 0.  1.
       -2   -1    0    0    0  501  0.00000000000E+00  0.00000000000E+00 -0.17226959327E+04  0.17226959327E+04  0.25500000920E-02 0. -1.
    10030    2    1    2    0    0  0.00000000000E+00  0.00000000000E+00 -0.33369740158E+03  0.31116944638E+04  0.30937499059E+04 0.  0.
        1    1    3    3  502    0  0.12343655432E+04 -0.93222900216E+03 -0.17753640907E+03  0.15569933793E+04  0.50400001928E-02 0.  1.
       -1    1    3    3    0  502 -0.12343655432E+04  0.93222900216E+03 -0.15616099251E+03  0.15547010845E+04  0.50400001928E-02 0. -1.
</event>
<event>
 5   0  0.1832626E-06  0.3284171E+04  0.7818609E-02  0.8166935E-01
        2   -1    0    0  501    0  0.00000000000E+00  0.00000000000E+00  0.17689122603E+04  0.17689122603E+04  0.25500000920E-02 0. -1.
       -2   -1    0    0    0  501  0.00000000000E+00  0.00000000000E+00 -0.15243519676E+04  0.15243519676E+04  0.25500000920E-02 0.  1.
    10030    2    1    2    0    0  0.00000000000E+00  0.00000000000E+00  0.24456029278E+03  0.32932642279E+04  0.32841710580E+04 0.  0.
        3    1    3    3  502    0 -0.11252814059E+04 -0.86220377551E+03 -0.70874314077E+03  0.15849196960E+04  0.10100000352E+00 0.  1.
       -3    1    3    3    0  502  0.11252814059E+04  0.86220377551E+03  0.95330343355E+03  0.17083445319E+04  0.10100000352E+00 0. -1.
</event>
<event>
 5   0  0.1832626E-06  0.3302917E+04  0.7818609E-02  0.8162153E-01
        2   -1    0    0  501    0  0.00000000000E+00  0.00000000000E+00  0.18278785787E+04  0.18278785787E+04  0.25500000920E-02 0. -1.
       -2   -1    0    0    0  501  0.00000000000E+00  0.00000000000E+00 -0.14920661456E+04  0.14920661456E+04  0.25500000920E-02 0.  1.
    10030    2    1    2    0    0  0.00000000000E+00  0.00000000000E+00  0.33581243307E+03  0.33199447243E+04  0.33029173441E+04 0.  0.
        3    1    3    3  502    0  0.12955407286E+03  0.98411987533E+03  0.14945739071E+04  0.17941648087E+04  0.10100000352E+00 0. -1.
       -3    1    3    3    0  502 -0.12955407286E+03 -0.98411987533E+03 -0.11587614740E+04  0.15257799156E+04  0.10100000352E+00 0.  1.
</event>
<event>
 5   0  0.5988516E-07  0.3277073E+04  0.7818609E-02  0.8168754E-01
        1   -1    0    0  501    0  0.00000000000E+00  0.00000000000E+00  0.23390254305E+04  0.23390254305E+04  0.50400001928E-02 0. -1.
       -1   -1    0    0    0  501  0.00000000000E+00  0.00000000000E+00 -0.11478294400E+04  0.11478294400E+04  0.50400001928E-02 0.  1.
    10030    2    1    2    0    0  0.00000000000E+00  0.00000000000E+00  0.11911959906E+04  0.34868548705E+04  0.32770732369E+04 0.  0.
        4    1    3    3  502    0  0.13516841649E+04 -0.74757791884E+03  0.13904026252E+02  0.15447063673E+04  0.12699999809E+01 0.  1.
       -4    1    3    3    0  502 -0.13516841649E+04  0.74757791884E+03  0.11772919643E+04  0.19421485032E+04  0.12699999809E+01 0. -1.
</event>
<event>
 5   0  0.1728937E-06  0.3295966E+04  0.7818609E-02  0.8163923E-01
        2   -1    0    0  501    0  0.00000000000E+00  0.00000000000E+00  0.12336846358E+04  0.12336846358E+04  0.25500000920E-02 0. -1.
       -2   -1    0    0    0  501  0.00000000000E+00  0.00000000000E+00 -0.22014114428E+04  0.22014114428E+04  0.25500000920E-02 0.  1.
    10030    2    1    2    0    0  0.00000000000E+00  0.00000000000E+00 -0.96772680703E+03  0.34350960786E+04  0.32959657001E+04 0.  0.
        1    1    3    3  502    0 -0.60021735377E+03 -0.80328745630E+03 -0.18468587317E+04  0.21015277263E+04  0.50400001928E-02 0.  1.
       -1    1    3    3    0  502  0.60021735377E+03  0.80328745630E+03  0.87913192470E+03  0.13335683523E+04  0.50400001928E-02 0. -1.
</event>
<event>
 5   0  0.5985183E-07  0.3515085E+04  0.7818609E-02  0.8110224E-01
        1   -1    0    0  501    0  0.00000000000E+00  0.00000000000E+00  0.11626350018E+04  0.11626350018E+04  0.50400001928E-02 0. -1.
       -1   -1    0    0    0  501  0.00000000000E+00  0.00000000000E+00 -0.26568583381E+04  0.26568583381E+04  0.50400001928E-02 0.  1.
    10030    2    1    2    0    0  0.00000000000E+00  0.00000000000E+00 -0.14942233363E+04  0.38194933399E+04  0.35150854889E+04 0.  0.
        2    1    3    3  502    0  0.12889926021E+04 -0.61856889973E+03 -0.18577996607E+04  0.23442587296E+04  0.25500000920E-02 0.  1.
       -2    1    3    3    0  502 -0.12889926021E+04  0.61856889973E+03  0.36357632433E+03  0.14752346103E+04  0.25500000920E-02 0. -1.
</event>
<event>
 5   0  0.5858859E-07  0.3259669E+04  0.7818609E-02  0.8173234E-01
       -1   -1    0    0    0  501  0.00000000000E+00  0.00000000000E+00  0.17435019548E+04  0.17435019548E+04  0.50400001928E-02 0. -1.
        1   -1    0    0  501    0  0.00000000000E+00  0.00000000000E+00 -0.15235771350E+04  0.15235771350E+04  0.50400001928E-02 0.  1.
    10030    2    1    2    0    0  0.00000000000E+00  0.00000000000E+00  0.21992481979E+03  0.32670790898E+04  0.32596685188E+04 0.  0.
        3    1    3    3  502    0  0.13307022375E+04 -0.81155286002E+03  0.58746256050E+03  0.16656826708E+04  0.10100000352E+00 0. -1.
       -3    1    3    3    0  502 -0.13307022375E+04  0.81155286002E+03 -0.36753774071E+03  0.16013964190E+04  0.10100000352E+00 0.  1.
</event>
<event>
 5   0  0.6023446E-07  0.3301995E+04  0.7818609E-02  0.8162388E-01
       -1   -1    0    0    0  501  0.00000000000E+00  0.00000000000E+00  0.18769505208E+04  0.18769505208E+04  0.50400001928E-02 0.  1.
        1   -1    0    0  501    0  0.00000000000E+00  0.00000000000E+00 -0.14522450112E+04  0.14522450112E+04  0.50400001928E-02 0. -1.
    10030    2    1    2    0    0  0.00000000000E+00  0.00000000000E+00  0.42470550960E+03  0.33291955320E+04  0.33019945670E+04 0.  0.
        5    1    3    3  502    0 -0.83775463364E+03  0.34186394855E+03 -0.11799889382E+04  0.14869767214E+04  0.46999998093E+01 0. -1.
       -5    1    3    3    0  502  0.83775463364E+03 -0.34186394855E+03  0.16046944478E+04  0.18422188107E+04  0.46999998093E+01 0.  1.
</event>
<event>
 5   0  0.1784626E-06  0.3306913E+04  0.7818609E-02  0.8161139E-01
       -2   -1    0    0    0  501  0.00000000000E+00  0.00000000000E+00  0.17798383551E+04  0.17798383551E+04  0.25500000920E-02 0. -1.
        2   -1    0    0  501    0  0.00000000000E+00  0.00000000000E+00 -0.15360485621E+04  0.15360485621E+04  0.25500000920E-02 0.  1.
    10030    2    1    2    0    0  0.00000000000E+00  0.00000000000E+00  0.24378979299E+03  0.33158869172E+04  0.33069128481E+04 0.  0.
        2    1    3    3  502    0  0.30626886289E+03 -0.13470194813E+04 -0.78922712747E+03  0.15909561773E+04  0.25500000920E-02 0.  1.
       -2    1    3    3    0  502 -0.30626886289E+03  0.13470194813E+04  0.10330169205E+04  0.17249307399E+04  0.25500000920E-02 0. -1.
</event>
<event>
 5   0  0.1728937E-06  0.3303594E+04  0.7818609E-02  0.8161982E-01
       -2   -1    0    0    0  501  0.00000000000E+00  0.00000000000E+00  0.16502533355E+04  0.16502533355E+04  0.25500000920E-02 0. -1.
        2   -1    0    0  501    0  0.00000000000E+00  0.00000000000E+00 -0.16533420743E+04  0.16533420743E+04  0.25500000920E-02 0.  1.
    10030    2    1    2    0    0  0.00000000000E+00  0.00000000000E+00 -0.30887387760E+01  0.33035954097E+04  0.33035939658E+04 0.  0.
        1    1    3    3  502    0  0.82382531253E+03  0.58841284187E+03  0.13036441012E+04  0.16505774022E+04  0.50400001928E-02 0. -1.
       -1    1    3    3    0  502 -0.82382531253E+03 -0.58841284187E+03 -0.13067328400E+04  0.16530180075E+04  0.50400001928E-02 0.  1.
</event>
<event>
 5   0  0.1743810E-06  0.3278044E+04  0.7818609E-02  0.8168505E-01
        2   -1    0    0  501    0  0.00000000000E+00  0.00000000000E+00  0.10013329470E+04  0.10013329470E+04  0.25500000920E-02 0. -1.
       -2   -1    0    0    0  501  0.00000000000E+00  0.00000000000E+00 -0.26828177702E+04  0.26828177702E+04  0.25500000920E-02 0.  1.
    10030    2    1    2    0    0  0.00000000000E+00  0.00000000000E+00 -0.16814848232E+04  0.36841507173E+04  0.32780444318E+04 0.  0.
        5    1    3    3  502    0 -0.21278069050E+03  0.14492001596E+04 -0.14158269581E+02  0.14648137327E+04  0.46999998093E+01 0.  1.
       -5    1    3    3    0  502  0.21278069050E+03 -0.14492001596E+04 -0.16673265536E+04  0.22193369846E+04  0.46999998093E+01 0. -1.
</event>
<event>
 5   0  0.5985183E-07  0.3111295E+04  0.7818609E-02  0.8212645E-01
        1   -1    0    0  501    0  0.00000000000E+00  0.00000000000E+00  0.21409561066E+04  0.21409561066E+04  0.50400001928E-02 0. -1.
       -1   -1    0    0    0  501  0.00000000000E+00  0.00000000000E+00 -0.11303540428E+04  0.11303540428E+04  0.50400001928E-02 0.  1.
    10030    2    1    2    0    0  0.00000000000E+00  0.00000000000E+00  0.10106020638E+04  0.32713101494E+04  0.31112945156E+04 0.  0.
        2    1    3    3  502    0 -0.30960011897E+03  0.97867327227E+02  0.21049302789E+04  0.21298266893E+04  0.25500000920E-02 0. -1.
       -2    1    3    3    0  502  0.30960011897E+03 -0.97867327227E+02 -0.10943282151E+04  0.11414834602E+04  0.25500000920E-02 0.  1.
</event>
<event>
 5   0  0.1696681E-06  0.3279064E+04  0.7818609E-02  0.8168243E-01
       -2   -1    0    0    0  501  0.00000000000E+00  0.00000000000E+00  0.95022829855E+03  0.95022829856E+03  0.25500000920E-02 0. -1.
        2   -1    0    0  501    0  0.00000000000E+00  0.00000000000E+00 -0.28288631077E+04  0.28288631077E+04  0.25500000920E-02 0.  1.
    10030    2    1    2    0    0  0.00000000000E+00  0.00000000000E+00 -0.18786348091E+04  0.37790914062E+04  0.32790643651E+04 0.  0.
        4    1    3    3  502    0 -0.10816097211E+04 -0.63728688131E+03 -0.21546625021E+04  0.24937093393E+04  0.12699999809E+01 0.  1.
       -4    1    3    3    0  502  0.10816097211E+04  0.63728688131E+03  0.27602769298E+03  0.12853820670E+04  0.12699999809E+01 0. -1.
</event>
<event>
 5   0  0.1728937E-06  0.3150627E+04  0.7818609E-02  0.8201980E-01
        2   -1    0    0  501    0  0.00000000000E+00  0.00000000000E+00  0.19882360087E+04  0.19882360087E+04  0.25500000920E-02 0. -1.
       -2   -1    0    0    0  501  0.00000000000E+00  0.00000000000E+00 -0.12481479207E+04  0.12481479207E+04  0.25500000920E-02 0.  1.
    10030    2    1    2    0    0  0.00000000000E+00  0.00000000000E+00  0.74008808803E+03  0.32363839294E+04  0.31506270107E+04 0.  0.
        1    1    3    3  502    0  0.50686392232E+03 -0.14213631068E+04  0.83448850680E+03  0.17243999493E+04  0.50400001928E-02 0. -1.
       -1    1    3    3    0  502 -0.50686392232E+03  0.14213631068E+04 -0.94400418770E+02  0.15119839801E+04  0.50400001928E-02 0.  1.
</event>
<event>
 5   0  0.6085351E-07  0.3327338E+04  0.7818609E-02  0.8155974E-01
       -1   -1    0    0    0  501  0.00000000000E+00  0.00000000000E+00  0.11117488627E+04  0.11117488627E+04  0.50400001928E-02 0.  1.
        1   -1    0    0  501    0  0.00000000000E+00  0.00000000000E+00 -0.24895856751E+04  0.24895856751E+04  0.50400001928E-02 0. -1.
    10030    2    1    2    0    0  0.00000000000E+00  0.00000000000E+00 -0.13778368124E+04  0.36013345379E+04  0.33273377003E+04 0.  0.
        1    1    3    3  502    0 -0.27338059718E+03  0.16263016106E+04 -0.45129411181E+03  0.17097544429E+04  0.50400001928E-02 0.  1.
       -1    1    3    3    0  502  0.27338059718E+03 -0.16263016106E+04 -0.92654270057E+03  0.18915800950E+04  0.50400001928E-02 0. -1.
</event>
<event>
 5   0  0.6023446E-07  0.2851424E+04  0.7818609E-02  0.8287479E-01
        1   -1    0    0  501    0  0.00000000000E+00  0.00000000000E+00  0.78804323298E+03  0.78804323300E+03  0.50400001928E-02 0. -1.
       -1   -1    0    0    0  501  0.00000000000E+00  0.00000000000E+00 -0.25793688249E+04  0.25793688249E+04  0.50400001928E-02 0.  1.
    10030    2    1    2    0    0  0.00000000000E+00  0.00000000000E+00 -0.17913255919E+04  0.33674120579E+04  0.28514236079E+04 0.  0.
        5    1    3    3  502    0 -0.80925445641E+03  0.90447520634E+03 -0.17791457257E+04  0.21536828405E+04  0.46999998093E+01 0.  1.
       -5    1    3    3    0  502  0.80925445641E+03 -0.90447520634E+03 -0.12179866218E+02  0.12137292174E+04  0.46999998093E+01 0. -1.
</event>
<event>
 5   0  0.1743810E-06  0.2899319E+04  0.7818609E-02  0.8273080E-01
       -2   -1    0    0    0  501  0.00000000000E+00  0.00000000000E+00  0.11539656539E+04  0.11539656539E+04  0.25500000920E-02 0.  1.
        2   -1    0    0  501    0  0.00000000000E+00  0.00000000000E+00 -0.18211222054E+04  0.18211222054E+04  0.25500000920E-02 0. -1.
    10030    2    1    2    0    0  0.00000000000E+00  0.00000000000E+00 -0.66715655155E+03  0.29750878593E+04  0.28993188693E+04 0.  0.
        5    1    3    3  502    0  0.79886612525E+03 -0.29251107614E+03 -0.15380248407E+04  0.17576382780E+04  0.46999998093E+01 0. -1.
       -5    1    3    3    0  502 -0.79886612525E+03  0.29251107614E+03  0.87086828917E+03  0.12174495812E+04  0.46999998093E+01 0.  1.
</event>
<event>
 5   0  0.1743810E-06  0.3298189E+04  0.7818609E-02  0.8163356E-01
       -2   -1    0    0    0  501  0.00000000000E+00  0.00000000000E+00  0.12420784830E+04  0.12420784830E+04  0.25500000920E-02 0.  1.
        2   -1    0    0  501    0  0.00000000000E+00  0.00000000000E+00 -0.21894858653E+04  0.21894858653E+04  0.25500000920E-02 0. -1.
    10030    2    1    2    0    0  0.00000000000E+00  0.00000000000E+00 -0.94740738227E+03  0.34315643483E+04  0.32981893712E+04 0.  0.
        5    1    3    3  502    0  0.25064582280E+03 -0.59940715805E+02  0.12209904221E+04  0.12479006045E+04  0.46999998093E+01 0.  1.
       -5    1    3    3    0  502 -0.25064582280E+03  0.59940715805E+02 -0.21683978044E+04  0.21836637438E+04  0.46999998093E+01 0. -1.
</event>
<event>
 5   0  0.1743810E-06  0.3291325E+04  0.7818609E-02  0.8165106E-01
        2   -1    0    0  501    0  0.00000000000E+00  0.00000000000E+00  0.20204150579E+04  0.20204150579E+04  0.25500000920E-02 0.  1.
       -2   -1    0    0    0  501  0.00000000000E+00  0.00000000000E+00 -0.13404205356E+04  0.13404205356E+04  0.25500000920E-02 0. -1.
    10030    2    1    2    0    0  0.00000000000E+00  0.00000000000E+00  0.67999452221E+03  0.33608355935E+04  0.32913254680E+04 0.  0.
        5    1    3    3  502    0 -0.10608666385E+04 -0.20318632122E+03 -0.92777928694E+03  0.14239098290E+04  0.46999998093E+01 0. -1.
       -5    1    3    3    0  502  0.10608666385E+04  0.20318632122E+03  0.16077738091E+04  0.19369257645E+04  0.46999998093E+01 0.  1.
</event>
<event>
 5   0  0.1696681E-06  0.3293231E+04  0.7818609E-02  0.8164620E-01
       -2   -1    0    0    0  501  0.00000000000E+00  0.00000000000E+00  0.12651822079E+04  0.12651822079E+04  0.25500000920E-02 0.  1.
        2   -1    0    0  501    0  0.00000000000E+00  0.00000000000E+00 -0.21430447284E+04  0.21430447284E+04  0.25500000920E-02 0. -1.
    10030    2    1    2    0    0  0.00000000000E+00  0.00000000000E+00 -0.87786252045E+03  0.34082269363E+04  0.32932306698E+04 0.  0.
        4    1    3    3  502    0  0.44149296477E+03 -0.15391307577E+04 -0.83640067842E+03  0.18064903086E+04  0.12699999809E+01 0.  1.
       -4    1    3    3    0  502 -0.44149296477E+03  0.15391307577E+04 -0.41461842030E+02  0.16017366277E+04  0.12699999809E+01 0. -1.
</event>
<event>
 5   0  0.1696681E-06  0.3370725E+04  0.7818609E-02  0.8145129E-01
       -2   -1    0    0    0  501  0.00000000000E+00  0.00000000000E+00  0.14234851540E+04  0.14234851540E+04  0.25500000920E-02 0. -1.
        2   -1    0    0  501    0  0.00000000000E+00  0.00000000000E+00 -0.19954177105E+04  0.19954177105E+04  0.25500000920E-02 0.  1.
    10030    2    1    2    0    0  0.00000000000E+00  0.00000000000E+00 -0.57193255648E+03  0.34189028645E+04  0.33707254334E+04 0.  0.
        4    1    3    3  502    0  0.52703499404E+03 -0.12028994576E+04 -0.13573365914E+04  0.18886760509E+04  0.12699999809E+01 0. -1.
       -4    1    3    3    0  502 -0.52703499404E+03  0.12028994576E+04  0.78540403491E+03  0.15302268136E+04  0.12699999809E+01 0.  1.
</event>
<event>
 5   0  0.6023446E-07  0.3430453E+04  0.7818609E-02  0.8130472E-01
        1   -1    0    0  501    0  0.00000000000E+00  0.00000000000E+00  0.12616763731E+04  0.12616763731E+04  0.50400001928E-02 0. -1.
       -1   -1    0    0    0  501  0.00000000000E+00  0.00000000000E+00 -0.23318198689E+04  0.23318198689E+04  0.50400001928E-02 0.  1.
    10030    2    1    2    0    0  0.00000000000E+00  0.00000000000E+00 -0.10701434958E+04  0.35934962420E+04  0.34304530517E+04 0.  0.
        5    1    3    3  502    0  0.13278346987E+04  0.76236121287E+03 -0.13448864678E+04  0.20379110156E+04  0.46999998093E+01 0.  1.
       -5    1    3    3    0  502 -0.13278346987E+04 -0.76236121287E+03  0.27474297204E+03  0.15555852265E+04  0.46999998093E+01 0. -1.
</event>
<event>
 5   0  0.1832626E-06  0.3643328E+04  0.7818609E-02  0.8080638E-01
       -2   -1    0    0    0  501  0.00000000000E+00  0.00000000000E+00  0.15436933467E+04  0.15436933467E+04  0.25500000920E-02 0. -1.
        2   -1    0    0  501    0  0.00000000000E+00  0.00000000000E+00 -0.21496888737E+04  0.21496888737E+04  0.25500000920E-02 0.  1.
    10030    2    1    2    0    0  0.00000000000E+00  0.00000000000E+00 -0.60599552697E+03  0.36933822204E+04  0.36433283749E+04 0.  0.
        3    1    3    3  502    0  0.15252367139E+04  0.99523701593E+03 -0.26223778123E+03  0.18400033737E+04  0.10100000352E+00 0. -1.
       -3    1    3    3    0  502 -0.15252367139E+04 -0.99523701593E+03 -0.34375774574E+03  0.18533788466E+04  0.10100000352E+00 0.  1.
</event>
<event>
 5   0  0.1784626E-06  0.3293055E+04  0.7818609E-02  0.8164665E-01
        2   -1    0    0  501    0  0.00000000000E+00  0.00000000000E+00  0.94241869059E+03  0.94241869059E+03  0.25500000920E-02 0.  1.
       -2   -1    0    0    0  501  0.00000000000E+00  0.00000000000E+00 -0.28766967085E+04  0.28766967085E+04  0.25500000920E-02 0. -1.
    10030    2    1    2    0    0  0.00000000000E+00  0.00000000000E+00 -0.19342780179E+04  0.38191153991E+04  0.32930549617E+04 0.  0.
        2    1    3    3  502    0  0.13749014867E+04  0.78240035352E+03 -0.43751560985E+03  0.16413178608E+04  0.25500000920E-02 0.  1.
       -2    1    3    3    0  502 -0.13749014867E+04 -0.78240035352E+03 -0.14967624081E+04  0.21777975383E+04  0.25500000920E-02 0. -1.
</event>
<event>
 5   0  0.5858859E-07  0.3284942E+04  0.7818609E-02  0.8166738E-01
        1   -1    0    0  501    0  0.00000000000E+00  0.00000000000E+00  0.25590908177E+04  0.25590908177E+04  0.50400001928E-02 0.  1.
       -1   -1    0    0    0  501  0.00000000000E+00  0.00000000000E+00 -0.10541675504E+04  0.10541675505E+04  0.50400001928E-02 0. -1.
    10030    2    1    2    0    0  0.00000000000E+00  0.00000000000E+00  0.15049232673E+04  0.36132583682E+04  0.32849417034E+04 0.  0.
        3    1    3    3  502    0  0.41812092002E+02  0.13920424345E+04  0.17102234980E+04  0.22055373072E+04  0.10100000352E+00 0.  1.
       -3    1    3    3    0  502 -0.41812092002E+02 -0.13920424345E+04 -0.20530023065E+03  0.14077210609E+04  0.10100000352E+00 0. -1.
</event>
<event>
 5   0  0.1743810E-06  0.3288293E+04  0.7818609E-02  0.8165881E-01
       -2   -1    0    0    0  501  0.00000000000E+00  0.00000000000E+00  0.10394449461E+04  0.10394449461E+04  0.25500000920E-02 0.  1.
        2   -1    0    0  501    0  0.00000000000E+00  0.00000000000E+00 -0.26006358570E+04  0.26006358570E+04  0.25500000920E-02 0. -1.
    10030    2    1    2    0    0  0.00000000000E+00  0.00000000000E+00 -0.15611909109E+04  0.36400808030E+04  0.32882930515E+04 0.  0.
        5    1    3    3  502    0  0.13685125824E+04 -0.31901017846E+03 -0.17254948000E+04  0.22252974132E+04  0.46999998093E+01 0. -1.
       -5    1    3    3    0  502 -0.13685125824E+04  0.31901017846E+03  0.16430388915E+03  0.14147833898E+04  0.46999998093E+01 0.  1.
</event>
<event>
 5   0  0.1784626E-06  0.3291369E+04  0.7818609E-02  0.8165095E-01
       -2   -1    0    0    0  501  0.00000000000E+00  0.00000000000E+00  0.18763680991E+04  0.18763680991E+04  0.25500000920E-02 0. -1.
        2   -1    0    0  501    0  0.00000000000E+00  0.00000000000E+00 -0.14433611957E+04  0.14433611957E+04  0.25500000920E-02 0.  1.
    10030    2    1    2    0    0  0.00000000000E+00  0.00000000000E+00  0.43300690340E+03  0.33197292949E+04  0.32913686534E+04 0.  0.
        2    1    3    3  502    0  0.41558473837E+03  0.14896119435E+04 -0.35103725891E+03  0.15858378146E+04  0.25500000920E-02 0. -1.
       -2    1    3    3    0  502 -0.41558473837E+03 -0.14896119435E+04  0.78404416231E+03  0.17338914803E+04  0.25500000920E-02 0.  1.
</event>
<event>
 5   0  0.6085351E-07  0.3303032E+04  0.7818609E-02  0.8162124E-01
       -1   -1    0    0    0  501  0.00000000000E+00  0.00000000000E+00  0.28751690778E+04  0.28751690778E+04  0.50400001928E-02 0. -1.
        1   -1    0    0  501    0  0.00000000000E+00  0.00000000000E+00 -0.94864180118E+03  0.94864180119E+03  0.50400001928E-02 0.  1.
    10030    2    1    2    0    0  0.00000000000E+00  0.00000000000E+00  0.19265272766E+04  0.38238108790E+04  0.33030322873E+04 0.  0.
        1    1    3    3  502    0 -0.39241640635E+03 -0.57521919183E+03 -0.77039327687E+03  0.10384476663E+04  0.50400001928E-02 0.  1.
       -1    1    3    3    0  502  0.39241640635E+03  0.57521919183E+03  0.26969205535E+04  0.27853632127E+04  0.50400001928E-02 0. -1.
</event>
<event>
 5   0  0.1743810E-06  0.3269331E+04  0.7818609E-02  0.8170743E-01
       -2   -1    0    0    0  501  0.00000000000E+00  0.00000000000E+00  0.17492058702E+04  0.17492058702E+04  0.25500000920E-02 0.  1.
        2   -1    0    0  501    0  0.00000000000E+00  0.00000000000E+00 -0.15276252041E+04  0.15276252041E+04  0.25500000920E-02 0. -1.
    10030    2    1    2    0    0  0.00000000000E+00  0.00000000000E+00  0.22158066614E+03  0.32768310743E+04  0.32693308027E+04 0.  0.
        5    1    3    3  502    0  0.83374734382E+03 -0.96311482820E+03 -0.91595425533E+03  0.15689866454E+04  0.46999998093E+01 0. -1.
       -5    1    3    3    0  502 -0.83374734382E+03  0.96311482820E+03  0.11375349215E+04  0.17078444289E+04  0.46999998093E+01 0.  1.
</event>
<event>
 5   0  0.1743810E-06  0.3251318E+04  0.7818609E-02  0.8175394E-01
       -2   -1    0    0    0  501  0.00000000000E+00  0.00000000000E+00  0.25291957303E+04  0.25291957303E+04  0.25500000920E-02 0.  1.
        2   -1    0    0  501    0  0.00000000000E+00  0.00000000000E+00 -0.10449042496E+04  0.10449042496E+04  0.25500000920E-02 0. -1.
    10030    2    1    2    0    0  0.00000000000E+00  0.00000000000E+00  0.14842914807E+04  0.35740999799E+04  0.32513181122E+04 0.  0.
        5    1    3    3  502    0  0.12578076961E+04  0.67422860924E+03 -0.11365472408E+03  0.14316437770E+04  0.46999998093E+01 0. -1.
       -5    1    3    3    0  502 -0.12578076961E+04 -0.67422860924E+03  0.15979462048E+04  0.21424562029E+04  0.46999998093E+01 0.  1.
</event>
<event>
 5   0  0.1832626E-06  0.3078316E+04  0.7818609E-02  0.8221714E-01
        2   -1    0    0  501    0  0.00000000000E+00  0.00000000000E+00  0.23803017352E+04  0.23803017352E+04  0.25500000920E-02 0. -1.
       -2   -1    0    0    0  501  0.00000000000E+00  0.00000000000E+00 -0.99525494695E+03  0.99525494695E+03  0.25500000920E-02 0.  1.
    10030    2    1    2    0    0  0.00000000000E+00  0.00000000000E+00  0.13850467882E+04  0.33755566821E+04  0.30783158234E+04 0.  0.
        3    1    3    3  502    0  0.12329649414E+03 -0.29339536601E+03 -0.95878180280E+03  0.10102204818E+04  0.10100000352E+00 0.  1.
       -3    1    3    3    0  502 -0.12329649414E+03  0.29339536601E+03  0.23438285910E+04  0.23653362003E+04  0.10100000352E+00 0. -1.
</event>
<event>
 5   0  0.5985183E-07  0.3262743E+04  0.7818609E-02  0.8172441E-01
       -1   -1    0    0    0  501  0.00000000000E+00  0.00000000000E+00  0.20807048970E+04  0.20807048970E+04  0.50400001928E-02 0.  1.
        1   -1    0    0  501    0  0.00000000000E+00  0.00000000000E+00 -0.12790727917E+04  0.12790727917E+04  0.50400001928E-02 0. -1.
    10030    2    1    2    0    0  0.00000000000E+00  0.00000000000E+00  0.80163210528E+03  0.33597776887E+04  0.32627430308E+04 0.  0.
        2    1    3    3  502    0 -0.10970389288E+03  0.98815522621E+03 -0.93105143216E+03  0.13621095641E+04  0.25500000920E-02 0. -1.
       -2    1    3    3    0  502  0.10970389288E+03 -0.98815522621E+03  0.17326835374E+04  0.19976681246E+04  0.25500000920E-02 0.  1.
</event>
<event>
 5   0  0.6023446E-07  0.3199066E+04  0.7818609E-02  0.8189064E-01
       -1   -1    0    0    0  501  0.00000000000E+00  0.00000000000E+00  0.14177120402E+04  0.14177120402E+04  0.50400001928E-02 0. -1.
        1   -1    0    0  501    0  0.00000000000E+00  0.00000000000E+00 -0.18046721114E+04  0.18046721114E+04  0.50400001928E-02 0.  1.
    10030    2    1    2    0    0  0.00000000000E+00  0.00000000000E+00 -0.38696007125E+03  0.32223841516E+04  0.31990657267E+04 0.  0.
        5    1    3    3  502    0 -0.12384204158E+04  0.90469195261E+02 -0.12091019985E+04  0.17331530614E+04  0.46999998093E+01 0.  1.
       -5    1    3    3    0  502  0.12384204158E+04 -0.90469195261E+02  0.82214192722E+03  0.14892310902E+04  0.46999998093E+01 0. -1.
</event>
<event>
 5   0  0.1784626E-06  0.3322353E+04  0.7818609E-02  0.8157231E-01
       -2   -1    0    0    0  501  0.00000000000E+00  0.00000000000E+00  0.15620417648E+04  0.15620417648E+04  0.25500000920E-02 0. -1.
        2   -1    0    0  501    0  0.00000000000E+00  0.00000000000E+00 -0.17666027485E+04  0.17666027485E+04  0.25500000920E-02 0.  1.
    10030    2    1    2    0    0  0.00000000000E+00  0.00000000000E+00 -0.20456098366E+03  0.33286445134E+04  0.33223529464E+04 0.  0.
        2    1    3    3  502    0 -0.37772282242E+03  0.62064462271E+03 -0.15989745564E+04  0.17563012015E+04  0.25500000920E-02 0.  1.
       -2    1    3    3    0  502  0.37772282242E+03 -0.62064462271E+03  0.13944135728E+04  0.15723433118E+04  0.25500000920E-02 0. -1.
</event>
<event>
 5   0  0.1728937E-06  0.3313503E+04  0.7818609E-02  0.8159468E-01
        2   -1    0    0  501    0  0.00000000000E+00  0.00000000000E+00  0.17566753802E+04  0.17566753802E+04  0.25500000920E-02 0.  1.
       -2   -1    0    0    0  501  0.00000000000E+00  0.00000000000E+00 -0.15625113222E+04  0.15625113222E+04  0.25500000920E-02 0. -1.
    10030    2    1    2    0    0  0.00000000000E+00  0.00000000000E+00  0.19416405796E+03  0.33191867024E+04  0.33135027816E+04 0.  0.
        1    1    3    3  502    0  0.15725626437E+04  0.13156369287E+03  0.60248977654E+03  0.16891584308E+04  0.50400001928E-02 0.  1.
       -1    1    3    3    0  502 -0.15725626437E+04 -0.13156369287E+03 -0.40832571858E+03  0.16300282715E+04  0.50400001928E-02 0. -1.
</event>
<event>
 5   0  0.5988516E-07  0.3644536E+04  0.7818609E-02  0.8080366E-01
       -1   -1    0    0    0  501  0.00000000000E+00  0.00000000000E+00  0.15448338356E+04  0.15448338356E+04  0.50400001928E-02 0. -1.
        1   -1    0    0  501    0  0.00000000000E+00  0.00000000000E+00 -0.21495259392E+04  0.21495259392E+04  0.50400001928E-02 0.  1.
    10030    2    1    2    0    0  0.00000000000E+00  0.00000000000E+00 -0.60469210358E+03  0.36943597748E+04  0.36445358560E+04 0.  0.
        4    1    3    3  502    0 -0.15340238691E+03 -0.24263299963E+03 -0.21264623784E+04  0.21457509000E+04  0.12699999809E+01 0.  1.
       -4    1    3    3    0  502  0.15340238691E+03  0.24263299963E+03  0.15217702749E+04  0.15486088748E+04  0.12699999809E+01 0. -1.
</event>
<event>
 5   0  0.5858859E-07  0.3288333E+04  0.7818609E-02  0.8165870E-01
        1   -1    0    0  501    0  0.00000000000E+00  0.00000000000E+00  0.16364439893E+04  0.16364439893E+04  0.50400001928E-02 0.  1.
       -1   -1    0    0    0  501  0.00000000000E+00  0.00000000000E+00 -0.16519251001E+04  0.16519251001E+04  0.50400001928E-02 0. -1.
    10030    2    1    2    0    0  0.00000000000E+00  0.00000000000E+00 -0.15481110778E+02  0.32883690895E+04  0.32883326480E+04 0.  0.
        3    1    3    3  502    0  0.13527111079E+04 -0.93106550918E+03  0.73331713136E+02  0.16438028696E+04  0.10100000352E+00 0. -1.
       -3    1    3    3    0  502 -0.13527111079E+04  0.93106550918E+03 -0.88812823914E+02  0.16445662199E+04  0.10100000352E+00 0.  1.
</event>
<event>
 5   0  0.1784626E-06  0.3325815E+04  0.7818609E-02  0.8156358E-01
        2   -1    0    0  501    0  0.00000000000E+00  0.00000000000E+00  0.21210587420E+04  0.21210587420E+04  0.25500000920E-02 0. -1.
       -2   -1    0    0    0  501  0.00000000000E+00  0.00000000000E+00 -0.13037172612E+04  0.13037172612E+04  0.25500000920E-02 0.  1.
    10030    2    1    2    0    0  0.00000000000E+00  0.00000000000E+00  0.81734148077E+03  0.34247760032E+04  0.33258147237E+04 0.  0.
        2    1    3    3  502    0  0.23555323825E+03  0.16107488098E+04  0.75827817355E+03  0.17958237232E+04  0.25500000920E-02 0. -1.
       -2    1    3    3    0  502 -0.23555323825E+03 -0.16107488098E+04  0.59063307224E+02  0.16289522800E+04  0.25500000920E-02 0.  1.
</event>
<event>
 5   0  0.6085351E-07  0.3299452E+04  0.7818609E-02  0.8163035E-01
        1   -1    0    0  501    0  0.00000000000E+00  0.00000000000E+00  0.18358580366E+04  0.18358580366E+04  0.50400001928E-02 0.  1.
       -1   -1    0    0    0  501  0.00000000000E+00  0.00000000000E+00 -0.14824655629E+04  0.14824655629E+04  0.50400001928E-02 0. -1.
    10030    2    1    2    0    0  0.00000000000E+00  0.00000000000E+00  0.35339247369E+03  0.33183235995E+04  0.32994522682E+04 0.  0.
        1    1    3    3  502    0  0.47781067671E+03  0.20258713475E+03 -0.13982270709E+04  0.14914367341E+04  0.50400001928E-02 0. -1.
       -1    1    3    3    0  502 -0.47781067671E+03 -0.20258713475E+03  0.17516195446E+04  0.18268868654E+04  0.50400001928E-02 0.  1.
</event>
<event>
 5   0  0.6085351E-07  0.3299836E+04  0.7818609E-02  0.8162937E-01
       -1   -1    0    0    0  501  0.00000000000E+00  0.00000000000E+00  0.12715021458E+04  0.12715021458E+04  0.50400001928E-02 0.  1.
        1   -1    0    0  501    0  0.00000000000E+00  0.00000000000E+00 -0.21409554379E+04  0.21409554379E+04  0.50400001928E-02 0. -1.
    10030    2    1    2    0    0  0.00000000000E+00  0.00000000000E+00 -0.86945329211E+03  0.34124575836E+04  0.32998360161E+04 0.  0.
        1    1    3    3  502    0 -0.11695681397E+03 -0.15748202484E+04 -0.92904887344E+03  0.18321761706E+04  0.50400001928E-02 0. -1.
       -1    1    3    3    0  502  0.11695681397E+03  0.15748202484E+04  0.59595581330E+02  0.15802814130E+04  0.50400001928E-02 0.  1.
</event>
<event>
 5   0  0.5985183E-07  0.3287797E+04  0.7818609E-02  0.8166007E-01
        1   -1    0    0  501    0  0.00000000000E+00  0.00000000000E+00  0.15730579396E+04  0.15730579397E+04  0.50400001928E-02 0.  1.
       -1   -1    0    0    0  501  0.00000000000E+00  0.00000000000E+00 -0.17179291072E+04  0.17179291072E+04  0.50400001928E-02 0. -1.
    10030    2    1    2    0    0  0.00000000000E+00  0.00000000000E+00 -0.14487116759E+03  0.32909870469E+04  0.32877968440E+04 0.  0.
        2    1    3    3  502    0 -0.14192931019E+04  0.82518795968E+03 -0.15662393473E+03  0.16491995437E+04  0.25500000920E-02 0.  1.
       -2    1    3    3    0  502  0.14192931019E+04 -0.82518795968E+03  0.11752767141E+02  0.16417875032E+04  0.25500000920E-02 0. -1.
</event>
<event>
 5   0  0.1696681E-06  0.3265085E+04  0.7818609E-02  0.8171837E-01
       -2   -1    0    0    0  501  0.00000000000E+00  0.00000000000E+00  0.14706023512E+04  0.14706023512E+04  0.25500000920E-02 0.  1.
        2   -1    0    0  501    0  0.00000000000E+00  0.00000000000E+00 -0.18123155767E+04  0.18123155767E+04  0.25500000920E-02 0. -1.
    10030    2    1    2    0    0  0.00000000000E+00  0.00000000000E+00 -0.34171322549E+03  0.32829179278E+04  0.32650853270E+04 0.  0.
        4    1    3    3  502    0 -0.47888511939E+03 -0.12509481797E+04  0.76750985713E+03  0.15437860278E+04  0.12699999809E+01 0.  1.
       -4    1    3    3    0  502  0.47888511939E+03  0.12509481797E+04 -0.11092230826E+04  0.17391319001E+04  0.12699999809E+01 0. -1.
</event>
<event>
 5   0  0.1743810E-06  0.3330781E+04  0.7818609E-02  0.8155107E-01
       -2   -1    0    0    0  501  0.00000000000E+00  0.00000000000E+00  0.11359941856E+04  0.11359941856E+04  0.25500000920E-02 0. -1.
        2   -1    0    0  501    0  0.00000000000E+00  0.00000000000E+00 -0.24414961660E+04  0.24414961660E+04  0.25500000920E-02 0.  1.
    10030    2    1    2    0    0  0.00000000000E+00  0.00000000000E+00 -0.13055019804E+04  0.35774903515E+04  0.33307809587E+04 0.  0.
        5    1    3    3  502    0  0.15442615891E+04  0.29250285573E+03 -0.12441738811E+04  0.20045679117E+04  0.46999998093E+01 0.  1.
       -5    1    3    3    0  502 -0.15442615891E+04 -0.29250285573E+03 -0.61328099291E+02  0.15729224399E+04  0.46999998093E+01 0. -1.
</event>
<event>
 5   0  0.1696681E-06  0.3219031E+04  0.7818609E-02  0.8183809E-01
       -2   -1    0    0    0  501  0.00000000000E+00  0.00000000000E+00  0.21635395286E+04  0.21635395286E+04  0.25500000920E-02 0. -1.
        2   -1    0    0  501    0  0.00000000000E+00  0.00000000000E+00 -0.11973621264E+04  0.11973621264E+04  0.25500000920E-02 0.  1.
    10030    2    1    2    0    0  0.00000000000E+00  0.00000000000E+00  0.96617740220E+03  0.33609016549E+04  0.32190310905E+04 0.  0.
        4    1    3    3  502    0 -0.53767104127E+03  0.95384479107E+03 -0.74857548351E+03  0.13263773601E+04  0.12699999809E+01 0.  1.
       -4    1    3    3    0  502  0.53767104127E+03 -0.95384479107E+03  0.17147528857E+04  0.20345242948E+04  0.12699999809E+01 0. -1.
</event>
<event>
 5   0  0.1728937E-06  0.3289331E+04  0.7818609E-02  0.8165615E-01
       -2   -1    0    0    0  501  0.00000000000E+00  0.00000000000E+00  0.91223952138E+03  0.91223952138E+03  0.25500000920E-02 0.  1.
        2   -1    0    0  501    0  0.00000000000E+00  0.00000000000E+00 -0.29651469095E+04  0.29651469095E+04  0.25500000920E-02 0. -1.
    10030    2    1    2    0    0  0.00000000000E+00  0.00000000000E+00 -0.20529073881E+04  0.38773864309E+04  0.32893307511E+04 0.  0.
        1    1    3    3  502    0 -0.76114445175E+03 -0.52215177598E+02  0.69102714449E+03  0.10293618487E+04  0.50400001928E-02 0.  1.
       -1    1    3    3    0  502  0.76114445175E+03  0.52215177598E+02 -0.27439345326E+04  0.28480245821E+04  0.50400001928E-02 0. -1.
</event>
<event>
 5   0  0.1743810E-06  0.3212472E+04  0.7818609E-02  0.8185531E-01
        2   -1    0    0  501    0  0.00000000000E+00  0.00000000000E+00  0.16624343604E+04  0.16624343604E+04  0.25500000920E-02 0. -1.
       -2   -1    0    0    0  501  0.00000000000E+00  0.00000000000E+00 -0.15519369448E+04  0.15519369448E+04  0.25500000920E-02 0.  1.
    10030    2    1    2    0    0  0.00000000000E+00  0.00000000000E+00  0.11049741561E+03  0.32143713053E+04  0.32124715110E+04 0.  0.
        5    1    3    3  502    0 -0.12564075984E+04 -0.32160559926E+03  0.10034277041E+04  0.16397803092E+04  0.46999998093E+01 0. -1.
       -5    1    3    3    0  502  0.12564075984E+04  0.32160559926E+03 -0.89293028850E+03  0.15745909961E+04  0.46999998093E+01 0.  1.
</event>
<event>
 5   0  0.1832626E-06  0.3308487E+04  0.7818609E-02  0.8160739E-01
        2   -1    0    0  501    0  0.00000000000E+00  0.00000000000E+00  0.20964716820E+04  0.20964716820E+04  0.25500000920E-02 0.  1.
       -2   -1    0    0    0  501  0.00000000000E+00  0.00000000000E+00 -0.13052989909E+04  0.13052989909E+04  0.25500000920E-02 0. -1.
    10030    2    1    2    0    0  0.00000000000E+00  0.00000000000E+00  0.79117269101E+03  0.34017706729E+04  0.33084874919E+04 0.  0.
        3    1    3    3  502    0 -0.12041143168E+04  0.95366472194E+03 -0.23585829443E+03  0.15540260085E+04  0.10100000352E+00 0.  1.
       -3    1    3    3    0  502  0.12041143168E+04 -0.95366472194E+03  0.10270309854E+04  0.18477446644E+04  0.10100000352E+00 0. -1.
</event>
<event>
 5   0  0.1696681E-06  0.2844234E+04  0.7818609E-02  0.8289666E-01
        2   -1    0    0  501    0  0.00000000000E+00  0.00000000000E+00  0.19309541838E+04  0.19309541838E+04  0.25500000920E-02 0.  1.
       -2   -1    0    0    0  501  0.00000000000E+00  0.00000000000E+00 -0.10473663486E+04  0.10473663486E+04  0.25500000920E-02 0. -1.
    10030    2    1    2    0    0  0.00000000000E+00  0.00000000000E+00  0.88358783516E+03  0.29783205324E+04  0.28442337688E+04 0.  0.
        4    1    3    3  502    0 -0.36636771511E+03  0.11073304721E+03  0.18760087064E+04  0.19146533341E+04  0.12699999809E+01 0.  1.
       -4    1    3    3    0  502  0.36636771511E+03 -0.11073304721E+03 -0.99242087119E+03  0.10636671984E+04  0.12699999809E+01 0. -1.
</event>
<event>
 5   0  0.5858859E-07  0.2746340E+04  0.7818609E-02  0.8320124E-01
        1   -1    0    0  501    0  0.00000000000E+00  0.00000000000E+00  0.10491625455E+04  0.10491625456E+04  0.50400001928E-02 0. -1.
       -1   -1    0    0    0  501  0.00000000000E+00  0.00000000000E+00 -0.17972385076E+04  0.17972385076E+04  0.50400001928E-02 0.  1.
    10030    2    1    2    0    0  0.00000000000E+00  0.00000000000E+00 -0.74807596203E+03  0.28464010531E+04  0.27463396203E+04 0.  0.
        3    1    3    3  502    0  0.55928958228E+02 -0.11310049233E+04 -0.11790581471E+04  0.16347716383E+04  0.10100000352E+00 0.  1.
       -3    1    3    3    0  502 -0.55928958228E+02  0.11310049233E+04  0.43098218509E+03  0.12116294148E+04  0.10100000352E+00 0. -1.
</event>
<event>
 5   0  0.5985183E-07  0.3268257E+04  0.7818609E-02  0.8171020E-01
        1   -1    0    0  501    0  0.00000000000E+00  0.00000000000E+00  0.15133524273E+04  0.15133524273E+04  0.50400001928E-02 0. -1.
       -1   -1    0    0    0  501  0.00000000000E+00  0.00000000000E+00 -0.17645429022E+04  0.17645429022E+04  0.50400001928E-02 0.  1.
    10030    2    1    2    0    0  0.00000000000E+00  0.00000000000E+00 -0.25119047492E+03  0.32778953295E+04  0.32682565898E+04 0.  0.
        2    1    3    3  502    0  0.72260185933E+03  0.33667229310E+03  0.13051017249E+04  0.15293110189E+04  0.25500000920E-02 0. -1.
       -2    1    3    3    0  502 -0.72260185933E+03 -0.33667229310E+03 -0.15562921999E+04  0.17485843106E+04  0.25500000920E-02 0.  1.
</event>
<event>
 5   0  0.6023446E-07  0.3291696E+04  0.7818609E-02  0.8165011E-01
        1   -1    0    0  501    0  0.00000000000E+00  0.00000000000E+00  0.18138743143E+04  0.18138743144E+04  0.50400001928E-02 0.  1.
       -1   -1    0    0    0  501  0.00000000000E+00  0.00000000000E+00 -0.14933868402E+04  0.14933868402E+04  0.50400001928E-02 0. -1.
    10030    2    1    2    0    0  0.00000000000E+00  0.00000000000E+00  0.32048747418E+03  0.33072611545E+04  0.32916962380E+04 0.  0.
        5    1    3    3  502    0  0.16341248031E+03 -0.10164759216E+04 -0.11299102601E+04  0.15286092449E+04  0.46999998093E+01 0. -1.
       -5    1    3    3    0  502 -0.16341248031E+03  0.10164759216E+04  0.14503977343E+04  0.17786519096E+04  0.46999998093E+01 0.  1.
</event>
<event>
 5   0  0.1696681E-06  0.3324382E+04  0.7818609E-02  0.8156719E-01
        2   -1    0    0  501    0  0.00000000000E+00  0.00000000000E+00  0.96728078883E+03  0.96728078883E+03  0.25500000920E-02 0.  1.
       -2   -1    0    0    0  501  0.00000000000E+00  0.00000000000E+00 -0.28563353999E+04  0.28563353999E+04  0.25500000920E-02 0. -1.
    10030    2    1    2    0    0  0.00000000000E+00  0.00000000000E+00 -0.18890546110E+04  0.38236161887E+04  0.33243816620E+04 0.  0.
        4    1    3    3  502    0 -0.10528900760E+04  0.99732207912E+03 -0.18786835196E+04  0.23733272471E+04  0.12699999809E+01 0. -1.
       -4    1    3    3    0  502  0.10528900760E+04 -0.99732207912E+03 -0.10371091372E+02  0.14502889416E+04  0.12699999809E+01 0.  1.
</event>
<event>
 5   0  0.6085351E-07  0.3302877E+04  0.7818609E-02  0.8162164E-01
        1   -1    0    0  501    0  0.00000000000E+00  0.00000000000E+00  0.11761441628E+04  0.11761441628E+04  0.50400001928E-02 0.  1.
       -1   -1    0    0    0  501  0.00000000000E+00  0.00000000000E+00 -0.23188058049E+04  0.23188058049E+04  0.50400001928E-02 0. -1.
    10030    2    1    2    0    0  0.00000000000E+00  0.00000000000E+00 -0.11426616421E+04  0.34949499677E+04  0.33028774801E+04 0.  0.
        1    1    3    3  502    0 -0.85600603264E+03  0.15399370552E+03  0.91415537842E+03  0.12618004776E+04  0.50400001928E-02 0.  1.
       -1    1    3    3    0  502  0.85600603264E+03 -0.15399370552E+03 -0.20568170205E+04  0.22331494901E+04  0.50400001928E-02 0. -1.
</event>
<event>
 5   0  0.6023446E-07  0.3293685E+04  0.7818609E-02  0.8164504E-01
       -1   -1    0    0    0  501  0.00000000000E+00  0.00000000000E+00  0.21202515533E+04  0.21202515533E+04  0.50400001928E-02 0. -1.
        1   -1    0    0  501    0  0.00000000000E+00  0.00000000000E+00 -0.12791357705E+04  0.12791357705E+04  0.50400001928E-02 0.  1.
    10030    2    1    2    0    0  0.00000000000E+00  0.00000000000E+00  0.84111578279E+03  0.33993873239E+04  0.32936846263E+04 0.  0.
        5    1    3    3  502    0  0.64595766019E+03  0.66242101509E+01 -0.11429047001E+04  0.13128436398E+04  0.46999998093E+01 0.  1.
       -5    1    3    3    0  502 -0.64595766019E+03 -0.66242101509E+01  0.19840204829E+04  0.20865436841E+04  0.46999998093E+01 0. -1.
</event>
<event>
 5   0  0.6085351E-07  0.3283743E+04  0.7818609E-02  0.8167044E-01
        1   -1    0    0  501    0  0.00000000000E+00  0.00000000000E+00  0.27514470981E+04  0.27514470981E+04  0.50400001928E-02 0. -1.
       -1   -1    0    0    0  501  0.00000000000E+00  0.00000000000E+00 -0.97975445037E+03  0.97975445038E+03  0.50400001928E-02 0.  1.
    10030    2    1    2    0    0  0.00000000000E+00  0.00000000000E+00  0.17716926477E+04  0.37312015485E+04  0.32837433148E+04 0.  0.
        1    1    3    3  502    0  0.73198351784E+03 -0.21359689289E+03 -0.76636185360E+03  0.10810800126E+04  0.50400001928E-02 0.  1.
       -1    1    3    3    0  502 -0.73198351784E+03  0.21359689289E+03  0.25380545013E+04  0.26501215359E+04  0.50400001928E-02 0. -1.
</event>
<event>
 5   0  0.5985183E-07  0.3307018E+04  0.7818609E-02  0.8161112E-01
        1   -1    0    0  501    0  0.00000000000E+00  0.00000000000E+00  0.30795525598E+04  0.30795525598E+04  0.50400001928E-02 0. -1.
       -1   -1    0    0    0  501  0.00000000000E+00  0.00000000000E+00 -0.88782110932E+03  0.88782110934E+03  0.50400001928E-02 0.  1.
    10030    2    1    2    0    0  0.00000000000E+00  0.00000000000E+00  0.21917314505E+04  0.39673736692E+04  0.33070178529E+04 0.  0.
        2    1    3    3  502    0  0.57089549438E+03  0.15354639584E+04  0.82621565001E+03  0.18347216501E+04  0.25500000920E-02 0.  1.
       -2    1    3    3    0  502 -0.57089549438E+03 -0.15354639584E+04  0.13655158005E+04  0.21326520191E+04  0.25500000920E-02 0. -1.
</event>
<event>
 5   0  0.1743810E-06  0.3364790E+04  0.7818609E-02  0.8146603E-01
        2   -1    0    0  501    0  0.00000000000E+00  0.00000000000E+00  0.16865954447E+04  0.16865954447E+04  0.25500000920E-02 0. -1.
       -2   -1    0    0    0  501  0.00000000000E+00  0.00000000000E+00 -0.16782046957E+04  0.16782046957E+04  0.25500000920E-02 0.  1.
    10030    2    1    2    0    0  0.00000000000E+00  0.00000000000E+00  0.83907490189E+01  0.33648001405E+04  0.33647896785E+04 0.  0.
        5    1    3    3  502    0 -0.10959124732E+04 -0.87566360558E+03 -0.92458057822E+03  0.16800839963E+04  0.46999998093E+01 0.  1.
       -5    1    3    3    0  502  0.10959124732E+04  0.87566360558E+03  0.93297132724E+03  0.16847161442E+04  0.46999998093E+01 0. -1.
</event>
<event>
 5   0  0.1696681E-06  0.3286367E+04  0.7818609E-02  0.8166373E-01
       -2   -1    0    0    0  501  0.00000000000E+00  0.00000000000E+00  0.12575282068E+04  0.12575282068E+04  0.25500000920E-02 0. -1.
        2   -1    0    0  501    0  0.00000000000E+00  0.00000000000E+00 -0.21471110259E+04  0.21471110259E+04  0.25500000920E-02 0.  1.
    10030    2    1    2    0    0  0.00000000000E+00  0.00000000000E+00 -0.88958281906E+03  0.34046392327E+04  0.32863674038E+04 0.  0.
        4    1    3    3  502    0 -0.13214737499E+04  0.94988348433E+03 -0.67984798071E+03  0.17637364869E+04  0.12699999809E+01 0.  1.
       -4    1    3    3    0  502  0.13214737499E+04 -0.94988348433E+03 -0.20973483835E+03  0.16409027457E+04  0.12699999809E+01 0. -1.
</event>
<event>
 5   0  0.5858859E-07  0.3290157E+04  0.7818609E-02  0.8165405E-01
       -1   -1    0    0    0  501  0.00000000000E+00  0.00000000000E+00  0.17806791529E+04  0.17806791529E+04  0.50400001928E-02 0.  1.
        1   -1    0    0  501    0  0.00000000000E+00  0.00000000000E+00 -0.15198037860E+04  0.15198037860E+04  0.50400001928E-02 0. -1.
    10030    2    1    2    0    0  0.00000000000E+00  0.00000000000E+00  0.26087536694E+03  0.33004829389E+04  0.32901567855E+04 0.  0.
        3    1    3    3  502    0 -0.15614494599E+04 -0.51758408034E+03  0.11410124379E+03  0.16489502115E+04  0.10100000352E+00 0. -1.
       -3    1    3    3    0  502  0.15614494599E+04  0.51758408034E+03  0.14677412314E+03  0.16515327274E+04  0.10100000352E+00 0.  1.
</event>
<event>
 5   0  0.5985183E-07  0.3281769E+04  0.7818609E-02  0.8167550E-01
        1   -1    0    0  501    0  0.00000000000E+00  0.00000000000E+00  0.16874686544E+04  0.16874686544E+04  0.50400001928E-02 0. -1.
       -1   -1    0    0    0  501  0.00000000000E+00  0.00000000000E+00 -0.15955863295E+04  0.15955863295E+04  0.50400001928E-02 0.  1.
    10030    2    1    2    0    0  0.00000000000E+00  0.00000000000E+00  0.91882324858E+02  0.32830549839E+04  0.32817689842E+04 0.  0.
        2    1    3    3  502    0  0.12310309298E+04  0.10845480811E+04  0.74591975385E+02  0.16423293376E+04  0.25500000920E-02 0.  1.
       -2    1    3    3    0  502 -0.12310309298E+04 -0.10845480811E+04  0.17290349473E+02  0.16407256463E+04  0.25500000920E-02 0. -1.
</event>
<event>
 5   0  0.1696681E-06  0.3308372E+04  0.7818609E-02  0.8160769E-01
        2   -1    0    0  501    0  0.00000000000E+00  0.00000000000E+00  0.21126350626E+04  0.21126350626E+04  0.25500000920E-02 0.  1.
       -2   -1    0    0    0  501  0.00000000000E+00  0.00000000000E+00 -0.12952215849E+04  0.12952215849E+04  0.25500000920E-02 0. -1.
    10030    2    1    2    0    0  0.00000000000E+00  0.00000000000E+00  0.81741347767E+03  0.34078566474E+04  0.33083715233E+04 0.  0.
        4    1    3    3  502    0 -0.56113594347E+03  0.38227604720E+02 -0.11937052683E+04  0.13195714370E+04  0.12699999809E+01 0. -1.
       -4    1    3    3    0  502  0.56113594347E+03 -0.38227604720E+02  0.20111187460E+04  0.20882852104E+04  0.12699999809E+01 0.  1.
</event>
<event>
 5   0  0.6085351E-07  0.3325845E+04  0.7818609E-02  0.8156350E-01
       -1   -1    0    0    0  501  0.00000000000E+00  0.00000000000E+00  0.15255885373E+04  0.15255885373E+04  0.50400001928E-02 0. -1.
        1   -1    0    0  501    0  0.00000000000E+00  0.00000000000E+00 -0.18126196285E+04  0.18126196285E+04  0.50400001928E-02 0.  1.
    10030    2    1    2    0    0  0.00000000000E+00  0.00000000000E+00 -0.28703109124E+03  0.33382081658E+04  0.33258452927E+04 0.  0.
        1    1    3    3  502    0  0.46108383482E+03  0.13086145764E+04 -0.10635696942E+04  0.17482136330E+04  0.50400001928E-02 0.  1.
       -1    1    3    3    0  502 -0.46108383482E+03 -0.13086145764E+04  0.77653860298E+03  0.15899945328E+04  0.50400001928E-02 0. -1.
</event>
<event>
 5   0  0.1728937E-06  0.3282961E+04  0.7818609E-02  0.8167245E-01
       -2   -1    0    0    0  501  0.00000000000E+00  0.00000000000E+00  0.12073546175E+04  0.12073546175E+04  0.25500000920E-02 0.  1.
        2   -1    0    0  501    0  0.00000000000E+00  0.00000000000E+00 -0.22317040367E+04  0.22317040367E+04  0.25500000920E-02 0. -1.
    10030    2    1    2    0    0  0.00000000000E+00  0.00000000000E+00 -0.10243494191E+04  0.34390586542E+04  0.32829609645E+04 0.  0.
        1    1    3    3  502    0  0.12194236863E+04 -0.72930419420E+03  0.34884298351E+03  0.14630687481E+04  0.50400001928E-02 0.  1.
       -1    1    3    3    0  502 -0.12194236863E+04  0.72930419420E+03 -0.13731924026E+04  0.19759899061E+04  0.50400001928E-02 0. -1.
</event>
<event>
 5   0  0.6085351E-07  0.3275474E+04  0.7818609E-02  0.8169164E-01
       -1   -1    0    0    0  501  0.00000000000E+00  0.00000000000E+00  0.14752139519E+04  0.14752139520E+04  0.50400001928E-02 0. -1.
        1   -1    0    0  501    0  0.00000000000E+00  0.00000000000E+00 -0.18181651235E+04  0.18181651235E+04  0.50400001928E-02 0.  1.
    10030    2    1    2    0    0  0.00000000000E+00  0.00000000000E+00 -0.34295117156E+03  0.32933790755E+04  0.32754740464E+04 0.  0.
        1    1    3    3  502    0 -0.52648715021E+03  0.11303407692E+04 -0.12390345103E+04  0.17578582115E+04  0.50400001928E-02 0.  1.
       -1    1    3    3    0  502  0.52648715021E+03 -0.11303407692E+04  0.89608333875E+03  0.15355208640E+04  0.50400001928E-02 0. -1.
</event>
<event>
 5   0  0.6085351E-07  0.3229894E+04  0.7818609E-02  0.8180967E-01
       -1   -1    0    0    0  501  0.00000000000E+00  0.00000000000E+00  0.11715745006E+04  0.11715745006E+04  0.50400001928E-02 0. -1.
        1   -1    0    0  501    0  0.00000000000E+00  0.00000000000E+00 -0.22261103744E+04  0.22261103744E+04  0.50400001928E-02 0.  1.
    10030    2    1    2    0    0  0.00000000000E+00  0.00000000000E+00 -0.10545358739E+04  0.33976848750E+04  0.32298942089E+04 0.  0.
        1    1    3    3  502    0 -0.15626619921E+04  0.37974390188E+03 -0.68307088525E+03  0.17471988344E+04  0.50400001928E-02 0.  1.
       -1    1    3    3    0  502  0.15626619921E+04 -0.37974390188E+03 -0.37146498862E+03  0.16504860406E+04  0.50400001928E-02 0. -1.
</event>
<event>
 5   0  0.1832626E-06  0.3303700E+04  0.7818609E-02  0.8161955E-01
       -2   -1    0    0    0  501  0.00000000000E+00  0.00000000000E+00  0.13241956314E+04  0.13241956314E+04  0.25500000920E-02 0.  1.
        2   -1    0    0  501    0  0.00000000000E+00  0.00000000000E+00 -0.20605774065E+04  0.20605774065E+04  0.25500000920E-02 0. -1.
    10030    2    1    2    0    0  0.00000000000E+00  0.00000000000E+00 -0.73638177510E+03  0.33847730380E+04  0.33036995021E+04 0.  0.
        3    1    3    3  502    0 -0.12486194804E+04 -0.33143138053E+03 -0.14228754203E+04  0.19218407423E+04  0.10100000352E+00 0. -1.
       -3    1    3    3    0  502  0.12486194804E+04  0.33143138053E+03  0.68649364519E+03  0.14629322957E+04  0.10100000352E+00 0.  1.
</event>
<event>
 5   0  0.6023446E-07  0.3302133E+04  0.7818609E-02  0.8162353E-01
        1   -1    0    0  501    0  0.00000000000E+00  0.00000000000E+00  0.88839888366E+03  0.88839888367E+03  0.50400001928E-02 0.  1.
       -1   -1    0    0    0  501  0.00000000000E+00  0.00000000000E+00 -0.30684654235E+04  0.30684654235E+04  0.50400001928E-02 0. -1.
    10030    2    1    2    0    0  0.00000000000E+00  0.00000000000E+00 -0.21800665399E+04  0.39568643072E+04  0.33021334054E+04 0.  0.
        5    1    3    3  502    0  0.73471921715E+03  0.14759253740E+04 -0.98399351059E+03  0.19200086866E+04  0.46999998093E+01 0.  1.
       -5    1    3    3    0  502 -0.73471921715E+03 -0.14759253740E+04 -0.11960730293E+04  0.20368556206E+04  0.46999998093E+01 0. -1.
</event>
<event>
 5   0  0.1832626E-06  0.3369501E+04  0.7818609E-02  0.8145433E-01
        2   -1    0    0  501    0  0.00000000000E+00  0.00000000000E+00  0.21696421202E+04  0.21696421202E+04  0.25500000920E-02 0. -1.
       -2   -1    0    0    0  501  0.00000000000E+00  0.00000000000E+00 -0.13082270339E+04  0.13082270339E+04  0.25500000920E-02 0.  1.
    10030    2    1    2    0    0  0.00000000000E+00  0.00000000000E+00  0.86141508626E+03  0.34778691541E+04  0.33695011355E+04 0.  0.
        3    1    3    3  502    0  0.27808344384E+03  0.13824297693E+04 -0.52086581888E+03  0.15032443848E+04  0.10100000352E+00 0.  1.
       -3    1    3    3    0  502 -0.27808344384E+03 -0.13824297693E+04  0.13822809051E+04  0.19746247694E+04  0.10100000352E+00 0. -1.
</event>
<event>
 5   0  0.1696681E-06  0.3285678E+04  0.7818609E-02  0.8166549E-01
        2   -1    0    0  501    0  0.00000000000E+00  0.00000000000E+00  0.24044234347E+04  0.24044234347E+04  0.25500000920E-02 0.  1.
       -2   -1    0    0    0  501  0.00000000000E+00  0.00000000000E+00 -0.11224811118E+04  0.11224811119E+04  0.25500000920E-02 0. -1.
    10030    2    1    2    0    0  0.00000000000E+00  0.00000000000E+00  0.12819423228E+04  0.35269045465E+04  0.32856779455E+04 0.  0.
        4    1    3    3  502    0 -0.15447073761E+04 -0.21419789857E+03  0.86400929161E+02  0.15618797492E+04  0.12699999809E+01 0. -1.
       -4    1    3    3    0  502  0.15447073761E+04  0.21419789857E+03  0.11955413937E+04  0.19650247974E+04  0.12699999809E+01 0.  1.
</event>
<event>
 5   0  0.1832626E-06  0.3289741E+04  0.7818609E-02  0.8165511E-01
        2   -1    0    0  501    0  0.00000000000E+00  0.00000000000E+00  0.22133357341E+04  0.22133357341E+04  0.25500000920E-02 0.  1.
       -2   -1    0    0    0  501  0.00000000000E+00  0.00000000000E+00 -0.12224078352E+04  0.12224078352E+04  0.25500000920E-02 0. -1.
    10030    2    1    2    0    0  0.00000000000E+00  0.00000000000E+00  0.99092789895E+03  0.34357435693E+04  0.32897409887E+04 0.  0.
        3    1    3    3  502    0  0.97673222176E+02 -0.11174563042E+04 -0.76098793341E+03  0.13554893194E+04  0.10100000352E+00 0. -1.
       -3    1    3    3    0  502 -0.97673222176E+02  0.11174563042E+04  0.17519158324E+04  0.20802542498E+04  0.10100000352E+00 0.  1.
</event>
<event>
 5   0  0.1728937E-06  0.3338078E+04  0.7818609E-02  0.8153273E-01
        2   -1    0    0  501    0  0.00000000000E+00  0.00000000000E+00  0.20229509077E+04  0.20229509077E+04  0.25500000920E-02 0.  1.
       -2   -1    0    0    0  501  0.00000000000E+00  0.00000000000E+00 -0.13770435873E+04  0.13770435873E+04  0.25500000920E-02 0. -1.
    10030    2    1    2    0    0  0.00000000000E+00  0.00000000000E+00  0.64590732042E+03  0.33999944950E+04  0.33380782344E+04 0.  0.
        1    1    3    3  502    0  0.31839793005E+02  0.16669138720E+04  0.40234783619E+03  0.17150800012E+04  0.50400001928E-02 0.  1.
       -1    1    3    3    0  502 -0.31839793005E+02 -0.16669138720E+04  0.24355948423E+03  0.16849144938E+04  0.50400001928E-02 0. -1.
</event>
<event>
 5   0  0.5985183E-07  0.3290026E+04  0.7818609E-02  0.8165438E-01
       -1   -1    0    0    0  501  0.00000000000E+00  0.00000000000E+00  0.16442819682E+04  0.16442819682E+04  0.50400001928E-02 0.  1.
        1   -1    0    0  501    0  0.00000000000E+00  0.00000000000E+00 -0.16457447436E+04  0.16457447436E+04  0.50400001928E-02 0. -1.
    10030    2    1    2    0    0  0.00000000000E+00  0.00000000000E+00 -0.14627754007E+01  0.32900267117E+04  0.32900263866E+04 0.  0.
        2    1    3    3  502    0  0.78928497835E+03 -0.76690088898E+03 -0.12234173453E+04  0.16455569730E+04  0.25500000920E-02 0. -1.
       -2    1    3    3    0  502 -0.78928497835E+03  0.76690088898E+03  0.12219545699E+04  0.16444697387E+04  0.25500000920E-02 0.  1.
</event>
<event>
 5   0  0.5988516E-07  0.3301957E+04  0.7818609E-02  0.8162398E-01
       -1   -1    0    0    0  501  0.00000000000E+00  0.00000000000E+00  0.95560729643E+03  0.95560729645E+03  0.50400001928E-02 0.  1.
        1   -1    0    0  501    0  0.00000000000E+00  0.00000000000E+00 -0.28523529245E+04  0.28523529245E+04  0.50400001928E-02 0. -1.
    10030    2    1    2    0    0  0.00000000000E+00  0.00000000000E+00 -0.18967456281E+04  0.38079602210E+04  0.33019565513E+04 0.  0.
        4    1    3    3  502    0  0.88522111230E+03  0.26071160425E+03  0.63040910581E+03  0.11175885700E+04  0.12699999809E+01 0.  1.
       -4    1    3    3    0  502 -0.88522111230E+03 -0.26071160425E+03 -0.25271547339E+04  0.26903716509E+04  0.12699999809E+01 0. -1.
</event>
<event>
 5   0  0.1743810E-06  0.3021035E+04  0.7818609E-02  0.8237750E-01
        2   -1    0    0  501    0  0.00000000000E+00  0.00000000000E+00  0.14933408715E+04  0.14933408715E+04  0.25500000920E-02 0. -1.
       -2   -1    0    0    0  501  0.00000000000E+00  0.00000000000E+00 -0.15278915669E+04  0.15278915669E+04  0.25500000920E-02 0.  1.
    10030    2    1    2    0    0  0.00000000000E+00  0.00000000000E+00 -0.34550695425E+02  0.30212324384E+04  0.30210348718E+04 0.  0.
        5    1    3    3  502    0 -0.19459608321E+03  0.11684562516E+04 -0.95461098171E+03  0.15213355527E+04  0.46999998093E+01 0.  1.
       -5    1    3    3    0  502  0.19459608321E+03 -0.11684562516E+04  0.92006028629E+03  0.14998968857E+04  0.46999998093E+01 0. -1.
</event>
<event>
 5   0  0.6085351E-07  0.3287197E+04  0.7818609E-02  0.8166161E-01
        1   -1    0    0  501    0  0.00000000000E+00  0.00000000000E+00  0.22003993397E+04  0.22003993397E+04  0.50400001928E-02 0.  1.
       -1   -1    0    0    0  501  0.00000000000E+00  0.00000000000E+00 -0.12276937893E+04  0.12276937893E+04  0.50400001928E-02 0. -1.
    10030    2    1    2    0    0  0.00000000000E+00  0.00000000000E+00  0.97270555048E+03  0.34280931290E+04  0.32871973493E+04 0.  0.
        1    1    3    3  502    0 -0.12327476131E+03  0.38338295575E+03  0.21481517647E+04  0.21855743323E+04  0.50400001928E-02 0.  1.
       -1    1    3    3    0  502  0.12327476131E+03 -0.38338295575E+03 -0.11754462143E+04  0.12425187967E+04  0.50400001928E-02 0. -1.
</event>
<event>
 5   0  0.5988516E-07  0.3317691E+04  0.7818609E-02  0.8158408E-01
       -1   -1    0    0    0  501  0.00000000000E+00  0.00000000000E+00  0.13680938003E+04  0.13680938003E+04  0.50400001928E-02 0.  1.
        1   -1    0    0  501    0  0.00000000000E+00  0.00000000000E+00 -0.20113890986E+04  0.20113890986E+04  0.50400001928E-02 0. -1.
    10030    2    1    2    0    0  0.00000000000E+00  0.00000000000E+00 -0.64329529829E+03  0.33794828990E+04  0.33176913394E+04 0.  0.
        4    1    3    3  502    0  0.13598939253E+04  0.46024995207E+03 -0.11681646503E+04  0.18508786480E+04  0.12699999809E+01 0. -1.
       -4    1    3    3    0  502 -0.13598939253E+04 -0.46024995207E+03  0.52486935201E+03  0.15286042510E+04  0.12699999809E+01 0.  1.
</event>
<event>
 5   0  0.6023446E-07  0.3205905E+04  0.7818609E-02  0.8187260E-01
        1   -1    0    0  501    0  0.00000000000E+00  0.00000000000E+00  0.25671227221E+04  0.25671227222E+04  0.50400001928E-02 0.  1.
       -1   -1    0    0    0  501  0.00000000000E+00  0.00000000000E+00 -0.10009089675E+04  0.10009089675E+04  0.50400001928E-02 0. -1.
    10030    2    1    2    0    0  0.00000000000E+00  0.00000000000E+00  0.15662137546E+04  0.35680316897E+04  0.32059046482E+04 0.  0.
        5    1    3    3  502    0 -0.70577673443E+03 -0.73501192710E+03 -0.59402562683E+03  0.11795134027E+04  0.46999998093E+01 0. -1.
       -5    1    3    3    0  502  0.70577673443E+03  0.73501192710E+03  0.21602393815E+04  0.23885182870E+04  0.46999998093E+01 0.  1.
</event>
<event>
 5   0  0.1696681E-06  0.3124674E+04  0.7818609E-02  0.8208999E-01
       -2   -1    0    0    0  501  0.00000000000E+00  0.00000000000E+00  0.16924821053E+04  0.16924821053E+04  0.25500000920E-02 0. -1.
        2   -1    0    0  501    0  0.00000000000E+00  0.00000000000E+00 -0.14421997549E+04  0.14421997549E+04  0.25500000920E-02 0.  1.
    10030    2    1    2    0    0  0.00000000000E+00  0.00000000000E+00  0.25028235036E+03  0.31346818602E+04  0.31246742406E+04 0.  0.
        4    1    3    3  502    0 -0.38779820229E+03  0.83432189300E+02 -0.13908397205E+04  0.14463004933E+04  0.12699999809E+01 0.  1.
       -4    1    3    3    0  502  0.38779820229E+03 -0.83432189300E+02  0.16411220708E+04  0.16883813669E+04  0.12699999809E+01 0. -1.
</event>
<event>
 5   0  0.6085351E-07  0.3236128E+04  0.7818609E-02  0.8179341E-01
        1   -1    0    0  501    0  0.00000000000E+00  0.00000000000E+00  0.14841401442E+04  0.14841401442E+04  0.50400001928E-02 0.  1.
       -1   -1    0    0    0  501  0.00000000000E+00  0.00000000000E+00 -0.17640722286E+04  0.17640722286E+04  0.50400001928E-02 0. -1.
    10030    2    1    2    0    0  0.00000000000E+00  0.00000000000E+00 -0.27993208442E+03  0.32482123727E+04  0.32361275696E+04 0.  0.
        1    1    3    3  502    0 -0.12355191095E+04 -0.64290665592E+03  0.68669555367E+03  0.15528641994E+04  0.50400001928E-02 0.  1.
       -1    1    3    3    0  502  0.12355191095E+04  0.64290665592E+03 -0.96662763809E+03  0.16953481734E+04  0.50400001928E-02 0. -1.
</event>
<event>
 5   0  0.1784626E-06  0.2691248E+04  0.7818609E-02  0.8337850E-01
       -2   -1    0    0    0  501  0.00000000000E+00  0.00000000000E+00  0.12052649111E+04  0.12052649111E+04  0.25500000920E-02 0.  1.
        2   -1    0    0  501    0  0.00000000000E+00  0.00000000000E+00 -0.15023291153E+04  0.15023291153E+04  0.25500000920E-02 0. -1.
    10030    2    1    2    0    0  0.00000000000E+00  0.00000000000E+00 -0.29706420419E+03  0.27075940264E+04  0.26912484594E+04 0.  0.
        2    1    3    3  502    0 -0.96566716518E+03  0.90868846131E+03  0.81937322435E+02  0.13285110156E+04  0.25500000920E-02 0.  1.
       -2    1    3    3    0  502  0.96566716518E+03 -0.90868846131E+03 -0.37900152663E+03  0.13790830109E+04  0.25500000920E-02 0. -1.
</event>
<event>
 5   0  0.1743810E-06  0.3340560E+04  0.7818609E-02  0.8152651E-01
        2   -1    0    0  501    0  0.00000000000E+00  0.00000000000E+00  0.14288815021E+04  0.14288815021E+04  0.25500000920E-02 0.  1.
       -2   -1    0    0    0  501  0.00000000000E+00  0.00000000000E+00 -0.19524609641E+04  0.19524609641E+04  0.25500000920E-02 0. -1.
    10030    2    1    2    0    0  0.00000000000E+00  0.00000000000E+00 -0.52357946203E+03  0.33813424662E+04  0.33405600459E+04 0.  0.
        5    1    3    3  502    0  0.19431585418E+03 -0.12232573449E+04  0.87246903906E+03  0.15150384474E+04  0.46999998093E+01 0.  1.
       -5    1    3    3    0  502 -0.19431585418E+03  0.12232573449E+04 -0.13960485011E+04  0.18663040187E+04  0.46999998093E+01 0. -1.
</event>
<event>
 5   0  0.5858859E-07  0.3270088E+04  0.7818609E-02  0.8170548E-01
        1   -1    0    0  501    0  0.00000000000E+00  0.00000000000E+00  0.21244648433E+04  0.21244648433E+04  0.50400001928E-02 0. -1.
       -1   -1    0    0    0  501  0.00000000000E+00  0.00000000000E+00 -0.12583728130E+04  0.12583728130E+04  0.50400001928E-02 0.  1.
    10030    2    1    2    0    0  0.00000000000E+00  0.00000000000E+00  0.86609203028E+03  0.33828376563E+04  0.32700879505E+04 0.  0.
        3    1    3    3  502    0 -0.42640210644E+02  0.40430864364E+03  0.20713438568E+04  0.21108645267E+04  0.10100000352E+00 0. -1.
       -3    1    3    3    0  502  0.42640210644E+02 -0.40430864364E+03 -0.12052518265E+04  0.12719731296E+04  0.10100000352E+00 0.  1.
</event>
<event>
 5   0  0.6023446E-07  0.3347748E+04  0.7818609E-02  0.8150851E-01
        1   -1    0    0  501    0  0.00000000000E+00  0.00000000000E+00  0.18832309881E+04  0.18832309881E+04  0.50400001928E-02 0.  1.
       -1   -1    0    0    0  501  0.00000000000E+00  0.00000000000E+00 -0.14877906823E+04  0.14877906824E+04  0.50400001928E-02 0. -1.
    10030    2    1    2    0    0  0.00000000000E+00  0.00000000000E+00  0.39544030576E+03  0.33710216705E+04  0.33477476111E+04 0.  0.
        5    1    3    3  502    0  0.45707488857E+03  0.82814219469E+03  0.15882968264E+04  0.18486335080E+04  0.46999998093E+01 0.  1.
       -5    1    3    3    0  502 -0.45707488857E+03 -0.82814219469E+03 -0.11928565206E+04  0.15223881624E+04  0.46999998093E+01 0. -1.
</event>
<event>
 5   0  0.1784626E-06  0.3285879E+04  0.7818609E-02  0.8166498E-01
       -2   -1    0    0    0  501  0.00000000000E+00  0.00000000000E+00  0.24101870837E+04  0.24101870837E+04  0.25500000920E-02 0. -1.
        2   -1    0    0  501    0  0.00000000000E+00  0.00000000000E+00 -0.11199340284E+04  0.11199340284E+04  0.25500000920E-02 0.  1.
    10030    2    1    2    0    0  0.00000000000E+00  0.00000000000E+00  0.12902530552E+04  0.35301211121E+04  0.32858792004E+04 0.  0.
        2    1    3    3  502    0  0.14071088451E+04 -0.37558554917E+03  0.14620635796E+04  0.20636496112E+04  0.25500000920E-02 0. -1.
       -2    1    3    3    0  502 -0.14071088451E+04  0.37558554917E+03 -0.17181052440E+03  0.14664715009E+04  0.25500000920E-02 0.  1.
</event>
<event>
 5   0  0.5988516E-07  0.3284892E+04  0.7818609E-02  0.8166750E-01
        1   -1    0    0  501    0  0.00000000000E+00  0.00000000000E+00  0.15653079294E+04  0.15653079294E+04  0.50400001928E-02 0.  1.
       -1   -1    0    0    0  501  0.00000000000E+00  0.00000000000E+00 -0.17233853283E+04  0.17233853283E+04  0.50400001928E-02 0. -1.
    10030    2    1    2    0    0  0.00000000000E+00  0.00000000000E+00 -0.15807739891E+03  0.32886932577E+04  0.32848919128E+04 0.  0.
        4    1    3    3  502    0  0.14912262723E+03 -0.11150173390E+04  0.11190607838E+04  0.15867576611E+04  0.12699999809E+01 0.  1.
       -4    1    3    3    0  502 -0.14912262723E+03  0.11150173390E+04 -0.12771381827E+04  0.17019355966E+04  0.12699999809E+01 0. -1.
</event>
<event>
 5   0  0.1832626E-06  0.3282796E+04  0.7818609E-02  0.8167287E-01
       -2   -1    0    0    0  501  0.00000000000E+00  0.00000000000E+00  0.10139741050E+04  0.10139741050E+04  0.25500000920E-02 0. -1.
        2   -1    0    0  501    0  0.00000000000E+00  0.00000000000E+00 -0.26570574511E+04  0.26570574511E+04  0.25500000920E-02 0.  1.
    10030    2    1    2    0    0  0.00000000000E+00  0.00000000000E+00 -0.16430833462E+04  0.36710315561E+04  0.32827960344E+04 0.  0.
        3    1    3    3  502    0  0.76348258014E+03 -0.18987513578E+03 -0.24324738448E+04  0.25565381345E+04  0.10100000352E+00 0.  1.
       -3    1    3    3    0  502 -0.76348258014E+03  0.18987513578E+03  0.78939049859E+03  0.11144934216E+04  0.10100000352E+00 0. -1.
</event>
<event>
 5   0  0.1743810E-06  0.3204296E+04  0.7818609E-02  0.8187684E-01
        2   -1    0    0  501    0  0.00000000000E+00  0.00000000000E+00  0.25422741550E+04  0.25422741550E+04  0.25500000920E-02 0.  1.
       -2   -1    0    0    0  501  0.00000000000E+00  0.00000000000E+00 -0.10096778388E+04  0.10096778388E+04  0.25500000920E-02 0. -1.
    10030    2    1    2    0    0  0.00000000000E+00  0.00000000000E+00  0.15325963161E+04  0.35519519938E+04  0.32042957882E+04 0.  0.
        5    1    3    3  502    0  0.89806571305E+03  0.13245685963E+04  0.68150145326E+03  0.17393879131E+04  0.46999998093E+01 0. -1.
       -5    1    3    3    0  502 -0.89806571305E+03 -0.13245685963E+04  0.85109486286E+03  0.18125640808E+04  0.46999998093E+01 0.  1.
</event>
<event>
 5   0  0.1728937E-06  0.3332771E+04  0.7818609E-02  0.8154607E-01
        2   -1    0    0  501    0  0.00000000000E+00  0.00000000000E+00  0.28639320801E+04  0.28639320801E+04  0.25500000920E-02 0.  1.
       -2   -1    0    0    0  501  0.00000000000E+00  0.00000000000E+00 -0.96959009374E+03  0.96959009375E+03  0.25500000920E-02 0. -1.
    10030    2    1    2    0    0  0.00000000000E+00  0.00000000000E+00  0.18943419863E+04  0.38335221738E+04  0.33327707236E+04 0.  0.
        1    1    3    3  502    0 -0.12513802512E+04 -0.51014019726E+03  0.20686770914E+04  0.24709553744E+04  0.50400001928E-02 0. -1.
       -1    1    3    3    0  502  0.12513802512E+04  0.51014019726E+03 -0.17433510507E+03  0.13625667994E+04  0.50400001928E-02 0.  1.
</event>
<event>
 5   0  0.5988516E-07  0.3218677E+04  0.7818609E-02  0.8183902E-01
        1   -1    0    0  501    0  0.00000000000E+00  0.00000000000E+00  0.18256779117E+04  0.18256779117E+04  0.50400001928E-02 0.  1.
       -1   -1    0    0    0  501  0.00000000000E+00  0.00000000000E+00 -0.14186349228E+04  0.14186349229E+04  0.50400001928E-02 0. -1.
    10030    2    1    2    0    0  0.00000000000E+00  0.00000000000E+00  0.40704298890E+03  0.32443128346E+04  0.32186770223E+04 0.  0.
        4    1    3    3  502    0  0.12721017603E+04 -0.90646839801E+03  0.59395787573E+03  0.16711419497E+04  0.12699999809E+01 0.  1.
       -4    1    3    3    0  502 -0.12721017603E+04  0.90646839801E+03 -0.18691488683E+03  0.15731708849E+04  0.12699999809E+01 0. -1.
</event>
<event>
 5   0  0.1728937E-06  0.3290566E+04  0.7818609E-02  0.8165300E-01
        2   -1    0    0  501    0  0.00000000000E+00  0.00000000000E+00  0.13480852027E+04  0.13480852027E+04  0.25500000920E-02 0. -1.
       -2   -1    0    0    0  501  0.00000000000E+00  0.00000000000E+00 -0.20080001867E+04  0.20080001867E+04  0.25500000920E-02 0.  1.
    10030    2    1    2    0    0  0.00000000000E+00  0.00000000000E+00 -0.65991498395E+03  0.33560853894E+04  0.32905655068E+04 0.  0.
        1    1    3    3  502    0 -0.14413041960E+03 -0.15926020436E+04  0.64789728379E+02  0.16004226179E+04  0.50400001928E-02 0.  1.
       -1    1    3    3    0  502  0.14413041960E+03  0.15926020436E+04 -0.72470471233E+03  0.17556627715E+04  0.50400001928E-02 0. -1.
</event>
<event>
 5   0  0.6085351E-07  0.3250867E+04  0.7818609E-02  0.8175511E-01
        1   -1    0    0  501    0  0.00000000000E+00  0.00000000000E+00  0.14792593529E+04  0.14792593529E+04  0.50400001928E-02 0. -1.
       -1   -1    0    0    0  501  0.00000000000E+00  0.00000000000E+00 -0.17860519277E+04  0.17860519277E+04  0.50400001928E-02 0.  1.
    10030    2    1    2    0    0  0.00000000000E+00  0.00000000000E+00 -0.30679257474E+03  0.32653112806E+04  0.32508669729E+04 0.  0.
        1    1    3    3  502    0 -0.69716759330E+03 -0.91993076446E+03  0.99611810597E+03  0.15246529263E+04  0.50400001928E-02 0. -1.
       -1    1    3    3    0  502  0.69716759330E+03  0.91993076446E+03 -0.13029106807E+04  0.17406583543E+04  0.50400001928E-02 0.  1.
</event>
<event>
 5   0  0.1696681E-06  0.2988756E+04  0.7818609E-02  0.8246949E-01
        2   -1    0    0  501    0  0.00000000000E+00  0.00000000000E+00  0.18848495914E+04  0.18848495914E+04  0.25500000920E-02 0. -1.
       -2   -1    0    0    0  501  0.00000000000E+00  0.00000000000E+00 -0.11847976995E+04  0.11847976995E+04  0.25500000920E-02 0.  1.
    10030    2    1    2    0    0  0.00000000000E+00  0.00000000000E+00  0.70005189193E+03  0.30696472908E+04  0.29887559015E+04 0.  0.
        4    1    3    3  502    0 -0.14206601484E+04  0.42575419376E+03  0.16170027686E+03  0.14918748215E+04  0.12699999809E+01 0.  1.
       -4    1    3    3    0  502  0.14206601484E+04 -0.42575419376E+03  0.53835161506E+03  0.15777724693E+04  0.12699999809E+01 0. -1.
</event>
<event>
 5   0  0.6085351E-07  0.2731527E+04  0.7818609E-02  0.8324848E-01
       -1   -1    0    0    0  501  0.00000000000E+00  0.00000000000E+00  0.13482640775E+04  0.13482640775E+04  0.50400001928E-02 0.  1.
        1   -1    0    0  501    0  0.00000000000E+00  0.00000000000E+00 -0.13834897893E+04  0.13834897893E+04  0.50400001928E-02 0. -1.
    10030    2    1    2    0    0  0.00000000000E+00  0.00000000000E+00 -0.35225711853E+02  0.27317538668E+04  0.27315267412E+04 0.  0.
        1    1    3    3  502    0  0.60018226932E+03 -0.10368761276E+04 -0.67339500890E+03  0.13743331832E+04  0.50400001928E-02 0. -1.
       -1    1    3    3    0  502 -0.60018226932E+03  0.10368761276E+04  0.63816929705E+03  0.13574206836E+04  0.50400001928E-02 0.  1.
</event>
<event>
 5   0  0.1743810E-06  0.3229686E+04  0.7818609E-02  0.8181021E-01
       -2   -1    0    0    0  501  0.00000000000E+00  0.00000000000E+00  0.16789446009E+04  0.16789446009E+04  0.25500000920E-02 0. -1.
        2   -1    0    0  501    0  0.00000000000E+00  0.00000000000E+00 -0.15531886011E+04  0.15531886011E+04  0.25500000920E-02 0.  1.
    10030    2    1    2    0    0  0.00000000000E+00  0.00000000000E+00  0.12575599978E+03  0.32321332020E+04  0.32296858150E+04 0.  0.
        5    1    3    3  502    0 -0.10613275858E+04  0.18724105732E+03 -0.11406221987E+04  0.15692407552E+04  0.46999998093E+01 0.  1.
       -5    1    3    3    0  502  0.10613275858E+04 -0.18724105732E+03  0.12663781984E+04  0.16628924467E+04  0.46999998093E+01 0. -1.
</event>
<event>
 5   0  0.1743810E-06  0.3290292E+04  0.7818609E-02  0.8165370E-01
        2   -1    0    0  501    0  0.00000000000E+00  0.00000000000E+00  0.10576136828E+04  0.10576136828E+04  0.25500000920E-02 0. -1.
       -2   -1    0    0    0  501  0.00000000000E+00  0.00000000000E+00 -0.25590683400E+04  0.25590683400E+04  0.25500000920E-02 0.  1.
    10030    2    1    2    0    0  0.00000000000E+00  0.00000000000E+00 -0.15014546572E+04  0.36166820228E+04  0.32902922007E+04 0.  0.
        5    1    3    3  502    0  0.52646057265E+03  0.18667288793E+03 -0.24516364601E+04  0.25144683184E+04  0.46999998093E+01 0.  1.
       -5    1    3    3    0  502 -0.52646057265E+03 -0.18667288793E+03  0.95018180288E+03  0.11022137044E+04  0.46999998093E+01 0. -1.
</event>
<event>
 5   0  0.1784626E-06  0.3083759E+04  0.7818609E-02  0.8220209E-01
        2   -1    0    0  501    0  0.00000000000E+00  0.00000000000E+00  0.25406446946E+04  0.25406446946E+04  0.25500000920E-02 0. -1.
       -2   -1    0    0    0  501  0.00000000000E+00  0.00000000000E+00 -0.93574380125E+03  0.93574380125E+03  0.25500000920E-02 0.  1.
    10030    2    1    2    0    0  0.00000000000E+00  0.00000000000E+00  0.16049008934E+04  0.34763884959E+04  0.30837590854E+04 0.  0.
        2    1    3    3  502    0  0.75385792489E+03  0.69936480924E+03  0.20976344579E+04  0.23361256872E+04  0.25500000920E-02 0. -1.
       -2    1    3    3    0  502 -0.75385792489E+03 -0.69936480924E+03 -0.49273356451E+03  0.11402628087E+04  0.25500000920E-02 0.  1.
</event>
<event>
 5   0  0.1784626E-06  0.3290522E+04  0.7818609E-02  0.8165311E-01
       -2   -1    0    0    0  501  0.00000000000E+00  0.00000000000E+00  0.19953317768E+04  0.19953317768E+04  0.25500000920E-02 0.  1.
        2   -1    0    0  501    0  0.00000000000E+00  0.00000000000E+00 -0.13566084369E+04  0.13566084369E+04  0.25500000920E-02 0. -1.
    10030    2    1    2    0    0  0.00000000000E+00  0.00000000000E+00  0.63872333990E+03  0.33519402138E+04  0.32905221002E+04 0.  0.
        2    1    3    3  502    0  0.13003879074E+03  0.15829207439E+04  0.75671883143E+03  0.17593099665E+04  0.25500000920E-02 0.  1.
       -2    1    3    3    0  502 -0.13003879074E+03 -0.15829207439E+04 -0.11799549152E+03  0.15926302473E+04  0.25500000920E-02 0. -1.
</event>
<event>
 5   0  0.1728937E-06  0.3277454E+04  0.7818609E-02  0.8168656E-01
       -2   -1    0    0    0  501  0.00000000000E+00  0.00000000000E+00  0.24374976558E+04  0.24374976558E+04  0.25500000920E-02 0.  1.
        2   -1    0    0  501    0  0.00000000000E+00  0.00000000000E+00 -0.11017144464E+04  0.11017144464E+04  0.25500000920E-02 0. -1.
    10030    2    1    2    0    0  0.00000000000E+00  0.00000000000E+00  0.13357832094E+04  0.35392121021E+04  0.32774541219E+04 0.  0.
        1    1    3    3  502    0  0.25996663733E+03  0.70536788726E+03  0.22403117989E+04  0.23630750020E+04  0.50400001928E-02 0.  1.
       -1    1    3    3    0  502 -0.25996663733E+03 -0.70536788726E+03 -0.90452858954E+03  0.11761371001E+04  0.50400001928E-02 0. -1.
</event>
<event>
 5   0  0.6023446E-07  0.3552516E+04  0.7818609E-02  0.8101456E-01
       -1   -1    0    0    0  501  0.00000000000E+00  0.00000000000E+00  0.13099426896E+04  0.13099426896E+04  0.50400001928E-02 0.  1.
        1   -1    0    0  501    0  0.00000000000E+00  0.00000000000E+00 -0.24085728276E+04  0.24085728276E+04  0.50400001928E-02 0. -1.
    10030    2    1    2    0    0  0.00000000000E+00  0.00000000000E+00 -0.10986301380E+04  0.37185155173E+04  0.35525159355E+04 0.  0.
        5    1    3    3  502    0 -0.12312094553E+04  0.14955723952E+03 -0.18802757652E+04  0.22524882095E+04  0.46999998093E+01 0. -1.
       -5    1    3    3    0  502  0.12312094553E+04 -0.14955723952E+03  0.78164562716E+03  0.14660273078E+04  0.46999998093E+01 0.  1.
</event>
<event>
 5   0  0.5858859E-07  0.3328513E+04  0.7818609E-02  0.8155678E-01
        1   -1    0    0  501    0  0.00000000000E+00  0.00000000000E+00  0.21754230632E+04  0.21754230632E+04  0.50400001928E-02 0. -1.
       -1   -1    0    0    0  501  0.00000000000E+00  0.00000000000E+00 -0.12732004497E+04  0.12732004497E+04  0.50400001928E-02 0.  1.
    10030    2    1    2    0    0  0.00000000000E+00  0.00000000000E+00  0.90222261343E+03  0.34486235129E+04  0.33285129547E+04 0.  0.
        3    1    3    3  502    0  0.91748030102E+03  0.11233916690E+04 -0.39440713386E+03  0.15031087593E+04  0.10100000352E+00 0.  1.
       -3    1    3    3    0  502 -0.91748030102E+03 -0.11233916690E+04  0.12966297473E+04  0.19455147536E+04  0.10100000352E+00 0. -1.
</event>
<event>
 5   0  0.1832626E-06  0.3274225E+04  0.7818609E-02  0.8169485E-01
       -2   -1    0    0    0  501  0.00000000000E+00  0.00000000000E+00  0.23932125962E+04  0.23932125962E+04  0.25500000920E-02 0. -1.
        2   -1    0    0  501    0  0.00000000000E+00  0.00000000000E+00 -0.11198907353E+04  0.11198907353E+04  0.25500000920E-02 0.  1.
    10030    2    1    2    0    0  0.00000000000E+00  0.00000000000E+00  0.12733218609E+04  0.35131033315E+04  0.32742245580E+04 0.  0.
        3    1    3    3  502    0  0.11175482685E+04 -0.11876166719E+04  0.79136453489E+03  0.18126238796E+04  0.10100000352E+00 0. -1.
       -3    1    3    3    0  502 -0.11175482685E+04  0.11876166719E+04  0.48195732599E+03  0.17004794518E+04  0.10100000352E+00 0.  1.
</event>
<event>
 5   0  0.6085351E-07  0.3305737E+04  0.7818609E-02  0.8161437E-01
        1   -1    0    0  501    0  0.00000000000E+00  0.00000000000E+00  0.19372234555E+04  0.19372234555E+04  0.50400001928E-02 0. -1.
       -1   -1    0    0    0  501  0.00000000000E+00  0.00000000000E+00 -0.14102528530E+04  0.14102528530E+04  0.50400001928E-02 0.  1.
    10030    2    1    2    0    0  0.00000000000E+00  0.00000000000E+00  0.52697060255E+03  0.33474763085E+04  0.33057373792E+04 0.  0.
        1    1    3    3  502    0  0.11130380098E+04 -0.11493649497E+04  0.68355007444E+03  0.17398661164E+04  0.50400001928E-02 0. -1.
       -1    1    3    3    0  502 -0.11130380098E+04  0.11493649497E+04 -0.15657947189E+03  0.16076101921E+04  0.50400001928E-02 0.  1.
</event>
<event>
 5   0  0.1784626E-06  0.3305587E+04  0.7818609E-02  0.8161475E-01
        2   -1    0    0  501    0  0.00000000000E+00  0.00000000000E+00  0.19047910807E+04  0.19047910807E+04  0.25500000920E-02 0. -1.
       -2   -1    0    0    0  501  0.00000000000E+00  0.00000000000E+00 -0.14341347947E+04  0.14341347947E+04  0.25500000920E-02 0.  1.
    10030    2    1    2    0    0  0.00000000000E+00  0.00000000000E+00  0.47065628597E+03  0.33389258753E+04  0.33055874911E+04 0.  0.
        2    1    3    3  502    0  0.35827208774E+01  0.70796074367E+03 -0.12732222106E+04  0.14568170949E+04  0.25500000920E-02 0.  1.
       -2    1    3    3    0  502 -0.35827208774E+01 -0.70796074367E+03  0.17438784966E+04  0.18821087804E+04  0.25500000920E-02 0. -1.
</event>
<event>
 5   0  0.5988516E-07  0.3296933E+04  0.7818609E-02  0.8163676E-01
        1   -1    0    0  501    0  0.00000000000E+00  0.00000000000E+00  0.24894453027E+04  0.24894453027E+04  0.50400001928E-02 0.  1.
       -1   -1    0    0    0  501  0.00000000000E+00  0.00000000000E+00 -0.10915853478E+04  0.10915853478E+04  0.50400001928E-02 0. -1.
    10030    2    1    2    0    0  0.00000000000E+00  0.00000000000E+00  0.13978599549E+04  0.35810306505E+04  0.32969331304E+04 0.  0.
        4    1    3    3  502    0 -0.11296834363E+04 -0.11213101810E+04  0.23311714097E+03  0.16086846809E+04  0.12699999809E+01 0. -1.
       -4    1    3    3    0  502  0.11296834363E+04  0.11213101810E+04  0.11647428139E+04  0.19723459696E+04  0.12699999809E+01 0.  1.
</event>
<event>
 5   0  0.6085351E-07  0.3254769E+04  0.7818609E-02  0.8174501E-01
        1   -1    0    0  501    0  0.00000000000E+00  0.00000000000E+00  0.14478420501E+04  0.14478420501E+04  0.50400001928E-02 0. -1.
       -1   -1    0    0    0  501  0.00000000000E+00  0.00000000000E+00 -0.18291911936E+04  0.18291911936E+04  0.50400001928E-02 0.  1.
    10030    2    1    2    0    0  0.00000000000E+00  0.00000000000E+00 -0.38134914350E+03  0.32770332437E+04  0.32547687646E+04 0.  0.
        1    1    3    3  502    0 -0.13421218798E+04 -0.12510156710E+03  0.72739531619E+03  0.15316806091E+04  0.50400001928E-02 0. -1.
       -1    1    3    3    0  502  0.13421218798E+04  0.12510156710E+03 -0.11087444597E+04  0.17453526346E+04  0.50400001928E-02 0.  1.
</event>
<event>
 5   0  0.5985183E-07  0.3373504E+04  0.7818609E-02  0.8144440E-01
       -1   -1    0    0    0  501  0.00000000000E+00  0.00000000000E+00  0.13523695772E+04  0.13523695772E+04  0.50400001928E-02 0.  1.
        1   -1    0    0  501    0  0.00000000000E+00  0.00000000000E+00 -0.21038124891E+04  0.21038124891E+04  0.50400001928E-02 0. -1.
    10030    2    1    2    0    0  0.00000000000E+00  0.00000000000E+00 -0.75144291193E+03  0.34561820663E+04  0.33735038203E+04 0.  0.
        2    1    3    3  502    0 -0.18054826820E+03 -0.97324685620E+03  0.10235199502E+04  0.14238680447E+04  0.25500000920E-02 0.  1.
       -2    1    3    3    0  502  0.18054826820E+03  0.97324685620E+03 -0.17749628622E+04  0.20323140216E+04  0.25500000920E-02 0. -1.
</event>
<event>
 5   0  0.5858859E-07  0.3306442E+04  0.7818609E-02  0.8161258E-01
       -1   -1    0    0    0  501  0.00000000000E+00  0.00000000000E+00  0.12150265930E+04  0.12150265930E+04  0.50400001928E-02 0. -1.
        1   -1    0    0  501    0  0.00000000000E+00  0.00000000000E+00 -0.22494479260E+04  0.22494479260E+04  0.50400001928E-02 0.  1.
    10030    2    1    2    0    0  0.00000000000E+00  0.00000000000E+00 -0.10344213330E+04  0.34644745189E+04  0.33064416218E+04 0.  0.
        3    1    3    3  502    0 -0.14008554383E+04  0.15696882239E+03  0.38784680566E+03  0.14620055832E+04  0.10100000352E+00 0. -1.
       -3    1    3    3    0  502  0.14008554383E+04 -0.15696882239E+03 -0.14222681387E+04  0.20024689358E+04  0.10100000352E+00 0.  1.
</event>
<event>
 5   0  0.1696681E-06  0.3279374E+04  0.7818609E-02  0.8168164E-01
        2   -1    0    0  501    0  0.00000000000E+00  0.00000000000E+00  0.23661055751E+04  0.23661055751E+04  0.25500000920E-02 0.  1.
       -2   -1    0    0    0  501  0.00000000000E+00  0.00000000000E+00 -0.11362861086E+04  0.11362861086E+04  0.25500000920E-02 0. -1.
    10030    2    1    2    0    0  0.00000000000E+00  0.00000000000E+00  0.12298194665E+04  0.35023916836E+04  0.32793736575E+04 0.  0.
        4    1    3    3  502    0 -0.24322926454E+03 -0.14858136498E+04  0.13085126880E+04  0.19947455338E+04  0.12699999809E+01 0. -1.
       -4    1    3    3    0  502  0.24322926454E+03  0.14858136498E+04 -0.78693221522E+02  0.15076461498E+04  0.12699999809E+01 0.  1.
</event>
<event>
 5   0  0.1696681E-06  0.3325932E+04  0.7818609E-02  0.8156328E-01
       -2   -1    0    0    0  501  0.00000000000E+00  0.00000000000E+00  0.20701910951E+04  0.20701910951E+04  0.25500000920E-02 0. -1.
        2   -1    0    0  501    0  0.00000000000E+00  0.00000000000E+00 -0.13358460783E+04  0.13358460783E+04  0.25500000920E-02 0.  1.
    10030    2    1    2    0    0  0.00000000000E+00  0.00000000000E+00  0.73434501680E+03  0.34060371734E+04  0.33259324441E+04 0.  0.
        4    1    3    3  502    0  0.15435718035E+03 -0.15024007590E+04  0.10799391721E+04  0.18566917913E+04  0.12699999809E+01 0. -1.
       -4    1    3    3    0  502 -0.15435718035E+03  0.15024007590E+04 -0.34559415528E+03  0.15493453820E+04  0.12699999809E+01 0.  1.
</event>
<event>
 5   0  0.5985183E-07  0.3269408E+04  0.7818609E-02  0.8170723E-01
        1   -1    0    0  501    0  0.00000000000E+00  0.00000000000E+00  0.17606974191E+04  0.17606974191E+04  0.50400001928E-02 0. -1.
       -1   -1    0    0    0  501  0.00000000000E+00  0.00000000000E+00 -0.15177264531E+04  0.15177264531E+04  0.50400001928E-02 0.  1.
    10030    2    1    2    0    0  0.00000000000E+00  0.00000000000E+00  0.24297096605E+03  0.32784238722E+04  0.32694079273E+04 0.  0.
        2    1    3    3  502    0 -0.20182594931E+03  0.22370253644E+02 -0.15050303932E+04  0.15186673851E+04  0.25500000920E-02 0.  1.
       -2    1    3    3    0  502  0.20182594931E+03 -0.22370253644E+02  0.17480013592E+04  0.17597564871E+04  0.25500000920E-02 0. -1.
</event>
<event>
 5   0  0.1696681E-06  0.3302964E+04  0.7818609E-02  0.8162142E-01
        2   -1    0    0  501    0  0.00000000000E+00  0.00000000000E+00  0.18655486849E+04  0.18655486849E+04  0.25500000920E-02 0.  1.
       -2   -1    0    0    0  501  0.00000000000E+00  0.00000000000E+00 -0.14619790525E+04  0.14619790525E+04  0.25500000920E-02 0. -1.
    10030    2    1    2    0    0  0.00000000000E+00  0.00000000000E+00  0.40356963249E+03  0.33275277374E+04  0.33029641831E+04 0.  0.
        4    1    3    3  502    0 -0.13793843374E+04 -0.89440362123E+03  0.43349567062E+02  0.16445485051E+04  0.12699999809E+01 0. -1.
       -4    1    3    3    0  502  0.13793843374E+04  0.89440362123E+03  0.36022006543E+03  0.16829792323E+04  0.12699999809E+01 0.  1.
</event>
<event>
 5   0  0.1728937E-06  0.3243616E+04  0.7818609E-02  0.8177392E-01
       -2   -1    0    0    0  501  0.00000000000E+00  0.00000000000E+00  0.16578834687E+04  0.16578834687E+04  0.25500000920E-02 0.  1.
        2   -1    0    0  501    0  0.00000000000E+00  0.00000000000E+00 -0.15865179533E+04  0.15865179533E+04  0.25500000920E-02 0. -1.
    10030    2    1    2    0    0  0.00000000000E+00  0.00000000000E+00  0.71365515420E+02  0.32444014220E+04  0.32436164308E+04 0.  0.
        1    1    3    3  502    0  0.50087270786E+03 -0.12376846565E+04 -0.88515130963E+03  0.16019455732E+04  0.50400001928E-02 0. -1.
       -1    1    3    3    0  502 -0.50087270786E+03  0.12376846565E+04  0.95651682505E+03  0.16424558488E+04  0.50400001928E-02 0.  1.
</event>
<event>
 5   0  0.1696681E-06  0.3259067E+04  0.7818609E-02  0.8173390E-01
       -2   -1    0    0    0  501  0.00000000000E+00  0.00000000000E+00  0.14196492843E+04  0.14196492844E+04  0.25500000920E-02 0. -1.
        2   -1    0    0  501    0  0.00000000000E+00  0.00000000000E+00 -0.18704473147E+04  0.18704473147E+04  0.25500000920E-02 0.  1.
    10030    2    1    2    0    0  0.00000000000E+00  0.00000000000E+00 -0.45079803034E+03  0.32900965990E+04  0.32590668552E+04 0.  0.
        4    1    3    3  502    0  0.59097777821E+03  0.78298291402E+03  0.10881661763E+04  0.14650679910E+04  0.12699999809E+01 0. -1.
       -4    1    3    3    0  502 -0.59097777821E+03 -0.78298291402E+03 -0.15389642067E+04  0.18250286081E+04  0.12699999809E+01 0.  1.
</event>
<event>
 5   0  0.6023446E-07  0.3300174E+04  0.7818609E-02  0.8162851E-01
       -1   -1    0    0    0  501  0.00000000000E+00  0.00000000000E+00  0.15678594953E+04  0.15678594953E+04  0.50400001928E-02 0.  1.
        1   -1    0    0  501    0  0.00000000000E+00  0.00000000000E+00 -0.17366267463E+04  0.17366267463E+04  0.50400001928E-02 0. -1.
    10030    2    1    2    0    0  0.00000000000E+00  0.00000000000E+00 -0.16876725094E+03  0.33044862416E+04  0.33001737736E+04 0.  0.
        5    1    3    3  502    0 -0.55113462491E+03 -0.11204654560E+04  0.99571608774E+03  0.15970800951E+04  0.46999998093E+01 0.  1.
       -5    1    3    3    0  502  0.55113462491E+03  0.11204654560E+04 -0.11644833387E+04  0.17074061465E+04  0.46999998093E+01 0. -1.
</event>
<event>
 5   0  0.1743810E-06  0.3273075E+04  0.7818609E-02  0.8169781E-01
       -2   -1    0    0    0  501  0.00000000000E+00  0.00000000000E+00  0.11590378939E+04  0.11590378939E+04  0.25500000920E-02 0.  1.
        2   -1    0    0  501    0  0.00000000000E+00  0.00000000000E+00 -0.23107563604E+04  0.23107563604E+04  0.25500000920E-02 0. -1.
    10030    2    1    2    0    0  0.00000000000E+00  0.00000000000E+00 -0.11517184665E+04  0.34697942543E+04  0.32730745089E+04 0.  0.
        5    1    3    3  502    0  0.70203938980E+03  0.14782763749E+04 -0.58483885396E+03  0.17378777059E+04  0.46999998093E+01 0. -1.
       -5    1    3    3    0  502 -0.70203938980E+03 -0.14782763749E+04 -0.56687961249E+03  0.17319165484E+04  0.46999998093E+01 0.  1.
</event>
<event>
 5   0  0.6023446E-07  0.3226782E+04  0.7818609E-02  0.8181780E-01
        1   -1    0    0  501    0  0.00000000000E+00  0.00000000000E+00  0.13366884888E+04  0.13366884888E+04  0.50400001928E-02 0. -1.
       -1   -1    0    0    0  501  0.00000000000E+00  0.00000000000E+00 -0.19473726770E+04  0.19473726770E+04  0.50400001928E-02 0.  1.
    10030    2    1    2    0    0  0.00000000000E+00  0.00000000000E+00 -0.61068418819E+03  0.32840611658E+04  0.32267820755E+04 0.  0.
        5    1    3    3  502    0  0.15993515528E+04  0.46845095347E+02 -0.51611415119E+03  0.16812244822E+04  0.46999998093E+01 0.  1.
       -5    1    3    3    0  502 -0.15993515528E+04 -0.46845095347E+02 -0.94570037009E+02  0.16028366836E+04  0.46999998093E+01 0. -1.
</event>
<event>
 5   0  0.5858859E-07  0.3289361E+04  0.7818609E-02  0.8165608E-01
        1   -1    0    0  501    0  0.00000000000E+00  0.00000000000E+00  0.25824747677E+04  0.25824747677E+04  0.50400001928E-02 0. -1.
       -1   -1    0    0    0  501  0.00000000000E+00  0.00000000000E+00 -0.10474350190E+04  0.10474350190E+04  0.50400001928E-02 0.  1.
    10030    2    1    2    0    0  0.00000000000E+00  0.00000000000E+00  0.15350397487E+04  0.36299097867E+04  0.32893613407E+04 0.  0.
        3    1    3    3  502    0  0.14644491930E+04 -0.43392956456E+02 -0.57165140009E+02  0.14662067559E+04  0.10100000352E+00 0.  1.
       -3    1    3    3    0  502 -0.14644491930E+04  0.43392956456E+02  0.15922048887E+04  0.21637030308E+04  0.10100000352E+00 0. -1.
</event>
<event>
 5   0  0.1832626E-06  0.3314279E+04  0.7818609E-02  0.8159272E-01
       -2   -1    0    0    0  501  0.00000000000E+00  0.00000000000E+00  0.13995491517E+04  0.13995491517E+04  0.25500000920E-02 0. -1.
        2   -1    0    0  501    0  0.00000000000E+00  0.00000000000E+00 -0.19621401054E+04  0.19621401054E+04  0.25500000920E-02 0.  1.
    10030    2    1    2    0    0  0.00000000000E+00  0.00000000000E+00 -0.56259095367E+03  0.33616892571E+04  0.33142791192E+04 0.  0.
        3    1    3    3  502    0 -0.26885384948E+03 -0.82626368309E+03 -0.17125501713E+04  0.19203703199E+04  0.10100000352E+00 0.  1.
       -3    1    3    3    0  502  0.26885384948E+03  0.82626368309E+03  0.11499592176E+04  0.14413189372E+04  0.10100000352E+00 0. -1.
</event>
<event>
 5   0  0.6085351E-07  0.3315240E+04  0.7818609E-02  0.8159028E-01
        1   -1    0    0  501    0  0.00000000000E+00  0.00000000000E+00  0.19243906367E+04  0.19243906368E+04  0.50400001928E-02 0. -1.
       -1   -1    0    0    0  501  0.00000000000E+00  0.00000000000E+00 -0.14278305212E+04  0.14278305212E+04  0.50400001928E-02 0.  1.
    10030    2    1    2    0    0  0.00000000000E+00  0.00000000000E+00  0.49656011556E+03  0.33522211579E+04  0.33152397716E+04 0.  0.
        1    1    3    3  502    0 -0.41827175081E+03  0.62517330942E+03  0.17418866136E+04  0.18973565556E+04  0.50400001928E-02 0. -1.
       -1    1    3    3    0  502  0.41827175081E+03 -0.62517330942E+03 -0.12453264981E+04  0.14548646023E+04  0.50400001928E-02 0.  1.
</event>
<event>
 5   0  0.5988516E-07  0.3429638E+04  0.7818609E-02  0.8130670E-01
       -1   -1    0    0    0  501  0.00000000000E+00  0.00000000000E+00  0.14861076769E+04  0.14861076769E+04  0.50400001928E-02 0.  1.
        1   -1    0    0  501    0  0.00000000000E+00  0.00000000000E+00 -0.19787288359E+04  0.19787288359E+04  0.50400001928E-02 0. -1.
    10030    2    1    2    0    0  0.00000000000E+00  0.00000000000E+00 -0.49262115904E+03  0.34648365128E+04  0.34296379480E+04 0.  0.
        4    1    3    3  502    0  0.11436071432E+04  0.81636289258E+03 -0.12394134641E+04  0.18736149600E+04  0.12699999809E+01 0.  1.
       -4    1    3    3    0  502 -0.11436071432E+04 -0.81636289258E+03  0.74679230505E+03  0.15912215528E+04  0.12699999809E+01 0. -1.
</event>
<event>
 5   0  0.6023446E-07  0.3217678E+04  0.7818609E-02  0.8184164E-01
        1   -1    0    0  501    0  0.00000000000E+00  0.00000000000E+00  0.24484916316E+04  0.24484916316E+04  0.50400001928E-02 0.  1.
       -1   -1    0    0    0  501  0.00000000000E+00  0.00000000000E+00 -0.10571253778E+04  0.10571253778E+04  0.50400001928E-02 0. -1.
    10030    2    1    2    0    0  0.00000000000E+00  0.00000000000E+00  0.13913662538E+04  0.35056170094E+04  0.32176778217E+04 0.  0.
        5    1    3    3  502    0  0.15381863762E+04 -0.17501795932E+03  0.21867713628E+03  0.15634866146E+04  0.46999998093E+01 0. -1.
       -5    1    3    3    0  502 -0.15381863762E+04  0.17501795932E+03  0.11726891175E+04  0.19421303948E+04  0.46999998093E+01 0.  1.
</event>
<event>
 5   0  0.6085351E-07  0.3284809E+04  0.7818609E-02  0.8166771E-01
       -1   -1    0    0    0  501  0.00000000000E+00  0.00000000000E+00  0.14485021295E+04  0.14485021295E+04  0.50400001928E-02 0.  1.
        1   -1    0    0  501    0  0.00000000000E+00  0.00000000000E+00 -0.18622638930E+04  0.18622638930E+04  0.50400001928E-02 0. -1.
    10030    2    1    2    0    0  0.00000000000E+00  0.00000000000E+00 -0.41376176353E+03  0.33107660224E+04  0.32848094098E+04 0.  0.
        1    1    3    3  502    0  0.14169547527E+04  0.15982924986E+03  0.61453579644E+03  0.15527267646E+04  0.50400001928E-02 0. -1.
       -1    1    3    3    0  502 -0.14169547527E+04 -0.15982924986E+03 -0.10282975600E+04  0.17580392579E+04  0.50400001928E-02 0.  1.
</event>
<event>
 5   0  0.6085351E-07  0.3305327E+04  0.7818609E-02  0.8161541E-01
       -1   -1    0    0    0  501  0.00000000000E+00  0.00000000000E+00  0.20817763546E+04  0.20817763546E+04  0.50400001928E-02 0. -1.
        1   -1    0    0  501    0  0.00000000000E+00  0.00000000000E+00 -0.13120027699E+04  0.13120027699E+04  0.50400001928E-02 0.  1.
    10030    2    1    2    0    0  0.00000000000E+00  0.00000000000E+00  0.76977358475E+03  0.33937791245E+04  0.33053268181E+04 0.  0.
        1    1    3    3  502    0 -0.61201705610E+03  0.76445334379E+03  0.17518064807E+04  0.20069329180E+04  0.50400001928E-02 0. -1.
       -1    1    3    3    0  502  0.61201705610E+03 -0.76445334379E+03 -0.98203289592E+03  0.13868462065E+04  0.50400001928E-02 0.  1.
</event>
<event>
 5   0  0.1696681E-06  0.3320224E+04  0.7818609E-02  0.8157768E-01
       -2   -1    0    0    0  501  0.00000000000E+00  0.00000000000E+00  0.18639279922E+04  0.18639279922E+04  0.25500000920E-02 0. -1.
        2   -1    0    0  501    0  0.00000000000E+00  0.00000000000E+00 -0.14785824436E+04  0.14785824436E+04  0.25500000920E-02 0.  1.
    10030    2    1    2    0    0  0.00000000000E+00  0.00000000000E+00  0.38534554861E+03  0.33425104358E+04  0.33202236102E+04 0.  0.
        4    1    3    3  502    0 -0.12123757777E+04  0.10561565574E+04  0.60854115637E+03  0.17191991310E+04  0.12699999809E+01 0. -1.
       -4    1    3    3    0  502  0.12123757777E+04 -0.10561565574E+04 -0.22319560777E+03  0.16233113048E+04  0.12699999809E+01 0.  1.
</event>
<event>
 5   0  0.5988516E-07  0.3307154E+04  0.7818609E-02  0.8161077E-01
        1   -1    0    0  501    0  0.00000000000E+00  0.00000000000E+00  0.21023266167E+04  0.21023266167E+04  0.50400001928E-02 0. -1.
       -1   -1    0    0    0  501  0.00000000000E+00  0.00000000000E+00 -0.13006145508E+04  0.13006145508E+04  0.50400001928E-02 0.  1.
    10030    2    1    2    0    0  0.00000000000E+00  0.00000000000E+00  0.80171206586E+03  0.34029411675E+04  0.33071538146E+04 0.  0.
        4    1    3    3  502    0  0.70484357931E+03  0.27010052348E+03 -0.11129996683E+04  0.13448154664E+04  0.12699999809E+01 0.  1.
       -4    1    3    3    0  502 -0.70484357931E+03 -0.27010052348E+03  0.19147117341E+04  0.20581257012E+04  0.12699999809E+01 0. -1.
</event>
<event>
 5   0  0.6085351E-07  0.3249204E+04  0.7818609E-02  0.8175942E-01
       -1   -1    0    0    0  501  0.00000000000E+00  0.00000000000E+00  0.11078081600E+04  0.11078081600E+04  0.50400001928E-02 0.  1.
        1   -1    0    0  501    0  0.00000000000E+00  0.00000000000E+00 -0.23824807838E+04  0.23824807838E+04  0.50400001928E-02 0. -1.
    10030    2    1    2    0    0  0.00000000000E+00  0.00000000000E+00 -0.12746726238E+04  0.34902889438E+04  0.32492039969E+04 0.  0.
        1    1    3    3  502    0 -0.15969750854E+04  0.29827056073E+03 -0.63081083468E+03  0.17427613319E+04  0.50400001928E-02 0. -1.
       -1    1    3    3    0  502  0.15969750854E+04 -0.29827056073E+03 -0.64386178910E+03  0.17475276119E+04  0.50400001928E-02 0.  1.
</event>
<event>
 5   0  0.5858859E-07  0.3260944E+04  0.7818609E-02  0.8172905E-01
        1   -1    0    0  501    0  0.00000000000E+00  0.00000000000E+00  0.24914136543E+04  0.24914136543E+04  0.50400001928E-02 0. -1.
       -1   -1    0    0    0  501  0.00000000000E+00  0.00000000000E+00 -0.10670400518E+04  0.10670400518E+04  0.50400001928E-02 0.  1.
    10030    2    1    2    0    0  0.00000000000E+00  0.00000000000E+00  0.14243736025E+04  0.35584537062E+04  0.32609435168E+04 0.  0.
        3    1    3    3  502    0 -0.67154505864E+03  0.13867704300E+04  0.13030899271E+03  0.15463134984E+04  0.10100000352E+00 0.  1.
       -3    1    3    3    0  502  0.67154505864E+03 -0.13867704300E+04  0.12940646098E+04  0.20121402078E+04  0.10100000352E+00 0. -1.
</event>
<event>
 5   0  0.5858859E-07  0.3265747E+04  0.7818609E-02  0.8171666E-01
        1   -1    0    0  501    0  0.00000000000E+00  0.00000000000E+00  0.18907402928E+04  0.18907402928E+04  0.50400001928E-02 0. -1.
       -1   -1    0    0    0  501  0.00000000000E+00  0.00000000000E+00 -0.14101756249E+04  0.14101756249E+04  0.50400001928E-02 0.  1.
    10030    2    1    2    0    0  0.00000000000E+00  0.00000000000E+00  0.48056466790E+03  0.33009159176E+04  0.32657470042E+04 0.  0.
        3    1    3    3  502    0  0.42395389434E+02  0.96677015380E+03  0.15696776210E+04  0.18439983036E+04  0.10100000352E+00 0. -1.
       -3    1    3    3    0  502 -0.42395389434E+02 -0.96677015380E+03 -0.10891129531E+04  0.14569176141E+04  0.10100000352E+00 0.  1.
</event>
<event>
 5   0  0.1696681E-06  0.3285230E+04  0.7818609E-02  0.8166664E-01
        2   -1    0    0  501    0  0.00000000000E+00  0.00000000000E+00  0.17247944824E+04  0.17247944824E+04  0.25500000920E-02 0.  1.
       -2   -1    0    0    0  501  0.00000000000E+00  0.00000000000E+00 -0.15643514073E+04  0.15643514074E+04  0.25500000920E-02 0. -1.
    10030    2    1    2    0    0  0.00000000000E+00  0.00000000000E+00  0.16044307502E+03  0.32891458897E+04  0.32852303882E+04 0.  0.
        4    1    3    3  502    0 -0.38642477610E+03 -0.91500826775E+03 -0.12296262560E+04  0.15806791515E+04  0.12699999809E+01 0. -1.
       -4    1    3    3    0  502  0.38642477610E+03  0.91500826775E+03  0.13900693310E+04  0.17084667382E+04  0.12699999809E+01 0.  1.
</event>
<event>
 5   0  0.5985183E-07  0.3288100E+04  0.7818609E-02  0.8165930E-01
        1   -1    0    0  501    0  0.00000000000E+00  0.00000000000E+00  0.14179879747E+04  0.14179879747E+04  0.50400001928E-02 0.  1.
       -1   -1    0    0    0  501  0.00000000000E+00  0.00000000000E+00 -0.19061519985E+04  0.19061519985E+04  0.50400001928E-02 0. -1.
    10030    2    1    2    0    0  0.00000000000E+00  0.00000000000E+00 -0.48816402374E+03  0.33241399732E+04  0.32881001273E+04 0.  0.
        2    1    3    3  502    0 -0.15174502380E+04  0.14089752737E+03  0.37943841161E+03  0.15705033735E+04  0.25500000920E-02 0. -1.
       -2    1    3    3    0  502  0.15174502380E+04 -0.14089752737E+03 -0.86760243535E+03  0.17536365997E+04  0.25500000920E-02 0.  1.
</event>
<event>
 5   0  0.5988516E-07  0.3308736E+04  0.7818609E-02  0.8160676E-01
        1   -1    0    0  501    0  0.00000000000E+00  0.00000000000E+00  0.16827081934E+04  0.16827081934E+04  0.50400001928E-02 0. -1.
       -1   -1    0    0    0  501  0.00000000000E+00  0.00000000000E+00 -0.16265053241E+04  0.16265053241E+04  0.50400001928E-02 0.  1.
    10030    2    1    2    0    0  0.00000000000E+00  0.00000000000E+00  0.56202869289E+02  0.33092135175E+04  0.33087362153E+04 0.  0.
        4    1    3    3  502    0  0.46933858969E+03 -0.67430525524E+03  0.14642632901E+04  0.16789981788E+04  0.12699999809E+01 0. -1.
       -4    1    3    3    0  502 -0.46933858969E+03  0.67430525524E+03 -0.14080604208E+04  0.16302153387E+04  0.12699999809E+01 0.  1.
</event>
<event>
 5   0  0.1696681E-06  0.3305870E+04  0.7818609E-02  0.8161403E-01
        2   -1    0    0  501    0  0.00000000000E+00  0.00000000000E+00  0.23273946045E+04  0.23273946045E+04  0.25500000920E-02 0.  1.
       -2   -1    0    0    0  501  0.00000000000E+00  0.00000000000E+00 -0.11739280367E+04  0.11739280367E+04  0.25500000920E-02 0. -1.
    10030    2    1    2    0    0  0.00000000000E+00  0.00000000000E+00  0.11534665678E+04  0.35013226412E+04  0.33058697970E+04 0.  0.
        4    1    3    3  502    0 -0.15665169904E+04  0.32393155228E+03  0.10176199001E+04  0.18959058536E+04  0.12699999809E+01 0.  1.
       -4    1    3    3    0  502  0.15665169904E+04 -0.32393155228E+03  0.13584666775E+03  0.16054167876E+04  0.12699999809E+01 0. -1.
</event>
<event>
 5   0  0.1743810E-06  0.3439172E+04  0.7818609E-02  0.8128359E-01
       -2   -1    0    0    0  501  0.00000000000E+00  0.00000000000E+00  0.12151542098E+04  0.12151542098E+04  0.25500000920E-02 0. -1.
        2   -1    0    0  501    0  0.00000000000E+00  0.00000000000E+00 -0.24334165333E+04  0.24334165333E+04  0.25500000920E-02 0.  1.
    10030    2    1    2    0    0  0.00000000000E+00  0.00000000000E+00 -0.12182623235E+04  0.36485707431E+04  0.34391721937E+04 0.  0.
        5    1    3    3  502    0 -0.45339174946E+03  0.14517078863E+03  0.11438420411E+04  0.12389654319E+04  0.46999998093E+01 0. -1.
       -5    1    3    3    0  502  0.45339174946E+03 -0.14517078863E+03 -0.23621043646E+04  0.24096053112E+04  0.46999998093E+01 0.  1.
</event>
<event>
 5   0  0.5988516E-07  0.3266443E+04  0.7818609E-02  0.8171487E-01
       -1   -1    0    0    0  501  0.00000000000E+00  0.00000000000E+00  0.12352232611E+04  0.12352232611E+04  0.50400001928E-02 0. -1.
        1   -1    0    0  501    0  0.00000000000E+00  0.00000000000E+00 -0.21594571766E+04  0.21594571766E+04  0.50400001928E-02 0.  1.
    10030    2    1    2    0    0  0.00000000000E+00  0.00000000000E+00 -0.92423391547E+03  0.33946804377E+04  0.32664425517E+04 0.  0.
        4    1    3    3  502    0  0.89053093476E+03  0.20795019041E+03 -0.18684314545E+04  0.20802226661E+04  0.12699999809E+01 0.  1.
       -4    1    3    3    0  502 -0.89053093476E+03 -0.20795019041E+03  0.94419753907E+03  0.13144577715E+04  0.12699999809E+01 0. -1.
</event>
<event>
 5   0  0.1696681E-06  0.3216522E+04  0.7818609E-02  0.8184467E-01
       -2   -1    0    0    0  501  0.00000000000E+00  0.00000000000E+00  0.19229663918E+04  0.19229663918E+04  0.25500000920E-02 0.  1.
        2   -1    0    0  501    0  0.00000000000E+00  0.00000000000E+00 -0.13450593529E+04  0.13450593529E+04  0.25500000920E-02 0. -1.
    10030    2    1    2    0    0  0.00000000000E+00  0.00000000000E+00  0.57790703884E+03  0.32680257447E+04  0.32165223025E+04 0.  0.
        4    1    3    3  502    0  0.27371465044E+03 -0.79448124963E+03 -0.11042737372E+04  0.13876390977E+04  0.12699999809E+01 0. -1.
       -4    1    3    3    0  502 -0.27371465044E+03  0.79448124963E+03  0.16821807761E+04  0.18803866470E+04  0.12699999809E+01 0.  1.
</event>
<event>
 5   0  0.1832626E-06  0.3295346E+04  0.7818609E-02  0.8164081E-01
       -2   -1    0    0    0  501  0.00000000000E+00  0.00000000000E+00  0.11389189323E+04  0.11389189323E+04  0.25500000920E-02 0.  1.
        2   -1    0    0  501    0  0.00000000000E+00  0.00000000000E+00 -0.23836868187E+04  0.23836868187E+04  0.25500000920E-02 0. -1.
    10030    2    1    2    0    0  0.00000000000E+00  0.00000000000E+00 -0.12447678863E+04  0.35226057510E+04  0.32953458371E+04 0.  0.
        3    1    3    3  502    0  0.11588403040E+03  0.60122013117E+03 -0.22575602744E+04  0.23391180298E+04  0.10100000352E+00 0. -1.
       -3    1    3    3    0  502 -0.11588403040E+03 -0.60122013117E+03  0.10127923881E+04  0.11834877212E+04  0.10100000352E+00 0.  1.
</event>
<event>
 5   0  0.6023446E-07  0.3307354E+04  0.7818609E-02  0.8161027E-01
        1   -1    0    0  501    0  0.00000000000E+00  0.00000000000E+00  0.16534866508E+04  0.16534866508E+04  0.50400001928E-02 0. -1.
       -1   -1    0    0    0  501  0.00000000000E+00  0.00000000000E+00 -0.16538678155E+04  0.16538678155E+04  0.50400001928E-02 0.  1.
    10030    2    1    2    0    0  0.00000000000E+00  0.00000000000E+00 -0.38116472258E+00  0.33073544662E+04  0.33073544443E+04 0.  0.
        5    1    3    3  502    0 -0.15306056989E+04  0.36548798118E+03 -0.50841395701E+03  0.16537358047E+04  0.46999998093E+01 0. -1.
       -5    1    3    3    0  502  0.15306056989E+04 -0.36548798118E+03  0.50803279228E+03  0.16536186616E+04  0.46999998093E+01 0.  1.
</event>
<event>
 5   0  0.1784626E-06  0.3221347E+04  0.7818609E-02  0.8183202E-01
       -2   -1    0    0    0  501  0.00000000000E+00  0.00000000000E+00  0.87430492107E+03  0.87430492107E+03  0.25500000920E-02 0. -1.
        2   -1    0    0  501    0  0.00000000000E+00  0.00000000000E+00 -0.29672355644E+04  0.29672355644E+04  0.25500000920E-02 0.  1.
    10030    2    1    2    0    0  0.00000000000E+00  0.00000000000E+00 -0.20929306434E+04  0.38415404855E+04  0.32213467097E+04 0.  0.
        2    1    3    3  502    0  0.55478806999E+03  0.14476426133E+04 -0.52554873184E+03  0.16369668317E+04  0.25500000920E-02 0. -1.
       -2    1    3    3    0  502 -0.55478806999E+03 -0.14476426133E+04 -0.15673819115E+04  0.22045736538E+04  0.25500000920E-02 0.  1.
</event>
<event>
 5   0  0.5685000E-07  0.3306200E+04  0.7818609E-02  0.8161320E-01
        3   -1    0    0  501    0  0.00000000000E+00  0.00000000000E+00  0.16482506206E+04  0.16482506237E+04  0.10100000352E+00 0. -1.
       -3   -1    0    0    0  501  0.00000000000E+00  0.00000000000E+00 -0.16579637008E+04  0.16579637039E+04  0.10100000352E+00 0.  1.
    10030    2    1    2    0    0  0.00000000000E+00  0.00000000000E+00 -0.97130801940E+01  0.33062143276E+04  0.33062000599E+04 0.  0.
        4    1    3    3  502    0  0.30779943428E+03  0.56309875313E+03  0.15186057765E+04  0.16486314976E+04  0.12699999809E+01 0. -1.
       -4    1    3    3    0  502 -0.30779943428E+03 -0.56309875313E+03 -0.15283188567E+04  0.16575828300E+04  0.12699999809E+01 0.  1.
</event>
<event>
 5   0  0.1784626E-06  0.2757320E+04  0.7818609E-02  0.8316643E-01
        2   -1    0    0  501    0  0.00000000000E+00  0.00000000000E+00  0.13203654845E+04  0.13203654845E+04  0.25500000920E-02 0.  1.
       -2   -1    0    0    0  501  0.00000000000E+00  0.00000000000E+00 -0.14395282042E+04  0.14395282042E+04  0.25500000920E-02 0. -1.
    10030    2    1    2    0    0  0.00000000000E+00  0.00000000000E+00 -0.11916271965E+03  0.27598936887E+04  0.27573199704E+04 0.  0.
        2    1    3    3  502    0  0.13673536260E+04  0.10186132461E+03  0.84329359515E+02  0.13737332743E+04  0.25500000920E-02 0.  1.
       -2    1    3    3    0  502 -0.13673536260E+04 -0.10186132461E+03 -0.20349207916E+03  0.13861604144E+04  0.25500000920E-02 0. -1.
</event>
<event>
 5   0  0.5858859E-07  0.3269031E+04  0.7818609E-02  0.8170821E-01
        1   -1    0    0  501    0  0.00000000000E+00  0.00000000000E+00  0.12465214082E+04  0.12465214082E+04  0.50400001928E-02 0. -1.
       -1   -1    0    0    0  501  0.00000000000E+00  0.00000000000E+00 -0.21432768344E+04  0.21432768344E+04  0.50400001928E-02 0.  1.
    10030    2    1    2    0    0  0.00000000000E+00  0.00000000000E+00 -0.89675542626E+03  0.33897982426E+04  0.32690307173E+04 0.  0.
        3    1    3    3  502    0  0.16611658275E+03  0.18418077400E+03 -0.21236497899E+04  0.21380845907E+04  0.10100000352E+00 0.  1.
       -3    1    3    3    0  502 -0.16611658275E+03 -0.18418077400E+03  0.12268943637E+04  0.12517136519E+04  0.10100000352E+00 0. -1.
</event>
<event>
 5   0  0.1832626E-06  0.3357865E+04  0.7818609E-02  0.8148326E-01
       -2   -1    0    0    0  501  0.00000000000E+00  0.00000000000E+00  0.16897121620E+04  0.16897121620E+04  0.25500000920E-02 0.  1.
        2   -1    0    0  501    0  0.00000000000E+00  0.00000000000E+00 -0.16682218989E+04  0.16682218989E+04  0.25500000920E-02 0. -1.
    10030    2    1    2    0    0  0.00000000000E+00  0.00000000000E+00  0.21490263022E+02  0.33579340609E+04  0.33578652930E+04 0.  0.
        3    1    3    3  502    0  0.40205575192E+03  0.54309506296E+03 -0.15262358384E+04  0.16691305880E+04  0.10100000352E+00 0. -1.
       -3    1    3    3    0  502 -0.40205575192E+03 -0.54309506296E+03  0.15477261014E+04  0.16888034730E+04  0.10100000352E+00 0.  1.
</event>
<event>
 5   0  0.5988516E-07  0.3333216E+04  0.7818609E-02  0.8154495E-01
        1   -1    0    0  501    0  0.00000000000E+00  0.00000000000E+00  0.17099025136E+04  0.17099025136E+04  0.50400001928E-02 0.  1.
       -1   -1    0    0    0  501  0.00000000000E+00  0.00000000000E+00 -0.16244100788E+04  0.16244100788E+04  0.50400001928E-02 0. -1.
    10030    2    1    2    0    0  0.00000000000E+00  0.00000000000E+00  0.85492434746E+02  0.33343125924E+04  0.33332163907E+04 0.  0.
        4    1    3    3  502    0 -0.19478675316E+02  0.38314262505E+03  0.16651314956E+04  0.17087545758E+04  0.12699999809E+01 0.  1.
       -4    1    3    3    0  502  0.19478675316E+02 -0.38314262505E+03 -0.15796390608E+04  0.16255580166E+04  0.12699999809E+01 0. -1.
</event>
<event>
 5   0  0.6085351E-07  0.3308228E+04  0.7818609E-02  0.8160805E-01
        1   -1    0    0  501    0  0.00000000000E+00  0.00000000000E+00  0.21483165029E+04  0.21483165029E+04  0.50400001928E-02 0.  1.
       -1   -1    0    0    0  501  0.00000000000E+00  0.00000000000E+00 -0.12735989847E+04  0.12735989848E+04  0.50400001928E-02 0. -1.
    10030    2    1    2    0    0  0.00000000000E+00  0.00000000000E+00  0.87471751811E+03  0.34219154876E+04  0.33082283579E+04 0.  0.
        1    1    3    3  502    0 -0.12210148311E+04  0.59332636280E+03  0.14149186485E+04  0.19608437400E+04  0.50400001928E-02 0.  1.
       -1    1    3    3    0  502  0.12210148311E+04 -0.59332636280E+03 -0.54020113044E+03  0.14610717477E+04  0.50400001928E-02 0. -1.
</event>
<event>
 5   0  0.1784626E-06  0.3308237E+04  0.7818609E-02  0.8160803E-01
        2   -1    0    0  501    0  0.00000000000E+00  0.00000000000E+00  0.29984584127E+04  0.29984584127E+04  0.25500000920E-02 0.  1.
       -2   -1    0    0    0  501  0.00000000000E+00  0.00000000000E+00 -0.91250490695E+03  0.91250490696E+03  0.25500000920E-02 0. -1.
    10030    2    1    2    0    0  0.00000000000E+00  0.00000000000E+00  0.20859535057E+04  0.39109633196E+04  0.33082370017E+04 0.  0.
        2    1    3    3  502    0 -0.23259947074E+03 -0.13463700282E+04  0.21452018139E+04  0.25433650129E+04  0.25500000920E-02 0.  1.
       -2    1    3    3    0  502  0.23259947074E+03  0.13463700282E+04 -0.59248308167E+02  0.13675983067E+04  0.25500000920E-02 0. -1.
</event>
<event>
 5   0  0.5858859E-07  0.3558500E+04  0.7818609E-02  0.8100064E-01
        1   -1    0    0  501    0  0.00000000000E+00  0.00000000000E+00  0.28994613889E+04  0.28994613889E+04  0.50400001928E-02 0. -1.
       -1   -1    0    0    0  501  0.00000000000E+00  0.00000000000E+00 -0.10918341269E+04  0.10918341269E+04  0.50400001928E-02 0.  1.
    10030    2    1    2    0    0  0.00000000000E+00  0.00000000000E+00  0.18076272621E+04  0.39912955158E+04  0.35585001863E+04 0.  0.
        3    1    3    3  502    0  0.42454935803E+03  0.63252007911E+03  0.27072937445E+04  0.28124301301E+04  0.10100000352E+00 0. -1.
       -3    1    3    3    0  502 -0.42454935803E+03 -0.63252007911E+03 -0.89966648236E+03  0.11788653857E+04  0.10100000352E+00 0.  1.
</event>
<event>
 5   0  0.1696681E-06  0.3226557E+04  0.7818609E-02  0.8181838E-01
       -2   -1    0    0    0  501  0.00000000000E+00  0.00000000000E+00  0.30176006478E+04  0.30176006478E+04  0.25500000920E-02 0.  1.
        2   -1    0    0  501    0  0.00000000000E+00  0.00000000000E+00 -0.86249589846E+03  0.86249589847E+03  0.25500000920E-02 0. -1.
    10030    2    1    2    0    0  0.00000000000E+00  0.00000000000E+00  0.21551047494E+04  0.38800965463E+04  0.32265574112E+04 0.  0.
        4    1    3    3  502    0  0.96067930417E+03  0.60056949986E+03 -0.30358981929E+03  0.11729266136E+04  0.12699999809E+01 0. -1.
       -4    1    3    3    0  502 -0.96067930417E+03 -0.60056949986E+03  0.24586945687E+04  0.27071699327E+04  0.12699999809E+01 0.  1.
</event>
<event>
 5   0  0.1832626E-06  0.3259762E+04  0.7818609E-02  0.8173210E-01
        2   -1    0    0  501    0  0.00000000000E+00  0.00000000000E+00  0.16338155252E+04  0.16338155252E+04  0.25500000920E-02 0.  1.
       -2   -1    0    0    0  501  0.00000000000E+00  0.00000000000E+00 -0.16259562328E+04  0.16259562329E+04  0.25500000920E-02 0. -1.
    10030    2    1    2    0    0  0.00000000000E+00  0.00000000000E+00  0.78592923117E+01  0.32597717580E+04  0.32597622836E+04 0.  0.
        3    1    3    3  502    0 -0.12092839797E+04 -0.10456266071E+04 -0.31357683765E+03  0.16291203726E+04  0.10100000352E+00 0.  1.
       -3    1    3    3    0  502  0.12092839797E+04  0.10456266071E+04  0.32143612997E+03  0.16306513854E+04  0.10100000352E+00 0. -1.
</event>
<event>
 5   0  0.1743810E-06  0.3265174E+04  0.7818609E-02  0.8171814E-01
        2   -1    0    0  501    0  0.00000000000E+00  0.00000000000E+00  0.10284144559E+04  0.10284144559E+04  0.25500000920E-02 0. -1.
       -2   -1    0    0    0  501  0.00000000000E+00  0.00000000000E+00 -0.25916979366E+04  0.25916979367E+04  0.25500000920E-02 0.  1.
    10030    2    1    2    0    0  0.00000000000E+00  0.00000000000E+00 -0.15632834808E+04  0.36201123925E+04  0.32651735779E+04 0.  0.
        5    1    3    3  502    0 -0.99621823303E+02  0.11038083282E+04 -0.21107005393E+04  0.23839874559E+04  0.46999998093E+01 0.  1.
       -5    1    3    3    0  502  0.99621823303E+02 -0.11038083282E+04  0.54741705856E+03  0.12361249367E+04  0.46999998093E+01 0. -1.
</event>
<event>
 5   0  0.5988516E-07  0.3315149E+04  0.7818609E-02  0.8159051E-01
       -1   -1    0    0    0  501  0.00000000000E+00  0.00000000000E+00  0.12064736292E+04  0.12064736292E+04  0.50400001928E-02 0. -1.
        1   -1    0    0  501    0  0.00000000000E+00  0.00000000000E+00 -0.22773418019E+04  0.22773418019E+04  0.50400001928E-02 0.  1.
    10030    2    1    2    0    0  0.00000000000E+00  0.00000000000E+00 -0.10708681727E+04  0.34838154311E+04  0.33151487620E+04 0.  0.
        4    1    3    3  502    0 -0.15637373735E+04 -0.54463304764E+03 -0.61443524025E+03  0.17661913847E+04  0.12699999809E+01 0. -1.
       -4    1    3    3    0  502  0.15637373735E+04  0.54463304764E+03 -0.45643293246E+03  0.17176240464E+04  0.12699999809E+01 0.  1.
</event>
<event>
 5   0  0.5858859E-07  0.3274891E+04  0.7818609E-02  0.8169314E-01
       -1   -1    0    0    0  501  0.00000000000E+00  0.00000000000E+00  0.16585629226E+04  0.16585629226E+04  0.50400001928E-02 0.  1.
        1   -1    0    0  501    0  0.00000000000E+00  0.00000000000E+00 -0.16165964710E+04  0.16165964710E+04  0.50400001928E-02 0. -1.
    10030    2    1    2    0    0  0.00000000000E+00  0.00000000000E+00  0.41966451630E+02  0.32751593936E+04  0.32748905127E+04 0.  0.
        3    1    3    3  502    0 -0.11934183817E+04 -0.10662942824E+04 -0.32544964207E+03  0.16331406584E+04  0.10100000352E+00 0. -1.
       -3    1    3    3    0  502  0.11934183817E+04  0.10662942824E+04  0.36741609370E+03  0.16420187351E+04  0.10100000352E+00 0.  1.
</event>
<event>
 5   0  0.6023446E-07  0.3309027E+04  0.7818609E-02  0.8160602E-01
        1   -1    0    0  501    0  0.00000000000E+00  0.00000000000E+00  0.27056831832E+04  0.27056831832E+04  0.50400001928E-02 0.  1.
       -1   -1    0    0    0  501  0.00000000000E+00  0.00000000000E+00 -0.10117277958E+04  0.10117277958E+04  0.50400001928E-02 0. -1.
    10030    2    1    2    0    0  0.00000000000E+00  0.00000000000E+00  0.16939553875E+04  0.37174109790E+04  0.33090269766E+04 0.  0.
        5    1    3    3  502    0  0.14047814002E+04 -0.58213938019E+03  0.15794372549E+04  0.21924737564E+04  0.46999998093E+01 0.  1.
       -5    1    3    3    0  502 -0.14047814002E+04  0.58213938019E+03  0.11451813253E+03  0.15249372226E+04  0.46999998093E+01 0. -1.
</event>
<event>
 5   0  0.1696681E-06  0.3268989E+04  0.7818609E-02  0.8170831E-01
        2   -1    0    0  501    0  0.00000000000E+00  0.00000000000E+00  0.10508121460E+04  0.10508121460E+04  0.25500000920E-02 0. -1.
       -2   -1    0    0    0  501  0.00000000000E+00  0.00000000000E+00 -0.25423885696E+04  0.25423885696E+04  0.25500000920E-02 0.  1.
    10030    2    1    2    0    0  0.00000000000E+00  0.00000000000E+00 -0.14915764236E+04  0.35932007157E+04  0.32689893171E+04 0.  0.
        4    1    3    3  502    0  0.11643624203E+04  0.11470968412E+04 -0.74623751857E+03  0.17967868699E+04  0.12699999809E+01 0.  1.
       -4    1    3    3    0  502 -0.11643624203E+04 -0.11470968412E+04 -0.74533890506E+03  0.17964138457E+04  0.12699999809E+01 0. -1.
</event>
<event>
 5   0  0.1728937E-06  0.3248951E+04  0.7818609E-02  0.8176008E-01
        2   -1    0    0  501    0  0.00000000000E+00  0.00000000000E+00  0.24015619666E+04  0.24015619666E+04  0.25500000920E-02 0. -1.
       -2   -1    0    0    0  501  0.00000000000E+00  0.00000000000E+00 -0.10988353980E+04  0.10988353980E+04  0.25500000920E-02 0.  1.
    10030    2    1    2    0    0  0.00000000000E+00  0.00000000000E+00  0.13027265687E+04  0.35003973646E+04  0.32489513997E+04 0.  0.
        1    1    3    3  502    0  0.26011826765E+02 -0.15952336969E+04  0.32196611388E+03  0.16276084730E+04  0.50400001928E-02 0.  1.
       -1    1    3    3    0  502 -0.26011826765E+02  0.15952336969E+04  0.98076045479E+03  0.18727888916E+04  0.50400001928E-02 0. -1.
</event>
<event>
 5   0  0.1743810E-06  0.3314422E+04  0.7818609E-02  0.8159235E-01
        2   -1    0    0  501    0  0.00000000000E+00  0.00000000000E+00  0.18467866494E+04  0.18467866494E+04  0.25500000920E-02 0. -1.
       -2   -1    0    0    0  501  0.00000000000E+00  0.00000000000E+00 -0.14870953355E+04  0.14870953355E+04  0.25500000920E-02 0.  1.
    10030    2    1    2    0    0  0.00000000000E+00  0.00000000000E+00  0.35969131390E+03  0.33338819849E+04  0.33144217065E+04 0.  0.
        5    1    3    3  502    0 -0.41577266037E+03  0.63277877655E+03  0.16626276424E+04  0.18269178012E+04  0.46999998093E+01 0. -1.
       -5    1    3    3    0  502  0.41577266037E+03 -0.63277877655E+03 -0.13029363284E+04  0.15069641838E+04  0.46999998093E+01 0.  1.
</event>
<event>
 5   0  0.1696681E-06  0.3187876E+04  0.7818609E-02  0.8192026E-01
       -2   -1    0    0    0  501  0.00000000000E+00  0.00000000000E+00  0.19296023484E+04  0.19296023484E+04  0.25500000920E-02 0.  1.
        2   -1    0    0  501    0  0.00000000000E+00  0.00000000000E+00 -0.13166645261E+04  0.13166645261E+04  0.25500000920E-02 0. -1.
    10030    2    1    2    0    0  0.00000000000E+00  0.00000000000E+00  0.61293782226E+03  0.32462668745E+04  0.31878763851E+04 0.  0.
        4    1    3    3  502    0 -0.76278468246E+03 -0.20735506706E+03 -0.11030078422E+04  0.13570057142E+04  0.12699999809E+01 0. -1.
       -4    1    3    3    0  502  0.76278468246E+03  0.20735506706E+03  0.17159456645E+04  0.18892611603E+04  0.12699999809E+01 0.  1.
</event>
<event>
 5   0  0.1784626E-06  0.3290839E+04  0.7818609E-02  0.8165230E-01
       -2   -1    0    0    0  501  0.00000000000E+00  0.00000000000E+00  0.91900654923E+03  0.91900654923E+03  0.25500000920E-02 0. -1.
        2   -1    0    0  501    0  0.00000000000E+00  0.00000000000E+00 -0.29460128797E+04  0.29460128797E+04  0.25500000920E-02 0.  1.
    10030    2    1    2    0    0  0.00000000000E+00  0.00000000000E+00 -0.20270063305E+04  0.38650194290E+04  0.32908388782E+04 0.  0.
        2    1    3    3  502    0 -0.15138905038E+04 -0.38521138317E+03 -0.40645244531E+03  0.16141424527E+04  0.25500000920E-02 0.  1.
       -2    1    3    3    0  502  0.15138905038E+04  0.38521138317E+03 -0.16205538852E+04  0.22508769762E+04  0.25500000920E-02 0. -1.
</event>
<event>
 5   0  0.1743810E-06  0.3304428E+04  0.7818609E-02  0.8161770E-01
       -2   -1    0    0    0  501  0.00000000000E+00  0.00000000000E+00  0.11312497509E+04  0.11312497509E+04  0.25500000920E-02 0.  1.
        2   -1    0    0  501    0  0.00000000000E+00  0.00000000000E+00 -0.24130935360E+04  0.24130935360E+04  0.25500000920E-02 0. -1.
    10030    2    1    2    0    0  0.00000000000E+00  0.00000000000E+00 -0.12818437851E+04  0.35443432869E+04  0.33044282177E+04 0.  0.
        5    1    3    3  502    0  0.13555959104E+04  0.90196993020E+03 -0.34021116753E+03  0.16634168918E+04  0.46999998093E+01 0.  1.
       -5    1    3    3    0  502 -0.13555959104E+04 -0.90196993020E+03 -0.94163261755E+03  0.18809263951E+04  0.46999998093E+01 0. -1.
</event>
<event>
 5   0  0.1743810E-06  0.3295851E+04  0.7818609E-02  0.8163952E-01
       -2   -1    0    0    0  501  0.00000000000E+00  0.00000000000E+00  0.13449165537E+04  0.13449165537E+04  0.25500000920E-02 0.  1.
        2   -1    0    0  501    0  0.00000000000E+00  0.00000000000E+00 -0.20192023082E+04  0.20192023082E+04  0.25500000920E-02 0. -1.
    10030    2    1    2    0    0  0.00000000000E+00  0.00000000000E+00 -0.67428575444E+03  0.33641188619E+04  0.32958510947E+04 0.  0.
        5    1    3    3  502    0  0.83808066768E+03 -0.14104255533E+04 -0.49512961274E+03  0.17137254361E+04  0.46999998093E+01 0.  1.
       -5    1    3    3    0  502 -0.83808066768E+03  0.14104255533E+04 -0.17915614170E+03  0.16503934258E+04  0.46999998093E+01 0. -1.
</event>
<event>
 5   0  0.5985183E-07  0.3276049E+04  0.7818609E-02  0.8169017E-01
        1   -1    0    0  501    0  0.00000000000E+00  0.00000000000E+00  0.19804414531E+04  0.19804414531E+04  0.50400001928E-02 0.  1.
       -1   -1    0    0    0  501  0.00000000000E+00  0.00000000000E+00 -0.13548113344E+04  0.13548113344E+04  0.50400001928E-02 0. -1.
    10030    2    1    2    0    0  0.00000000000E+00  0.00000000000E+00  0.62563011876E+03  0.33352527875E+04  0.32760491619E+04 0.  0.
        2    1    3    3  502    0  0.48994749886E+03  0.14866750970E+04  0.80410518741E+03  0.17597830969E+04  0.25500000920E-02 0.  1.
       -2    1    3    3    0  502 -0.48994749886E+03 -0.14866750970E+04 -0.17847506866E+03  0.15754696906E+04  0.25500000920E-02 0. -1.
</event>
<event>
 5   0  0.5985183E-07  0.3568007E+04  0.7818609E-02  0.8097860E-01
       -1   -1    0    0    0  501  0.00000000000E+00  0.00000000000E+00  0.16241421194E+04  0.16241421194E+04  0.50400001928E-02 0. -1.
        1   -1    0    0  501    0  0.00000000000E+00  0.00000000000E+00 -0.19595999907E+04  0.19595999907E+04  0.50400001928E-02 0.  1.
    10030    2    1    2    0    0  0.00000000000E+00  0.00000000000E+00 -0.33545787136E+03  0.35837421101E+04  0.35680072209E+04 0.  0.
        2    1    3    3  502    0  0.98538303653E+03 -0.36238931780E+03 -0.16164360735E+04  0.19274779703E+04  0.25500000920E-02 0.  1.
       -2    1    3    3    0  502 -0.98538303653E+03  0.36238931780E+03  0.12809782021E+04  0.16562641398E+04  0.25500000920E-02 0. -1.
</event>
<event>
 5   0  0.5985183E-07  0.3396674E+04  0.7818609E-02  0.8138723E-01
        1   -1    0    0  501    0  0.00000000000E+00  0.00000000000E+00  0.15256417445E+04  0.15256417445E+04  0.50400001928E-02 0. -1.
       -1   -1    0    0    0  501  0.00000000000E+00  0.00000000000E+00 -0.18905809259E+04  0.18905809259E+04  0.50400001928E-02 0.  1.
    10030    2    1    2    0    0  0.00000000000E+00  0.00000000000E+00 -0.36493918145E+03  0.34162226704E+04  0.33966743629E+04 0.  0.
        2    1    3    3  502    0 -0.72468322783E+03 -0.85234574200E+03 -0.14675909497E+04  0.18453948738E+04  0.25500000920E-02 0.  1.
       -2    1    3    3    0  502  0.72468322783E+03  0.85234574200E+03  0.11026517682E+04  0.15708277966E+04  0.25500000920E-02 0. -1.
</event>
<event>
 5   0  0.6023446E-07  0.3272904E+04  0.7818609E-02  0.8169824E-01
       -1   -1    0    0    0  501  0.00000000000E+00  0.00000000000E+00  0.13577164382E+04  0.13577164382E+04  0.50400001928E-02 0. -1.
        1   -1    0    0  501    0  0.00000000000E+00  0.00000000000E+00 -0.19724111203E+04  0.19724111203E+04  0.50400001928E-02 0.  1.
    10030    2    1    2    0    0  0.00000000000E+00  0.00000000000E+00 -0.61469468213E+03  0.33301275585E+04  0.32729039099E+04 0.  0.
        5    1    3    3  502    0 -0.14360271311E+04 -0.74059911579E+03 -0.43404955883E+02  0.16163437294E+04  0.46999998093E+01 0.  1.
       -5    1    3    3    0  502  0.14360271311E+04  0.74059911579E+03 -0.57128972625E+03  0.17137838291E+04  0.46999998093E+01 0. -1.
</event>
<event>
 5   0  0.1832626E-06  0.3205121E+04  0.7818609E-02  0.8187466E-01
       -2   -1    0    0    0  501  0.00000000000E+00  0.00000000000E+00  0.10691639245E+04  0.10691639245E+04  0.25500000920E-02 0. -1.
        2   -1    0    0  501    0  0.00000000000E+00  0.00000000000E+00 -0.24020645530E+04  0.24020645530E+04  0.25500000920E-02 0.  1.
    10030    2    1    2    0    0  0.00000000000E+00  0.00000000000E+00 -0.13329006285E+04  0.34712284775E+04  0.32051213796E+04 0.  0.
        3    1    3    3  502    0 -0.88435805721E+03  0.13028480176E+04 -0.34390022966E+03  0.16117597552E+04  0.10100000352E+00 0. -1.
       -3    1    3    3    0  502  0.88435805721E+03 -0.13028480176E+04 -0.98900039884E+03  0.18594687223E+04  0.10100000352E+00 0.  1.
</event>
<event>
 5   0  0.5858859E-07  0.2979868E+04  0.7818609E-02  0.8249503E-01
        1   -1    0    0  501    0  0.00000000000E+00  0.00000000000E+00  0.19722576744E+04  0.19722576744E+04  0.50400001928E-02 0.  1.
       -1   -1    0    0    0  501  0.00000000000E+00  0.00000000000E+00 -0.11255644475E+04  0.11255644475E+04  0.50400001928E-02 0. -1.
    10030    2    1    2    0    0  0.00000000000E+00  0.00000000000E+00  0.84669322690E+03  0.30978221219E+04  0.29798678626E+04 0.  0.
        3    1    3    3  502    0 -0.27079491561E+03  0.13103744014E+04  0.11046445699E+04  0.17351226453E+04  0.10100000352E+00 0.  1.
       -3    1    3    3    0  502  0.27079491561E+03 -0.13103744014E+04 -0.25795134297E+03  0.13626994767E+04  0.10100000352E+00 0. -1.
</event>
<event>
 5   0  0.5985183E-07  0.3267367E+04  0.7818609E-02  0.8171249E-01
        1   -1    0    0  501    0  0.00000000000E+00  0.00000000000E+00  0.23814336180E+04  0.23814336180E+04  0.50400001928E-02 0.  1.
       -1   -1    0    0    0  501  0.00000000000E+00  0.00000000000E+00 -0.11207208392E+04  0.11207208392E+04  0.50400001928E-02 0. -1.
    10030    2    1    2    0    0  0.00000000000E+00  0.00000000000E+00  0.12607127788E+04  0.35021544572E+04  0.32673673089E+04 0.  0.
        2    1    3    3  502    0  0.11435492498E+04 -0.55093495981E+03 -0.47198506249E+03  0.13542540810E+04  0.25500000920E-02 0. -1.
       -2    1    3    3    0  502 -0.11435492498E+04  0.55093495981E+03  0.17326978413E+04  0.21479003762E+04  0.25500000920E-02 0.  1.
</event>
<event>
 5   0  0.6023446E-07  0.3317758E+04  0.7818609E-02  0.8158391E-01
       -1   -1    0    0    0  501  0.00000000000E+00  0.00000000000E+00  0.11842369114E+04  0.11842369114E+04  0.50400001928E-02 0.  1.
        1   -1    0    0  501    0  0.00000000000E+00  0.00000000000E+00 -0.23237581413E+04  0.23237581413E+04  0.50400001928E-02 0. -1.
    10030    2    1    2    0    0  0.00000000000E+00  0.00000000000E+00 -0.11395212299E+04  0.35079950527E+04  0.33177583782E+04 0.  0.
        5    1    3    3  502    0  0.40954371374E+03  0.13507198610E+04  0.35181678496E+03  0.14546364963E+04  0.46999998093E+01 0.  1.
       -5    1    3    3    0  502 -0.40954371374E+03 -0.13507198610E+04 -0.14913380149E+04  0.20533585563E+04  0.46999998093E+01 0. -1.
</event>
<event>
 5   0  0.1784626E-06  0.3300416E+04  0.7818609E-02  0.8162789E-01
        2   -1    0    0  501    0  0.00000000000E+00  0.00000000000E+00  0.23567942398E+04  0.23567942398E+04  0.25500000920E-02 0.  1.
       -2   -1    0    0    0  501  0.00000000000E+00  0.00000000000E+00 -0.11554623597E+04  0.11554623597E+04  0.25500000920E-02 0. -1.
    10030    2    1    2    0    0  0.00000000000E+00  0.00000000000E+00  0.12013318801E+04  0.35122565994E+04  0.33004163577E+04 0.  0.
        2    1    3    3  502    0 -0.12362135656E+04 -0.10590954620E+04  0.88874375248E+03  0.18546624046E+04  0.25500000920E-02 0.  1.
       -2    1    3    3    0  502  0.12362135656E+04  0.10590954620E+04  0.31258812763E+03  0.16575941949E+04  0.25500000920E-02 0. -1.
</event>
<event>
 5   0  0.1696681E-06  0.3295157E+04  0.7818609E-02  0.8164129E-01
       -2   -1    0    0    0  501  0.00000000000E+00  0.00000000000E+00  0.12072640807E+04  0.12072640807E+04  0.25500000920E-02 0. -1.
        2   -1    0    0  501    0  0.00000000000E+00  0.00000000000E+00 -0.22484847853E+04  0.22484847853E+04  0.25500000920E-02 0.  1.
    10030    2    1    2    0    0  0.00000000000E+00  0.00000000000E+00 -0.10412207046E+04  0.34557488660E+04  0.32951570022E+04 0.  0.
        4    1    3    3  502    0 -0.60567619370E+03 -0.15185968787E+04 -0.73433943197E+03  0.17922712256E+04  0.12699999809E+01 0. -1.
       -4    1    3    3    0  502  0.60567619370E+03  0.15185968787E+04 -0.30688127260E+03  0.16634776404E+04  0.12699999809E+01 0.  1.
</event>
<event>
 5   0  0.5858859E-07  0.3274860E+04  0.7818609E-02  0.8169322E-01
        1   -1    0    0  501    0  0.00000000000E+00  0.00000000000E+00  0.14370409513E+04  0.14370409514E+04  0.50400001928E-02 0.  1.
       -1   -1    0    0    0  501  0.00000000000E+00  0.00000000000E+00 -0.18657620615E+04  0.18657620615E+04  0.50400001928E-02 0. -1.
    10030    2    1    2    0    0  0.00000000000E+00  0.00000000000E+00 -0.42872111015E+03  0.33028030129E+04  0.32748596842E+04 0.  0.
        3    1    3    3  502    0 -0.14822473834E+04 -0.58017900761E+03  0.17298885787E+03  0.16011215262E+04  0.10100000352E+00 0.  1.
       -3    1    3    3    0  502  0.14822473834E+04  0.58017900761E+03 -0.60170996802E+03  0.17016814867E+04  0.10100000352E+00 0. -1.
</event>
<event>
 5   0  0.1784626E-06  0.3269284E+04  0.7818609E-02  0.8170755E-01
        2   -1    0    0  501    0  0.00000000000E+00  0.00000000000E+00  0.12976159194E+04  0.12976159194E+04  0.25500000920E-02 0. -1.
       -2   -1    0    0    0  501  0.00000000000E+00  0.00000000000E+00 -0.20592023998E+04  0.20592023998E+04  0.25500000920E-02 0.  1.
    10030    2    1    2    0    0  0.00000000000E+00  0.00000000000E+00 -0.76158648045E+03  0.33568183192E+04  0.32692836006E+04 0.  0.
        2    1    3    3  502    0 -0.63143864420E+03  0.27609574911E+03  0.11411594755E+04  0.13331123631E+04  0.25500000920E-02 0. -1.
       -2    1    3    3    0  502  0.63143864420E+03 -0.27609574911E+03 -0.19027459559E+04  0.20237059561E+04  0.25500000920E-02 0.  1.
</event>
<event>
 5   0  0.6023446E-07  0.3307425E+04  0.7818609E-02  0.8161009E-01
       -1   -1    0    0    0  501  0.00000000000E+00  0.00000000000E+00  0.14441408721E+04  0.14441408721E+04  0.50400001928E-02 0.  1.
        1   -1    0    0  501    0  0.00000000000E+00  0.00000000000E+00 -0.18936964322E+04  0.18936964322E+04  0.50400001928E-02 0. -1.
    10030    2    1    2    0    0  0.00000000000E+00  0.00000000000E+00 -0.44955556012E+03  0.33378373043E+04  0.33074246278E+04 0.  0.
        5    1    3    3  502    0  0.15791259230E+04  0.31092226055E+03  0.15875757884E+03  0.16172623138E+04  0.46999998093E+01 0.  1.
       -5    1    3    3    0  502 -0.15791259230E+04 -0.31092226055E+03 -0.60831313895E+03  0.17205749905E+04  0.46999998093E+01 0. -1.
</event>
<event>
 5   0  0.5988516E-07  0.3188480E+04  0.7818609E-02  0.8191866E-01
        1   -1    0    0  501    0  0.00000000000E+00  0.00000000000E+00  0.12261904568E+04  0.12261904568E+04  0.50400001928E-02 0. -1.
       -1   -1    0    0    0  501  0.00000000000E+00  0.00000000000E+00 -0.20727615969E+04  0.20727615969E+04  0.50400001928E-02 0.  1.
    10030    2    1    2    0    0  0.00000000000E+00  0.00000000000E+00 -0.84657114013E+03  0.32989520537E+04  0.31884795683E+04 0.  0.
        4    1    3    3  502    0 -0.43486121056E+03  0.36500095395E+03 -0.19646215968E+04  0.20450109047E+04  0.12699999809E+01 0.  1.
       -4    1    3    3    0  502  0.43486121056E+03 -0.36500095395E+03  0.11180504566E+04  0.12539411491E+04  0.12699999809E+01 0. -1.
</event>
<event>
 5   0  0.5985183E-07  0.3307858E+04  0.7818609E-02  0.8160899E-01
        1   -1    0    0  501    0  0.00000000000E+00  0.00000000000E+00  0.19013890972E+04  0.19013890972E+04  0.50400001928E-02 0.  1.
       -1   -1    0    0    0  501  0.00000000000E+00  0.00000000000E+00 -0.14386747515E+04  0.14386747515E+04  0.50400001928E-02 0. -1.
    10030    2    1    2    0    0  0.00000000000E+00  0.00000000000E+00  0.46271434573E+03  0.33400638488E+04  0.33078576070E+04 0.  0.
        2    1    3    3  502    0 -0.30299439919E+03  0.30988874397E+02 -0.14101133653E+04  0.14426314912E+04  0.25500000920E-02 0. -1.
       -2    1    3    3    0  502  0.30299439919E+03 -0.30988874397E+02  0.18728277111E+04  0.18974323576E+04  0.25500000920E-02 0.  1.
</event>
<event>
 5   0  0.6023446E-07  0.3039617E+04  0.7818609E-02  0.8232508E-01
       -1   -1    0    0    0  501  0.00000000000E+00  0.00000000000E+00  0.12921835390E+04  0.12921835390E+04  0.50400001928E-02 0. -1.
        1   -1    0    0  501    0  0.00000000000E+00  0.00000000000E+00 -0.17875312789E+04  0.17875312789E+04  0.50400001928E-02 0.  1.
    10030    2    1    2    0    0  0.00000000000E+00  0.00000000000E+00 -0.49534773996E+03  0.30797148179E+04  0.30396174062E+04 0.  0.
        5    1    3    3  502    0  0.61544517855E+03  0.68707918491E+03 -0.14714758833E+04  0.17366962714E+04  0.46999998093E+01 0.  1.
       -5    1    3    3    0  502 -0.61544517855E+03 -0.68707918491E+03  0.97612814329E+03  0.13430185465E+04  0.46999998093E+01 0. -1.
</event>
<event>
 5   0  0.6085351E-07  0.3357701E+04  0.7818609E-02  0.8148366E-01
       -1   -1    0    0    0  501  0.00000000000E+00  0.00000000000E+00  0.11058329080E+04  0.11058329080E+04  0.50400001928E-02 0.  1.
        1   -1    0    0  501    0  0.00000000000E+00  0.00000000000E+00 -0.25487935794E+04  0.25487935794E+04  0.50400001928E-02 0. -1.
    10030    2    1    2    0    0  0.00000000000E+00  0.00000000000E+00 -0.14429606714E+04  0.36546264873E+04  0.33577014851E+04 0.  0.
        1    1    3    3  502    0  0.15524878672E+04  0.19176643751E+03 -0.13849296034E+04  0.20892637341E+04  0.50400001928E-02 0. -1.
       -1    1    3    3    0  502 -0.15524878672E+04 -0.19176643751E+03 -0.58031067964E+02  0.15653627532E+04  0.50400001928E-02 0.  1.
</event>
<event>
 5   0  0.1832626E-06  0.3322437E+04  0.7818609E-02  0.8157210E-01
       -2   -1    0    0    0  501  0.00000000000E+00  0.00000000000E+00  0.12063964495E+04  0.12063964495E+04  0.25500000920E-02 0. -1.
        2   -1    0    0  501    0  0.00000000000E+00  0.00000000000E+00 -0.22875128392E+04  0.22875128392E+04  0.25500000920E-02 0.  1.
    10030    2    1    2    0    0  0.00000000000E+00  0.00000000000E+00 -0.10811163897E+04  0.34939092887E+04  0.33224372785E+04 0.  0.
        3    1    3    3  502    0  0.96663259998E+03  0.10663420648E+04 -0.14129406499E+04  0.20168949583E+04  0.10100000352E+00 0.  1.
       -3    1    3    3    0  502 -0.96663259998E+03 -0.10663420648E+04  0.33182426018E+03  0.14770143304E+04  0.10100000352E+00 0. -1.
</event>
<event>
 5   0  0.1832626E-06  0.3259277E+04  0.7818609E-02  0.8173335E-01
       -2   -1    0    0    0  501  0.00000000000E+00  0.00000000000E+00  0.13939923609E+04  0.13939923609E+04  0.25500000920E-02 0. -1.
        2   -1    0    0  501    0  0.00000000000E+00  0.00000000000E+00 -0.19051191507E+04  0.19051191507E+04  0.25500000920E-02 0.  1.
    10030    2    1    2    0    0  0.00000000000E+00  0.00000000000E+00 -0.51112678982E+03  0.32991115116E+04  0.32592769399E+04 0.  0.
        3    1    3    3  502    0  0.18965806999E+03 -0.50055394620E+03 -0.18135952291E+04  0.18909394760E+04  0.10100000352E+00 0.  1.
       -3    1    3    3    0  502 -0.18965806999E+03  0.50055394620E+03  0.13024684393E+04  0.14081720357E+04  0.10100000352E+00 0. -1.
</event>
<event>
 5   0  0.6023446E-07  0.3350963E+04  0.7818609E-02  0.8150048E-01
       -1   -1    0    0    0  501  0.00000000000E+00  0.00000000000E+00  0.20434054373E+04  0.20434054373E+04  0.50400001928E-02 0.  1.
        1   -1    0    0  501    0  0.00000000000E+00  0.00000000000E+00 -0.13738037150E+04  0.13738037150E+04  0.50400001928E-02 0. -1.
    10030    2    1    2    0    0  0.00000000000E+00  0.00000000000E+00  0.66960172231E+03  0.34172091523E+04  0.33509628353E+04 0.  0.
        5    1    3    3  502    0  0.10160676788E+04 -0.11463517672E+04 -0.35736639487E+03  0.15729744856E+04  0.46999998093E+01 0. -1.
       -5    1    3    3    0  502 -0.10160676788E+04  0.11463517672E+04  0.10269681172E+04  0.18442346667E+04  0.46999998093E+01 0.  1.
</event>
<event>
 5   0  0.5858859E-07  0.3293175E+04  0.7818609E-02  0.8164634E-01
       -1   -1    0    0    0  501  0.00000000000E+00  0.00000000000E+00  0.18626729709E+04  0.18626729709E+04  0.50400001928E-02 0.  1.
        1   -1    0    0  501    0  0.00000000000E+00  0.00000000000E+00 -0.14555696313E+04  0.14555696313E+04  0.50400001928E-02 0. -1.
    10030    2    1    2    0    0  0.00000000000E+00  0.00000000000E+00  0.40710333960E+03  0.33182426023E+04  0.32931748873E+04 0.  0.
        3    1    3    3  502    0  0.87370354360E+03 -0.58961874142E+03  0.14781876690E+04  0.18155018418E+04  0.10100000352E+00 0.  1.
       -3    1    3    3    0  502 -0.87370354360E+03  0.58961874142E+03 -0.10710843294E+04  0.15027407605E+04  0.10100000352E+00 0. -1.
</event>
<event>
 5   0  0.5858859E-07  0.3316645E+04  0.7818609E-02  0.8158673E-01
       -1   -1    0    0    0  501  0.00000000000E+00  0.00000000000E+00  0.13954485939E+04  0.13954485939E+04  0.50400001928E-02 0.  1.
        1   -1    0    0  501    0  0.00000000000E+00  0.00000000000E+00 -0.19707166269E+04  0.19707166269E+04  0.50400001928E-02 0. -1.
    10030    2    1    2    0    0  0.00000000000E+00  0.00000000000E+00 -0.57526803304E+03  0.33661652209E+04  0.33166451399E+04 0.  0.
        3    1    3    3  502    0 -0.65877271626E+03  0.85346736143E+03 -0.15664652009E+04  0.19016312115E+04  0.10100000352E+00 0. -1.
       -3    1    3    3    0  502  0.65877271626E+03 -0.85346736143E+03  0.99119716787E+03  0.14645340093E+04  0.10100000352E+00 0.  1.
</event>
<event>
 5   0  0.1784626E-06  0.3029112E+04  0.7818609E-02  0.8235466E-01
        2   -1    0    0  501    0  0.00000000000E+00  0.00000000000E+00  0.24452205176E+04  0.24452205176E+04  0.25500000920E-02 0. -1.
       -2   -1    0    0    0  501  0.00000000000E+00  0.00000000000E+00 -0.93810749571E+03  0.93810749571E+03  0.25500000920E-02 0.  1.
    10030    2    1    2    0    0  0.00000000000E+00  0.00000000000E+00  0.15071130219E+04  0.33833280133E+04  0.30291118806E+04 0.  0.
        2    1    3    3  502    0  0.27713183558E+02  0.51901126546E+03 -0.83537815046E+03  0.98386857278E+03  0.25500000920E-02 0.  1.
       -2    1    3    3    0  502 -0.27713183558E+02 -0.51901126546E+03  0.23424911723E+04  0.23994594405E+04  0.25500000920E-02 0. -1.
</event>
<event>
 5   0  0.1784626E-06  0.3319570E+04  0.7818609E-02  0.8157934E-01
        2   -1    0    0  501    0  0.00000000000E+00  0.00000000000E+00  0.25244708029E+04  0.25244708029E+04  0.25500000920E-02 0. -1.
       -2   -1    0    0    0  501  0.00000000000E+00  0.00000000000E+00 -0.10912725991E+04  0.10912725991E+04  0.25500000920E-02 0.  1.
    10030    2    1    2    0    0  0.00000000000E+00  0.00000000000E+00  0.14331982039E+04  0.36157434020E+04  0.33195697399E+04 0.  0.
        2    1    3    3  502    0  0.14861316562E+04  0.78231610353E+01 -0.88420558372E+02  0.14887802714E+04  0.25500000920E-02 0. -1.
       -2    1    3    3    0  502 -0.14861316562E+04 -0.78231610353E+01  0.15216187622E+04  0.21269631306E+04  0.25500000920E-02 0.  1.
</event>
<event>
 5   0  0.5988516E-07  0.3336967E+04  0.7818609E-02  0.8153552E-01
        1   -1    0    0  501    0  0.00000000000E+00  0.00000000000E+00  0.15089142609E+04  0.15089142610E+04  0.50400001928E-02 0. -1.
       -1   -1    0    0    0  501  0.00000000000E+00  0.00000000000E+00 -0.18449271897E+04  0.18449271897E+04  0.50400001928E-02 0.  1.
    10030    2    1    2    0    0  0.00000000000E+00  0.00000000000E+00 -0.33601292878E+03  0.33538414507E+04  0.33369668545E+04 0.  0.
        4    1    3    3  502    0  0.90115216857E+03  0.39172088959E+03  0.11872615153E+04  0.15411398395E+04  0.12699999809E+01 0. -1.
       -4    1    3    3    0  502 -0.90115216857E+03 -0.39172088959E+03 -0.15232744441E+04  0.18127016112E+04  0.12699999809E+01 0.  1.
</event>
<event>
 5   0  0.1728937E-06  0.3158439E+04  0.7818609E-02  0.8199880E-01
        2   -1    0    0  501    0  0.00000000000E+00  0.00000000000E+00  0.16668342701E+04  0.16668342701E+04  0.25500000920E-02 0. -1.
       -2   -1    0    0    0  501  0.00000000000E+00  0.00000000000E+00 -0.14962101026E+04  0.14962101026E+04  0.25500000920E-02 0.  1.
    10030    2    1    2    0    0  0.00000000000E+00  0.00000000000E+00  0.17062416750E+03  0.31630443728E+04  0.31584390286E+04 0.  0.
        1    1    3    3  502    0  0.33738163836E+03  0.97056760690E+03 -0.11156472454E+04  0.15167388126E+04  0.50400001928E-02 0.  1.
       -1    1    3    3    0  502 -0.33738163836E+03 -0.97056760690E+03  0.12862714129E+04  0.16463055601E+04  0.50400001928E-02 0. -1.
</event>
<event>
 5   0  0.1743810E-06  0.3297397E+04  0.7818609E-02  0.8163558E-01
       -2   -1    0    0    0  501  0.00000000000E+00  0.00000000000E+00  0.11031909294E+04  0.11031909294E+04  0.25500000920E-02 0. -1.
        2   -1    0    0  501    0  0.00000000000E+00  0.00000000000E+00 -0.24639492159E+04  0.24639492159E+04  0.25500000920E-02 0.  1.
    10030    2    1    2    0    0  0.00000000000E+00  0.00000000000E+00 -0.13607582865E+04  0.35671401453E+04  0.32973968068E+04 0.  0.
        5    1    3    3  502    0  0.11920760582E+04  0.27447294419E+03  0.51539638461E+03  0.13274171344E+04  0.46999998093E+01 0. -1.
       -5    1    3    3    0  502 -0.11920760582E+04 -0.27447294419E+03 -0.18761546711E+04  0.22397230108E+04  0.46999998093E+01 0.  1.
</event>
<event>
 5   0  0.1743810E-06  0.3300198E+04  0.7818609E-02  0.8162845E-01
        2   -1    0    0  501    0  0.00000000000E+00  0.00000000000E+00  0.84699170150E+03  0.84699170150E+03  0.25500000920E-02 0. -1.
       -2   -1    0    0    0  501  0.00000000000E+00  0.00000000000E+00 -0.32147034816E+04  0.32147034816E+04  0.25500000920E-02 0.  1.
    10030    2    1    2    0    0  0.00000000000E+00  0.00000000000E+00 -0.23677117801E+04  0.40616951831E+04  0.33001982799E+04 0.  0.
        5    1    3    3  502    0 -0.14160580107E+03  0.11567993555E+04 -0.26215447457E+04  0.28689293988E+04  0.46999998093E+01 0.  1.
       -5    1    3    3    0  502  0.14160580107E+03 -0.11567993555E+04  0.25383296551E+03  0.11927657843E+04  0.46999998093E+01 0. -1.
</event>
<event>
 5   0  0.1784626E-06  0.3296279E+04  0.7818609E-02  0.8163843E-01
       -2   -1    0    0    0  501  0.00000000000E+00  0.00000000000E+00  0.79296393055E+03  0.79296393055E+03  0.25500000920E-02 0.  1.
        2   -1    0    0  501    0  0.00000000000E+00  0.00000000000E+00 -0.34255833536E+04  0.34255833536E+04  0.25500000920E-02 0. -1.
    10030    2    1    2    0    0  0.00000000000E+00  0.00000000000E+00 -0.26326194231E+04  0.42185472842E+04  0.32962791390E+04 0.  0.
        2    1    3    3  502    0  0.37550912242E+03  0.30981347072E+03  0.69885168008E+03  0.85169546107E+03  0.25500000920E-02 0.  1.
       -2    1    3    3    0  502 -0.37550912242E+03 -0.30981347072E+03 -0.33314711031E+04  0.33668518231E+04  0.25500000920E-02 0. -1.
</event>
<event>
 5   0  0.6023446E-07  0.3296306E+04  0.7818609E-02  0.8163836E-01
       -1   -1    0    0    0  501  0.00000000000E+00  0.00000000000E+00  0.23375867569E+04  0.23375867569E+04  0.50400001928E-02 0. -1.
        1   -1    0    0  501    0  0.00000000000E+00  0.00000000000E+00 -0.11620568694E+04  0.11620568694E+04  0.50400001928E-02 0.  1.
    10030    2    1    2    0    0  0.00000000000E+00  0.00000000000E+00  0.11755298875E+04  0.34996436264E+04  0.32963062654E+04 0.  0.
        5    1    3    3  502    0 -0.13967024588E+04 -0.66071628019E+03  0.11967907910E+04  0.19543935245E+04  0.46999998093E+01 0. -1.
       -5    1    3    3    0  502  0.13967024588E+04  0.66071628019E+03 -0.21260903481E+02  0.15452501019E+04  0.46999998093E+01 0.  1.
</event>
<event>
 5   0  0.1832626E-06  0.3327206E+04  0.7818609E-02  0.8156007E-01
        2   -1    0    0  501    0  0.00000000000E+00  0.00000000000E+00  0.28055801090E+04  0.28055801090E+04  0.25500000920E-02 0.  1.
       -2   -1    0    0    0  501  0.00000000000E+00  0.00000000000E+00 -0.98645362834E+03  0.98645362834E+03  0.25500000920E-02 0. -1.
    10030    2    1    2    0    0  0.00000000000E+00  0.00000000000E+00  0.18191264806E+04  0.37920337373E+04  0.33272058416E+04 0.  0.
        3    1    3    3  502    0 -0.16124491892E+04 -0.39690032198E+03  0.10238320543E+04  0.19508342674E+04  0.10100000352E+00 0. -1.
       -3    1    3    3    0  502  0.16124491892E+04  0.39690032198E+03  0.79529442634E+03  0.18411994699E+04  0.10100000352E+00 0.  1.
</event>
<event>
 5   0  0.5858859E-07  0.3303800E+04  0.7818609E-02  0.8161929E-01
       -1   -1    0    0    0  501  0.00000000000E+00  0.00000000000E+00  0.11665231273E+04  0.11665231273E+04  0.50400001928E-02 0.  1.
        1   -1    0    0  501    0  0.00000000000E+00  0.00000000000E+00 -0.23392365015E+04  0.23392365015E+04  0.50400001928E-02 0. -1.
    10030    2    1    2    0    0  0.00000000000E+00  0.00000000000E+00 -0.11727133742E+04  0.35057596288E+04  0.33037999208E+04 0.  0.
        3    1    3    3  502    0  0.13556967726E+04  0.27471408619E+02 -0.15874833543E+04  0.20877671872E+04  0.10100000352E+00 0. -1.
       -3    1    3    3    0  502 -0.13556967726E+04 -0.27471408619E+02  0.41476998016E+03  0.14179924416E+04  0.10100000352E+00 0.  1.
</event>
<event>
 5   0  0.1696681E-06  0.3153270E+04  0.7818609E-02  0.8201269E-01
        2   -1    0    0  501    0  0.00000000000E+00  0.00000000000E+00  0.21431032535E+04  0.21431032535E+04  0.25500000920E-02 0.  1.
       -2   -1    0    0    0  501  0.00000000000E+00  0.00000000000E+00 -0.11598963422E+04  0.11598963422E+04  0.25500000920E-02 0. -1.
    10030    2    1    2    0    0  0.00000000000E+00  0.00000000000E+00  0.98320691132E+03  0.33029995957E+04  0.31532698107E+04 0.  0.
        4    1    3    3  502    0  0.54191956892E+03  0.72008650296E+03  0.18466990343E+04  0.20548723384E+04  0.12699999809E+01 0.  1.
       -4    1    3    3    0  502 -0.54191956892E+03 -0.72008650296E+03 -0.86349212303E+03  0.12481272573E+04  0.12699999809E+01 0. -1.
</event>
<event>
 5   0  0.5985183E-07  0.3285890E+04  0.7818609E-02  0.8166495E-01
       -1   -1    0    0    0  501  0.00000000000E+00  0.00000000000E+00  0.12800233810E+04  0.12800233810E+04  0.50400001928E-02 0. -1.
        1   -1    0    0  501    0  0.00000000000E+00  0.00000000000E+00 -0.21087652356E+04  0.21087652356E+04  0.50400001928E-02 0.  1.
    10030    2    1    2    0    0  0.00000000000E+00  0.00000000000E+00 -0.82874185459E+03  0.33887886165E+04  0.32858903247E+04 0.  0.
        2    1    3    3  502    0  0.72086197683E+03  0.55713558820E+03 -0.18243816329E+04  0.20392180844E+04  0.25500000920E-02 0.  1.
       -2    1    3    3    0  502 -0.72086197683E+03 -0.55713558820E+03  0.99563977827E+03  0.13495705322E+04  0.25500000920E-02 0. -1.
</event>
<event>
 5   0  0.6085351E-07  0.3111860E+04  0.7818609E-02  0.8212491E-01
        1   -1    0    0  501    0  0.00000000000E+00  0.00000000000E+00  0.24041767051E+04  0.24041767051E+04  0.50400001928E-02 0.  1.
       -1   -1    0    0    0  501  0.00000000000E+00  0.00000000000E+00 -0.10069632781E+04  0.10069632781E+04  0.50400001928E-02 0. -1.
    10030    2    1    2    0    0  0.00000000000E+00  0.00000000000E+00  0.13972134270E+04  0.34111399832E+04  0.31118596730E+04 0.  0.
        1    1    3    3  502    0  0.17774218438E+03 -0.36159985245E+03 -0.94878320269E+03  0.10307940159E+04  0.50400001928E-02 0. -1.
       -1    1    3    3    0  502 -0.17774218438E+03  0.36159985245E+03  0.23459966297E+04  0.23803459673E+04  0.50400001928E-02 0.  1.
</event>
<event>
 5   0  0.1743810E-06  0.3034198E+04  0.7818609E-02  0.8234032E-01
       -2   -1    0    0    0  501  0.00000000000E+00  0.00000000000E+00  0.16583034748E+04  0.16583034748E+04  0.25500000920E-02 0.  1.
        2   -1    0    0  501    0  0.00000000000E+00  0.00000000000E+00 -0.13879184487E+04  0.13879184487E+04  0.25500000920E-02 0. -1.
    10030    2    1    2    0    0  0.00000000000E+00  0.00000000000E+00  0.27038502618E+03  0.30462219235E+04  0.30341984024E+04 0.  0.
        5    1    3    3  502    0 -0.89784588475E+03 -0.10157307571E+04  0.81886948649E+03  0.15837946614E+04  0.46999998093E+01 0.  1.
       -5    1    3    3    0  502  0.89784588475E+03  0.10157307571E+04 -0.54848446031E+03  0.14624272621E+04  0.46999998093E+01 0. -1.
</event>
<event>
 5   0  0.6023446E-07  0.3134630E+04  0.7818609E-02  0.8206298E-01
        1   -1    0    0  501    0  0.00000000000E+00  0.00000000000E+00  0.22746549748E+04  0.22746549748E+04  0.50400001928E-02 0. -1.
       -1   -1    0    0    0  501  0.00000000000E+00  0.00000000000E+00 -0.10799334382E+04  0.10799334382E+04  0.50400001928E-02 0.  1.
    10030    2    1    2    0    0  0.00000000000E+00  0.00000000000E+00  0.11947215365E+04  0.33545884130E+04  0.31346297821E+04 0.  0.
        5    1    3    3  502    0 -0.11805936431E+04  0.10231457303E+04  0.46273458229E+03  0.16293476974E+04  0.46999998093E+01 0. -1.
       -5    1    3    3    0  502  0.11805936431E+04 -0.10231457303E+04  0.73198695423E+03  0.17252407156E+04  0.46999998093E+01 0.  1.
</event>
<event>
 5   0  0.1832626E-06  0.3193052E+04  0.7818609E-02  0.8190654E-01
       -2   -1    0    0    0  501  0.00000000000E+00  0.00000000000E+00  0.25271536376E+04  0.25271536376E+04  0.25500000920E-02 0.  1.
        2   -1    0    0  501    0  0.00000000000E+00  0.00000000000E+00 -0.10086033190E+04  0.10086033190E+04  0.25500000920E-02 0. -1.
    10030    2    1    2    0    0  0.00000000000E+00  0.00000000000E+00  0.15185503185E+04  0.35357569566E+04  0.31930521741E+04 0.  0.
        3    1    3    3  502    0 -0.46049543888E+03  0.12627535238E+04  0.17133096582E+04  0.21776208362E+04  0.10100000352E+00 0.  1.
       -3    1    3    3    0  502  0.46049543888E+03 -0.12627535238E+04 -0.19475933967E+03  0.13581361204E+04  0.10100000352E+00 0. -1.
</event>
<event>
 5   0  0.1728937E-06  0.3338491E+04  0.7818609E-02  0.8153170E-01
       -2   -1    0    0    0  501  0.00000000000E+00  0.00000000000E+00  0.16900338970E+04  0.16900338970E+04  0.25500000920E-02 0. -1.
        2   -1    0    0  501    0  0.00000000000E+00  0.00000000000E+00 -0.16487132275E+04  0.16487132275E+04  0.25500000920E-02 0.  1.
    10030    2    1    2    0    0  0.00000000000E+00  0.00000000000E+00  0.41320669502E+02  0.33387471245E+04  0.33384914204E+04 0.  0.
        1    1    3    3  502    0 -0.15148752114E+04  0.17059791351E+03 -0.65941431334E+03  0.16609568902E+04  0.50400001928E-02 0. -1.
       -1    1    3    3    0  502  0.15148752114E+04 -0.17059791351E+03  0.70073498285E+03  0.16777902344E+04  0.50400001928E-02 0.  1.
</event>
<event>
 5   0  0.5985183E-07  0.3285524E+04  0.7818609E-02  0.8166589E-01
        1   -1    0    0  501    0  0.00000000000E+00  0.00000000000E+00  0.13957733502E+04  0.13957733502E+04  0.50400001928E-02 0. -1.
       -1   -1    0    0    0  501  0.00000000000E+00  0.00000000000E+00 -0.19334561481E+04  0.19334561481E+04  0.50400001928E-02 0.  1.
    10030    2    1    2    0    0  0.00000000000E+00  0.00000000000E+00 -0.53768279793E+03  0.33292294983E+04  0.32855237423E+04 0.  0.
        2    1    3    3  502    0  0.34332142219E+03  0.17793371906E+03  0.13489989957E+04  0.14033275803E+04  0.25500000920E-02 0. -1.
       -2    1    3    3    0  502 -0.34332142219E+03 -0.17793371906E+03 -0.18866817936E+04  0.19259019180E+04  0.25500000920E-02 0.  1.
</event>
<event>
 5   0  0.5985183E-07  0.3040468E+04  0.7818609E-02  0.8232269E-01
        1   -1    0    0  501    0  0.00000000000E+00  0.00000000000E+00  0.13136445769E+04  0.13136445769E+04  0.50400001928E-02 0. -1.
       -1   -1    0    0    0  501  0.00000000000E+00  0.00000000000E+00 -0.17593120657E+04  0.17593120657E+04  0.50400001928E-02 0.  1.
    10030    2    1    2    0    0  0.00000000000E+00  0.00000000000E+00 -0.44566748879E+03  0.30729566426E+04  0.30404675655E+04 0.  0.
        2    1    3    3  502    0 -0.59037980862E+01 -0.18375697473E+03  0.13023671987E+04  0.13152801225E+04  0.25500000920E-02 0. -1.
       -2    1    3    3    0  502  0.59037980862E+01  0.18375697473E+03 -0.17480346874E+04  0.17576765200E+04  0.25500000920E-02 0.  1.
</event>
<event>
 5   0  0.1832626E-06  0.3314130E+04  0.7818609E-02  0.8159309E-01
       -2   -1    0    0    0  501  0.00000000000E+00  0.00000000000E+00  0.13175518039E+04  0.13175518039E+04  0.25500000920E-02 0.  1.
        2   -1    0    0  501    0  0.00000000000E+00  0.00000000000E+00 -0.20840661478E+04  0.20840661478E+04  0.25500000920E-02 0. -1.
    10030    2    1    2    0    0  0.00000000000E+00  0.00000000000E+00 -0.76651434396E+03  0.34016179517E+04  0.33141304214E+04 0.  0.
        3    1    3    3  502    0  0.43437793326E+03  0.98853918268E+03  0.90689377211E+03  0.14100887308E+04  0.10100000352E+00 0.  1.
       -3    1    3    3    0  502 -0.43437793326E+03 -0.98853918268E+03 -0.16734081161E+04  0.19915292209E+04  0.10100000352E+00 0. -1.
</event>
<event>
 5   0  0.1832626E-06  0.3288647E+04  0.7818609E-02  0.8165790E-01
       -2   -1    0    0    0  501  0.00000000000E+00  0.00000000000E+00  0.12182520409E+04  0.12182520409E+04  0.25500000920E-02 0.  1.
        2   -1    0    0  501    0  0.00000000000E+00  0.00000000000E+00 -0.22194095715E+04  0.22194095716E+04  0.25500000920E-02 0. -1.
    10030    2    1    2    0    0  0.00000000000E+00  0.00000000000E+00 -0.10011575306E+04  0.34376616125E+04  0.32886472843E+04 0.  0.
        3    1    3    3  502    0 -0.44976303690E+03 -0.34503073886E+03 -0.21140428241E+04  0.21887233887E+04  0.10100000352E+00 0. -1.
       -3    1    3    3    0  502  0.44976303690E+03  0.34503073886E+03  0.11128852935E+04  0.12489382238E+04  0.10100000352E+00 0.  1.
</event>
<event>
 5   0  0.5988516E-07  0.2766934E+04  0.7818609E-02  0.8313608E-01
       -1   -1    0    0    0  501  0.00000000000E+00  0.00000000000E+00  0.94483175574E+03  0.94483175576E+03  0.50400001928E-02 0.  1.
        1   -1    0    0  501    0  0.00000000000E+00  0.00000000000E+00 -0.20257373822E+04  0.20257373822E+04  0.50400001928E-02 0. -1.
    10030    2    1    2    0    0  0.00000000000E+00  0.00000000000E+00 -0.10809056265E+04  0.29705691380E+04  0.27669340488E+04 0.  0.
        4    1    3    3  502    0 -0.53539447488E+02 -0.13820038655E+04 -0.57730450109E+03  0.14986938501E+04  0.12699999809E+01 0.  1.
       -4    1    3    3    0  502  0.53539447488E+02  0.13820038655E+04 -0.50360112539E+03  0.14718752878E+04  0.12699999809E+01 0. -1.
</event>
<event>
 5   0  0.5988516E-07  0.3296568E+04  0.7818609E-02  0.8163769E-01
       -1   -1    0    0    0  501  0.00000000000E+00  0.00000000000E+00  0.14649017429E+04  0.14649017429E+04  0.50400001928E-02 0.  1.
        1   -1    0    0  501    0  0.00000000000E+00  0.00000000000E+00 -0.18546224774E+04  0.18546224774E+04  0.50400001928E-02 0. -1.
    10030    2    1    2    0    0  0.00000000000E+00  0.00000000000E+00 -0.38972073445E+03  0.33195242203E+04  0.32965677299E+04 0.  0.
        4    1    3    3  502    0 -0.10836132948E+04  0.11246271681E+04 -0.72563061557E+03  0.17220759109E+04  0.12699999809E+01 0. -1.
       -4    1    3    3    0  502  0.10836132948E+04 -0.11246271681E+04  0.33590988112E+03  0.15974483093E+04  0.12699999809E+01 0.  1.
</event>
<event>
 5   0  0.6085351E-07  0.3307968E+04  0.7818609E-02  0.8160871E-01
        1   -1    0    0  501    0  0.00000000000E+00  0.00000000000E+00  0.21975894044E+04  0.21975894044E+04  0.50400001928E-02 0.  1.
       -1   -1    0    0    0  501  0.00000000000E+00  0.00000000000E+00 -0.12448473224E+04  0.12448473225E+04  0.50400001928E-02 0. -1.
    10030    2    1    2    0    0  0.00000000000E+00  0.00000000000E+00  0.95274208192E+03  0.34424367268E+04  0.33079681292E+04 0.  0.
        1    1    3    3  502    0  0.75464706264E+03 -0.40623075198E+03 -0.99575236889E+03  0.13137878037E+04  0.50400001928E-02 0. -1.
       -1    1    3    3    0  502 -0.75464706264E+03  0.40623075198E+03  0.19484944508E+04  0.21286489231E+04  0.50400001928E-02 0.  1.
</event>
<event>
 5   0  0.6085351E-07  0.3239180E+04  0.7818609E-02  0.8178546E-01
        1   -1    0    0  501    0  0.00000000000E+00  0.00000000000E+00  0.79277156346E+03  0.79277156348E+03  0.50400001928E-02 0.  1.
       -1   -1    0    0    0  501  0.00000000000E+00  0.00000000000E+00 -0.33087358523E+04  0.33087358524E+04  0.50400001928E-02 0. -1.
    10030    2    1    2    0    0  0.00000000000E+00  0.00000000000E+00 -0.25159642889E+04  0.41015074158E+04  0.32391799547E+04 0.  0.
        1    1    3    3  502    0 -0.17654965566E+03  0.11224469775E+04 -0.27193613833E+04  0.29471992350E+04  0.50400001928E-02 0. -1.
       -1    1    3    3    0  502  0.17654965566E+03 -0.11224469775E+04  0.20339709438E+03  0.11543081808E+04  0.50400001928E-02 0.  1.
</event>
<event>
 5   0  0.5985183E-07  0.3286981E+04  0.7818609E-02  0.8166216E-01
        1   -1    0    0  501    0  0.00000000000E+00  0.00000000000E+00  0.18763721576E+04  0.18763721576E+04  0.50400001928E-02 0. -1.
       -1   -1    0    0    0  501  0.00000000000E+00  0.00000000000E+00 -0.14395128544E+04  0.14395128544E+04  0.50400001928E-02 0.  1.
    10030    2    1    2    0    0  0.00000000000E+00  0.00000000000E+00  0.43685930323E+03  0.33158850121E+04  0.32869814971E+04 0.  0.
        2    1    3    3  502    0 -0.11344396540E+03  0.13533847080E+04 -0.71520415559E+03  0.15349386585E+04  0.25500000920E-02 0.  1.
       -2    1    3    3    0  502  0.11344396540E+03 -0.13533847080E+04  0.11520634588E+04  0.17809463536E+04  0.25500000920E-02 0. -1.
</event>
<event>
 5   0  0.6023446E-07  0.3300559E+04  0.7818609E-02  0.8162753E-01
       -1   -1    0    0    0  501  0.00000000000E+00  0.00000000000E+00  0.11949233968E+04  0.11949233968E+04  0.50400001928E-02 0. -1.
        1   -1    0    0  501    0  0.00000000000E+00  0.00000000000E+00 -0.22791611023E+04  0.22791611023E+04  0.50400001928E-02 0.  1.
    10030    2    1    2    0    0  0.00000000000E+00  0.00000000000E+00 -0.10842377055E+04  0.34740844992E+04  0.33005593019E+04 0.  0.
        5    1    3    3  502    0  0.41673287000E+03  0.15942605556E+04 -0.44757544095E+03  0.17075359057E+04  0.46999998093E+01 0.  1.
       -5    1    3    3    0  502 -0.41673287000E+03 -0.15942605556E+04 -0.63666226454E+03  0.17665485935E+04  0.46999998093E+01 0. -1.
</event>
<event>
 5   0  0.5985183E-07  0.3311382E+04  0.7818609E-02  0.8160005E-01
        1   -1    0    0  501    0  0.00000000000E+00  0.00000000000E+00  0.17116060643E+04  0.17116060644E+04  0.50400001928E-02 0.  1.
       -1   -1    0    0    0  501  0.00000000000E+00  0.00000000000E+00 -0.16016022149E+04  0.16016022149E+04  0.50400001928E-02 0. -1.
    10030    2    1    2    0    0  0.00000000000E+00  0.00000000000E+00  0.11000384942E+03  0.33132082793E+04  0.33113816233E+04 0.  0.
        2    1    3    3  502    0 -0.93766733992E+03 -0.11416414389E+04  0.80290797568E+03  0.16814358247E+04  0.25500000920E-02 0.  1.
       -2    1    3    3    0  502  0.93766733992E+03  0.11416414389E+04 -0.69290412627E+03  0.16317724546E+04  0.25500000920E-02 0. -1.
</event>
<event>
 5   0  0.1728937E-06  0.3297986E+04  0.7818609E-02  0.8163408E-01
       -2   -1    0    0    0  501  0.00000000000E+00  0.00000000000E+00  0.11113403358E+04  0.11113403359E+04  0.25500000920E-02 0. -1.
        2   -1    0    0  501    0  0.00000000000E+00  0.00000000000E+00 -0.24467560364E+04  0.24467560364E+04  0.25500000920E-02 0.  1.
    10030    2    1    2    0    0  0.00000000000E+00  0.00000000000E+00 -0.13354157005E+04  0.35580963722E+04  0.32979864616E+04 0.  0.
        1    1    3    3  502    0  0.81071668565E+03 -0.10285524432E+04  0.41331542936E+03  0.13733212723E+04  0.50400001928E-02 0. -1.
       -1    1    3    3    0  502 -0.81071668565E+03  0.10285524432E+04 -0.17487311299E+04  0.21847750999E+04  0.50400001928E-02 0.  1.
</event>
<event>
 5   0  0.1728937E-06  0.3302204E+04  0.7818609E-02  0.8162335E-01
       -2   -1    0    0    0  501  0.00000000000E+00  0.00000000000E+00  0.17369590877E+04  0.17369590877E+04  0.25500000920E-02 0.  1.
        2   -1    0    0  501    0  0.00000000000E+00  0.00000000000E+00 -0.15694886378E+04  0.15694886378E+04  0.25500000920E-02 0. -1.
    10030    2    1    2    0    0  0.00000000000E+00  0.00000000000E+00  0.16747044988E+03  0.33064477255E+04  0.33022038414E+04 0.  0.
        1    1    3    3  502    0 -0.16447057524E+04  0.12017616088E+03  0.16531527407E+03  0.16573558644E+04  0.50400001928E-02 0.  1.
       -1    1    3    3    0  502  0.16447057524E+04 -0.12017616088E+03  0.21551758038E+01  0.16490918611E+04  0.50400001928E-02 0. -1.
</event>
<event>
 5   0  0.1784626E-06  0.3281308E+04  0.7818609E-02  0.8167668E-01
        2   -1    0    0  501    0  0.00000000000E+00  0.00000000000E+00  0.10096536172E+04  0.10096536172E+04  0.25500000920E-02 0.  1.
       -2   -1    0    0    0  501  0.00000000000E+00  0.00000000000E+00 -0.26660092184E+04  0.26660092184E+04  0.25500000920E-02 0. -1.
    10030    2    1    2    0    0  0.00000000000E+00  0.00000000000E+00 -0.16563556013E+04  0.36756628356E+04  0.32813081847E+04 0.  0.
        2    1    3    3  502    0 -0.10722892635E+04  0.45404967416E+03  0.46648357514E+03  0.12544211004E+04  0.25500000920E-02 0.  1.
       -2    1    3    3    0  502  0.10722892635E+04 -0.45404967416E+03 -0.21228391764E+04  0.24212417352E+04  0.25500000920E-02 0. -1.
</event>
<event>
 5   0  0.5988516E-07  0.3322038E+04  0.7818609E-02  0.8157310E-01
       -1   -1    0    0    0  501  0.00000000000E+00  0.00000000000E+00  0.94090013307E+03  0.94090013309E+03  0.50400001928E-02 0.  1.
        1   -1    0    0  501    0  0.00000000000E+00  0.00000000000E+00 -0.29322810188E+04  0.29322810188E+04  0.50400001928E-02 0. -1.
    10030    2    1    2    0    0  0.00000000000E+00  0.00000000000E+00 -0.19913808858E+04  0.38731811519E+04  0.33220376884E+04 0.  0.
        4    1    3    3  502    0  0.11805346165E+04  0.89478288724E+03 -0.11956591520E+03  0.14861345891E+04  0.12699999809E+01 0.  1.
       -4    1    3    3    0  502 -0.11805346165E+04 -0.89478288724E+03 -0.18718149706E+04  0.23870465628E+04  0.12699999809E+01 0. -1.
</event>
<event>
 5   0  0.5988516E-07  0.3320811E+04  0.7818609E-02  0.8157620E-01
       -1   -1    0    0    0  501  0.00000000000E+00  0.00000000000E+00  0.12791189375E+04  0.12791189376E+04  0.50400001928E-02 0.  1.
        1   -1    0    0  501    0  0.00000000000E+00  0.00000000000E+00 -0.21553484431E+04  0.21553484431E+04  0.50400001928E-02 0. -1.
    10030    2    1    2    0    0  0.00000000000E+00  0.00000000000E+00 -0.87622950559E+03  0.34344673807E+04  0.33208113531E+04 0.  0.
        4    1    3    3  502    0 -0.83059001020E+03  0.14251821037E+04 -0.24209806308E+03  0.16672243037E+04  0.12699999809E+01 0. -1.
       -4    1    3    3    0  502  0.83059001020E+03 -0.14251821037E+04 -0.63413144251E+03  0.17672430770E+04  0.12699999809E+01 0.  1.
</event>
<event>
 5   0  0.6085351E-07  0.3283917E+04  0.7818609E-02  0.8167000E-01
       -1   -1    0    0    0  501  0.00000000000E+00  0.00000000000E+00  0.12301390450E+04  0.12301390450E+04  0.50400001928E-02 0. -1.
        1   -1    0    0  501    0  0.00000000000E+00  0.00000000000E+00 -0.21916442992E+04  0.21916442992E+04  0.50400001928E-02 0.  1.
    10030    2    1    2    0    0  0.00000000000E+00  0.00000000000E+00 -0.96150525416E+03  0.34217833442E+04  0.32839167013E+04 0.  0.
        1    1    3    3  502    0 -0.68972769557E+02 -0.34562903288E+03  0.11902605041E+04  0.12413447301E+04  0.50400001928E-02 0. -1.
       -1    1    3    3    0  502  0.68972769557E+02  0.34562903288E+03 -0.21517657583E+04  0.21804386141E+04  0.50400001928E-02 0.  1.
</event>
<event>
 5   0  0.5985183E-07  0.3402974E+04  0.7818609E-02  0.8137177E-01
       -1   -1    0    0    0  501  0.00000000000E+00  0.00000000000E+00  0.13486417033E+04  0.13486417033E+04  0.50400001928E-02 0.  1.
        1   -1    0    0  501    0  0.00000000000E+00  0.00000000000E+00 -0.21466474967E+04  0.21466474967E+04  0.50400001928E-02 0. -1.
    10030    2    1    2    0    0  0.00000000000E+00  0.00000000000E+00 -0.79800579343E+03  0.34952892000E+04  0.34029741911E+04 0.  0.
        2    1    3    3  502    0 -0.41463784182E+03 -0.14669939627E+04  0.37718396024E+03  0.15704341968E+04  0.25500000920E-02 0.  1.
       -2    1    3    3    0  502  0.41463784182E+03  0.14669939627E+04 -0.11751897537E+04  0.19248550033E+04  0.25500000920E-02 0. -1.
</event>
<event>
 5   0  0.5985183E-07  0.3445109E+04  0.7818609E-02  0.8126923E-01
       -1   -1    0    0    0  501  0.00000000000E+00  0.00000000000E+00  0.11099707621E+04  0.11099707621E+04  0.50400001928E-02 0.  1.
        1   -1    0    0  501    0  0.00000000000E+00  0.00000000000E+00 -0.26732177051E+04  0.26732177051E+04  0.50400001928E-02 0. -1.
    10030    2    1    2    0    0  0.00000000000E+00  0.00000000000E+00 -0.15632469430E+04  0.37831884672E+04  0.34451087028E+04 0.  0.
        2    1    3    3  502    0 -0.23009799836E+03 -0.92721930745E+02  0.10902512345E+04  0.11181190454E+04  0.25500000920E-02 0.  1.
       -2    1    3    3    0  502  0.23009799836E+03  0.92721930745E+02 -0.26534981775E+04  0.26650694219E+04  0.25500000920E-02 0. -1.
</event>
<event>
 5   0  0.1832626E-06  0.3293697E+04  0.7818609E-02  0.8164501E-01
       -2   -1    0    0    0  501  0.00000000000E+00  0.00000000000E+00  0.12670373170E+04  0.12670373170E+04  0.25500000920E-02 0.  1.
        2   -1    0    0  501    0  0.00000000000E+00  0.00000000000E+00 -0.21405134142E+04  0.21405134142E+04  0.25500000920E-02 0. -1.
    10030    2    1    2    0    0  0.00000000000E+00  0.00000000000E+00 -0.87347609715E+03  0.34075507312E+04  0.32936972377E+04 0.  0.
        3    1    3    3  502    0 -0.39279854771E+03  0.11874884708E+04  0.67159709456E+03  0.14196697626E+04  0.10100000352E+00 0.  1.
       -3    1    3    3    0  502  0.39279854771E+03 -0.11874884708E+04 -0.15450731917E+04  0.19878809686E+04  0.10100000352E+00 0. -1.
</event>
<event>
 5   0  0.1728937E-06  0.3316217E+04  0.7818609E-02  0.8158781E-01
       -2   -1    0    0    0  501  0.00000000000E+00  0.00000000000E+00  0.10983950143E+04  0.10983950143E+04  0.25500000920E-02 0.  1.
        2   -1    0    0  501    0  0.00000000000E+00  0.00000000000E+00 -0.25030370438E+04  0.25030370438E+04  0.25500000920E-02 0. -1.
    10030    2    1    2    0    0  0.00000000000E+00  0.00000000000E+00 -0.14046420294E+04  0.36014320581E+04  0.33162167659E+04 0.  0.
        1    1    3    3  502    0 -0.14208881406E+04 -0.62408429066E+03 -0.13364213486E+04  0.20480298658E+04  0.50400001928E-02 0. -1.
       -1    1    3    3    0  502  0.14208881406E+04  0.62408429066E+03 -0.68220680788E+02  0.15534021924E+04  0.50400001928E-02 0.  1.
</event>
<event>
 5   0  0.1832626E-06  0.2727714E+04  0.7818609E-02  0.8326068E-01
        2   -1    0    0  501    0  0.00000000000E+00  0.00000000000E+00  0.18665288416E+04  0.18665288416E+04  0.25500000920E-02 0. -1.
       -2   -1    0    0    0  501  0.00000000000E+00  0.00000000000E+00 -0.99655870319E+03  0.99655870320E+03  0.25500000920E-02 0.  1.
    10030    2    1    2    0    0  0.00000000000E+00  0.00000000000E+00  0.86997013843E+03  0.28630875448E+04  0.27277137400E+04 0.  0.
        3    1    3    3  502    0  0.96851224543E+03  0.22594932618E+03  0.14145968729E+04  0.17292060000E+04  0.10100000352E+00 0. -1.
       -3    1    3    3    0  502 -0.96851224543E+03 -0.22594932618E+03 -0.54462673445E+03  0.11338815448E+04  0.10100000352E+00 0.  1.
</event>
<event>
 5   0  0.6085351E-07  0.3289279E+04  0.7818609E-02  0.8165629E-01
       -1   -1    0    0    0  501  0.00000000000E+00  0.00000000000E+00  0.15136133728E+04  0.15136133728E+04  0.50400001928E-02 0.  1.
        1   -1    0    0  501    0  0.00000000000E+00  0.00000000000E+00 -0.17870078367E+04  0.17870078367E+04  0.50400001928E-02 0. -1.
    10030    2    1    2    0    0  0.00000000000E+00  0.00000000000E+00 -0.27339446391E+03  0.33006212094E+04  0.32892789233E+04 0.  0.
        1    1    3    3  502    0  0.65188816299E+03 -0.45492201813E+03 -0.15814281289E+04  0.17699794198E+04  0.50400001928E-02 0. -1.
       -1    1    3    3    0  502 -0.65188816299E+03  0.45492201813E+03  0.13080336650E+04  0.15306417897E+04  0.50400001928E-02 0.  1.
</event>
<event>
 5   0  0.1784626E-06  0.3299697E+04  0.7818609E-02  0.8162973E-01
       -2   -1    0    0    0  501  0.00000000000E+00  0.00000000000E+00  0.10792160484E+04  0.10792160484E+04  0.25500000920E-02 0.  1.
        2   -1    0    0  501    0  0.00000000000E+00  0.00000000000E+00 -0.25222008629E+04  0.25222008629E+04  0.25500000920E-02 0. -1.
    10030    2    1    2    0    0  0.00000000000E+00  0.00000000000E+00 -0.14429848145E+04  0.36014169113E+04  0.32996967427E+04 0.  0.
        2    1    3    3  502    0 -0.81464702671E+03 -0.73950066355E+03 -0.20633357476E+04  0.23383467272E+04  0.25500000920E-02 0. -1.
       -2    1    3    3    0  502  0.81464702671E+03  0.73950066355E+03  0.62035093311E+03  0.12630701840E+04  0.25500000920E-02 0.  1.
</event>
<event>
 5   0  0.1784626E-06  0.3267709E+04  0.7818609E-02  0.8171161E-01
       -2   -1    0    0    0  501  0.00000000000E+00  0.00000000000E+00  0.15832579852E+04  0.15832579852E+04  0.25500000920E-02 0. -1.
        2   -1    0    0  501    0  0.00000000000E+00  0.00000000000E+00 -0.16860679853E+04  0.16860679853E+04  0.25500000920E-02 0.  1.
    10030    2    1    2    0    0  0.00000000000E+00  0.00000000000E+00 -0.10281000010E+03  0.32693259704E+04  0.32677090453E+04 0.  0.
        2    1    3    3  502    0 -0.14885423219E+04  0.59919715226E+03 -0.35926675003E+03  0.16443442672E+04  0.25500000920E-02 0.  1.
       -2    1    3    3    0  502  0.14885423219E+04 -0.59919715226E+03  0.25645674993E+03  0.16249817033E+04  0.25500000920E-02 0. -1.
</event>
<event>
 5   0  0.6085351E-07  0.3298640E+04  0.7818609E-02  0.8163242E-01
       -1   -1    0    0    0  501  0.00000000000E+00  0.00000000000E+00  0.13283099483E+04  0.13283099483E+04  0.50400001928E-02 0.  1.
        1   -1    0    0  501    0  0.00000000000E+00  0.00000000000E+00 -0.20479078490E+04  0.20479078490E+04  0.50400001928E-02 0. -1.
    10030    2    1    2    0    0  0.00000000000E+00  0.00000000000E+00 -0.71959790070E+03  0.33762177973E+04  0.32986399434E+04 0.  0.
        1    1    3    3  502    0 -0.63781869256E+03 -0.90117149909E+02  0.11942381893E+04  0.13568856393E+04  0.50400001928E-02 0.  1.
       -1    1    3    3    0  502  0.63781869256E+03  0.90117149909E+02 -0.19138360900E+04  0.20193321581E+04  0.50400001928E-02 0. -1.
</event>
<event>
 5   0  0.5988516E-07  0.3298548E+04  0.7818609E-02  0.8163265E-01
       -1   -1    0    0    0  501  0.00000000000E+00  0.00000000000E+00  0.16644001729E+04  0.16644001729E+04  0.50400001928E-02 0. -1.
        1   -1    0    0  501    0  0.00000000000E+00  0.00000000000E+00 -0.16342854375E+04  0.16342854375E+04  0.50400001928E-02 0.  1.
    10030    2    1    2    0    0  0.00000000000E+00  0.00000000000E+00  0.30114735443E+02  0.32986856104E+04  0.32985481441E+04 0.  0.
        4    1    3    3  502    0 -0.35452176899E+03  0.16027034938E+04  0.17556071743E+03  0.16508080906E+04  0.12699999809E+01 0. -1.
       -4    1    3    3    0  502  0.35452176899E+03 -0.16027034938E+04 -0.14544598198E+03  0.16478775198E+04  0.12699999809E+01 0.  1.
</event>
<event>
 5   0  0.6023446E-07  0.3313100E+04  0.7818609E-02  0.8159570E-01
        1   -1    0    0  501    0  0.00000000000E+00  0.00000000000E+00  0.16931967775E+04  0.16931967775E+04  0.50400001928E-02 0.  1.
       -1   -1    0    0    0  501  0.00000000000E+00  0.00000000000E+00 -0.16206962145E+04  0.16206962145E+04  0.50400001928E-02 0. -1.
    10030    2    1    2    0    0  0.00000000000E+00  0.00000000000E+00  0.72500562944E+02  0.33138929920E+04  0.33130998220E+04 0.  0.
        5    1    3    3  502    0  0.16479580481E+04  0.16087962279E+03  0.86137428709E+02  0.16580379151E+04  0.46999998093E+01 0. -1.
       -5    1    3    3    0  502 -0.16479580481E+04 -0.16087962279E+03 -0.13636865766E+02  0.16558550768E+04  0.46999998093E+01 0.  1.
</event>
<event>
 5   0  0.1696681E-06  0.3208647E+04  0.7818609E-02  0.8186537E-01
        2   -1    0    0  501    0  0.00000000000E+00  0.00000000000E+00  0.21942750272E+04  0.21942750272E+04  0.25500000920E-02 0.  1.
       -2   -1    0    0    0  501  0.00000000000E+00  0.00000000000E+00 -0.11729860020E+04  0.11729860020E+04  0.25500000920E-02 0. -1.
    10030    2    1    2    0    0  0.00000000000E+00  0.00000000000E+00  0.10212890252E+04  0.33672610291E+04  0.32086469992E+04 0.  0.
        4    1    3    3  502    0 -0.21393230587E+03  0.58020668748E+03  0.20641764126E+04  0.21548161655E+04  0.12699999809E+01 0.  1.
       -4    1    3    3    0  502  0.21393230587E+03 -0.58020668748E+03 -0.10428873874E+04  0.12124448637E+04  0.12699999809E+01 0. -1.
</event>
<event>
 5   0  0.6023446E-07  0.3440464E+04  0.7818609E-02  0.8128046E-01
       -1   -1    0    0    0  501  0.00000000000E+00  0.00000000000E+00  0.14937599949E+04  0.14937599949E+04  0.50400001928E-02 0. -1.
        1   -1    0    0  501    0  0.00000000000E+00  0.00000000000E+00 -0.19810396100E+04  0.19810396100E+04  0.50400001928E-02 0.  1.
    10030    2    1    2    0    0  0.00000000000E+00  0.00000000000E+00 -0.48727961507E+03  0.34747996049E+04  0.34404637582E+04 0.  0.
        5    1    3    3  502    0 -0.80028257978E+03  0.50098722667E+02 -0.17807396356E+04  0.19529510566E+04  0.46999998093E+01 0.  1.
       -5    1    3    3    0  502  0.80028257978E+03 -0.50098722667E+02  0.12934600205E+04  0.15218485484E+04  0.46999998093E+01 0. -1.
</event>
<event>
 5   0  0.1728937E-06  0.3295726E+04  0.7818609E-02  0.8163984E-01
       -2   -1    0    0    0  501  0.00000000000E+00  0.00000000000E+00  0.15820251305E+04  0.15820251305E+04  0.25500000920E-02 0. -1.
        2   -1    0    0  501    0  0.00000000000E+00  0.00000000000E+00 -0.17164411025E+04  0.17164411025E+04  0.25500000920E-02 0.  1.
    10030    2    1    2    0    0  0.00000000000E+00  0.00000000000E+00 -0.13441597195E+03  0.32984662330E+04  0.32957262988E+04 0.  0.
        1    1    3    3  502    0  0.63283035529E+01  0.18738232763E+03 -0.17057314725E+04  0.17160046738E+04  0.50400001928E-02 0.  1.
       -1    1    3    3    0  502 -0.63283035529E+01 -0.18738232763E+03  0.15713155005E+04  0.15824615592E+04  0.50400001928E-02 0. -1.
</event>
<event>
 5   0  0.6023446E-07  0.3300755E+04  0.7818609E-02  0.8162703E-01
       -1   -1    0    0    0  501  0.00000000000E+00  0.00000000000E+00  0.22036226641E+04  0.22036226641E+04  0.50400001928E-02 0. -1.
        1   -1    0    0  501    0  0.00000000000E+00  0.00000000000E+00 -0.12360307654E+04  0.12360307654E+04  0.50400001928E-02 0.  1.
    10030    2    1    2    0    0  0.00000000000E+00  0.00000000000E+00  0.96759189874E+03  0.34396534295E+04  0.33007547065E+04 0.  0.
        5    1    3    3  502    0  0.50262893152E+03  0.34917920669E+03  0.20809906453E+04  0.21691256573E+04  0.46999998093E+01 0. -1.
       -5    1    3    3    0  502 -0.50262893152E+03 -0.34917920669E+03 -0.11133987466E+04  0.12705277722E+04  0.46999998093E+01 0.  1.
</event>
<event>
 5   0  0.5858859E-07  0.3258528E+04  0.7818609E-02  0.8173529E-01
       -1   -1    0    0    0  501  0.00000000000E+00  0.00000000000E+00  0.20794036877E+04  0.20794036877E+04  0.50400001928E-02 0. -1.
        1   -1    0    0  501    0  0.00000000000E+00  0.00000000000E+00 -0.12765687736E+04  0.12765687736E+04  0.50400001928E-02 0.  1.
    10030    2    1    2    0    0  0.00000000000E+00  0.00000000000E+00  0.80283491415E+03  0.33559724613E+04  0.32585283890E+04 0.  0.
        3    1    3    3  502    0  0.10736285561E+04  0.43654640970E+03  0.15807594316E+04  0.19601151587E+04  0.10100000352E+00 0. -1.
       -3    1    3    3    0  502 -0.10736285561E+04 -0.43654640970E+03 -0.77792451750E+03  0.13958573027E+04  0.10100000352E+00 0.  1.
</event>
<event>
 5   0  0.5858859E-07  0.3302060E+04  0.7818609E-02  0.8162371E-01
        1   -1    0    0  501    0  0.00000000000E+00  0.00000000000E+00  0.14043391837E+04  0.14043391837E+04  0.50400001928E-02 0. -1.
       -1   -1    0    0    0  501  0.00000000000E+00  0.00000000000E+00 -0.19410557268E+04  0.19410557268E+04  0.50400001928E-02 0.  1.
    10030    2    1    2    0    0  0.00000000000E+00  0.00000000000E+00 -0.53671654310E+03  0.33453949105E+04  0.33020603356E+04 0.  0.
        3    1    3    3  502    0 -0.11898589309E+04 -0.48554360891E+03  0.78176939255E+03  0.15042208166E+04  0.10100000352E+00 0. -1.
       -3    1    3    3    0  502  0.11898589309E+04  0.48554360891E+03 -0.13184859356E+04  0.18411740940E+04  0.10100000352E+00 0.  1.
</event>
<event>
 5   0  0.6023446E-07  0.3313772E+04  0.7818609E-02  0.8159400E-01
        1   -1    0    0  501    0  0.00000000000E+00  0.00000000000E+00  0.20080344426E+04  0.20080344426E+04  0.50400001928E-02 0. -1.
       -1   -1    0    0    0  501  0.00000000000E+00  0.00000000000E+00 -0.13671434424E+04  0.13671434424E+04  0.50400001928E-02 0.  1.
    10030    2    1    2    0    0  0.00000000000E+00  0.00000000000E+00  0.64089100014E+03  0.33751778850E+04  0.33137719416E+04 0.  0.
        5    1    3    3  502    0  0.78481008871E+03  0.64620948525E+02 -0.11643562331E+04  0.14056494121E+04  0.46999998093E+01 0.  1.
       -5    1    3    3    0  502 -0.78481008871E+03 -0.64620948525E+02  0.18052472332E+04  0.19695284729E+04  0.46999998093E+01 0. -1.
</event>
<event>
 5   0  0.1696681E-06  0.3280773E+04  0.7818609E-02  0.8167805E-01
       -2   -1    0    0    0  501  0.00000000000E+00  0.00000000000E+00  0.19521429784E+04  0.19521429784E+04  0.25500000920E-02 0. -1.
        2   -1    0    0  501    0  0.00000000000E+00  0.00000000000E+00 -0.13784169985E+04  0.13784169985E+04  0.25500000920E-02 0.  1.
    10030    2    1    2    0    0  0.00000000000E+00  0.00000000000E+00  0.57372597991E+03  0.33305599770E+04  0.32807725097E+04 0.  0.
        4    1    3    3  502    0  0.40432017710E+03 -0.81204638507E+03 -0.11006154490E+04  0.14262714036E+04  0.12699999809E+01 0.  1.
       -4    1    3    3    0  502 -0.40432017710E+03  0.81204638507E+03  0.16743414290E+04  0.19042885734E+04  0.12699999809E+01 0. -1.
</event>
<event>
 5   0  0.1832626E-06  0.3460195E+04  0.7818609E-02  0.8123289E-01
        2   -1    0    0  501    0  0.00000000000E+00  0.00000000000E+00  0.22038240695E+04  0.22038240695E+04  0.25500000920E-02 0. -1.
       -2   -1    0    0    0  501  0.00000000000E+00  0.00000000000E+00 -0.13582014253E+04  0.13582014253E+04  0.25500000920E-02 0.  1.
    10030    2    1    2    0    0  0.00000000000E+00  0.00000000000E+00  0.84562264414E+03  0.35620254948E+04  0.34601947878E+04 0.  0.
        3    1    3    3  502    0  0.16815915267E+04 -0.38028388141E+03  0.57153120321E+03  0.18163187550E+04  0.10100000352E+00 0.  1.
       -3    1    3    3    0  502 -0.16815915267E+04  0.38028388141E+03  0.27409144092E+03  0.17457067398E+04  0.10100000352E+00 0. -1.
</event>
<event>
 5   0  0.1784626E-06  0.3275674E+04  0.7818609E-02  0.8169113E-01
       -2   -1    0    0    0  501  0.00000000000E+00  0.00000000000E+00  0.29107805874E+04  0.29107805874E+04  0.25500000920E-02 0.  1.
        2   -1    0    0  501    0  0.00000000000E+00  0.00000000000E+00 -0.92157779863E+03  0.92157779864E+03  0.25500000920E-02 0. -1.
    10030    2    1    2    0    0  0.00000000000E+00  0.00000000000E+00  0.19892027888E+04  0.38323583860E+04  0.32756744442E+04 0.  0.
        2    1    3    3  502    0 -0.74084702897E+02  0.15923677998E+04  0.55468500432E+03  0.16878386200E+04  0.25500000920E-02 0.  1.
       -2    1    3    3    0  502  0.74084702897E+02 -0.15923677998E+04  0.14345177844E+04  0.21445197660E+04  0.25500000920E-02 0. -1.
</event>
<event>
 5   0  0.1728937E-06  0.3274543E+04  0.7818609E-02  0.8169403E-01
       -2   -1    0    0    0  501  0.00000000000E+00  0.00000000000E+00  0.17975875397E+04  0.17975875397E+04  0.25500000920E-02 0. -1.
        2   -1    0    0  501    0  0.00000000000E+00  0.00000000000E+00 -0.14912533190E+04  0.14912533190E+04  0.25500000920E-02 0.  1.
    10030    2    1    2    0    0  0.00000000000E+00  0.00000000000E+00  0.30633422064E+03  0.32888408587E+04  0.32745432566E+04 0.  0.
        1    1    3    3  502    0  0.11459352065E+04  0.11598391407E+04  0.33041666399E+01  0.16304616670E+04  0.50400001928E-02 0.  1.
       -1    1    3    3    0  502 -0.11459352065E+04 -0.11598391407E+04  0.30303005400E+03  0.16583791917E+04  0.50400001928E-02 0. -1.
</event>
<event>
 5   0  0.1743810E-06  0.3299615E+04  0.7818609E-02  0.8162993E-01
       -2   -1    0    0    0  501  0.00000000000E+00  0.00000000000E+00  0.13207870168E+04  0.13207870168E+04  0.25500000920E-02 0.  1.
        2   -1    0    0  501    0  0.00000000000E+00  0.00000000000E+00 -0.20607905494E+04  0.20607905494E+04  0.25500000920E-02 0. -1.
    10030    2    1    2    0    0  0.00000000000E+00  0.00000000000E+00 -0.74000353264E+03  0.33815775662E+04  0.32996153727E+04 0.  0.
        5    1    3    3  502    0 -0.13568214622E+03 -0.52257615455E+02  0.13142012214E+04  0.13222282116E+04  0.46999998093E+01 0.  1.
       -5    1    3    3    0  502  0.13568214622E+03  0.52257615455E+02 -0.20542047540E+04  0.20593493547E+04  0.46999998093E+01 0. -1.
</event>
<event>
 5   0  0.1832626E-06  0.3312310E+04  0.7818609E-02  0.8159770E-01
        2   -1    0    0  501    0  0.00000000000E+00  0.00000000000E+00  0.21053299487E+04  0.21053299487E+04  0.25500000920E-02 0. -1.
       -2   -1    0    0    0  501  0.00000000000E+00  0.00000000000E+00 -0.13028120159E+04  0.13028120159E+04  0.25500000920E-02 0.  1.
    10030    2    1    2    0    0  0.00000000000E+00  0.00000000000E+00  0.80251793276E+03  0.34081419646E+04  0.33123098615E+04 0.  0.
        3    1    3    3  502    0  0.13826870130E+04 -0.59061249871E+02  0.13372691430E+04  0.19244740523E+04  0.10100000352E+00 0. -1.
       -3    1    3    3    0  502 -0.13826870130E+04  0.59061249871E+02 -0.53475121021E+03  0.14836679123E+04  0.10100000352E+00 0.  1.
</event>
<event>
 5   0  0.6085351E-07  0.3248817E+04  0.7818609E-02  0.8176042E-01
        1   -1    0    0  501    0  0.00000000000E+00  0.00000000000E+00  0.22596468532E+04  0.22596468532E+04  0.50400001928E-02 0.  1.
       -1   -1    0    0    0  501  0.00000000000E+00  0.00000000000E+00 -0.11677501565E+04  0.11677501565E+04  0.50400001928E-02 0. -1.
    10030    2    1    2    0    0  0.00000000000E+00  0.00000000000E+00  0.10918966967E+04  0.34273970097E+04  0.32488169948E+04 0.  0.
        1    1    3    3  502    0 -0.73672969708E+03 -0.53738755341E+03  0.19641431795E+04  0.21655055896E+04  0.50400001928E-02 0.  1.
       -1    1    3    3    0  502  0.73672969708E+03  0.53738755341E+03 -0.87224648285E+03  0.12618914200E+04  0.50400001928E-02 0. -1.
</event>
<event>
 5   0  0.5858859E-07  0.3269648E+04  0.7818609E-02  0.8170662E-01
       -1   -1    0    0    0  501  0.00000000000E+00  0.00000000000E+00  0.10345706048E+04  0.10345706048E+04  0.50400001928E-02 0.  1.
        1   -1    0    0  501    0  0.00000000000E+00  0.00000000000E+00 -0.25833413214E+04  0.25833413214E+04  0.50400001928E-02 0. -1.
    10030    2    1    2    0    0  0.00000000000E+00  0.00000000000E+00 -0.15487707166E+04  0.36179119262E+04  0.32696476833E+04 0.  0.
        3    1    3    3  502    0 -0.48136330923E+03  0.86177262259E+03  0.66760542425E+03  0.11916625786E+04  0.10100000352E+00 0.  1.
       -3    1    3    3    0  502  0.48136330923E+03 -0.86177262259E+03 -0.22163761409E+04  0.24262493476E+04  0.10100000352E+00 0. -1.
</event>
<event>
 5   0  0.6023446E-07  0.3304549E+04  0.7818609E-02  0.8161739E-01
        1   -1    0    0  501    0  0.00000000000E+00  0.00000000000E+00  0.15345897082E+04  0.15345897082E+04  0.50400001928E-02 0.  1.
       -1   -1    0    0    0  501  0.00000000000E+00  0.00000000000E+00 -0.17789846320E+04  0.17789846321E+04  0.50400001928E-02 0. -1.
    10030    2    1    2    0    0  0.00000000000E+00  0.00000000000E+00 -0.24439492383E+03  0.33135743403E+04  0.33045492930E+04 0.  0.
        5    1    3    3  502    0 -0.78938203866E+03  0.96041008251E+03 -0.12135070297E+04  0.17372774478E+04  0.46999998093E+01 0. -1.
       -5    1    3    3    0  502  0.78938203866E+03 -0.96041008251E+03  0.96911210584E+03  0.15762968925E+04  0.46999998093E+01 0.  1.
</event>
<event>
 5   0  0.5858859E-07  0.3303878E+04  0.7818609E-02  0.8161909E-01
       -1   -1    0    0    0  501  0.00000000000E+00  0.00000000000E+00  0.12623950723E+04  0.12623950723E+04  0.50400001928E-02 0.  1.
        1   -1    0    0  501    0  0.00000000000E+00  0.00000000000E+00 -0.21616866110E+04  0.21616866110E+04  0.50400001928E-02 0. -1.
    10030    2    1    2    0    0  0.00000000000E+00  0.00000000000E+00 -0.89929153872E+03  0.34240816834E+04  0.33038780399E+04 0.  0.
        3    1    3    3  502    0  0.11842661177E+04 -0.11061486024E+04 -0.11727293221E+03  0.16247473400E+04  0.10100000352E+00 0.  1.
       -3    1    3    3    0  502 -0.11842661177E+04  0.11061486024E+04 -0.78201860650E+03  0.17993343434E+04  0.10100000352E+00 0. -1.
</event>
<event>
 5   0  0.1784626E-06  0.3310174E+04  0.7818609E-02  0.8160311E-01
       -2   -1    0    0    0  501  0.00000000000E+00  0.00000000000E+00  0.21703367856E+04  0.21703367856E+04  0.25500000920E-02 0. -1.
        2   -1    0    0  501    0  0.00000000000E+00  0.00000000000E+00 -0.12621601439E+04  0.12621601439E+04  0.25500000920E-02 0.  1.
    10030    2    1    2    0    0  0.00000000000E+00  0.00000000000E+00  0.90817664172E+03  0.34324969295E+04  0.33101737656E+04 0.  0.
        2    1    3    3  502    0  0.71697126584E+03  0.72823073002E+03 -0.89592217233E+03  0.13590600910E+04  0.25500000920E-02 0.  1.
       -2    1    3    3    0  502 -0.71697126584E+03 -0.72823073002E+03  0.18040988141E+04  0.20734368385E+04  0.25500000920E-02 0. -1.
</event>
<event>
 5   0  0.1832626E-06  0.3309521E+04  0.7818609E-02  0.8160477E-01
       -2   -1    0    0    0  501  0.00000000000E+00  0.00000000000E+00  0.10196165358E+04  0.10196165358E+04  0.25500000920E-02 0.  1.
        2   -1    0    0  501    0  0.00000000000E+00  0.00000000000E+00 -0.26855502928E+04  0.26855502928E+04  0.25500000920E-02 0. -1.
    10030    2    1    2    0    0  0.00000000000E+00  0.00000000000E+00 -0.16659337570E+04  0.37051668285E+04  0.33095205007E+04 0.  0.
        3    1    3    3  502    0 -0.13147843855E+03 -0.27695978345E+03  0.98754273653E+03  0.10340377015E+04  0.10100000352E+00 0.  1.
       -3    1    3    3    0  502  0.13147843855E+03  0.27695978345E+03 -0.26534764935E+04  0.26711291270E+04  0.10100000352E+00 0. -1.
</event>
<event>
 5   0  0.5858859E-07  0.3258436E+04  0.7818609E-02  0.8173552E-01
       -1   -1    0    0    0  501  0.00000000000E+00  0.00000000000E+00  0.16243146928E+04  0.16243146928E+04  0.50400001928E-02 0.  1.
        1   -1    0    0  501    0  0.00000000000E+00  0.00000000000E+00 -0.16341365603E+04  0.16341365603E+04  0.50400001928E-02 0. -1.
    10030    2    1    2    0    0  0.00000000000E+00  0.00000000000E+00 -0.98218674705E+01  0.32584512531E+04  0.32584364502E+04 0.  0.
        3    1    3    3  502    0  0.21705072051E+03 -0.40119204648E+03  0.15591568935E+04  0.16245110963E+04  0.10100000352E+00 0.  1.
       -3    1    3    3    0  502 -0.21705072051E+03  0.40119204648E+03 -0.15689787609E+04  0.16339401568E+04  0.10100000352E+00 0. -1.
</event>
<event>
 5   0  0.5985183E-07  0.3314691E+04  0.7818609E-02  0.8159167E-01
        1   -1    0    0  501    0  0.00000000000E+00  0.00000000000E+00  0.23977677805E+04  0.23977677805E+04  0.50400001928E-02 0.  1.
       -1   -1    0    0    0  501  0.00000000000E+00  0.00000000000E+00 -0.11455627702E+04  0.11455627702E+04  0.50400001928E-02 0. -1.
    10030    2    1    2    0    0  0.00000000000E+00  0.00000000000E+00  0.12522050103E+04  0.35433305507E+04  0.33146906347E+04 0.  0.
        2    1    3    3  502    0  0.84418148516E+03 -0.13511181775E+04  0.11143700642E+04  0.19442179275E+04  0.25500000920E-02 0.  1.
       -2    1    3    3    0  502 -0.84418148516E+03  0.13511181775E+04  0.13783494612E+03  0.15991126233E+04  0.25500000920E-02 0. -1.
</event>
<event>
 5   0  0.1784626E-06  0.3300481E+04  0.7818609E-02  0.8162773E-01
       -2   -1    0    0    0  501  0.00000000000E+00  0.00000000000E+00  0.16613437118E+04  0.16613437118E+04  0.25500000920E-02 0.  1.
        2   -1    0    0  501    0  0.00000000000E+00  0.00000000000E+00 -0.16392119562E+04  0.16392119562E+04  0.25500000920E-02 0. -1.
    10030    2    1    2    0    0  0.00000000000E+00  0.00000000000E+00  0.22131755614E+02  0.33005556681E+04  0.33004814654E+04 0.  0.
        2    1    3    3  502    0  0.37370117334E+03 -0.13452219424E+04 -0.86873787222E+03  0.16443783421E+04  0.25500000920E-02 0. -1.
       -2    1    3    3    0  502 -0.37370117334E+03  0.13452219424E+04  0.89086962784E+03  0.16561773260E+04  0.25500000920E-02 0.  1.
</event>
<event>
 5   0  0.5988516E-07  0.3234535E+04  0.7818609E-02  0.8179756E-01
       -1   -1    0    0    0  501  0.00000000000E+00  0.00000000000E+00  0.12897009561E+04  0.12897009561E+04  0.50400001928E-02 0. -1.
        1   -1    0    0  501    0  0.00000000000E+00  0.00000000000E+00 -0.20280317389E+04  0.20280317389E+04  0.50400001928E-02 0.  1.
    10030    2    1    2    0    0  0.00000000000E+00  0.00000000000E+00 -0.73833078287E+03  0.33177326950E+04  0.32345351893E+04 0.  0.
        4    1    3    3  502    0 -0.97874172236E+03 -0.10777178317E+03  0.94680097495E+03  0.13660101813E+04  0.12699999809E+01 0. -1.
       -4    1    3    3    0  502  0.97874172236E+03  0.10777178317E+03 -0.16851317578E+04  0.19517225137E+04  0.12699999809E+01 0.  1.
</event>
<event>
 5   0  0.1728937E-06  0.3359260E+04  0.7818609E-02  0.8147978E-01
        2   -1    0    0  501    0  0.00000000000E+00  0.00000000000E+00  0.18034578595E+04  0.18034578595E+04  0.25500000920E-02 0. -1.
       -2   -1    0    0    0  501  0.00000000000E+00  0.00000000000E+00 -0.15643047677E+04  0.15643047677E+04  0.25500000920E-02 0.  1.
    10030    2    1    2    0    0  0.00000000000E+00  0.00000000000E+00  0.23915309182E+03  0.33677626272E+04  0.33592604710E+04 0.  0.
        1    1    3    3  502    0 -0.15179580730E+04  0.34545136974E+03  0.75174713839E+03  0.17287732993E+04  0.50400001928E-02 0. -1.
       -1    1    3    3    0  502  0.15179580730E+04 -0.34545136974E+03 -0.51259404658E+03  0.16389893279E+04  0.50400001928E-02 0.  1.
</event>
<event>
 5   0  0.5988516E-07  0.3298294E+04  0.7818609E-02  0.8163330E-01
        1   -1    0    0  501    0  0.00000000000E+00  0.00000000000E+00  0.19379440276E+04  0.19379440276E+04  0.50400001928E-02 0.  1.
       -1   -1    0    0    0  501  0.00000000000E+00  0.00000000000E+00 -0.14033869402E+04  0.14033869402E+04  0.50400001928E-02 0. -1.
    10030    2    1    2    0    0  0.00000000000E+00  0.00000000000E+00  0.53455708740E+03  0.33413309679E+04  0.32982937039E+04 0.  0.
        4    1    3    3  502    0  0.14364625795E+04 -0.75181603481E+03 -0.38372820707E+02  0.16217663762E+04  0.12699999809E+01 0. -1.
       -4    1    3    3    0  502 -0.14364625795E+04  0.75181603481E+03  0.57292990811E+03  0.17195645917E+04  0.12699999809E+01 0.  1.
</event>
<event>
 5   0  0.5858859E-07  0.3178977E+04  0.7818609E-02  0.8194391E-01
        1   -1    0    0  501    0  0.00000000000E+00  0.00000000000E+00  0.17199149540E+04  0.17199149540E+04  0.50400001928E-02 0.  1.
       -1   -1    0    0    0  501  0.00000000000E+00  0.00000000000E+00 -0.14689527637E+04  0.14689527637E+04  0.50400001928E-02 0. -1.
    10030    2    1    2    0    0  0.00000000000E+00  0.00000000000E+00  0.25096219034E+03  0.31888677177E+04  0.31789770839E+04 0.  0.
        3    1    3    3  502    0  0.15347486315E+04  0.38458887191E+03  0.27797991601E+03  0.16064354348E+04  0.10100000352E+00 0.  1.
       -3    1    3    3    0  502 -0.15347486315E+04 -0.38458887191E+03 -0.27017725664E+02  0.15824322829E+04  0.10100000352E+00 0. -1.
</event>
<event>
 5   0  0.5985183E-07  0.3349389E+04  0.7818609E-02  0.8150441E-01
        1   -1    0    0  501    0  0.00000000000E+00  0.00000000000E+00  0.18595358856E+04  0.18595358856E+04  0.50400001928E-02 0. -1.
       -1   -1    0    0    0  501  0.00000000000E+00  0.00000000000E+00 -0.15082263556E+04  0.15082263557E+04  0.50400001928E-02 0.  1.
    10030    2    1    2    0    0  0.00000000000E+00  0.00000000000E+00  0.35130952998E+03  0.33677622413E+04  0.33493886200E+04 0.  0.
        2    1    3    3  502    0 -0.12368390374E+04  0.90350520408E+03 -0.50519236888E+03  0.16128582665E+04  0.25500000920E-02 0.  1.
       -2    1    3    3    0  502  0.12368390374E+04 -0.90350520408E+03  0.85650189886E+03  0.17549039748E+04  0.25500000920E-02 0. -1.
</event>
<event>
 5   0  0.1728937E-06  0.3314536E+04  0.7818609E-02  0.8159206E-01
       -2   -1    0    0    0  501  0.00000000000E+00  0.00000000000E+00  0.17544966307E+04  0.17544966307E+04  0.25500000920E-02 0. -1.
        2   -1    0    0  501    0  0.00000000000E+00  0.00000000000E+00 -0.15654276564E+04  0.15654276564E+04  0.25500000920E-02 0.  1.
    10030    2    1    2    0    0  0.00000000000E+00  0.00000000000E+00  0.18906897431E+03  0.33199242871E+04  0.33145361961E+04 0.  0.
        1    1    3    3  502    0 -0.61414702709E+03  0.14699782917E+04  0.55192196446E+03  0.16860102620E+04  0.50400001928E-02 0. -1.
       -1    1    3    3    0  502  0.61414702709E+03 -0.14699782917E+04 -0.36285299015E+03  0.16339140251E+04  0.50400001928E-02 0.  1.
</event>
<event>
 5   0  0.1743810E-06  0.3293068E+04  0.7818609E-02  0.8164661E-01
        2   -1    0    0  501    0  0.00000000000E+00  0.00000000000E+00  0.17695299430E+04  0.17695299430E+04  0.25500000920E-02 0.  1.
       -2   -1    0    0    0  501  0.00000000000E+00  0.00000000000E+00 -0.15320873883E+04  0.15320873883E+04  0.25500000920E-02 0. -1.
    10030    2    1    2    0    0  0.00000000000E+00  0.00000000000E+00  0.23744255470E+03  0.33016173313E+04  0.32930681796E+04 0.  0.
        5    1    3    3  502    0 -0.13798874159E+04  0.32308041427E+03 -0.72165653897E+03  0.15903711783E+04  0.46999998093E+01 0. -1.
       -5    1    3    3    0  502  0.13798874159E+04 -0.32308041427E+03  0.95909909368E+03  0.17112461530E+04  0.46999998093E+01 0.  1.
</event>
<event>
 5   0  0.6023446E-07  0.3289647E+04  0.7818609E-02  0.8165535E-01
       -1   -1    0    0    0  501  0.00000000000E+00  0.00000000000E+00  0.13287491452E+04  0.13287491452E+04  0.50400001928E-02 0.  1.
        1   -1    0    0  501    0  0.00000000000E+00  0.00000000000E+00 -0.20360838076E+04  0.20360838076E+04  0.50400001928E-02 0. -1.
    10030    2    1    2    0    0  0.00000000000E+00  0.00000000000E+00 -0.70733466235E+03  0.33648329528E+04  0.32896471658E+04 0.  0.
        5    1    3    3  502    0  0.39067706277E+03 -0.89921420979E+03 -0.17045365215E+04  0.19663879591E+04  0.46999998093E+01 0. -1.
       -5    1    3    3    0  502 -0.39067706277E+03  0.89921420979E+03  0.99720185917E+03  0.13984449937E+04  0.46999998093E+01 0.  1.
</event>
<event>
 5   0  0.1696681E-06  0.3297052E+04  0.7818609E-02  0.8163646E-01
       -2   -1    0    0    0  501  0.00000000000E+00  0.00000000000E+00  0.12848142264E+04  0.12848142264E+04  0.25500000920E-02 0.  1.
        2   -1    0    0  501    0  0.00000000000E+00  0.00000000000E+00 -0.21151996195E+04  0.21151996195E+04  0.25500000920E-02 0. -1.
    10030    2    1    2    0    0  0.00000000000E+00  0.00000000000E+00 -0.83038539310E+03  0.34000138460E+04  0.32970523581E+04 0.  0.
        4    1    3    3  502    0  0.16409829229E+04 -0.71100554996E+02 -0.56014066477E+03  0.17354075658E+04  0.12699999809E+01 0. -1.
       -4    1    3    3    0  502 -0.16409829229E+04  0.71100554996E+02 -0.27024472833E+03  0.16646062802E+04  0.12699999809E+01 0.  1.
</event>
<event>
 5   0  0.6085351E-07  0.3283639E+04  0.7818609E-02  0.8167071E-01
       -1   -1    0    0    0  501  0.00000000000E+00  0.00000000000E+00  0.11821083661E+04  0.11821083661E+04  0.50400001928E-02 0.  1.
        1   -1    0    0  501    0  0.00000000000E+00  0.00000000000E+00 -0.22803081313E+04  0.22803081313E+04  0.50400001928E-02 0. -1.
    10030    2    1    2    0    0  0.00000000000E+00  0.00000000000E+00 -0.10981997652E+04  0.34624164975E+04  0.32836390298E+04 0.  0.
        1    1    3    3  502    0  0.26638926276E+03 -0.67703706315E+03 -0.21010439732E+04  0.22234496175E+04  0.50400001928E-02 0. -1.
       -1    1    3    3    0  502 -0.26638926276E+03  0.67703706315E+03  0.10028442080E+04  0.12389668800E+04  0.50400001928E-02 0.  1.
</event>
<event>
 5   0  0.6023446E-07  0.2961649E+04  0.7818609E-02  0.8254768E-01
       -1   -1    0    0    0  501  0.00000000000E+00  0.00000000000E+00  0.13612947492E+04  0.13612947493E+04  0.50400001928E-02 0. -1.
        1   -1    0    0  501    0  0.00000000000E+00  0.00000000000E+00 -0.16108493039E+04  0.16108493039E+04  0.50400001928E-02 0.  1.
    10030    2    1    2    0    0  0.00000000000E+00  0.00000000000E+00 -0.24955455461E+03  0.29721440531E+04  0.29616486619E+04 0.  0.
        5    1    3    3  502    0 -0.11929416857E+04  0.15116171147E+03  0.74249525592E+03  0.14132519321E+04  0.46999998093E+01 0. -1.
       -5    1    3    3    0  502  0.11929416857E+04 -0.15116171147E+03 -0.99204981053E+03  0.15588921210E+04  0.46999998093E+01 0.  1.
</event>
<event>
 5   0  0.5985183E-07  0.3297908E+04  0.7818609E-02  0.8163428E-01
       -1   -1    0    0    0  501  0.00000000000E+00  0.00000000000E+00  0.19507357809E+04  0.19507357809E+04  0.50400001928E-02 0. -1.
        1   -1    0    0  501    0  0.00000000000E+00  0.00000000000E+00 -0.13938587312E+04  0.13938587312E+04  0.50400001928E-02 0.  1.
    10030    2    1    2    0    0  0.00000000000E+00  0.00000000000E+00  0.55687704972E+03  0.33445945122E+04  0.32979084891E+04 0.  0.
        2    1    3    3  502    0  0.14839117779E+03  0.15219449882E+04 -0.34731610925E+03  0.15681087234E+04  0.25500000920E-02 0.  1.
       -2    1    3    3    0  502 -0.14839117779E+03 -0.15219449882E+04  0.90419315896E+03  0.17764857887E+04  0.25500000920E-02 0. -1.
</event>
<event>
 5   0  0.5985183E-07  0.3306779E+04  0.7818609E-02  0.8161173E-01
       -1   -1    0    0    0  501  0.00000000000E+00  0.00000000000E+00  0.21697059402E+04  0.21697059402E+04  0.50400001928E-02 0.  1.
        1   -1    0    0  501    0  0.00000000000E+00  0.00000000000E+00 -0.12599385441E+04  0.12599385441E+04  0.50400001928E-02 0. -1.
    10030    2    1    2    0    0  0.00000000000E+00  0.00000000000E+00  0.90976739611E+03  0.34296444842E+04  0.33067785794E+04 0.  0.
        2    1    3    3  502    0 -0.39472300148E+03 -0.29858627865E+03 -0.11813050969E+04  0.12807973085E+04  0.25500000920E-02 0. -1.
       -2    1    3    3    0  502  0.39472300148E+03  0.29858627865E+03  0.20910724930E+04  0.21488471757E+04  0.25500000920E-02 0.  1.
</event>
<event>
 5   0  0.6023446E-07  0.3231056E+04  0.7818609E-02  0.8180663E-01
       -1   -1    0    0    0  501  0.00000000000E+00  0.00000000000E+00  0.14782624728E+04  0.14782624728E+04  0.50400001928E-02 0.  1.
        1   -1    0    0  501    0  0.00000000000E+00  0.00000000000E+00 -0.17655399860E+04  0.17655399860E+04  0.50400001928E-02 0. -1.
    10030    2    1    2    0    0  0.00000000000E+00  0.00000000000E+00 -0.28727751323E+03  0.32438024588E+04  0.32310564869E+04 0.  0.
        5    1    3    3  502    0  0.87487892042E+03 -0.43163096828E+01 -0.15071117736E+04  0.17426530762E+04  0.46999998093E+01 0. -1.
       -5    1    3    3    0  502 -0.87487892042E+03  0.43163096828E+01  0.12198342604E+04  0.15011493825E+04  0.46999998093E+01 0.  1.
</event>
<event>
 5   0  0.6023446E-07  0.3355896E+04  0.7818609E-02  0.8148816E-01
       -1   -1    0    0    0  501  0.00000000000E+00  0.00000000000E+00  0.25191157731E+04  0.25191157731E+04  0.50400001928E-02 0. -1.
        1   -1    0    0  501    0  0.00000000000E+00  0.00000000000E+00 -0.11176581607E+04  0.11176581607E+04  0.50400001928E-02 0.  1.
    10030    2    1    2    0    0  0.00000000000E+00  0.00000000000E+00  0.14014576124E+04  0.36367739338E+04  0.33558964832E+04 0.  0.
        5    1    3    3  502    0 -0.16444709865E+04 -0.26734148290E+03  0.91674062493E+03  0.19016287117E+04  0.46999998093E+01 0. -1.
       -5    1    3    3    0  502  0.16444709865E+04  0.26734148290E+03  0.48471698746E+03  0.17351452221E+04  0.46999998093E+01 0.  1.
</event>
<event>
 5   0  0.5985183E-07  0.3293905E+04  0.7818609E-02  0.8164448E-01
        1   -1    0    0  501    0  0.00000000000E+00  0.00000000000E+00  0.19645175907E+04  0.19645175907E+04  0.50400001928E-02 0. -1.
       -1   -1    0    0    0  501  0.00000000000E+00  0.00000000000E+00 -0.13807215423E+04  0.13807215423E+04  0.50400001928E-02 0.  1.
    10030    2    1    2    0    0  0.00000000000E+00  0.00000000000E+00  0.58379604845E+03  0.33452391330E+04  0.32939045266E+04 0.  0.
        2    1    3    3  502    0 -0.15041530521E+04  0.12420545776E+03 -0.37757829226E+03  0.15557855787E+04  0.25500000920E-02 0.  1.
       -2    1    3    3    0  502  0.15041530521E+04 -0.12420545776E+03  0.96137434070E+03  0.17894535543E+04  0.25500000920E-02 0. -1.
</event>
<event>
 5   0  0.5985183E-07  0.3304017E+04  0.7818609E-02  0.8161874E-01
       -1   -1    0    0    0  501  0.00000000000E+00  0.00000000000E+00  0.15896484995E+04  0.15896484996E+04  0.50400001928E-02 0. -1.
        1   -1    0    0  501    0  0.00000000000E+00  0.00000000000E+00 -0.17168149872E+04  0.17168149872E+04  0.50400001928E-02 0.  1.
    10030    2    1    2    0    0  0.00000000000E+00  0.00000000000E+00 -0.12716648765E+03  0.33064634868E+04  0.33040171721E+04 0.  0.
        2    1    3    3  502    0 -0.12977136394E+04 -0.86570166470E+03 -0.60770661615E+03  0.16741587121E+04  0.25500000920E-02 0.  1.
       -2    1    3    3    0  502  0.12977136394E+04  0.86570166470E+03  0.48054012849E+03  0.16323047746E+04  0.25500000920E-02 0. -1.
</event>
<event>
 5   0  0.5985183E-07  0.3318320E+04  0.7818609E-02  0.8158249E-01
       -1   -1    0    0    0  501  0.00000000000E+00  0.00000000000E+00  0.14462765968E+04  0.14462765968E+04  0.50400001928E-02 0.  1.
        1   -1    0    0  501    0  0.00000000000E+00  0.00000000000E+00 -0.19033783756E+04  0.19033783756E+04  0.50400001928E-02 0. -1.
    10030    2    1    2    0    0  0.00000000000E+00  0.00000000000E+00 -0.45710177876E+03  0.33496549724E+04  0.33183198155E+04 0.  0.
        2    1    3    3  502    0  0.12880302157E+04  0.68387437885E+03  0.57018946729E+03  0.15658295026E+04  0.25500000920E-02 0.  1.
       -2    1    3    3    0  502 -0.12880302157E+04 -0.68387437885E+03 -0.10272912461E+04  0.17838254698E+04  0.25500000920E-02 0. -1.
</event>
<event>
 5   0  0.1728937E-06  0.3321550E+04  0.7818609E-02  0.8157434E-01
       -2   -1    0    0    0  501  0.00000000000E+00  0.00000000000E+00  0.14532259624E+04  0.14532259624E+04  0.25500000920E-02 0. -1.
        2   -1    0    0  501    0  0.00000000000E+00  0.00000000000E+00 -0.18979660887E+04  0.18979660887E+04  0.25500000920E-02 0.  1.
    10030    2    1    2    0    0  0.00000000000E+00  0.00000000000E+00 -0.44474012629E+03  0.33511920512E+04  0.33215499972E+04 0.  0.
        1    1    3    3  502    0  0.10960851474E+04 -0.92018253239E+03  0.62778553304E+03  0.15627710065E+04  0.50400001928E-02 0. -1.
       -1    1    3    3    0  502 -0.10960851474E+04  0.92018253239E+03 -0.10725256593E+04  0.17884210447E+04  0.50400001928E-02 0.  1.
</event>
<event>
 5   0  0.6023446E-07  0.3286262E+04  0.7818609E-02  0.8166400E-01
       -1   -1    0    0    0  501  0.00000000000E+00  0.00000000000E+00  0.23540638636E+04  0.23540638636E+04  0.50400001928E-02 0. -1.
        1   -1    0    0  501    0  0.00000000000E+00  0.00000000000E+00 -0.11469014077E+04  0.11469014077E+04  0.50400001928E-02 0.  1.
    10030    2    1    2    0    0  0.00000000000E+00  0.00000000000E+00  0.12071624559E+04  0.35009652713E+04  0.32862618027E+04 0.  0.
        5    1    3    3  502    0 -0.10540230832E+04  0.95459592618E+02 -0.73542911710E+03  0.12887805360E+04  0.46999998093E+01 0.  1.
       -5    1    3    3    0  502  0.10540230832E+04 -0.95459592618E+02  0.19425915730E+04  0.22121847353E+04  0.46999998093E+01 0. -1.
</event>
<event>
 5   0  0.5985183E-07  0.3336750E+04  0.7818609E-02  0.8153607E-01
        1   -1    0    0  501    0  0.00000000000E+00  0.00000000000E+00  0.17954362377E+04  0.17954362377E+04  0.50400001928E-02 0. -1.
       -1   -1    0    0    0  501  0.00000000000E+00  0.00000000000E+00 -0.15503058787E+04  0.15503058787E+04  0.50400001928E-02 0.  1.
    10030    2    1    2    0    0  0.00000000000E+00  0.00000000000E+00  0.24513035895E+03  0.33457421164E+04  0.33367501279E+04 0.  0.
        2    1    3    3  502    0  0.24776707175E+03  0.10520427856E+04 -0.11518014995E+04  0.15795028455E+04  0.25500000920E-02 0.  1.
       -2    1    3    3    0  502 -0.24776707175E+03 -0.10520427856E+04  0.13969318585E+04  0.17662392709E+04  0.25500000920E-02 0. -1.
</event>
<event>
 5   0  0.6085351E-07  0.3263343E+04  0.7818609E-02  0.8172286E-01
       -1   -1    0    0    0  501  0.00000000000E+00  0.00000000000E+00  0.24966036373E+04  0.24966036373E+04  0.50400001928E-02 0. -1.
        1   -1    0    0  501    0  0.00000000000E+00  0.00000000000E+00 -0.10663896210E+04  0.10663896210E+04  0.50400001928E-02 0.  1.
    10030    2    1    2    0    0  0.00000000000E+00  0.00000000000E+00  0.14302140164E+04  0.35629932583E+04  0.32633431977E+04 0.  0.
        1    1    3    3  502    0  0.94729423032E+02  0.56232784733E+03 -0.95404936338E+03  0.11114838997E+04  0.50400001928E-02 0.  1.
       -1    1    3    3    0  502 -0.94729423032E+02 -0.56232784733E+03  0.23842633797E+04  0.24515093586E+04  0.50400001928E-02 0. -1.
</event>
<event>
 5   0  0.1743810E-06  0.3309888E+04  0.7818609E-02  0.8160384E-01
        2   -1    0    0  501    0  0.00000000000E+00  0.00000000000E+00  0.18578232088E+04  0.18578232088E+04  0.25500000920E-02 0. -1.
       -2   -1    0    0    0  501  0.00000000000E+00  0.00000000000E+00 -0.14742199883E+04  0.14742199883E+04  0.25500000920E-02 0.  1.
    10030    2    1    2    0    0  0.00000000000E+00  0.00000000000E+00  0.38360322057E+03  0.33320431971E+04  0.33098882816E+04 0.  0.
        5    1    3    3  502    0 -0.52816581185E+03 -0.10446490947E+04 -0.98588664906E+03  0.15304396200E+04  0.46999998093E+01 0.  1.
       -5    1    3    3    0  502  0.52816581185E+03  0.10446490947E+04  0.13694898696E+04  0.18016035770E+04  0.46999998093E+01 0. -1.
</event>
<event>
 5   0  0.1743810E-06  0.3286313E+04  0.7818609E-02  0.8166387E-01
        2   -1    0    0  501    0  0.00000000000E+00  0.00000000000E+00  0.22201795454E+04  0.22201795454E+04  0.25500000920E-02 0. -1.
       -2   -1    0    0    0  501  0.00000000000E+00  0.00000000000E+00 -0.12161012568E+04  0.12161012568E+04  0.25500000920E-02 0.  1.
    10030    2    1    2    0    0  0.00000000000E+00  0.00000000000E+00  0.10040782886E+04  0.34362808022E+04  0.32863129099E+04 0.  0.
        5    1    3    3  502    0  0.54413325726E+03  0.94898009565E+03 -0.78000241161E+03  0.13435289635E+04  0.46999998093E+01 0.  1.
       -5    1    3    3    0  502 -0.54413325726E+03 -0.94898009565E+03  0.17840807002E+04  0.20927518387E+04  0.46999998093E+01 0. -1.
</event>
<event>
 5   0  0.1696681E-06  0.3281753E+04  0.7818609E-02  0.8167554E-01
        2   -1    0    0  501    0  0.00000000000E+00  0.00000000000E+00  0.18563088813E+04  0.18563088813E+04  0.25500000920E-02 0.  1.
       -2   -1    0    0    0  501  0.00000000000E+00  0.00000000000E+00 -0.14504457270E+04  0.14504457271E+04  0.25500000920E-02 0. -1.
    10030    2    1    2    0    0  0.00000000000E+00  0.00000000000E+00  0.40586315423E+03  0.33067546083E+04  0.32817527542E+04 0.  0.
        4    1    3    3  502    0  0.91104702616E+03 -0.10465094673E+04  0.10855529531E+04  0.17617081415E+04  0.12699999809E+01 0. -1.
       -4    1    3    3    0  502 -0.91104702616E+03  0.10465094673E+04 -0.67968979885E+03  0.15450464668E+04  0.12699999809E+01 0.  1.
</event>
<event>
 5   0  0.6023446E-07  0.3292284E+04  0.7818609E-02  0.8164861E-01
        1   -1    0    0  501    0  0.00000000000E+00  0.00000000000E+00  0.18697924326E+04  0.18697924326E+04  0.50400001928E-02 0. -1.
       -1   -1    0    0    0  501  0.00000000000E+00  0.00000000000E+00 -0.14492432731E+04  0.14492432731E+04  0.50400001928E-02 0.  1.
    10030    2    1    2    0    0  0.00000000000E+00  0.00000000000E+00  0.42054915953E+03  0.33190357058E+04  0.32922843772E+04 0.  0.
        5    1    3    3  502    0  0.10623251437E+04 -0.58095916677E+03 -0.91400623925E+03  0.15170622135E+04  0.46999998093E+01 0.  1.
       -5    1    3    3    0  502 -0.10623251437E+04  0.58095916677E+03  0.13345553988E+04  0.18019734922E+04  0.46999998093E+01 0. -1.
</event>
<event>
 5   0  0.1784626E-06  0.3312347E+04  0.7818609E-02  0.8159761E-01
        2   -1    0    0  501    0  0.00000000000E+00  0.00000000000E+00  0.22885080529E+04  0.22885080529E+04  0.25500000920E-02 0. -1.
       -2   -1    0    0    0  501  0.00000000000E+00  0.00000000000E+00 -0.11985584539E+04  0.11985584539E+04  0.25500000920E-02 0.  1.
    10030    2    1    2    0    0  0.00000000000E+00  0.00000000000E+00  0.10899495990E+04  0.34870665068E+04  0.33123470070E+04 0.  0.
        2    1    3    3  502    0  0.41343051280E+03  0.15970185657E+04  0.69940106561E+03  0.17918021483E+04  0.25500000920E-02 0. -1.
       -2    1    3    3    0  502 -0.41343051280E+03 -0.15970185657E+04  0.39054853340E+03  0.16952643585E+04  0.25500000920E-02 0.  1.
</event>
<event>
 5   0  0.5985183E-07  0.3302523E+04  0.7818609E-02  0.8162254E-01
       -1   -1    0    0    0  501  0.00000000000E+00  0.00000000000E+00  0.15370127461E+04  0.15370127461E+04  0.50400001928E-02 0.  1.
        1   -1    0    0  501    0  0.00000000000E+00  0.00000000000E+00 -0.17740029799E+04  0.17740029799E+04  0.50400001928E-02 0. -1.
    10030    2    1    2    0    0  0.00000000000E+00  0.00000000000E+00 -0.23699023386E+03  0.33110157260E+04  0.33025233939E+04 0.  0.
        2    1    3    3  502    0  0.15006454919E+04 -0.42955375976E+03  0.42160332469E+03  0.16168496184E+04  0.25500000920E-02 0.  1.
       -2    1    3    3    0  502 -0.15006454919E+04  0.42955375976E+03 -0.65859355854E+03  0.16941661077E+04  0.25500000920E-02 0. -1.
</event>
<event>
 5   0  0.1784626E-06  0.3290863E+04  0.7818609E-02  0.8165224E-01
        2   -1    0    0  501    0  0.00000000000E+00  0.00000000000E+00  0.19108494488E+04  0.19108494488E+04  0.25500000920E-02 0.  1.
       -2   -1    0    0    0  501  0.00000000000E+00  0.00000000000E+00 -0.14168803212E+04  0.14168803212E+04  0.25500000920E-02 0. -1.
    10030    2    1    2    0    0  0.00000000000E+00  0.00000000000E+00  0.49396912763E+03  0.33277297700E+04  0.32908630969E+04 0.  0.
        2    1    3    3  502    0 -0.12196103883E+04  0.10789887383E+04  0.81634289179E+01  0.16284142097E+04  0.25500000920E-02 0.  1.
       -2    1    3    3    0  502  0.12196103883E+04 -0.10789887383E+04  0.48580569871E+03  0.16993155603E+04  0.25500000920E-02 0. -1.
</event>
<event>
 5   0  0.6023446E-07  0.2726420E+04  0.7818609E-02  0.8326483E-01
        1   -1    0    0  501    0  0.00000000000E+00  0.00000000000E+00  0.14436609722E+04  0.14436609722E+04  0.50400001928E-02 0. -1.
       -1   -1    0    0    0  501  0.00000000000E+00  0.00000000000E+00 -0.12872422792E+04  0.12872422792E+04  0.50400001928E-02 0.  1.
    10030    2    1    2    0    0  0.00000000000E+00  0.00000000000E+00  0.15641869296E+03  0.27309032514E+04  0.27264199532E+04 0.  0.
        5    1    3    3  502    0 -0.10143335516E+04  0.15240016908E+03 -0.82116524100E+03  0.13139379013E+04  0.46999998093E+01 0.  1.
       -5    1    3    3    0  502  0.10143335516E+04 -0.15240016908E+03  0.97758393396E+03  0.14169653501E+04  0.46999998093E+01 0. -1.
</event>
<event>
 5   0  0.1696681E-06  0.3117459E+04  0.7818609E-02  0.8210963E-01
       -2   -1    0    0    0  501  0.00000000000E+00  0.00000000000E+00  0.11526362214E+04  0.11526362214E+04  0.25500000920E-02 0.  1.
        2   -1    0    0  501    0  0.00000000000E+00  0.00000000000E+00 -0.21078962560E+04  0.21078962560E+04  0.25500000920E-02 0. -1.
    10030    2    1    2    0    0  0.00000000000E+00  0.00000000000E+00 -0.95526003459E+03  0.32605324774E+04  0.31174589496E+04 0.  0.
        4    1    3    3  502    0  0.63887424324E+03 -0.89160174135E+03 -0.16359417572E+04  0.19696245860E+04  0.12699999809E+01 0. -1.
       -4    1    3    3    0  502 -0.63887424324E+03  0.89160174135E+03  0.68068172259E+03  0.12909078915E+04  0.12699999809E+01 0.  1.
</event>
<event>
 5   0  0.6085351E-07  0.3295598E+04  0.7818609E-02  0.8164016E-01
        1   -1    0    0  501    0  0.00000000000E+00  0.00000000000E+00  0.21593946336E+04  0.21593946336E+04  0.50400001928E-02 0.  1.
       -1   -1    0    0    0  501  0.00000000000E+00  0.00000000000E+00 -0.12574088678E+04  0.12574088678E+04  0.50400001928E-02 0. -1.
    10030    2    1    2    0    0  0.00000000000E+00  0.00000000000E+00  0.90198576577E+03  0.34168035014E+04  0.32955982531E+04 0.  0.
        1    1    3    3  502    0 -0.90666290506E+03  0.13716317546E+04  0.33822371764E+03  0.16786323531E+04  0.50400001928E-02 0. -1.
       -1    1    3    3    0  502  0.90666290506E+03 -0.13716317546E+04  0.56376204813E+03  0.17381711483E+04  0.50400001928E-02 0.  1.
</event>
<event>
 5   0  0.6023446E-07  0.3298110E+04  0.7818609E-02  0.8163376E-01
       -1   -1    0    0    0  501  0.00000000000E+00  0.00000000000E+00  0.20195575519E+04  0.20195575520E+04  0.50400001928E-02 0.  1.
        1   -1    0    0  501    0  0.00000000000E+00  0.00000000000E+00 -0.13465241738E+04  0.13465241739E+04  0.50400001928E-02 0. -1.
    10030    2    1    2    0    0  0.00000000000E+00  0.00000000000E+00  0.67303337810E+03  0.33660817258E+04  0.32981104070E+04 0.  0.
        5    1    3    3  502    0  0.24084128920E+03 -0.38529747499E+03 -0.12813668948E+04  0.13595520880E+04  0.46999998093E+01 0. -1.
       -5    1    3    3    0  502 -0.24084128920E+03  0.38529747499E+03  0.19544002729E+04  0.20065296378E+04  0.46999998093E+01 0.  1.
</event>
<event>
 5   0  0.6085351E-07  0.3301569E+04  0.7818609E-02  0.8162496E-01
       -1   -1    0    0    0  501  0.00000000000E+00  0.00000000000E+00  0.10167881670E+04  0.10167881670E+04  0.50400001928E-02 0. -1.
        1   -1    0    0  501    0  0.00000000000E+00  0.00000000000E+00 -0.26800961180E+04  0.26800961180E+04  0.50400001928E-02 0.  1.
    10030    2    1    2    0    0  0.00000000000E+00  0.00000000000E+00 -0.16633079510E+04  0.36968842850E+04  0.33015693355E+04 0.  0.
        1    1    3    3  502    0 -0.10227610205E+04  0.11838264680E+04 -0.24168533635E+03  0.15830025310E+04  0.50400001928E-02 0. -1.
       -1    1    3    3    0  502  0.10227610205E+04 -0.11838264680E+04 -0.14216226146E+04  0.21138817540E+04  0.50400001928E-02 0.  1.
</event>
<event>
 5   0  0.1784626E-06  0.3374023E+04  0.7818609E-02  0.8144311E-01
       -2   -1    0    0    0  501  0.00000000000E+00  0.00000000000E+00  0.27537890618E+04  0.27537890618E+04  0.25500000920E-02 0. -1.
        2   -1    0    0  501    0  0.00000000000E+00  0.00000000000E+00 -0.10334880311E+04  0.10334880311E+04  0.25500000920E-02 0.  1.
    10030    2    1    2    0    0  0.00000000000E+00  0.00000000000E+00  0.17203010307E+04  0.37872770929E+04  0.33740231389E+04 0.  0.
        2    1    3    3  502    0 -0.10616409937E+04  0.99670392417E+03 -0.95942277681E+02  0.14593509628E+04  0.25500000920E-02 0.  1.
       -2    1    3    3    0  502  0.10616409937E+04 -0.99670392417E+03  0.18162433083E+04  0.23279261301E+04  0.25500000920E-02 0. -1.
</event>
<event>
 5   0  0.1832626E-06  0.3294364E+04  0.7818609E-02  0.8164331E-01
        2   -1    0    0  501    0  0.00000000000E+00  0.00000000000E+00  0.17700287550E+04  0.17700287550E+04  0.25500000920E-02 0. -1.
       -2   -1    0    0    0  501  0.00000000000E+00  0.00000000000E+00 -0.15328615625E+04  0.15328615625E+04  0.25500000920E-02 0.  1.
    10030    2    1    2    0    0  0.00000000000E+00  0.00000000000E+00  0.23716719250E+03  0.33028903174E+04  0.32943643046E+04 0.  0.
        3    1    3    3  502    0  0.88682211794E+03 -0.11223488736E+04  0.93745230894E+03  0.17102448084E+04  0.10100000352E+00 0. -1.
       -3    1    3    3    0  502 -0.88682211794E+03  0.11223488736E+04 -0.70028511644E+03  0.15926455090E+04  0.10100000352E+00 0.  1.
</event>
<event>
 5   0  0.6023446E-07  0.3298078E+04  0.7818609E-02  0.8163385E-01
       -1   -1    0    0    0  501  0.00000000000E+00  0.00000000000E+00  0.17921886954E+04  0.17921886954E+04  0.50400001928E-02 0.  1.
        1   -1    0    0  501    0  0.00000000000E+00  0.00000000000E+00 -0.15173231560E+04  0.15173231560E+04  0.50400001928E-02 0. -1.
    10030    2    1    2    0    0  0.00000000000E+00  0.00000000000E+00  0.27486553942E+03  0.33095118514E+04  0.32980778690E+04 0.  0.
        5    1    3    3  502    0 -0.28621301776E+03  0.10208744853E+04  0.14048256034E+04  0.17600169523E+04  0.46999998093E+01 0.  1.
       -5    1    3    3    0  502  0.28621301776E+03 -0.10208744853E+04 -0.11299600640E+04  0.15494948992E+04  0.46999998093E+01 0. -1.
</event>
<event>
 5   0  0.1743810E-06  0.3300295E+04  0.7818609E-02  0.8162820E-01
        2   -1    0    0  501    0  0.00000000000E+00  0.00000000000E+00  0.18441143139E+04  0.18441143139E+04  0.25500000920E-02 0.  1.
       -2   -1    0    0    0  501  0.00000000000E+00  0.00000000000E+00 -0.14765827314E+04  0.14765827314E+04  0.25500000920E-02 0. -1.
    10030    2    1    2    0    0  0.00000000000E+00  0.00000000000E+00  0.36753158249E+03  0.33206970452E+04  0.33002953507E+04 0.  0.
        5    1    3    3  502    0  0.47264771249E+03  0.14183065354E+04  0.88663685935E+03  0.17381416222E+04  0.46999998093E+01 0.  1.
       -5    1    3    3    0  502 -0.47264771249E+03 -0.14183065354E+04 -0.51910527686E+03  0.15825554230E+04  0.46999998093E+01 0. -1.
</event>
<event>
 5   0  0.1743810E-06  0.3329786E+04  0.7818609E-02  0.8155358E-01
       -2   -1    0    0    0  501  0.00000000000E+00  0.00000000000E+00  0.27098588780E+04  0.27098588780E+04  0.25500000920E-02 0. -1.
        2   -1    0    0  501    0  0.00000000000E+00  0.00000000000E+00 -0.10228828839E+04  0.10228828839E+04  0.25500000920E-02 0.  1.
    10030    2    1    2    0    0  0.00000000000E+00  0.00000000000E+00  0.16869759941E+04  0.37327417620E+04  0.33297857374E+04 0.  0.
        5    1    3    3  502    0  0.86378444979E+03  0.14224589184E+04  0.78933906930E+03  0.18418988047E+04  0.46999998093E+01 0. -1.
       -5    1    3    3    0  502 -0.86378444979E+03 -0.14224589184E+04  0.89763692481E+03  0.18908429573E+04  0.46999998093E+01 0.  1.
</event>
<event>
 5   0  0.1743810E-06  0.3366816E+04  0.7818609E-02  0.8146099E-01
       -2   -1    0    0    0  501  0.00000000000E+00  0.00000000000E+00  0.16249129106E+04  0.16249129106E+04  0.25500000920E-02 0.  1.
        2   -1    0    0  501    0  0.00000000000E+00  0.00000000000E+00 -0.17440087713E+04  0.17440087713E+04  0.25500000920E-02 0. -1.
    10030    2    1    2    0    0  0.00000000000E+00  0.00000000000E+00 -0.11909586076E+03  0.33689216819E+04  0.33668159253E+04 0.  0.
        5    1    3    3  502    0  0.28029091314E+03 -0.16560513233E+04 -0.17262877634E+03  0.16884583992E+04  0.46999998093E+01 0.  1.
       -5    1    3    3    0  502 -0.28029091314E+03  0.16560513233E+04  0.53532915585E+02  0.16804632827E+04  0.46999998093E+01 0. -1.
</event>
<event>
 5   0  0.6085351E-07  0.3384440E+04  0.7818609E-02  0.8141736E-01
        1   -1    0    0  501    0  0.00000000000E+00  0.00000000000E+00  0.25967604653E+04  0.25967604653E+04  0.50400001928E-02 0.  1.
       -1   -1    0    0    0  501  0.00000000000E+00  0.00000000000E+00 -0.11027619376E+04  0.11027619376E+04  0.50400001928E-02 0. -1.
    10030    2    1    2    0    0  0.00000000000E+00  0.00000000000E+00  0.14939985277E+04  0.36995224029E+04  0.33844400436E+04 0.  0.
        1    1    3    3  502    0  0.13400521836E+03  0.60327718438E+03 -0.97500476538E+03  0.11543548208E+04  0.50400001928E-02 0. -1.
       -1    1    3    3    0  502 -0.13400521836E+03 -0.60327718438E+03  0.24690032931E+04  0.25451675821E+04  0.50400001928E-02 0.  1.
</event>
<event>
 5   0  0.1696681E-06  0.3311615E+04  0.7818609E-02  0.8159946E-01
       -2   -1    0    0    0  501  0.00000000000E+00  0.00000000000E+00  0.16182023654E+04  0.16182023654E+04  0.25500000920E-02 0. -1.
        2   -1    0    0  501    0  0.00000000000E+00  0.00000000000E+00 -0.16942861035E+04  0.16942861035E+04  0.25500000920E-02 0.  1.
    10030    2    1    2    0    0  0.00000000000E+00  0.00000000000E+00 -0.76083738048E+02  0.33124884689E+04  0.33116145793E+04 0.  0.
        4    1    3    3  502    0 -0.69137981712E+03  0.17715346069E+03  0.14564430165E+04  0.16219177764E+04  0.12699999809E+01 0. -1.
       -4    1    3    3    0  502  0.69137981712E+03 -0.17715346069E+03 -0.15325267546E+04  0.16905706925E+04  0.12699999809E+01 0.  1.
</event>
<event>
 5   0  0.6085351E-07  0.3317894E+04  0.7818609E-02  0.8158357E-01
       -1   -1    0    0    0  501  0.00000000000E+00  0.00000000000E+00  0.13847628423E+04  0.13847628423E+04  0.50400001928E-02 0. -1.
        1   -1    0    0  501    0  0.00000000000E+00  0.00000000000E+00 -0.19874193710E+04  0.19874193710E+04  0.50400001928E-02 0.  1.
    10030    2    1    2    0    0  0.00000000000E+00  0.00000000000E+00 -0.60265652870E+03  0.33721822132E+04  0.33178936070E+04 0.  0.
        1    1    3    3  502    0 -0.13341320794E+04 -0.96045565401E+03 -0.52795890592E+03  0.17265931991E+04  0.50400001928E-02 0.  1.
       -1    1    3    3    0  502  0.13341320794E+04  0.96045565401E+03 -0.74697622782E+02  0.16455890142E+04  0.50400001928E-02 0. -1.
</event>
<event>
 5   0  0.5858859E-07  0.3308019E+04  0.7818609E-02  0.8160858E-01
        1   -1    0    0  501    0  0.00000000000E+00  0.00000000000E+00  0.20460736233E+04  0.20460736233E+04  0.50400001928E-02 0. -1.
       -1   -1    0    0    0  501  0.00000000000E+00  0.00000000000E+00 -0.13370719312E+04  0.13370719312E+04  0.50400001928E-02 0.  1.
    10030    2    1    2    0    0  0.00000000000E+00  0.00000000000E+00  0.70900169216E+03  0.33831455545E+04  0.33080191117E+04 0.  0.
        3    1    3    3  502    0  0.84156665968E+03  0.42623071542E+02  0.18100934982E+04  0.19966195560E+04  0.10100000352E+00 0. -1.
       -3    1    3    3    0  502 -0.84156665968E+03 -0.42623071542E+02 -0.11010918061E+04  0.13865259985E+04  0.10100000352E+00 0.  1.
</event>
<event>
 5   0  0.5985183E-07  0.3195779E+04  0.7818609E-02  0.8189933E-01
        1   -1    0    0  501    0  0.00000000000E+00  0.00000000000E+00  0.18552470716E+04  0.18552470716E+04  0.50400001928E-02 0. -1.
       -1   -1    0    0    0  501  0.00000000000E+00  0.00000000000E+00 -0.13762325687E+04  0.13762325687E+04  0.50400001928E-02 0.  1.
    10030    2    1    2    0    0  0.00000000000E+00  0.00000000000E+00  0.47901450289E+03  0.32314796403E+04  0.31957793684E+04 0.  0.
        2    1    3    3  502    0  0.10975957848E+03  0.11397413821E+03  0.18473055555E+04  0.18540698705E+04  0.25500000920E-02 0. -1.
       -2    1    3    3    0  502 -0.10975957848E+03 -0.11397413821E+03 -0.13682910526E+04  0.13774097698E+04  0.25500000920E-02 0.  1.
</event>
<event>
 5   0  0.1696681E-06  0.2950152E+04  0.7818609E-02  0.8258110E-01
        2   -1    0    0  501    0  0.00000000000E+00  0.00000000000E+00  0.19970034288E+04  0.19970034288E+04  0.25500000920E-02 0.  1.
       -2   -1    0    0    0  501  0.00000000000E+00  0.00000000000E+00 -0.10895568205E+04  0.10895568205E+04  0.25500000920E-02 0. -1.
    10030    2    1    2    0    0  0.00000000000E+00  0.00000000000E+00  0.90744660835E+03  0.30865602493E+04  0.29501516615E+04 0.  0.
        4    1    3    3  502    0 -0.13790661978E+04 -0.47032411609E+03  0.21327349337E+03  0.14725880443E+04  0.12699999809E+01 0. -1.
       -4    1    3    3    0  502  0.13790661978E+04  0.47032411609E+03  0.69417311498E+03  0.16139722050E+04  0.12699999809E+01 0.  1.
</event>
<event>
 5   0  0.5988516E-07  0.3241592E+04  0.7818609E-02  0.8177918E-01
        1   -1    0    0  501    0  0.00000000000E+00  0.00000000000E+00  0.18415354784E+04  0.18415354784E+04  0.50400001928E-02 0. -1.
       -1   -1    0    0    0  501  0.00000000000E+00  0.00000000000E+00 -0.14265158787E+04  0.14265158787E+04  0.50400001928E-02 0.  1.
    10030    2    1    2    0    0  0.00000000000E+00  0.00000000000E+00  0.41501959973E+03  0.32680513571E+04  0.32415919553E+04 0.  0.
        4    1    3    3  502    0 -0.72673134802E+02 -0.98836332071E+03  0.15004892927E+04  0.17982250050E+04  0.12699999809E+01 0. -1.
       -4    1    3    3    0  502  0.72673134802E+02  0.98836332071E+03 -0.10854696930E+04  0.14698263521E+04  0.12699999809E+01 0.  1.
</event>
<event>
 5   0  0.5858859E-07  0.3283201E+04  0.7818609E-02  0.8167183E-01
       -1   -1    0    0    0  501  0.00000000000E+00  0.00000000000E+00  0.16295080269E+04  0.16295080269E+04  0.50400001928E-02 0.  1.
        1   -1    0    0  501    0  0.00000000000E+00  0.00000000000E+00 -0.16537822121E+04  0.16537822122E+04  0.50400001928E-02 0. -1.
    10030    2    1    2    0    0  0.00000000000E+00  0.00000000000E+00 -0.24274185249E+02  0.32832902391E+04  0.32832005053E+04 0.  0.
        3    1    3    3  502    0 -0.38115358515E+03  0.12247321678E+04  0.10123929536E+04  0.16340705129E+04  0.10100000352E+00 0.  1.
       -3    1    3    3    0  502  0.38115358515E+03 -0.12247321678E+04 -0.10366671388E+04  0.16492197262E+04  0.10100000352E+00 0. -1.
</event>
<event>
 5   0  0.1728937E-06  0.2907265E+04  0.7818609E-02  0.8270719E-01
       -2   -1    0    0    0  501  0.00000000000E+00  0.00000000000E+00  0.11165320844E+04  0.11165320844E+04  0.25500000920E-02 0.  1.
        2   -1    0    0  501    0  0.00000000000E+00  0.00000000000E+00 -0.18925094610E+04  0.18925094610E+04  0.25500000920E-02 0. -1.
    10030    2    1    2    0    0  0.00000000000E+00  0.00000000000E+00 -0.77597737662E+03  0.30090415454E+04  0.29072650607E+04 0.  0.
        1    1    3    3  502    0 -0.10200567627E+04  0.94894671528E+03  0.41298576234E+02  0.13938153536E+04  0.50400001928E-02 0.  1.
       -1    1    3    3    0  502  0.10200567627E+04 -0.94894671528E+03 -0.81727595285E+03  0.16152261918E+04  0.50400001928E-02 0. -1.
</event>
<event>
 5   0  0.1743810E-06  0.3198408E+04  0.7818609E-02  0.8189238E-01
       -2   -1    0    0    0  501  0.00000000000E+00  0.00000000000E+00  0.15223761826E+04  0.15223761826E+04  0.25500000920E-02 0.  1.
        2   -1    0    0  501    0  0.00000000000E+00  0.00000000000E+00 -0.16799088744E+04  0.16799088744E+04  0.25500000920E-02 0. -1.
    10030    2    1    2    0    0  0.00000000000E+00  0.00000000000E+00 -0.15753269175E+03  0.32022850570E+04  0.31984078910E+04 0.  0.
        5    1    3    3  502    0 -0.71145426186E+03 -0.60062881359E+03 -0.13805382323E+04  0.16651816836E+04  0.46999998093E+01 0. -1.
       -5    1    3    3    0  502  0.71145426186E+03  0.60062881359E+03  0.12230055405E+04  0.15371033734E+04  0.46999998093E+01 0.  1.
</event>
<event>
 5   0  0.5988516E-07  0.3095675E+04  0.7818609E-02  0.8216926E-01
       -1   -1    0    0    0  501  0.00000000000E+00  0.00000000000E+00  0.27305248313E+04  0.27305248313E+04  0.50400001928E-02 0.  1.
        1   -1    0    0  501    0  0.00000000000E+00  0.00000000000E+00 -0.87741390958E+03  0.87741390960E+03  0.50400001928E-02 0. -1.
    10030    2    1    2    0    0  0.00000000000E+00  0.00000000000E+00  0.18531109217E+04  0.36079387409E+04  0.30956747035E+04 0.  0.
        4    1    3    3  502    0  0.12687322300E+04 -0.18129740670E+03  0.19380720576E+04  0.23235049246E+04  0.12699999809E+01 0.  1.
       -4    1    3    3    0  502 -0.12687322300E+04  0.18129740670E+03 -0.84961135923E+02  0.12844338163E+04  0.12699999809E+01 0. -1.
</event>
<event>
 5   0  0.1696681E-06  0.3307102E+04  0.7818609E-02  0.8161091E-01
       -2   -1    0    0    0  501  0.00000000000E+00  0.00000000000E+00  0.16261069708E+04  0.16261069708E+04  0.25500000920E-02 0.  1.
        2   -1    0    0  501    0  0.00000000000E+00  0.00000000000E+00 -0.16814585795E+04  0.16814585795E+04  0.25500000920E-02 0. -1.
    10030    2    1    2    0    0  0.00000000000E+00  0.00000000000E+00 -0.55351608731E+02  0.33075655503E+04  0.33071023675E+04 0.  0.
        4    1    3    3  502    0 -0.11198686488E+04  0.55772855670E+03 -0.11090593925E+04  0.16718795658E+04  0.12699999809E+01 0. -1.
       -4    1    3    3    0  502  0.11198686488E+04 -0.55772855670E+03  0.10537077838E+04  0.16356859845E+04  0.12699999809E+01 0.  1.
</event>
<event>
 5   0  0.1784626E-06  0.3302420E+04  0.7818609E-02  0.8162280E-01
       -2   -1    0    0    0  501  0.00000000000E+00  0.00000000000E+00  0.16939423476E+04  0.16939423476E+04  0.25500000920E-02 0. -1.
        2   -1    0    0  501    0  0.00000000000E+00  0.00000000000E+00 -0.16095558603E+04  0.16095558603E+04  0.25500000920E-02 0.  1.
    10030    2    1    2    0    0  0.00000000000E+00  0.00000000000E+00  0.84386487292E+02  0.33034982080E+04  0.33024202232E+04 0.  0.
        2    1    3    3  502    0  0.95064833062E+03  0.86025266929E+03 -0.99868854519E+03  0.16251602117E+04  0.25500000920E-02 0.  1.
       -2    1    3    3    0  502 -0.95064833062E+03 -0.86025266929E+03  0.10830750325E+04  0.16783379962E+04  0.25500000920E-02 0. -1.
</event>
<event>
 5   0  0.6085351E-07  0.3296291E+04  0.7818609E-02  0.8163840E-01
        1   -1    0    0  501    0  0.00000000000E+00  0.00000000000E+00  0.17706209340E+04  0.17706209340E+04  0.50400001928E-02 0. -1.
       -1   -1    0    0    0  501  0.00000000000E+00  0.00000000000E+00 -0.15341414892E+04  0.15341414892E+04  0.50400001928E-02 0.  1.
    10030    2    1    2    0    0  0.00000000000E+00  0.00000000000E+00  0.23647944473E+03  0.33047624232E+04  0.32962906647E+04 0.  0.
        1    1    3    3  502    0  0.48425252911E+03 -0.14879607289E+04 -0.40063790023E+03  0.16152517976E+04  0.50400001928E-02 0.  1.
       -1    1    3    3    0  502 -0.48425252911E+03  0.14879607289E+04  0.63711734496E+03  0.16895106256E+04  0.50400001928E-02 0. -1.
</event>
<event>
 5   0  0.1784626E-06  0.3285883E+04  0.7818609E-02  0.8166497E-01
        2   -1    0    0  501    0  0.00000000000E+00  0.00000000000E+00  0.21599455607E+04  0.21599455607E+04  0.25500000920E-02 0.  1.
       -2   -1    0    0    0  501  0.00000000000E+00  0.00000000000E+00 -0.12496875691E+04  0.12496875691E+04  0.25500000920E-02 0. -1.
    10030    2    1    2    0    0  0.00000000000E+00  0.00000000000E+00  0.91025799160E+03  0.34096331298E+04  0.32858832098E+04 0.  0.
        2    1    3    3  502    0  0.34878984943E+03 -0.10310963839E+04  0.17321028222E+04  0.20457258611E+04  0.25500000920E-02 0.  1.
       -2    1    3    3    0  502 -0.34878984943E+03  0.10310963839E+04 -0.82184483057E+03  0.13639072687E+04  0.25500000920E-02 0. -1.
</event>
<event>
 5   0  0.5985183E-07  0.2827925E+04  0.7818609E-02  0.8294651E-01
       -1   -1    0    0    0  501  0.00000000000E+00  0.00000000000E+00  0.80115991825E+03  0.80115991827E+03  0.50400001928E-02 0.  1.
        1   -1    0    0  501    0  0.00000000000E+00  0.00000000000E+00 -0.24954948428E+04  0.24954948428E+04  0.50400001928E-02 0. -1.
    10030    2    1    2    0    0  0.00000000000E+00  0.00000000000E+00 -0.16943349246E+04  0.32966547611E+04  0.28279253486E+04 0.  0.
        2    1    3    3  502    0 -0.49698631233E+03  0.87484651167E+02  0.69261236386E+03  0.85694856637E+03  0.25500000920E-02 0.  1.
       -2    1    3    3    0  502  0.49698631233E+03 -0.87484651167E+02 -0.23869472884E+04  0.24397061947E+04  0.25500000920E-02 0. -1.
</event>
<event>
 5   0  0.5988516E-07  0.3272742E+04  0.7818609E-02  0.8169866E-01
       -1   -1    0    0    0  501  0.00000000000E+00  0.00000000000E+00  0.15232827205E+04  0.15232827205E+04  0.50400001928E-02 0.  1.
        1   -1    0    0  501    0  0.00000000000E+00  0.00000000000E+00 -0.17578548887E+04  0.17578548887E+04  0.50400001928E-02 0. -1.
    10030    2    1    2    0    0  0.00000000000E+00  0.00000000000E+00 -0.23457216822E+03  0.32811376093E+04  0.32727419557E+04 0.  0.
        4    1    3    3  502    0  0.32782787684E+03 -0.70672533284E+03  0.13254247730E+04  0.15374278047E+04  0.12699999809E+01 0.  1.
       -4    1    3    3    0  502 -0.32782787684E+03  0.70672533284E+03 -0.15599969412E+04  0.17437098045E+04  0.12699999809E+01 0. -1.
</event>
<event>
 5   0  0.1728937E-06  0.3329767E+04  0.7818609E-02  0.8155362E-01
        2   -1    0    0  501    0  0.00000000000E+00  0.00000000000E+00  0.16892580419E+04  0.16892580419E+04  0.25500000920E-02 0.  1.
       -2   -1    0    0    0  501  0.00000000000E+00  0.00000000000E+00 -0.16408607118E+04  0.16408607118E+04  0.25500000920E-02 0. -1.
    10030    2    1    2    0    0  0.00000000000E+00  0.00000000000E+00  0.48397330118E+02  0.33301187537E+04  0.33297670507E+04 0.  0.
        1    1    3    3  502    0  0.38810394517E+02 -0.53141323312E+03 -0.15532855598E+04  0.16421334603E+04  0.50400001928E-02 0. -1.
       -1    1    3    3    0  502 -0.38810394517E+02  0.53141323312E+03  0.16016828899E+04  0.16879852934E+04  0.50400001928E-02 0.  1.
</event>
<event>
 5   0  0.1784626E-06  0.3346228E+04  0.7818609E-02  0.8151231E-01
        2   -1    0    0  501    0  0.00000000000E+00  0.00000000000E+00  0.12577089137E+04  0.12577089137E+04  0.25500000920E-02 0.  1.
       -2   -1    0    0    0  501  0.00000000000E+00  0.00000000000E+00 -0.22257216516E+04  0.22257216516E+04  0.25500000920E-02 0. -1.
    10030    2    1    2    0    0  0.00000000000E+00  0.00000000000E+00 -0.96801273789E+03  0.34834305654E+04  0.33462277034E+04 0.  0.
        2    1    3    3  502    0  0.11100109149E+04 -0.12510827286E+04 -0.43771118838E+03  0.17288502855E+04  0.25500000920E-02 0.  1.
       -2    1    3    3    0  502 -0.11100109149E+04  0.12510827286E+04 -0.53030154951E+03  0.17545802799E+04  0.25500000920E-02 0. -1.
</event>
<event>
 5   0  0.6085351E-07  0.3285746E+04  0.7818609E-02  0.8166532E-01
       -1   -1    0    0    0  501  0.00000000000E+00  0.00000000000E+00  0.17750647522E+04  0.17750647523E+04  0.50400001928E-02 0. -1.
        1   -1    0    0  501    0  0.00000000000E+00  0.00000000000E+00 -0.15205256947E+04  0.15205256947E+04  0.50400001928E-02 0.  1.
    10030    2    1    2    0    0  0.00000000000E+00  0.00000000000E+00  0.25453905758E+03  0.32955904469E+04  0.32857459217E+04 0.  0.
        1    1    3    3  502    0 -0.33824627920E+03  0.12001123211E+04  0.12002182522E+04  0.17306657625E+04  0.50400001928E-02 0. -1.
       -1    1    3    3    0  502  0.33824627920E+03 -0.12001123211E+04 -0.94567919458E+03  0.15649246844E+04  0.50400001928E-02 0.  1.
</event>
<event>
 5   0  0.5985183E-07  0.3314113E+04  0.7818609E-02  0.8159314E-01
        1   -1    0    0  501    0  0.00000000000E+00  0.00000000000E+00  0.17382361090E+04  0.17382361090E+04  0.50400001928E-02 0.  1.
       -1   -1    0    0    0  501  0.00000000000E+00  0.00000000000E+00 -0.15796682655E+04  0.15796682656E+04  0.50400001928E-02 0. -1.
    10030    2    1    2    0    0  0.00000000000E+00  0.00000000000E+00  0.15856784341E+03  0.33179043745E+04  0.33141131057E+04 0.  0.
        2    1    3    3  502    0 -0.15342104272E+04  0.13486474369E+02  0.70598157899E+03  0.16889030492E+04  0.25500000920E-02 0.  1.
       -2    1    3    3    0  502  0.15342104272E+04 -0.13486474369E+02 -0.54741373558E+03  0.16290013253E+04  0.25500000920E-02 0. -1.
</event>
<event>
 5   0  0.1728937E-06  0.3288463E+04  0.7818609E-02  0.8165837E-01
       -2   -1    0    0    0  501  0.00000000000E+00  0.00000000000E+00  0.11823934521E+04  0.11823934521E+04  0.25500000920E-02 0.  1.
        2   -1    0    0  501    0  0.00000000000E+00  0.00000000000E+00 -0.22864610230E+04  0.22864610230E+04  0.25500000920E-02 0. -1.
    10030    2    1    2    0    0  0.00000000000E+00  0.00000000000E+00 -0.11040675708E+04  0.34688544751E+04  0.32884625843E+04 0.  0.
        1    1    3    3  502    0 -0.13208019664E+04  0.58565211154E+03  0.27587047373E+03  0.14709217343E+04  0.50400001928E-02 0.  1.
       -1    1    3    3    0  502  0.13208019664E+04 -0.58565211154E+03 -0.13799380446E+04  0.19979327408E+04  0.50400001928E-02 0. -1.
</event>
<event>
 5   0  0.5985183E-07  0.3257668E+04  0.7818609E-02  0.8173751E-01
       -1   -1    0    0    0  501  0.00000000000E+00  0.00000000000E+00  0.12134869590E+04  0.12134869590E+04  0.50400001928E-02 0.  1.
        1   -1    0    0  501    0  0.00000000000E+00  0.00000000000E+00 -0.21863438781E+04  0.21863438781E+04  0.50400001928E-02 0. -1.
    10030    2    1    2    0    0  0.00000000000E+00  0.00000000000E+00 -0.97285691913E+03  0.33998308371E+04  0.32576677448E+04 0.  0.
        2    1    3    3  502    0  0.13210058742E+04  0.32346162934E+03 -0.14218787528E+04  0.19675932337E+04  0.25500000920E-02 0. -1.
       -2    1    3    3    0  502 -0.13210058742E+04 -0.32346162934E+03  0.44902183371E+03  0.14322376034E+04  0.25500000920E-02 0.  1.
</event>
<event>
 5   0  0.5858859E-07  0.3316103E+04  0.7818609E-02  0.8158810E-01
       -1   -1    0    0    0  501  0.00000000000E+00  0.00000000000E+00  0.14311827526E+04  0.14311827526E+04  0.50400001928E-02 0. -1.
        1   -1    0    0  501    0  0.00000000000E+00  0.00000000000E+00 -0.19208826223E+04  0.19208826224E+04  0.50400001928E-02 0.  1.
    10030    2    1    2    0    0  0.00000000000E+00  0.00000000000E+00 -0.48969986971E+03  0.33520653750E+04  0.33161025792E+04 0.  0.
        3    1    3    3  502    0 -0.49913447596E+03  0.11927292056E+04 -0.12940835115E+04  0.18293141687E+04  0.10100000352E+00 0.  1.
       -3    1    3    3    0  502  0.49913447596E+03 -0.11927292056E+04  0.80438364178E+03  0.15227512063E+04  0.10100000352E+00 0. -1.
</event>
<event>
 5   0  0.1696681E-06  0.3173927E+04  0.7818609E-02  0.8195737E-01
        2   -1    0    0  501    0  0.00000000000E+00  0.00000000000E+00  0.17960179049E+04  0.17960179049E+04  0.25500000920E-02 0.  1.
       -2   -1    0    0    0  501  0.00000000000E+00  0.00000000000E+00 -0.14022430584E+04  0.14022430584E+04  0.25500000920E-02 0. -1.
    10030    2    1    2    0    0  0.00000000000E+00  0.00000000000E+00  0.39377484644E+03  0.31982609633E+04  0.31739273085E+04 0.  0.
        4    1    3    3  502    0 -0.27106887857E+03  0.21981268611E+03 -0.13630952666E+04  0.14070629952E+04  0.12699999809E+01 0. -1.
       -4    1    3    3    0  502  0.27106887857E+03 -0.21981268611E+03  0.17568701130E+04  0.17911979681E+04  0.12699999809E+01 0.  1.
</event>
<event>
 5   0  0.1696681E-06  0.3282659E+04  0.7818609E-02  0.8167322E-01
        2   -1    0    0  501    0  0.00000000000E+00  0.00000000000E+00  0.16917687539E+04  0.16917687539E+04  0.25500000920E-02 0. -1.
       -2   -1    0    0    0  501  0.00000000000E+00  0.00000000000E+00 -0.15923940377E+04  0.15923940377E+04  0.25500000920E-02 0.  1.
    10030    2    1    2    0    0  0.00000000000E+00  0.00000000000E+00  0.99374716129E+02  0.32841627916E+04  0.32826589691E+04 0.  0.
        4    1    3    3  502    0  0.68566567548E+03  0.34864141212E+03  0.15002731712E+04  0.16859743337E+04  0.12699999809E+01 0. -1.
       -4    1    3    3    0  502 -0.68566567548E+03 -0.34864141212E+03 -0.14008984551E+04  0.15981884579E+04  0.12699999809E+01 0.  1.
</event>
<event>
 5   0  0.1696681E-06  0.3288466E+04  0.7818609E-02  0.8165837E-01
        2   -1    0    0  501    0  0.00000000000E+00  0.00000000000E+00  0.14744256967E+04  0.14744256967E+04  0.25500000920E-02 0. -1.
       -2   -1    0    0    0  501  0.00000000000E+00  0.00000000000E+00 -0.18335963159E+04  0.18335963159E+04  0.25500000920E-02 0.  1.
    10030    2    1    2    0    0  0.00000000000E+00  0.00000000000E+00 -0.35917061916E+03  0.33080220126E+04  0.32884656151E+04 0.  0.
        4    1    3    3  502    0 -0.27645575424E+03 -0.10271661686E+04 -0.14408365427E+04  0.17909521707E+04  0.12699999809E+01 0.  1.
       -4    1    3    3    0  502  0.27645575424E+03  0.10271661686E+04  0.10816659235E+04  0.15170698419E+04  0.12699999809E+01 0. -1.
</event>
<event>
 5   0  0.1832626E-06  0.3230061E+04  0.7818609E-02  0.8180923E-01
       -2   -1    0    0    0  501  0.00000000000E+00  0.00000000000E+00  0.16490168853E+04  0.16490168853E+04  0.25500000920E-02 0. -1.
        2   -1    0    0  501    0  0.00000000000E+00  0.00000000000E+00 -0.15817444764E+04  0.15817444764E+04  0.25500000920E-02 0.  1.
    10030    2    1    2    0    0  0.00000000000E+00  0.00000000000E+00  0.67272408970E+02  0.32307613617E+04  0.32300608972E+04 0.  0.
        3    1    3    3  502    0 -0.59289228255E+03  0.14912185544E+04 -0.14825290532E+03  0.16115933016E+04  0.10100000352E+00 0. -1.
       -3    1    3    3    0  502  0.59289228255E+03 -0.14912185544E+04  0.21552531429E+03  0.16191680601E+04  0.10100000352E+00 0.  1.
</event>
<event>
 5   0  0.6085351E-07  0.2897898E+04  0.7818609E-02  0.8273503E-01
        1   -1    0    0  501    0  0.00000000000E+00  0.00000000000E+00  0.10891849469E+04  0.10891849470E+04  0.50400001928E-02 0.  1.
       -1   -1    0    0    0  501  0.00000000000E+00  0.00000000000E+00 -0.19275451069E+04  0.19275451069E+04  0.50400001928E-02 0. -1.
    10030    2    1    2    0    0  0.00000000000E+00  0.00000000000E+00 -0.83836015995E+03  0.30167300539E+04  0.28978979382E+04 0.  0.
        1    1    3    3  502    0 -0.12291595752E+04 -0.59927233234E+03 -0.91787809156E+03  0.16469550026E+04  0.50400001928E-02 0. -1.
       -1    1    3    3    0  502  0.12291595752E+04  0.59927233234E+03  0.79517931613E+02  0.13697750513E+04  0.50400001928E-02 0.  1.
</event>
<event>
 5   0  0.1784626E-06  0.3293917E+04  0.7818609E-02  0.8164445E-01
        2   -1    0    0  501    0  0.00000000000E+00  0.00000000000E+00  0.27109016064E+04  0.27109016064E+04  0.25500000920E-02 0.  1.
       -2   -1    0    0    0  501  0.00000000000E+00  0.00000000000E+00 -0.10005795211E+04  0.10005795211E+04  0.25500000920E-02 0. -1.
    10030    2    1    2    0    0  0.00000000000E+00  0.00000000000E+00  0.17103220853E+04  0.37114811274E+04  0.32939172005E+04 0.  0.
        2    1    3    3  502    0 -0.74457484952E+03 -0.13280393643E+04  0.14754310839E+03  0.15296565721E+04  0.25500000920E-02 0. -1.
       -2    1    3    3    0  502  0.74457484952E+03  0.13280393643E+04  0.15627789769E+04  0.21818245553E+04  0.25500000920E-02 0.  1.
</event>
<event>
 5   0  0.1728937E-06  0.3282910E+04  0.7818609E-02  0.8167258E-01
        2   -1    0    0  501    0  0.00000000000E+00  0.00000000000E+00  0.17002805528E+04  0.17002805528E+04  0.25500000920E-02 0.  1.
       -2   -1    0    0    0  501  0.00000000000E+00  0.00000000000E+00 -0.15846644440E+04  0.15846644440E+04  0.25500000920E-02 0. -1.
    10030    2    1    2    0    0  0.00000000000E+00  0.00000000000E+00  0.11561610881E+03  0.32849449968E+04  0.32829097684E+04 0.  0.
        1    1    3    3  502    0  0.74025357053E+03  0.37256972439E+03 -0.13599650437E+04  0.15925729083E+04  0.50400001928E-02 0. -1.
       -1    1    3    3    0  502 -0.74025357053E+03 -0.37256972439E+03  0.14755811525E+04  0.16923720885E+04  0.50400001928E-02 0.  1.
</event>
<event>
 5   0  0.5985183E-07  0.3324340E+04  0.7818609E-02  0.8156729E-01
        1   -1    0    0  501    0  0.00000000000E+00  0.00000000000E+00  0.19517979989E+04  0.19517979989E+04  0.50400001928E-02 0.  1.
       -1   -1    0    0    0  501  0.00000000000E+00  0.00000000000E+00 -0.14155203081E+04  0.14155203081E+04  0.50400001928E-02 0. -1.
    10030    2    1    2    0    0  0.00000000000E+00  0.00000000000E+00  0.53627769082E+03  0.33673183069E+04  0.33243403584E+04 0.  0.
        2    1    3    3  502    0 -0.97564069141E+03  0.56520159463E+02  0.16300435604E+04  0.19005555229E+04  0.25500000920E-02 0.  1.
       -2    1    3    3    0  502  0.97564069141E+03 -0.56520159463E+02 -0.10937658695E+04  0.14667627840E+04  0.25500000920E-02 0. -1.
</event>
<event>
 5   0  0.5985183E-07  0.3324483E+04  0.7818609E-02  0.8156694E-01
       -1   -1    0    0    0  501  0.00000000000E+00  0.00000000000E+00  0.29265707215E+04  0.29265707215E+04  0.50400001928E-02 0. -1.
        1   -1    0    0  501    0  0.00000000000E+00  0.00000000000E+00 -0.94412433975E+03  0.94412433977E+03  0.50400001928E-02 0.  1.
    10030    2    1    2    0    0  0.00000000000E+00  0.00000000000E+00  0.19824463817E+04  0.38706950612E+04  0.33244829073E+04 0.  0.
        2    1    3    3  502    0 -0.11358872533E+04 -0.29859992264E+02 -0.42133466862E+03  0.12118805116E+04  0.25500000920E-02 0.  1.
       -2    1    3    3    0  502  0.11358872533E+04  0.29859992264E+02  0.24037810504E+04  0.26588145496E+04  0.25500000920E-02 0. -1.
</event>
<event>
 5   0  0.1696681E-06  0.3296966E+04  0.7818609E-02  0.8163668E-01
       -2   -1    0    0    0  501  0.00000000000E+00  0.00000000000E+00  0.21467516598E+04  0.21467516598E+04  0.25500000920E-02 0. -1.
        2   -1    0    0  501    0  0.00000000000E+00  0.00000000000E+00 -0.12658641546E+04  0.12658641546E+04  0.25500000920E-02 0.  1.
    10030    2    1    2    0    0  0.00000000000E+00  0.00000000000E+00  0.88088750517E+03  0.34126158145E+04  0.32969658628E+04 0.  0.
        4    1    3    3  502    0  0.50244790135E+03 -0.12418525109E+04  0.14347881132E+04  0.19629748076E+04  0.12699999809E+01 0. -1.
       -4    1    3    3    0  502 -0.50244790135E+03  0.12418525109E+04 -0.55390060805E+03  0.14496410069E+04  0.12699999809E+01 0.  1.
</event>
<event>
 5   0  0.1696681E-06  0.3304584E+04  0.7818609E-02  0.8161730E-01
       -2   -1    0    0    0  501  0.00000000000E+00  0.00000000000E+00  0.12651407876E+04  0.12651407876E+04  0.25500000920E-02 0.  1.
        2   -1    0    0  501    0  0.00000000000E+00  0.00000000000E+00 -0.21579175242E+04  0.21579175242E+04  0.25500000920E-02 0. -1.
    10030    2    1    2    0    0  0.00000000000E+00  0.00000000000E+00 -0.89277673667E+03  0.34230583118E+04  0.33045843770E+04 0.  0.
        4    1    3    3  502    0  0.13279798167E+04 -0.23442591709E+03  0.54260940290E+03  0.14535860762E+04  0.12699999809E+01 0.  1.
       -4    1    3    3    0  502 -0.13279798167E+04  0.23442591709E+03 -0.14353861396E+04  0.19694722355E+04  0.12699999809E+01 0. -1.
</event>
<event>
 5   0  0.1696681E-06  0.3099282E+04  0.7818609E-02  0.8215935E-01
        2   -1    0    0  501    0  0.00000000000E+00  0.00000000000E+00  0.25262371964E+04  0.25262371964E+04  0.25500000920E-02 0. -1.
       -2   -1    0    0    0  501  0.00000000000E+00  0.00000000000E+00 -0.95057890867E+03  0.95057890867E+03  0.25500000920E-02 0.  1.
    10030    2    1    2    0    0  0.00000000000E+00  0.00000000000E+00  0.15756582877E+04  0.34768161050E+04  0.30992823667E+04 0.  0.
        4    1    3    3  502    0 -0.82696178355E+03  0.57287766714E+03  0.21101094441E+04  0.23376522607E+04  0.12699999809E+01 0. -1.
       -4    1    3    3    0  502  0.82696178355E+03 -0.57287766714E+03 -0.53445115634E+03  0.11391638444E+04  0.12699999809E+01 0.  1.
</event>
<event>
 5   0  0.5858859E-07  0.3266314E+04  0.7818609E-02  0.8171520E-01
       -1   -1    0    0    0  501  0.00000000000E+00  0.00000000000E+00  0.18927078245E+04  0.18927078245E+04  0.50400001928E-02 0. -1.
        1   -1    0    0  501    0  0.00000000000E+00  0.00000000000E+00 -0.14091989691E+04  0.14091989691E+04  0.50400001928E-02 0.  1.
    10030    2    1    2    0    0  0.00000000000E+00  0.00000000000E+00  0.48350885542E+03  0.33019067936E+04  0.32663140786E+04 0.  0.
        3    1    3    3  502    0  0.19250192357E+03 -0.35024340393E+03  0.18425103865E+04  0.18853572518E+04  0.10100000352E+00 0. -1.
       -3    1    3    3    0  502 -0.19250192357E+03  0.35024340393E+03 -0.13590015311E+04  0.14165495417E+04  0.10100000352E+00 0.  1.
</event>
<event>
 5   0  0.6023446E-07  0.3309940E+04  0.7818609E-02  0.8160371E-01
       -1   -1    0    0    0  501  0.00000000000E+00  0.00000000000E+00  0.15224443142E+04  0.15224443142E+04  0.50400001928E-02 0.  1.
        1   -1    0    0  501    0  0.00000000000E+00  0.00000000000E+00 -0.17990317469E+04  0.17990317469E+04  0.50400001928E-02 0. -1.
    10030    2    1    2    0    0  0.00000000000E+00  0.00000000000E+00 -0.27658743272E+03  0.33214760611E+04  0.33099399717E+04 0.  0.
        5    1    3    3  502    0 -0.76371956188E+03 -0.93342467742E+03  0.99894972895E+03  0.15660369883E+04  0.46999998093E+01 0.  1.
       -5    1    3    3    0  502  0.76371956188E+03  0.93342467742E+03 -0.12755371617E+04  0.17554390728E+04  0.46999998093E+01 0. -1.
</event>
<event>
 5   0  0.1784626E-06  0.3301875E+04  0.7818609E-02  0.8162418E-01
        2   -1    0    0  501    0  0.00000000000E+00  0.00000000000E+00  0.21540431577E+04  0.21540431577E+04  0.25500000920E-02 0. -1.
       -2   -1    0    0    0  501  0.00000000000E+00  0.00000000000E+00 -0.12653392685E+04  0.12653392685E+04  0.25500000920E-02 0.  1.
    10030    2    1    2    0    0  0.00000000000E+00  0.00000000000E+00  0.88870388916E+03  0.34193824262E+04  0.33018754631E+04 0.  0.
        2    1    3    3  502    0 -0.31636811231E+03 -0.17555084613E+03  0.21124808228E+04  0.21432410291E+04  0.25500000920E-02 0. -1.
       -2    1    3    3    0  502  0.31636811231E+03  0.17555084613E+03 -0.12237769336E+04  0.12761413971E+04  0.25500000920E-02 0.  1.
</event>
<event>
 5   0  0.5985183E-07  0.3260889E+04  0.7818609E-02  0.8172919E-01
        1   -1    0    0  501    0  0.00000000000E+00  0.00000000000E+00  0.18567905013E+04  0.18567905014E+04  0.50400001928E-02 0. -1.
       -1   -1    0    0    0  501  0.00000000000E+00  0.00000000000E+00 -0.14316907738E+04  0.14316907738E+04  0.50400001928E-02 0.  1.
    10030    2    1    2    0    0  0.00000000000E+00  0.00000000000E+00  0.42509972754E+03  0.32884812752E+04  0.32608893448E+04 0.  0.
        2    1    3    3  502    0 -0.52245540686E+03 -0.11102483779E+03 -0.13409599685E+04  0.14434194830E+04  0.25500000920E-02 0.  1.
       -2    1    3    3    0  502  0.52245540686E+03  0.11102483779E+03  0.17660596961E+04  0.18450617921E+04  0.25500000920E-02 0. -1.
</event>
<event>
 5   0  0.5985183E-07  0.3397983E+04  0.7818609E-02  0.8138401E-01
       -1   -1    0    0    0  501  0.00000000000E+00  0.00000000000E+00  0.16329983140E+04  0.16329983140E+04  0.50400001928E-02 0.  1.
        1   -1    0    0  501    0  0.00000000000E+00  0.00000000000E+00 -0.17676521342E+04  0.17676521342E+04  0.50400001928E-02 0. -1.
    10030    2    1    2    0    0  0.00000000000E+00  0.00000000000E+00 -0.13465382022E+03  0.34006504482E+04  0.33979834931E+04 0.  0.
        2    1    3    3  502    0 -0.58490266734E+01  0.12042369007E+03  0.16287116994E+04  0.16331680489E+04  0.25500000920E-02 0.  1.
       -2    1    3    3    0  502  0.58490266734E+01 -0.12042369007E+03 -0.17633655196E+04  0.17674823993E+04  0.25500000920E-02 0. -1.
</event>
<event>
 5   0  0.6085351E-07  0.3293079E+04  0.7818609E-02  0.8164659E-01
        1   -1    0    0  501    0  0.00000000000E+00  0.00000000000E+00  0.11247727198E+04  0.11247727198E+04  0.50400001928E-02 0. -1.
       -1   -1    0    0    0  501  0.00000000000E+00  0.00000000000E+00 -0.24103471229E+04  0.24103471229E+04  0.50400001928E-02 0.  1.
    10030    2    1    2    0    0  0.00000000000E+00  0.00000000000E+00 -0.12855744030E+04  0.35351198427E+04  0.32930792211E+04 0.  0.
        1    1    3    3  502    0 -0.11746220818E+04  0.98657949984E+03 -0.12851102571E+04  0.20011458012E+04  0.50400001928E-02 0. -1.
       -1    1    3    3    0  502  0.11746220818E+04 -0.98657949984E+03 -0.46414593144E+00  0.15339740415E+04  0.50400001928E-02 0.  1.
</event>
<event>
 5   0  0.1784626E-06  0.3395416E+04  0.7818609E-02  0.8139032E-01
       -2   -1    0    0    0  501  0.00000000000E+00  0.00000000000E+00  0.27696626245E+04  0.27696626245E+04  0.25500000920E-02 0.  1.
        2   -1    0    0  501    0  0.00000000000E+00  0.00000000000E+00 -0.10406366639E+04  0.10406366639E+04  0.25500000920E-02 0. -1.
    10030    2    1    2    0    0  0.00000000000E+00  0.00000000000E+00  0.17290259606E+04  0.38102992885E+04  0.33954160121E+04 0.  0.
        2    1    3    3  502    0 -0.57064118947E+03  0.73202818602E+03 -0.73070016715E+03  0.11812786998E+04  0.25500000920E-02 0. -1.
       -2    1    3    3    0  502  0.57064118947E+03 -0.73202818602E+03  0.24597261278E+04  0.26290205887E+04  0.25500000920E-02 0.  1.
</event>
<event>
 5   0  0.1696681E-06  0.3072321E+04  0.7818609E-02  0.8223375E-01
        2   -1    0    0  501    0  0.00000000000E+00  0.00000000000E+00  0.12482229653E+04  0.12482229653E+04  0.25500000920E-02 0.  1.
       -2   -1    0    0    0  501  0.00000000000E+00  0.00000000000E+00 -0.18905189986E+04  0.18905189986E+04  0.25500000920E-02 0. -1.
    10030    2    1    2    0    0  0.00000000000E+00  0.00000000000E+00 -0.64229603335E+03  0.31387419639E+04  0.30723210967E+04 0.  0.
        4    1    3    3  502    0  0.91681139387E+03  0.10983216648E+04 -0.89264690603E+03  0.16863195792E+04  0.12699999809E+01 0. -1.
       -4    1    3    3    0  502 -0.91681139387E+03 -0.10983216648E+04  0.25035087268E+03  0.14524223847E+04  0.12699999809E+01 0.  1.
</event>
<event>
 5   0  0.5858859E-07  0.3333467E+04  0.7818609E-02  0.8154431E-01
        1   -1    0    0  501    0  0.00000000000E+00  0.00000000000E+00  0.92191521167E+03  0.92191521168E+03  0.50400001928E-02 0.  1.
       -1   -1    0    0    0  501  0.00000000000E+00  0.00000000000E+00 -0.30132935684E+04  0.30132935684E+04  0.50400001928E-02 0. -1.
    10030    2    1    2    0    0  0.00000000000E+00  0.00000000000E+00 -0.20913783567E+04  0.39352087800E+04  0.33334673707E+04 0.  0.
        3    1    3    3  502    0  0.72097161302E+02  0.14477425515E+03 -0.30040081999E+04  0.30083588318E+04  0.10100000352E+00 0. -1.
       -3    1    3    3    0  502 -0.72097161302E+02 -0.14477425515E+03  0.91262984321E+03  0.92684994823E+03  0.10100000352E+00 0.  1.
</event>
<event>
 5   0  0.1728937E-06  0.3303166E+04  0.7818609E-02  0.8162090E-01
        2   -1    0    0  501    0  0.00000000000E+00  0.00000000000E+00  0.14968132389E+04  0.14968132389E+04  0.25500000920E-02 0.  1.
       -2   -1    0    0    0  501  0.00000000000E+00  0.00000000000E+00 -0.18223557278E+04  0.18223557278E+04  0.25500000920E-02 0. -1.
    10030    2    1    2    0    0  0.00000000000E+00  0.00000000000E+00 -0.32554248887E+03  0.33191689667E+04  0.33031658628E+04 0.  0.
        1    1    3    3  502    0 -0.79257222984E+03  0.63472241383E+03  0.11461072159E+04  0.15312103162E+04  0.50400001928E-02 0.  1.
       -1    1    3    3    0  502  0.79257222984E+03 -0.63472241383E+03 -0.14716497048E+04  0.17879586504E+04  0.50400001928E-02 0. -1.
</event>
<event>
 5   0  0.5985183E-07  0.3300395E+04  0.7818609E-02  0.8162795E-01
        1   -1    0    0  501    0  0.00000000000E+00  0.00000000000E+00  0.22857228258E+04  0.22857228258E+04  0.50400001928E-02 0. -1.
       -1   -1    0    0    0  501  0.00000000000E+00  0.00000000000E+00 -0.11913746385E+04  0.11913746385E+04  0.50400001928E-02 0.  1.
    10030    2    1    2    0    0  0.00000000000E+00  0.00000000000E+00  0.10943481873E+04  0.34770974643E+04  0.33003952522E+04 0.  0.
        2    1    3    3  502    0 -0.41249583469E+03 -0.82134392647E+03  0.19910976589E+04  0.21929953367E+04  0.25500000920E-02 0. -1.
       -2    1    3    3    0  502  0.41249583469E+03  0.82134392647E+03 -0.89674947165E+03  0.12841021276E+04  0.25500000920E-02 0.  1.
</event>
<event>
 5   0  0.6085351E-07  0.3279942E+04  0.7818609E-02  0.8168018E-01
       -1   -1    0    0    0  501  0.00000000000E+00  0.00000000000E+00  0.15046877878E+04  0.15046877878E+04  0.50400001928E-02 0. -1.
        1   -1    0    0  501    0  0.00000000000E+00  0.00000000000E+00 -0.17874169151E+04  0.17874169151E+04  0.50400001928E-02 0.  1.
    10030    2    1    2    0    0  0.00000000000E+00  0.00000000000E+00 -0.28272912737E+03  0.32921047029E+04  0.32799417092E+04 0.  0.
        1    1    3    3  502    0 -0.93599807998E+03 -0.12435122724E+04 -0.66008779526E+03  0.16906008029E+04  0.50400001928E-02 0. -1.
       -1    1    3    3    0  502  0.93599807998E+03  0.12435122724E+04  0.37735866789E+03  0.16015039000E+04  0.50400001928E-02 0.  1.
</event>
<event>
 5   0  0.5858859E-07  0.3236397E+04  0.7818609E-02  0.8179270E-01
        1   -1    0    0  501    0  0.00000000000E+00  0.00000000000E+00  0.20780354974E+04  0.20780354974E+04  0.50400001928E-02 0.  1.
       -1   -1    0    0    0  501  0.00000000000E+00  0.00000000000E+00 -0.12601162180E+04  0.12601162180E+04  0.50400001928E-02 0. -1.
    10030    2    1    2    0    0  0.00000000000E+00  0.00000000000E+00  0.81791927939E+03  0.33381517154E+04  0.32363969052E+04 0.  0.
        3    1    3    3  502    0  0.18840622438E+03 -0.61485797668E+03  0.19405776350E+04  0.20443553518E+04  0.10100000352E+00 0.  1.
       -3    1    3    3    0  502 -0.18840622438E+03  0.61485797668E+03 -0.11226583556E+04  0.12937963636E+04  0.10100000352E+00 0. -1.
</event>
<event>
 5   0  0.6085351E-07  0.3286074E+04  0.7818609E-02  0.8166448E-01
        1   -1    0    0  501    0  0.00000000000E+00  0.00000000000E+00  0.12502534878E+04  0.12502534878E+04  0.50400001928E-02 0.  1.
       -1   -1    0    0    0  501  0.00000000000E+00  0.00000000000E+00 -0.21592190322E+04  0.21592190322E+04  0.50400001928E-02 0. -1.
    10030    2    1    2    0    0  0.00000000000E+00  0.00000000000E+00 -0.90896554436E+03  0.34094725200E+04  0.32860743303E+04 0.  0.
        1    1    3    3  502    0  0.94691278342E+03  0.63414805648E+03 -0.16824741796E+04  0.20321188306E+04  0.50400001928E-02 0. -1.
       -1    1    3    3    0  502 -0.94691278342E+03 -0.63414805648E+03  0.77350863520E+03  0.13773536894E+04  0.50400001928E-02 0.  1.
</event>
<event>
 5   0  0.6085351E-07  0.3335184E+04  0.7818609E-02  0.8154000E-01
       -1   -1    0    0    0  501  0.00000000000E+00  0.00000000000E+00  0.10631906816E+04  0.10631906816E+04  0.50400001928E-02 0. -1.
        1   -1    0    0  501    0  0.00000000000E+00  0.00000000000E+00 -0.26155823003E+04  0.26155823003E+04  0.50400001928E-02 0.  1.
    10030    2    1    2    0    0  0.00000000000E+00  0.00000000000E+00 -0.15523916187E+04  0.36787729819E+04  0.33351837902E+04 0.  0.
        1    1    3    3  502    0 -0.14522540403E+04  0.81604216880E+03 -0.86089241358E+03  0.18751272934E+04  0.50400001928E-02 0.  1.
       -1    1    3    3    0  502  0.14522540403E+04 -0.81604216880E+03 -0.69149920515E+03  0.18036456885E+04  0.50400001928E-02 0. -1.
</event>
<event>
 5   0  0.5985183E-07  0.3310885E+04  0.7818609E-02  0.8160131E-01
       -1   -1    0    0    0  501  0.00000000000E+00  0.00000000000E+00  0.14672480919E+04  0.14672480919E+04  0.50400001928E-02 0. -1.
        1   -1    0    0  501    0  0.00000000000E+00  0.00000000000E+00 -0.18677757921E+04  0.18677757921E+04  0.50400001928E-02 0.  1.
    10030    2    1    2    0    0  0.00000000000E+00  0.00000000000E+00 -0.40052770026E+03  0.33350238840E+04  0.33108853602E+04 0.  0.
        2    1    3    3  502    0 -0.10548336455E+04  0.98850937157E+03  0.61225557314E+03  0.15699304711E+04  0.25500000920E-02 0.  1.
       -2    1    3    3    0  502  0.10548336455E+04 -0.98850937157E+03 -0.10127832734E+04  0.17650934129E+04  0.25500000920E-02 0. -1.
</event>
<event>
 5   0  0.6085351E-07  0.3274588E+04  0.7818609E-02  0.8169392E-01
       -1   -1    0    0    0  501  0.00000000000E+00  0.00000000000E+00  0.11038811380E+04  0.11038811380E+04  0.50400001928E-02 0.  1.
        1   -1    0    0  501    0  0.00000000000E+00  0.00000000000E+00 -0.24284599288E+04  0.24284599288E+04  0.50400001928E-02 0. -1.
    10030    2    1    2    0    0  0.00000000000E+00  0.00000000000E+00 -0.13245787907E+04  0.35323410668E+04  0.32745876747E+04 0.  0.
        1    1    3    3  502    0 -0.12526653362E+03 -0.14930385797E+04  0.49886204265E+02  0.14991145847E+04  0.50400001928E-02 0. -1.
       -1    1    3    3    0  502  0.12526653362E+03  0.14930385797E+04 -0.13744649950E+04  0.20332264820E+04  0.50400001928E-02 0.  1.
</event>
<event>
 5   0  0.1784626E-06  0.3253860E+04  0.7818609E-02  0.8174736E-01
       -2   -1    0    0    0  501  0.00000000000E+00  0.00000000000E+00  0.19037367099E+04  0.19037367099E+04  0.25500000920E-02 0. -1.
        2   -1    0    0  501    0  0.00000000000E+00  0.00000000000E+00 -0.13903714485E+04  0.13903714485E+04  0.25500000920E-02 0.  1.
    10030    2    1    2    0    0  0.00000000000E+00  0.00000000000E+00  0.51336526145E+03  0.32941081584E+04  0.32538599644E+04 0.  0.
        2    1    3    3  502    0  0.37721036555E+03  0.73960860432E+03 -0.11597638045E+04  0.14263101450E+04  0.25500000920E-02 0.  1.
       -2    1    3    3    0  502 -0.37721036555E+03 -0.73960860432E+03  0.16731290660E+04  0.18677980134E+04  0.25500000920E-02 0. -1.
</event>
<event>
 5   0  0.5985183E-07  0.3306700E+04  0.7818609E-02  0.8161193E-01
        1   -1    0    0  501    0  0.00000000000E+00  0.00000000000E+00  0.23121053760E+04  0.23121053760E+04  0.50400001928E-02 0. -1.
       -1   -1    0    0    0  501  0.00000000000E+00  0.00000000000E+00 -0.11822845959E+04  0.11822845959E+04  0.50400001928E-02 0.  1.
    10030    2    1    2    0    0  0.00000000000E+00  0.00000000000E+00  0.11298207801E+04  0.34943899719E+04  0.33067002102E+04 0.  0.
        2    1    3    3  502    0 -0.64964602872E+03 -0.98880983794E+03  0.17853573966E+04  0.21417950163E+04  0.25500000920E-02 0. -1.
       -2    1    3    3    0  502  0.64964602872E+03  0.98880983794E+03 -0.65553661650E+03  0.13525949556E+04  0.25500000920E-02 0.  1.
</event>
<event>
 5   0  0.6023446E-07  0.3288359E+04  0.7818609E-02  0.8165864E-01
       -1   -1    0    0    0  501  0.00000000000E+00  0.00000000000E+00  0.13176529850E+04  0.13176529850E+04  0.50400001928E-02 0.  1.
        1   -1    0    0  501    0  0.00000000000E+00  0.00000000000E+00 -0.20516225591E+04  0.20516225591E+04  0.50400001928E-02 0. -1.
    10030    2    1    2    0    0  0.00000000000E+00  0.00000000000E+00 -0.73396957406E+03  0.33692755441E+04  0.32883592195E+04 0.  0.
        5    1    3    3  502    0  0.63249358163E+03  0.24104949047E+03 -0.19022383115E+04  0.20190804024E+04  0.46999998093E+01 0. -1.
       -5    1    3    3    0  502 -0.63249358163E+03 -0.24104949047E+03  0.11682687374E+04  0.13501951417E+04  0.46999998093E+01 0.  1.
</event>
<event>
 5   0  0.1728937E-06  0.3282751E+04  0.7818609E-02  0.8167298E-01
       -2   -1    0    0    0  501  0.00000000000E+00  0.00000000000E+00  0.12138823156E+04  0.12138823156E+04  0.25500000920E-02 0.  1.
        2   -1    0    0  501    0  0.00000000000E+00  0.00000000000E+00 -0.22194184141E+04  0.22194184141E+04  0.25500000920E-02 0. -1.
    10030    2    1    2    0    0  0.00000000000E+00  0.00000000000E+00 -0.10055360985E+04  0.34333007297E+04  0.32827505320E+04 0.  0.
        1    1    3    3  502    0 -0.45816937143E+03  0.15760801908E+04 -0.51619517646E+03  0.17205828666E+04  0.50400001928E-02 0. -1.
       -1    1    3    3    0  502  0.45816937143E+03 -0.15760801908E+04 -0.48934092208E+03  0.17127178631E+04  0.50400001928E-02 0.  1.
</event>
<event>
 5   0  0.1728937E-06  0.3312504E+04  0.7818609E-02  0.8159721E-01
       -2   -1    0    0    0  501  0.00000000000E+00  0.00000000000E+00  0.13143643664E+04  0.13143643664E+04  0.25500000920E-02 0.  1.
        2   -1    0    0  501    0  0.00000000000E+00  0.00000000000E+00 -0.20870699592E+04  0.20870699592E+04  0.25500000920E-02 0. -1.
    10030    2    1    2    0    0  0.00000000000E+00  0.00000000000E+00 -0.77270559288E+03  0.34014343256E+04  0.33125038171E+04 0.  0.
        1    1    3    3  502    0  0.12914401129E+04  0.26936241278E+02  0.67812015136E+03  0.14589002934E+04  0.50400001928E-02 0.  1.
       -1    1    3    3    0  502 -0.12914401129E+04 -0.26936241278E+02 -0.14508257442E+04  0.19425340323E+04  0.50400001928E-02 0. -1.
</event>
<event>
 5   0  0.1784626E-06  0.3507822E+04  0.7818609E-02  0.8111939E-01
        2   -1    0    0  501    0  0.00000000000E+00  0.00000000000E+00  0.14689130848E+04  0.14689130848E+04  0.25500000920E-02 0.  1.
       -2   -1    0    0    0  501  0.00000000000E+00  0.00000000000E+00 -0.20942037863E+04  0.20942037863E+04  0.25500000920E-02 0. -1.
    10030    2    1    2    0    0  0.00000000000E+00  0.00000000000E+00 -0.62529070152E+03  0.35631168712E+04  0.35078217424E+04 0.  0.
        2    1    3    3  502    0 -0.35344010282E+03 -0.12070267258E+04 -0.15543594449E+04  0.19994666056E+04  0.25500000920E-02 0. -1.
       -2    1    3    3    0  502  0.35344010282E+03  0.12070267258E+04  0.92906874333E+03  0.15636502656E+04  0.25500000920E-02 0.  1.
</event>
<event>
 5   0  0.1743810E-06  0.3282375E+04  0.7818609E-02  0.8167394E-01
        2   -1    0    0  501    0  0.00000000000E+00  0.00000000000E+00  0.19328478918E+04  0.19328478918E+04  0.25500000920E-02 0.  1.
       -2   -1    0    0    0  501  0.00000000000E+00  0.00000000000E+00 -0.13935380529E+04  0.13935380529E+04  0.25500000920E-02 0. -1.
    10030    2    1    2    0    0  0.00000000000E+00  0.00000000000E+00  0.53930983899E+03  0.33263859447E+04  0.32823754128E+04 0.  0.
        5    1    3    3  502    0 -0.36132532896E+03  0.88062607048E+03  0.16245238856E+04  0.18828590532E+04  0.46999998093E+01 0.  1.
       -5    1    3    3    0  502  0.36132532896E+03 -0.88062607048E+03 -0.10852140466E+04  0.14435268915E+04  0.46999998093E+01 0. -1.
</event>
<event>
 5   0  0.5988516E-07  0.3280651E+04  0.7818609E-02  0.8167836E-01
        1   -1    0    0  501    0  0.00000000000E+00  0.00000000000E+00  0.16432206110E+04  0.16432206110E+04  0.50400001928E-02 0. -1.
       -1   -1    0    0    0  501  0.00000000000E+00  0.00000000000E+00 -0.16374351868E+04  0.16374351868E+04  0.50400001928E-02 0.  1.
    10030    2    1    2    0    0  0.00000000000E+00  0.00000000000E+00  0.57854241681E+01  0.32806557978E+04  0.32806506965E+04 0.  0.
        4    1    3    3  502    0  0.11544777141E+03  0.16362234238E+04  0.13397709747E+02  0.16403464244E+04  0.12699999809E+01 0. -1.
       -4    1    3    3    0  502 -0.11544777141E+03 -0.16362234238E+04 -0.76122855790E+01  0.16403093734E+04  0.12699999809E+01 0.  1.
</event>
<event>
 5   0  0.1728937E-06  0.3320271E+04  0.7818609E-02  0.8157757E-01
        2   -1    0    0  501    0  0.00000000000E+00  0.00000000000E+00  0.99613849862E+03  0.99613849862E+03  0.25500000920E-02 0. -1.
       -2   -1    0    0    0  501  0.00000000000E+00  0.00000000000E+00 -0.27667336696E+04  0.27667336696E+04  0.25500000920E-02 0.  1.
    10030    2    1    2    0    0  0.00000000000E+00  0.00000000000E+00 -0.17705951710E+04  0.37628721682E+04  0.33202710273E+04 0.  0.
        1    1    3    3  502    0  0.12171394542E+04 -0.10780255393E+04 -0.50520601842E+03  0.17025864546E+04  0.50400001928E-02 0. -1.
       -1    1    3    3    0  502 -0.12171394542E+04  0.10780255393E+04 -0.12653891526E+04  0.20602857136E+04  0.50400001928E-02 0.  1.
</event>
<event>
 5   0  0.6085351E-07  0.3256205E+04  0.7818609E-02  0.8174129E-01
        1   -1    0    0  501    0  0.00000000000E+00  0.00000000000E+00  0.18918094291E+04  0.18918094291E+04  0.50400001928E-02 0.  1.
       -1   -1    0    0    0  501  0.00000000000E+00  0.00000000000E+00 -0.14011549715E+04  0.14011549716E+04  0.50400001928E-02 0. -1.
    10030    2    1    2    0    0  0.00000000000E+00  0.00000000000E+00  0.49065445753E+03  0.32929644006E+04  0.32562052680E+04 0.  0.
        1    1    3    3  502    0  0.32601890414E+03 -0.12939271804E+04  0.11886935920E+04  0.17870445796E+04  0.50400001928E-02 0.  1.
       -1    1    3    3    0  502 -0.32601890414E+03  0.12939271804E+04 -0.69803913449E+03  0.15059198210E+04  0.50400001928E-02 0. -1.
</event>
<event>
 5   0  0.5985183E-07  0.3282397E+04  0.7818609E-02  0.8167389E-01
        1   -1    0    0  501    0  0.00000000000E+00  0.00000000000E+00  0.17082624200E+04  0.17082624200E+04  0.50400001928E-02 0.  1.
       -1   -1    0    0    0  501  0.00000000000E+00  0.00000000000E+00 -0.15767669775E+04  0.15767669775E+04  0.50400001928E-02 0. -1.
    10030    2    1    2    0    0  0.00000000000E+00  0.00000000000E+00  0.13149544254E+03  0.32850293975E+04  0.32823965469E+04 0.  0.
        2    1    3    3  502    0 -0.93042833077E+03  0.13313710857E+04  0.30106591603E+03  0.16519341792E+04  0.25500000920E-02 0. -1.
       -2    1    3    3    0  502  0.93042833077E+03 -0.13313710857E+04 -0.16957047349E+03  0.16330952183E+04  0.25500000920E-02 0.  1.
</event>
<event>
 5   0  0.6085351E-07  0.3312322E+04  0.7818609E-02  0.8159767E-01
       -1   -1    0    0    0  501  0.00000000000E+00  0.00000000000E+00  0.12363769160E+04  0.12363769160E+04  0.50400001928E-02 0. -1.
        1   -1    0    0  501    0  0.00000000000E+00  0.00000000000E+00 -0.22184739609E+04  0.22184739609E+04  0.50400001928E-02 0.  1.
    10030    2    1    2    0    0  0.00000000000E+00  0.00000000000E+00 -0.98209704493E+03  0.34548508769E+04  0.33123224444E+04 0.  0.
        1    1    3    3  502    0 -0.29356253815E+03  0.63259209444E+03  0.10757607258E+04  0.12820346567E+04  0.50400001928E-02 0. -1.
       -1    1    3    3    0  502  0.29356253815E+03 -0.63259209444E+03 -0.20578577708E+04  0.21728162201E+04  0.50400001928E-02 0.  1.
</event>
<event>
 5   0  0.6023446E-07  0.3229639E+04  0.7818609E-02  0.8181033E-01
       -1   -1    0    0    0  501  0.00000000000E+00  0.00000000000E+00  0.15519393898E+04  0.15519393898E+04  0.50400001928E-02 0.  1.
        1   -1    0    0  501    0  0.00000000000E+00  0.00000000000E+00 -0.16802470353E+04  0.16802470354E+04  0.50400001928E-02 0. -1.
    10030    2    1    2    0    0  0.00000000000E+00  0.00000000000E+00 -0.12830764554E+03  0.32321864252E+04  0.32296387159E+04 0.  0.
        5    1    3    3  502    0 -0.52015442572E+03 -0.19014041833E+03  0.14539163490E+04  0.15558305965E+04  0.46999998093E+01 0.  1.
       -5    1    3    3    0  502  0.52015442572E+03  0.19014041833E+03 -0.15822239945E+04  0.16763558286E+04  0.46999998093E+01 0. -1.
</event>
<event>
 5   0  0.5985183E-07  0.3242542E+04  0.7818609E-02  0.8177671E-01
       -1   -1    0    0    0  501  0.00000000000E+00  0.00000000000E+00  0.13448135474E+04  0.13448135474E+04  0.50400001928E-02 0.  1.
        1   -1    0    0  501    0  0.00000000000E+00  0.00000000000E+00 -0.19545604358E+04  0.19545604358E+04  0.50400001928E-02 0. -1.
    10030    2    1    2    0    0  0.00000000000E+00  0.00000000000E+00 -0.60974688835E+03  0.32993739832E+04  0.32425418137E+04 0.  0.
        2    1    3    3  502    0 -0.67970590777E+03 -0.90564299501E+03  0.87577805143E+03  0.14314945165E+04  0.25500000920E-02 0.  1.
       -2    1    3    3    0  502  0.67970590777E+03  0.90564299501E+03 -0.14855249398E+04  0.18678794667E+04  0.25500000920E-02 0. -1.
</event>
<event>
 5   0  0.1728937E-06  0.3250719E+04  0.7818609E-02  0.8175549E-01
       -2   -1    0    0    0  501  0.00000000000E+00  0.00000000000E+00  0.96725126783E+03  0.96725126783E+03  0.25500000920E-02 0. -1.
        2   -1    0    0  501    0  0.00000000000E+00  0.00000000000E+00 -0.27312378601E+04  0.27312378601E+04  0.25500000920E-02 0.  1.
    10030    2    1    2    0    0  0.00000000000E+00  0.00000000000E+00 -0.17639865923E+04  0.36984891279E+04  0.32507188638E+04 0.  0.
        1    1    3    3  502    0 -0.40998414000E+02  0.15232560648E+04 -0.23858529742E+03  0.15423724754E+04  0.50400001928E-02 0.  1.
       -1    1    3    3    0  502  0.40998414000E+02 -0.15232560648E+04 -0.15254012949E+04  0.21561166525E+04  0.50400001928E-02 0. -1.
</event>
<event>
 5   0  0.1832626E-06  0.3480842E+04  0.7818609E-02  0.8118345E-01
        2   -1    0    0  501    0  0.00000000000E+00  0.00000000000E+00  0.13836952023E+04  0.13836952023E+04  0.25500000920E-02 0. -1.
       -2   -1    0    0    0  501  0.00000000000E+00  0.00000000000E+00 -0.21891130387E+04  0.21891130387E+04  0.25500000920E-02 0.  1.
    10030    2    1    2    0    0  0.00000000000E+00  0.00000000000E+00 -0.80541783640E+03  0.35728082411E+04  0.34808419723E+04 0.  0.
        3    1    3    3  502    0  0.31288194652E+03 -0.24587813018E+03 -0.21417921451E+04  0.21784454940E+04  0.10100000352E+00 0.  1.
       -3    1    3    3    0  502 -0.31288194652E+03  0.24587813018E+03  0.13363743087E+04  0.13943627471E+04  0.10100000352E+00 0. -1.
</event>
<event>
 5   0  0.6085351E-07  0.3240265E+04  0.7818609E-02  0.8178264E-01
        1   -1    0    0  501    0  0.00000000000E+00  0.00000000000E+00  0.24782100676E+04  0.24782100676E+04  0.50400001928E-02 0. -1.
       -1   -1    0    0    0  501  0.00000000000E+00  0.00000000000E+00 -0.10591630595E+04  0.10591630595E+04  0.50400001928E-02 0.  1.
    10030    2    1    2    0    0  0.00000000000E+00  0.00000000000E+00  0.14190470081E+04  0.35373731271E+04  0.32402645307E+04 0.  0.
        1    1    3    3  502    0 -0.16714640425E+03 -0.16082790886E+04  0.59857287896E+03  0.17241777863E+04  0.50400001928E-02 0.  1.
       -1    1    3    3    0  502  0.16714640425E+03  0.16082790886E+04  0.82047412915E+03  0.18131953408E+04  0.50400001928E-02 0. -1.
</event>
<event>
 5   0  0.5985183E-07  0.3305467E+04  0.7818609E-02  0.8161506E-01
       -1   -1    0    0    0  501  0.00000000000E+00  0.00000000000E+00  0.11335517586E+04  0.11335517586E+04  0.50400001928E-02 0. -1.
        1   -1    0    0  501    0  0.00000000000E+00  0.00000000000E+00 -0.24097066529E+04  0.24097066529E+04  0.50400001928E-02 0.  1.
    10030    2    1    2    0    0  0.00000000000E+00  0.00000000000E+00 -0.12761548943E+04  0.35432584115E+04  0.33054665111E+04 0.  0.
        2    1    3    3  502    0 -0.28688708244E+03  0.59923428464E+03 -0.22602655186E+04  0.23558833036E+04  0.25500000920E-02 0.  1.
       -2    1    3    3    0  502  0.28688708244E+03 -0.59923428464E+03  0.98411062424E+03  0.11873751078E+04  0.25500000920E-02 0. -1.
</event>
<event>
 5   0  0.6085351E-07  0.3293203E+04  0.7818609E-02  0.8164627E-01
        1   -1    0    0  501    0  0.00000000000E+00  0.00000000000E+00  0.24215463598E+04  0.24215463598E+04  0.50400001928E-02 0.  1.
       -1   -1    0    0    0  501  0.00000000000E+00  0.00000000000E+00 -0.11196552203E+04  0.11196552203E+04  0.50400001928E-02 0. -1.
    10030    2    1    2    0    0  0.00000000000E+00  0.00000000000E+00  0.13018911396E+04  0.35412015801E+04  0.32932033177E+04 0.  0.
        1    1    3    3  502    0 -0.68858967459E+03 -0.22378722626E+03  0.22411849703E+04  0.23552381055E+04  0.50400001928E-02 0.  1.
       -1    1    3    3    0  502  0.68858967459E+03  0.22378722626E+03 -0.93929383073E+03  0.11859634746E+04  0.50400001928E-02 0. -1.
</event>
<event>
 5   0  0.5988516E-07  0.3308404E+04  0.7818609E-02  0.8160760E-01
       -1   -1    0    0    0  501  0.00000000000E+00  0.00000000000E+00  0.18472486625E+04  0.18472486625E+04  0.50400001928E-02 0.  1.
        1   -1    0    0  501    0  0.00000000000E+00  0.00000000000E+00 -0.14813295341E+04  0.14813295341E+04  0.50400001928E-02 0. -1.
    10030    2    1    2    0    0  0.00000000000E+00  0.00000000000E+00  0.36591912847E+03  0.33285781966E+04  0.33084038451E+04 0.  0.
        4    1    3    3  502    0  0.20894800793E+03 -0.14312087395E+04 -0.62465864911E+03  0.15755055591E+04  0.12699999809E+01 0. -1.
       -4    1    3    3    0  502 -0.20894800793E+03  0.14312087395E+04  0.99057777758E+03  0.17530726375E+04  0.12699999809E+01 0.  1.
</event>
<event>
 5   0  0.5858859E-07  0.3348491E+04  0.7818609E-02  0.8150665E-01
        1   -1    0    0  501    0  0.00000000000E+00  0.00000000000E+00  0.28793084495E+04  0.28793084495E+04  0.50400001928E-02 0. -1.
       -1   -1    0    0    0  501  0.00000000000E+00  0.00000000000E+00 -0.97353140611E+03  0.97353140613E+03  0.50400001928E-02 0.  1.
    10030    2    1    2    0    0  0.00000000000E+00  0.00000000000E+00  0.19057770434E+04  0.38528398556E+04  0.33484905277E+04 0.  0.
        3    1    3    3  502    0 -0.62952422620E+03  0.10116102308E+04 -0.40046804009E+03  0.12569927096E+04  0.10100000352E+00 0.  1.
       -3    1    3    3    0  502  0.62952422620E+03 -0.10116102308E+04  0.23062450835E+04  0.25958471461E+04  0.10100000352E+00 0. -1.
</event>
<event>
 5   0  0.1728937E-06  0.3294587E+04  0.7818609E-02  0.8164274E-01
       -2   -1    0    0    0  501  0.00000000000E+00  0.00000000000E+00  0.15886767299E+04  0.15886767299E+04  0.25500000920E-02 0. -1.
        2   -1    0    0  501    0  0.00000000000E+00  0.00000000000E+00 -0.17080733869E+04  0.17080733869E+04  0.25500000920E-02 0.  1.
    10030    2    1    2    0    0  0.00000000000E+00  0.00000000000E+00 -0.11939665704E+03  0.32967501168E+04  0.32945873445E+04 0.  0.
        1    1    3    3  502    0 -0.35045822633E+03  0.58918866041E+03 -0.15585508420E+04  0.17026582079E+04  0.50400001928E-02 0.  1.
       -1    1    3    3    0  502  0.35045822633E+03 -0.58918866041E+03  0.14391541849E+04  0.15940919089E+04  0.50400001928E-02 0. -1.
</event>
<event>
 5   0  0.6023446E-07  0.3271188E+04  0.7818609E-02  0.8170265E-01
        1   -1    0    0  501    0  0.00000000000E+00  0.00000000000E+00  0.19625376174E+04  0.19625376174E+04  0.50400001928E-02 0. -1.
       -1   -1    0    0    0  501  0.00000000000E+00  0.00000000000E+00 -0.13631169809E+04  0.13631169809E+04  0.50400001928E-02 0.  1.
    10030    2    1    2    0    0  0.00000000000E+00  0.00000000000E+00  0.59942063645E+03  0.33256545983E+04  0.32711883785E+04 0.  0.
        5    1    3    3  502    0 -0.65689281961E+03 -0.45921734028E+03  0.17491974864E+04  0.19240848938E+04  0.46999998093E+01 0. -1.
       -5    1    3    3    0  502  0.65689281961E+03  0.45921734028E+03 -0.11497768499E+04  0.14015697045E+04  0.46999998093E+01 0.  1.
</event>
<event>
 5   0  0.1784626E-06  0.3298838E+04  0.7818609E-02  0.8163191E-01
        2   -1    0    0  501    0  0.00000000000E+00  0.00000000000E+00  0.13743477896E+04  0.13743477896E+04  0.25500000920E-02 0. -1.
       -2   -1    0    0    0  501  0.00000000000E+00  0.00000000000E+00 -0.19795446889E+04  0.19795446889E+04  0.25500000920E-02 0.  1.
    10030    2    1    2    0    0  0.00000000000E+00  0.00000000000E+00 -0.60519689935E+03  0.33538924785E+04  0.32988378970E+04 0.  0.
        2    1    3    3  502    0 -0.82740858317E+02  0.25963575182E+03 -0.19565007076E+04  0.19753864918E+04  0.25500000920E-02 0.  1.
       -2    1    3    3    0  502  0.82740858317E+02 -0.25963575182E+03  0.13513038082E+04  0.13785059867E+04  0.25500000920E-02 0. -1.
</event>
<event>
 5   0  0.5988516E-07  0.3264012E+04  0.7818609E-02  0.8172113E-01
       -1   -1    0    0    0  501  0.00000000000E+00  0.00000000000E+00  0.14918085354E+04  0.14918085354E+04  0.50400001928E-02 0. -1.
        1   -1    0    0  501    0  0.00000000000E+00  0.00000000000E+00 -0.17853788915E+04  0.17853788915E+04  0.50400001928E-02 0.  1.
    10030    2    1    2    0    0  0.00000000000E+00  0.00000000000E+00 -0.29357035605E+03  0.32771874269E+04  0.32640119297E+04 0.  0.
        4    1    3    3  502    0 -0.36976175807E+03  0.46034116536E+02  0.14485272260E+04  0.14956856739E+04  0.12699999809E+01 0. -1.
       -4    1    3    3    0  502  0.36976175807E+03 -0.46034116536E+02 -0.17420975821E+04  0.17815017530E+04  0.12699999809E+01 0.  1.
</event>
<event>
 5   0  0.1832626E-06  0.3310216E+04  0.7818609E-02  0.8160301E-01
       -2   -1    0    0    0  501  0.00000000000E+00  0.00000000000E+00  0.12751073045E+04  0.12751073045E+04  0.25500000920E-02 0.  1.
        2   -1    0    0  501    0  0.00000000000E+00  0.00000000000E+00 -0.21483538457E+04  0.21483538457E+04  0.25500000920E-02 0. -1.
    10030    2    1    2    0    0  0.00000000000E+00  0.00000000000E+00 -0.87324654119E+03  0.34234611501E+04  0.33102155103E+04 0.  0.
        3    1    3    3  502    0  0.12622133393E+04  0.50325302871E+03 -0.14139036743E+04  0.19610124261E+04  0.10100000352E+00 0. -1.
       -3    1    3    3    0  502 -0.12622133393E+04 -0.50325302871E+03  0.54065713306E+03  0.14624487241E+04  0.10100000352E+00 0.  1.
</event>
<event>
 5   0  0.6085351E-07  0.3310603E+04  0.7818609E-02  0.8160203E-01
        1   -1    0    0  501    0  0.00000000000E+00  0.00000000000E+00  0.22317198339E+04  0.22317198339E+04  0.50400001928E-02 0.  1.
       -1   -1    0    0    0  501  0.00000000000E+00  0.00000000000E+00 -0.12277628979E+04  0.12277628979E+04  0.50400001928E-02 0. -1.
    10030    2    1    2    0    0  0.00000000000E+00  0.00000000000E+00  0.10039569360E+04  0.34594827318E+04  0.33106028518E+04 0.  0.
        1    1    3    3  502    0  0.65494765776E+03 -0.28072791522E+03 -0.10592853572E+04  0.12766558130E+04  0.50400001928E-02 0. -1.
       -1    1    3    3    0  502 -0.65494765776E+03  0.28072791522E+03  0.20632422933E+04  0.21828269188E+04  0.50400001928E-02 0.  1.
</event>
<event>
 5   0  0.1832626E-06  0.3215456E+04  0.7818609E-02  0.8184747E-01
        2   -1    0    0  501    0  0.00000000000E+00  0.00000000000E+00  0.17344007222E+04  0.17344007222E+04  0.25500000920E-02 0.  1.
       -2   -1    0    0    0  501  0.00000000000E+00  0.00000000000E+00 -0.14903070630E+04  0.14903070630E+04  0.25500000920E-02 0. -1.
    10030    2    1    2    0    0  0.00000000000E+00  0.00000000000E+00  0.24409365919E+03  0.32247077852E+04  0.32154562018E+04 0.  0.
        3    1    3    3  502    0 -0.51155109733E+03 -0.75123311554E+03 -0.12079490839E+04  0.15116800980E+04  0.10100000352E+00 0. -1.
       -3    1    3    3    0  502  0.51155109733E+03  0.75123311554E+03  0.14520427431E+04  0.17130276872E+04  0.10100000352E+00 0.  1.
</event>
<event>
 5   0  0.5858859E-07  0.3268215E+04  0.7818609E-02  0.8171030E-01
       -1   -1    0    0    0  501  0.00000000000E+00  0.00000000000E+00  0.31726180027E+04  0.31726180027E+04  0.50400001928E-02 0.  1.
        1   -1    0    0  501    0  0.00000000000E+00  0.00000000000E+00 -0.84167314498E+03  0.84167314499E+03  0.50400001928E-02 0. -1.
    10030    2    1    2    0    0  0.00000000000E+00  0.00000000000E+00  0.23309448577E+04  0.40142911477E+04  0.32682150310E+04 0.  0.
        3    1    3    3  502    0 -0.12899556715E+04 -0.44926511288E+03  0.22671552273E+04  0.26468505079E+04  0.10100000352E+00 0.  1.
       -3    1    3    3    0  502  0.12899556715E+04  0.44926511288E+03  0.63789630409E+02  0.13674406398E+04  0.10100000352E+00 0. -1.
</event>
<event>
 5   0  0.6023446E-07  0.3300758E+04  0.7818609E-02  0.8162703E-01
       -1   -1    0    0    0  501  0.00000000000E+00  0.00000000000E+00  0.14866321151E+04  0.14866321151E+04  0.50400001928E-02 0.  1.
        1   -1    0    0  501    0  0.00000000000E+00  0.00000000000E+00 -0.18321616380E+04  0.18321616380E+04  0.50400001928E-02 0. -1.
    10030    2    1    2    0    0  0.00000000000E+00  0.00000000000E+00 -0.34552952288E+03  0.33187937530E+04  0.33007576894E+04 0.  0.
        5    1    3    3  502    0 -0.33846207193E+03  0.96060497053E+03  0.11329495776E+04  0.15234550597E+04  0.46999998093E+01 0.  1.
       -5    1    3    3    0  502  0.33846207193E+03 -0.96060497053E+03 -0.14784791004E+04  0.17953386934E+04  0.46999998093E+01 0. -1.
</event>
<event>
 5   0  0.5858859E-07  0.3317188E+04  0.7818609E-02  0.8158536E-01
       -1   -1    0    0    0  501  0.00000000000E+00  0.00000000000E+00  0.17597113991E+04  0.17597113991E+04  0.50400001928E-02 0. -1.
        1   -1    0    0  501    0  0.00000000000E+00  0.00000000000E+00 -0.15632868039E+04  0.15632868039E+04  0.50400001928E-02 0.  1.
    10030    2    1    2    0    0  0.00000000000E+00  0.00000000000E+00  0.19642459513E+03  0.33229982030E+04  0.33171877299E+04 0.  0.
        3    1    3    3  502    0  0.14479087244E+04 -0.78773302797E+03  0.28284629499E+03  0.16724129377E+04  0.10100000352E+00 0. -1.
       -3    1    3    3    0  502 -0.14479087244E+04  0.78773302797E+03 -0.86421699852E+02  0.16505852653E+04  0.10100000352E+00 0.  1.
</event>
<event>
 5   0  0.1743810E-06  0.3297151E+04  0.7818609E-02  0.8163621E-01
        2   -1    0    0  501    0  0.00000000000E+00  0.00000000000E+00  0.24706140879E+04  0.24706140879E+04  0.25500000920E-02 0.  1.
       -2   -1    0    0    0  501  0.00000000000E+00  0.00000000000E+00 -0.11000508254E+04  0.11000508254E+04  0.25500000920E-02 0. -1.
    10030    2    1    2    0    0  0.00000000000E+00  0.00000000000E+00  0.13705632624E+04  0.35706649133E+04  0.32971509318E+04 0.  0.
        5    1    3    3  502    0  0.13525622742E+04  0.45981402054E+03  0.15762876817E+04  0.21273360299E+04  0.46999998093E+01 0.  1.
       -5    1    3    3    0  502 -0.13525622742E+04 -0.45981402054E+03 -0.20572441921E+03  0.14433288834E+04  0.46999998093E+01 0. -1.
</event>
<event>
 5   0  0.1728937E-06  0.3211373E+04  0.7818609E-02  0.8185820E-01
       -2   -1    0    0    0  501  0.00000000000E+00  0.00000000000E+00  0.18293437300E+04  0.18293437300E+04  0.25500000920E-02 0. -1.
        2   -1    0    0  501    0  0.00000000000E+00  0.00000000000E+00 -0.14093742437E+04  0.14093742437E+04  0.25500000920E-02 0.  1.
    10030    2    1    2    0    0  0.00000000000E+00  0.00000000000E+00  0.41996948626E+03  0.32387179737E+04  0.32113734980E+04 0.  0.
        1    1    3    3  502    0 -0.50361091267E+03  0.15246538639E+04  0.20388510773E+03  0.16185680378E+04  0.50400001928E-02 0.  1.
       -1    1    3    3    0  502  0.50361091267E+03 -0.15246538639E+04  0.21608437852E+03  0.16201499358E+04  0.50400001928E-02 0. -1.
</event>
<event>
 5   0  0.1728937E-06  0.3277419E+04  0.7818609E-02  0.8168665E-01
       -2   -1    0    0    0  501  0.00000000000E+00  0.00000000000E+00  0.12131315370E+04  0.12131315370E+04  0.25500000920E-02 0.  1.
        2   -1    0    0  501    0  0.00000000000E+00  0.00000000000E+00 -0.22135847327E+04  0.22135847327E+04  0.25500000920E-02 0. -1.
    10030    2    1    2    0    0  0.00000000000E+00  0.00000000000E+00 -0.10004531958E+04  0.34267162697E+04  0.32774193806E+04 0.  0.
        1    1    3    3  502    0  0.10050883640E+03  0.61839875749E+03  0.10829668679E+04  0.12511340002E+04  0.50400001928E-02 0.  1.
       -1    1    3    3    0  502 -0.10050883640E+03 -0.61839875749E+03 -0.20834200637E+04  0.21755822695E+04  0.50400001928E-02 0. -1.
</event>
<event>
 5   0  0.5985183E-07  0.3287217E+04  0.7818609E-02  0.8166156E-01
        1   -1    0    0  501    0  0.00000000000E+00  0.00000000000E+00  0.22026870588E+04  0.22026870588E+04  0.50400001928E-02 0.  1.
       -1   -1    0    0    0  501  0.00000000000E+00  0.00000000000E+00 -0.12264336657E+04  0.12264336657E+04  0.50400001928E-02 0. -1.
    10030    2    1    2    0    0  0.00000000000E+00  0.00000000000E+00  0.97625339312E+03  0.34291207246E+04  0.32872174032E+04 0.  0.
        2    1    3    3  502    0  0.53694649317E+02  0.36635491505E+03 -0.11823600800E+04  0.12389811935E+04  0.25500000920E-02 0. -1.
       -2    1    3    3    0  502 -0.53694649317E+02 -0.36635491505E+03  0.21586134731E+04  0.21901395310E+04  0.25500000920E-02 0.  1.
</event>
<event>
 5   0  0.5685000E-07  0.3279314E+04  0.7818609E-02  0.8168179E-01
        4   -1    0    0  501    0  0.00000000000E+00  0.00000000000E+00  0.10963800535E+04  0.10963807890E+04  0.12699999809E+01 0. -1.
       -4   -1    0    0    0  501  0.00000000000E+00  0.00000000000E+00 -0.24521355737E+04  0.24521359026E+04  0.12699999809E+01 0.  1.
    10030    2    1    2    0    0  0.00000000000E+00  0.00000000000E+00 -0.13557555203E+04  0.35485166916E+04  0.32793135989E+04 0.  0.
        5    1    3    3  502    0  0.17496824308E+02  0.16176871724E+04 -0.38907004040E+03  0.16639157169E+04  0.46999998093E+01 0.  1.
       -5    1    3    3    0  502 -0.17496824308E+02 -0.16176871724E+04 -0.96668547986E+03  0.18846009747E+04  0.46999998093E+01 0. -1.
</event>
<event>
 5   0  0.1784626E-06  0.3284815E+04  0.7818609E-02  0.8166770E-01
        2   -1    0    0  501    0  0.00000000000E+00  0.00000000000E+00  0.21494402119E+04  0.21494402119E+04  0.25500000920E-02 0.  1.
       -2   -1    0    0    0  501  0.00000000000E+00  0.00000000000E+00 -0.12549788208E+04  0.12549788208E+04  0.25500000920E-02 0. -1.
    10030    2    1    2    0    0  0.00000000000E+00  0.00000000000E+00  0.89446139109E+03  0.34044190327E+04  0.32848147239E+04 0.  0.
        2    1    3    3  502    0  0.73028544644E+03 -0.14613936569E+04  0.62223907164E+03  0.17481904118E+04  0.25500000920E-02 0. -1.
       -2    1    3    3    0  502 -0.73028544644E+03  0.14613936569E+04  0.27222231945E+03  0.16562286209E+04  0.25500000920E-02 0.  1.
</event>
<event>
 5   0  0.6023446E-07  0.3262424E+04  0.7818609E-02  0.8172523E-01
        1   -1    0    0  501    0  0.00000000000E+00  0.00000000000E+00  0.10198038193E+04  0.10198038193E+04  0.50400001928E-02 0.  1.
       -1   -1    0    0    0  501  0.00000000000E+00  0.00000000000E+00 -0.26091802552E+04  0.26091802552E+04  0.50400001928E-02 0. -1.
    10030    2    1    2    0    0  0.00000000000E+00  0.00000000000E+00 -0.15893764359E+04  0.36289840745E+04  0.32624236325E+04 0.  0.
        5    1    3    3  502    0 -0.50758601632E+03  0.13040372742E+04 -0.17271292557E+04  0.22228707413E+04  0.46999998093E+01 0. -1.
       -5    1    3    3    0  502  0.50758601632E+03 -0.13040372742E+04  0.13775281980E+03  0.14061133332E+04  0.46999998093E+01 0.  1.
</event>
<event>
 5   0  0.5988516E-07  0.3302295E+04  0.7818609E-02  0.8162312E-01
        1   -1    0    0  501    0  0.00000000000E+00  0.00000000000E+00  0.28347318837E+04  0.28347318837E+04  0.50400001928E-02 0. -1.
       -1   -1    0    0    0  501  0.00000000000E+00  0.00000000000E+00 -0.96174447311E+03  0.96174447313E+03  0.50400001928E-02 0.  1.
    10030    2    1    2    0    0  0.00000000000E+00  0.00000000000E+00  0.18729874106E+04  0.37964763568E+04  0.33022947911E+04 0.  0.
        4    1    3    3  502    0 -0.85788516966E+02  0.94356785206E+03  0.24911162014E+04  0.26652094670E+04  0.12699999809E+01 0. -1.
       -4    1    3    3    0  502  0.85788516966E+02 -0.94356785206E+03 -0.61812879083E+03  0.11312668898E+04  0.12699999809E+01 0.  1.
</event>
<event>
 5   0  0.5858859E-07  0.3282166E+04  0.7818609E-02  0.8167448E-01
        1   -1    0    0  501    0  0.00000000000E+00  0.00000000000E+00  0.20304259833E+04  0.20304259833E+04  0.50400001928E-02 0. -1.
       -1   -1    0    0    0  501  0.00000000000E+00  0.00000000000E+00 -0.13263983773E+04  0.13263983773E+04  0.50400001928E-02 0.  1.
    10030    2    1    2    0    0  0.00000000000E+00  0.00000000000E+00  0.70402760604E+03  0.33568243606E+04  0.32821661929E+04 0.  0.
        3    1    3    3  502    0 -0.47152955287E+03 -0.56076731408E+03  0.18538689300E+04  0.19933966287E+04  0.10100000352E+00 0. -1.
       -3    1    3    3    0  502  0.47152955287E+03  0.56076731408E+03 -0.11498413239E+04  0.13634277319E+04  0.10100000352E+00 0.  1.
</event>
<event>
 5   0  0.6023446E-07  0.3317390E+04  0.7818609E-02  0.8158485E-01
        1   -1    0    0  501    0  0.00000000000E+00  0.00000000000E+00  0.21073152049E+04  0.21073152049E+04  0.50400001928E-02 0. -1.
       -1   -1    0    0    0  501  0.00000000000E+00  0.00000000000E+00 -0.13055801314E+04  0.13055801314E+04  0.50400001928E-02 0.  1.
    10030    2    1    2    0    0  0.00000000000E+00  0.00000000000E+00  0.80173507342E+03  0.34128953363E+04  0.33173898548E+04 0.  0.
        5    1    3    3  502    0 -0.15637656703E+04  0.46528686874E+03  0.93275298520E+02  0.16341901093E+04  0.46999998093E+01 0.  1.
       -5    1    3    3    0  502  0.15637656703E+04 -0.46528686874E+03  0.70845977490E+03  0.17787052270E+04  0.46999998093E+01 0. -1.
</event>
<event>
 5   0  0.1784626E-06  0.3319529E+04  0.7818609E-02  0.8157944E-01
       -2   -1    0    0    0  501  0.00000000000E+00  0.00000000000E+00  0.16035533222E+04  0.16035533223E+04  0.25500000920E-02 0.  1.
        2   -1    0    0  501    0  0.00000000000E+00  0.00000000000E+00 -0.17179456482E+04  0.17179456482E+04  0.25500000920E-02 0. -1.
    10030    2    1    2    0    0  0.00000000000E+00  0.00000000000E+00 -0.11439232600E+03  0.33214989705E+04  0.33195285519E+04 0.  0.
        2    1    3    3  502    0  0.12332108843E+03  0.13893115779E+03  0.15931183264E+04  0.16039127032E+04  0.25500000920E-02 0.  1.
       -2    1    3    3    0  502 -0.12332108843E+03 -0.13893115779E+03 -0.17075106524E+04  0.17175862673E+04  0.25500000920E-02 0. -1.
</event>
<event>
 5   0  0.1784626E-06  0.3269111E+04  0.7818609E-02  0.8170800E-01
        2   -1    0    0  501    0  0.00000000000E+00  0.00000000000E+00  0.16145359491E+04  0.16145359491E+04  0.25500000920E-02 0. -1.
       -2   -1    0    0    0  501  0.00000000000E+00  0.00000000000E+00 -0.16548229923E+04  0.16548229923E+04  0.25500000920E-02 0.  1.
    10030    2    1    2    0    0  0.00000000000E+00  0.00000000000E+00 -0.40287043229E+02  0.32693589414E+04  0.32691107112E+04 0.  0.
        2    1    3    3  502    0  0.10888163330E+04 -0.10607396700E+04 -0.62108976987E+03  0.16420846984E+04  0.25500000920E-02 0.  1.
       -2    1    3    3    0  502 -0.10888163330E+04  0.10607396700E+04  0.58080272664E+03  0.16272742430E+04  0.25500000920E-02 0. -1.
</event>
<event>
 5   0  0.5988516E-07  0.3343693E+04  0.7818609E-02  0.8151866E-01
       -1   -1    0    0    0  501  0.00000000000E+00  0.00000000000E+00  0.12875969956E+04  0.12875969956E+04  0.50400001928E-02 0.  1.
        1   -1    0    0  501    0  0.00000000000E+00  0.00000000000E+00 -0.21707646986E+04  0.21707646986E+04  0.50400001928E-02 0. -1.
    10030    2    1    2    0    0  0.00000000000E+00  0.00000000000E+00 -0.88316770306E+03  0.34583616942E+04  0.33436926318E+04 0.  0.
        4    1    3    3  502    0  0.13490678722E+02  0.99072532355E+03 -0.18343713549E+04  0.20848593588E+04  0.12699999809E+01 0. -1.
       -4    1    3    3    0  502 -0.13490678722E+02 -0.99072532355E+03  0.95120365189E+03  0.13735023354E+04  0.12699999809E+01 0.  1.
</event>
<event>
 5   0  0.6085351E-07  0.3299106E+04  0.7818609E-02  0.8163123E-01
        1   -1    0    0  501    0  0.00000000000E+00  0.00000000000E+00  0.17366660711E+04  0.17366660711E+04  0.50400001928E-02 0.  1.
       -1   -1    0    0    0  501  0.00000000000E+00  0.00000000000E+00 -0.15668098241E+04  0.15668098241E+04  0.50400001928E-02 0. -1.
    10030    2    1    2    0    0  0.00000000000E+00  0.00000000000E+00  0.16985624703E+03  0.33034758952E+04  0.32991062192E+04 0.  0.
        1    1    3    3  502    0 -0.75681820651E+03 -0.31297437778E+03  0.15187110753E+04  0.17254593849E+04  0.50400001928E-02 0.  1.
       -1    1    3    3    0  502  0.75681820651E+03  0.31297437778E+03 -0.13488548283E+04  0.15780165102E+04  0.50400001928E-02 0. -1.
</event>
<event>
 5   0  0.6085351E-07  0.3176143E+04  0.7818609E-02  0.8195146E-01
        1   -1    0    0  501    0  0.00000000000E+00  0.00000000000E+00  0.13789853507E+04  0.13789853507E+04  0.50400001928E-02 0. -1.
       -1   -1    0    0    0  501  0.00000000000E+00  0.00000000000E+00 -0.18288599707E+04  0.18288599707E+04  0.50400001928E-02 0.  1.
    10030    2    1    2    0    0  0.00000000000E+00  0.00000000000E+00 -0.44987462002E+03  0.32078453215E+04  0.31761430120E+04 0.  0.
        1    1    3    3  502    0  0.91153125614E+03 -0.64205838255E+03 -0.13670842221E+04  0.17640996196E+04  0.50400001928E-02 0.  1.
       -1    1    3    3    0  502 -0.91153125614E+03  0.64205838255E+03  0.91720960207E+03  0.14437457019E+04  0.50400001928E-02 0. -1.
</event>
<event>
 5   0  0.6023446E-07  0.3270824E+04  0.7818609E-02  0.8170359E-01
       -1   -1    0    0    0  501  0.00000000000E+00  0.00000000000E+00  0.10079041926E+04  0.10079041926E+04  0.50400001928E-02 0. -1.
        1   -1    0    0  501    0  0.00000000000E+00  0.00000000000E+00 -0.26535985403E+04  0.26535985403E+04  0.50400001928E-02 0.  1.
    10030    2    1    2    0    0  0.00000000000E+00  0.00000000000E+00 -0.16456943477E+04  0.36615027328E+04  0.32708244185E+04 0.  0.
        5    1    3    3  502    0 -0.25318274039E+03  0.54580899521E+03 -0.25251897065E+04  0.25958840696E+04  0.46999998093E+01 0.  1.
       -5    1    3    3    0  502  0.25318274039E+03 -0.54580899521E+03  0.87949535878E+03  0.10656186632E+04  0.46999998093E+01 0. -1.
</event>
<event>
 5   0  0.1696681E-06  0.3308928E+04  0.7818609E-02  0.8160627E-01
       -2   -1    0    0    0  501  0.00000000000E+00  0.00000000000E+00  0.11320464908E+04  0.11320464908E+04  0.25500000920E-02 0.  1.
        2   -1    0    0  501    0  0.00000000000E+00  0.00000000000E+00 -0.24179675179E+04  0.24179675179E+04  0.25500000920E-02 0. -1.
    10030    2    1    2    0    0  0.00000000000E+00  0.00000000000E+00 -0.12859210272E+04  0.35500140087E+04  0.33089283120E+04 0.  0.
        4    1    3    3  502    0  0.13373059769E+04 -0.19115864978E+03 -0.16677073217E+04  0.21462008827E+04  0.12699999809E+01 0. -1.
       -4    1    3    3    0  502 -0.13373059769E+04  0.19115864978E+03  0.38178629452E+03  0.14038131260E+04  0.12699999809E+01 0.  1.
</event>
<event>
 5   0  0.1832626E-06  0.3295103E+04  0.7818609E-02  0.8164143E-01
        2   -1    0    0  501    0  0.00000000000E+00  0.00000000000E+00  0.18517922643E+04  0.18517922643E+04  0.25500000920E-02 0. -1.
       -2   -1    0    0    0  501  0.00000000000E+00  0.00000000000E+00 -0.14658369250E+04  0.14658369250E+04  0.25500000920E-02 0.  1.
    10030    2    1    2    0    0  0.00000000000E+00  0.00000000000E+00  0.38595533929E+03  0.33176291893E+04  0.32951027167E+04 0.  0.
        3    1    3    3  502    0  0.87027635351E+03  0.13686878216E+04 -0.98376108748E+02  0.16249200453E+04  0.10100000352E+00 0.  1.
       -3    1    3    3    0  502 -0.87027635351E+03 -0.13686878216E+04  0.48433144804E+03  0.16927091440E+04  0.10100000352E+00 0. -1.
</event>
<event>
 5   0  0.1728937E-06  0.3300519E+04  0.7818609E-02  0.8162763E-01
       -2   -1    0    0    0  501  0.00000000000E+00  0.00000000000E+00  0.10600464253E+04  0.10600464253E+04  0.25500000920E-02 0. -1.
        2   -1    0    0  501    0  0.00000000000E+00  0.00000000000E+00 -0.25690918513E+04  0.25690918513E+04  0.25500000920E-02 0.  1.
    10030    2    1    2    0    0  0.00000000000E+00  0.00000000000E+00 -0.15090454259E+04  0.36291382766E+04  0.33005191309E+04 0.  0.
        1    1    3    3  502    0  0.10528627365E+04  0.11922093354E+04 -0.12381737339E+04  0.20156778604E+04  0.50400001928E-02 0.  1.
       -1    1    3    3    0  502 -0.10528627365E+04 -0.11922093354E+04 -0.27087169199E+03  0.16134604163E+04  0.50400001928E-02 0. -1.
</event>
<event>
 5   0  0.1832626E-06  0.3191729E+04  0.7818609E-02  0.8191005E-01
       -2   -1    0    0    0  501  0.00000000000E+00  0.00000000000E+00  0.18680285565E+04  0.18680285565E+04  0.25500000920E-02 0.  1.
        2   -1    0    0  501    0  0.00000000000E+00  0.00000000000E+00 -0.13633538915E+04  0.13633538915E+04  0.25500000920E-02 0. -1.
    10030    2    1    2    0    0  0.00000000000E+00  0.00000000000E+00  0.50467466501E+03  0.32313824480E+04  0.31917293130E+04 0.  0.
        3    1    3    3  502    0 -0.84028899184E+03 -0.82405736526E+03 -0.83884121524E+03  0.14452718518E+04  0.10100000352E+00 0.  1.
       -3    1    3    3    0  502  0.84028899184E+03  0.82405736526E+03  0.13435158803E+04  0.17861105962E+04  0.10100000352E+00 0. -1.
</event>
<event>
 5   0  0.1743810E-06  0.3351145E+04  0.7818609E-02  0.8150002E-01
        2   -1    0    0  501    0  0.00000000000E+00  0.00000000000E+00  0.32790658001E+04  0.32790658001E+04  0.25500000920E-02 0. -1.
       -2   -1    0    0    0  501  0.00000000000E+00  0.00000000000E+00 -0.85620208190E+03  0.85620208190E+03  0.25500000920E-02 0.  1.
    10030    2    1    2    0    0  0.00000000000E+00  0.00000000000E+00  0.24228637182E+04  0.41352678820E+04  0.33511448580E+04 0.  0.
        5    1    3    3  502    0 -0.52950860459E+03 -0.97253696061E+03 -0.34030979738E+03  0.11584646521E+04  0.46999998093E+01 0.  1.
       -5    1    3    3    0  502  0.52950860459E+03  0.97253696061E+03  0.27631735156E+04  0.29768032299E+04  0.46999998093E+01 0. -1.
</event>
<event>
 5   0  0.5685000E-07  0.3322844E+04  0.7818609E-02  0.8157107E-01
       -4   -1    0    0    0  501  0.00000000000E+00  0.00000000000E+00  0.18120088619E+04  0.18120093070E+04  0.12699999809E+01 0. -1.
        4   -1    0    0  501    0  0.00000000000E+00  0.00000000000E+00 -0.15233485085E+04  0.15233490379E+04  0.12699999809E+01 0.  1.
    10030    2    1    2    0    0  0.00000000000E+00  0.00000000000E+00  0.28866035344E+03  0.33353583448E+04  0.33228437352E+04 0.  0.
        4    1    3    3  502    0 -0.76786828970E+03  0.10506408174E+04  0.11811061137E+04  0.17574074947E+04  0.12699999809E+01 0. -1.
       -4    1    3    3    0  502  0.76786828970E+03 -0.10506408174E+04 -0.89244576028E+03  0.15779508502E+04  0.12699999809E+01 0.  1.
</event>
<event>
 5   0  0.5858859E-07  0.3348725E+04  0.7818609E-02  0.8150607E-01
       -1   -1    0    0    0  501  0.00000000000E+00  0.00000000000E+00  0.12302590760E+04  0.12302590760E+04  0.50400001928E-02 0.  1.
        1   -1    0    0  501    0  0.00000000000E+00  0.00000000000E+00 -0.22787805036E+04  0.22787805036E+04  0.50400001928E-02 0. -1.
    10030    2    1    2    0    0  0.00000000000E+00  0.00000000000E+00 -0.10485214276E+04  0.35090395796E+04  0.33487253675E+04 0.  0.
        3    1    3    3  502    0 -0.13145627116E+04 -0.54001264924E+02 -0.16094542755E+04  0.20787819353E+04  0.10100000352E+00 0. -1.
       -3    1    3    3    0  502  0.13145627116E+04  0.54001264924E+02  0.56093284782E+03  0.14302576444E+04  0.10100000352E+00 0.  1.
</event>
<event>
 5   0  0.1728937E-06  0.3304425E+04  0.7818609E-02  0.8161770E-01
       -2   -1    0    0    0  501  0.00000000000E+00  0.00000000000E+00  0.11413824340E+04  0.11413824340E+04  0.25500000920E-02 0.  1.
        2   -1    0    0  501    0  0.00000000000E+00  0.00000000000E+00 -0.23916662249E+04  0.23916662249E+04  0.25500000920E-02 0. -1.
    10030    2    1    2    0    0  0.00000000000E+00  0.00000000000E+00 -0.12502837909E+04  0.35330486589E+04  0.33044248014E+04 0.  0.
        1    1    3    3  502    0  0.48678183281E+02 -0.10655704296E+04  0.72389777111E+03  0.12891229146E+04  0.50400001928E-02 0.  1.
       -1    1    3    3    0  502 -0.48678183281E+02  0.10655704296E+04 -0.19741815620E+04  0.22439257443E+04  0.50400001928E-02 0. -1.
</event>
<event>
 5   0  0.5858859E-07  0.3273868E+04  0.7818609E-02  0.8169577E-01
        1   -1    0    0  501    0  0.00000000000E+00  0.00000000000E+00  0.14748336422E+04  0.14748336423E+04  0.50400001928E-02 0. -1.
       -1   -1    0    0    0  501  0.00000000000E+00  0.00000000000E+00 -0.18168513720E+04  0.18168513720E+04  0.50400001928E-02 0.  1.
    10030    2    1    2    0    0  0.00000000000E+00  0.00000000000E+00 -0.34201772975E+03  0.32916850143E+04  0.32738683702E+04 0.  0.
        3    1    3    3  502    0  0.91591947968E+02  0.25552848783E+03 -0.17940644665E+04  0.18144837318E+04  0.10100000352E+00 0.  1.
       -3    1    3    3    0  502 -0.91591947968E+02 -0.25552848783E+03  0.14520467367E+04  0.14772012824E+04  0.10100000352E+00 0. -1.
</event>
<event>
 5   0  0.5985183E-07  0.3191447E+04  0.7818609E-02  0.8191080E-01
        1   -1    0    0  501    0  0.00000000000E+00  0.00000000000E+00  0.14315065221E+04  0.14315065221E+04  0.50400001928E-02 0.  1.
       -1   -1    0    0    0  501  0.00000000000E+00  0.00000000000E+00 -0.17787787869E+04  0.17787787869E+04  0.50400001928E-02 0. -1.
    10030    2    1    2    0    0  0.00000000000E+00  0.00000000000E+00 -0.34727226481E+03  0.32102853090E+04  0.31914469664E+04 0.  0.
        2    1    3    3  502    0 -0.14795075419E+04  0.95298080595E+00  0.42771367104E+03  0.15400917048E+04  0.25500000920E-02 0.  1.
       -2    1    3    3    0  502  0.14795075419E+04 -0.95298080595E+00 -0.77498593585E+03  0.16701936042E+04  0.25500000920E-02 0. -1.
</event>
<event>
 5   0  0.5988516E-07  0.3336606E+04  0.7818609E-02  0.8153643E-01
       -1   -1    0    0    0  501  0.00000000000E+00  0.00000000000E+00  0.16410033051E+04  0.16410033051E+04  0.50400001928E-02 0. -1.
        1   -1    0    0  501    0  0.00000000000E+00  0.00000000000E+00 -0.16960569940E+04  0.16960569940E+04  0.50400001928E-02 0.  1.
    10030    2    1    2    0    0  0.00000000000E+00  0.00000000000E+00 -0.55053688916E+02  0.33370602991E+04  0.33366061396E+04 0.  0.
        4    1    3    3  502    0 -0.35219252936E+03  0.10243898485E+04 -0.12964861223E+04  0.16894650093E+04  0.12699999809E+01 0.  1.
       -4    1    3    3    0  502  0.35219252936E+03 -0.10243898485E+04  0.12414324334E+04  0.16475952898E+04  0.12699999809E+01 0. -1.
</event>
<event>
 5   0  0.1696681E-06  0.3122499E+04  0.7818609E-02  0.8209590E-01
       -2   -1    0    0    0  501  0.00000000000E+00  0.00000000000E+00  0.12658380298E+04  0.12658380298E+04  0.25500000920E-02 0.  1.
        2   -1    0    0  501    0  0.00000000000E+00  0.00000000000E+00 -0.19256012015E+04  0.19256012015E+04  0.25500000920E-02 0. -1.
    10030    2    1    2    0    0  0.00000000000E+00  0.00000000000E+00 -0.65976317168E+03  0.31914392313E+04  0.31224985068E+04 0.  0.
        4    1    3    3  502    0  0.12995114364E+04 -0.66917973905E+03 -0.89059784041E+03  0.17116359492E+04  0.12699999809E+01 0.  1.
       -4    1    3    3    0  502 -0.12995114364E+04  0.66917973905E+03  0.23083466873E+03  0.14798032821E+04  0.12699999809E+01 0. -1.
</event>
<event>
 5   0  0.6023446E-07  0.3062130E+04  0.7818609E-02  0.8226209E-01
       -1   -1    0    0    0  501  0.00000000000E+00  0.00000000000E+00  0.12171164442E+04  0.12171164442E+04  0.50400001928E-02 0.  1.
        1   -1    0    0  501    0  0.00000000000E+00  0.00000000000E+00 -0.19259946278E+04  0.19259946279E+04  0.50400001928E-02 0. -1.
    10030    2    1    2    0    0  0.00000000000E+00  0.00000000000E+00 -0.70887818363E+03  0.31431110721E+04  0.30621298033E+04 0.  0.
        5    1    3    3  502    0  0.84411341045E+03  0.11988331041E+04  0.98140265871E+02  0.14694835361E+04  0.46999998093E+01 0.  1.
       -5    1    3    3    0  502 -0.84411341045E+03 -0.11988331041E+04 -0.80701844950E+03  0.16736275359E+04  0.46999998093E+01 0. -1.
</event>
<event>
 5   0  0.6023446E-07  0.3317805E+04  0.7818609E-02  0.8158380E-01
        1   -1    0    0  501    0  0.00000000000E+00  0.00000000000E+00  0.16173774993E+04  0.16173774993E+04  0.50400001928E-02 0.  1.
       -1   -1    0    0    0  501  0.00000000000E+00  0.00000000000E+00 -0.17014935868E+04  0.17014935868E+04  0.50400001928E-02 0. -1.
    10030    2    1    2    0    0  0.00000000000E+00  0.00000000000E+00 -0.84116087421E+02  0.33188710861E+04  0.33178049626E+04 0.  0.
        5    1    3    3  502    0  0.80199360804E+03 -0.65995264401E+03 -0.13359976096E+04  0.16922301683E+04  0.46999998093E+01 0. -1.
       -5    1    3    3    0  502 -0.80199360804E+03  0.65995264401E+03  0.12518815222E+04  0.16266409178E+04  0.46999998093E+01 0.  1.
</event>
<event>
 5   0  0.6023446E-07  0.3288856E+04  0.7818609E-02  0.8165737E-01
        1   -1    0    0  501    0  0.00000000000E+00  0.00000000000E+00  0.13433687169E+04  0.13433687169E+04  0.50400001928E-02 0.  1.
       -1   -1    0    0    0  501  0.00000000000E+00  0.00000000000E+00 -0.20129566061E+04  0.20129566061E+04  0.50400001928E-02 0. -1.
    10030    2    1    2    0    0  0.00000000000E+00  0.00000000000E+00 -0.66958788922E+03  0.33563253230E+04  0.32888556873E+04 0.  0.
        5    1    3    3  502    0 -0.55350468842E+03 -0.75912267348E+03  0.10425175477E+04  0.14033886136E+04  0.46999998093E+01 0.  1.
       -5    1    3    3    0  502  0.55350468842E+03  0.75912267348E+03 -0.17121054370E+04  0.19529367093E+04  0.46999998093E+01 0. -1.
</event>
<event>
 5   0  0.1743810E-06  0.3314864E+04  0.7818609E-02  0.8159123E-01
       -2   -1    0    0    0  501  0.00000000000E+00  0.00000000000E+00  0.15721602914E+04  0.15721602914E+04  0.25500000920E-02 0.  1.
        2   -1    0    0  501    0  0.00000000000E+00  0.00000000000E+00 -0.17473288875E+04  0.17473288875E+04  0.25500000920E-02 0. -1.
    10030    2    1    2    0    0  0.00000000000E+00  0.00000000000E+00 -0.17516859615E+03  0.33194891789E+04  0.33148641558E+04 0.  0.
        5    1    3    3  502    0 -0.66074267808E+03 -0.84895806749E+03  0.11750271084E+04  0.15931169080E+04  0.46999998093E+01 0.  1.
       -5    1    3    3    0  502  0.66074267808E+03  0.84895806749E+03 -0.13501957046E+04  0.17263722709E+04  0.46999998093E+01 0. -1.
</event>
<event>
 5   0  0.1728937E-06  0.3308623E+04  0.7818609E-02  0.8160705E-01
        2   -1    0    0  501    0  0.00000000000E+00  0.00000000000E+00  0.16396956164E+04  0.16396956164E+04  0.25500000920E-02 0.  1.
       -2   -1    0    0    0  501  0.00000000000E+00  0.00000000000E+00 -0.16690581702E+04  0.16690581702E+04  0.25500000920E-02 0. -1.
    10030    2    1    2    0    0  0.00000000000E+00  0.00000000000E+00 -0.29362553803E+02  0.33087537867E+04  0.33086234995E+04 0.  0.
        1    1    3    3  502    0 -0.96969418038E+03 -0.28867217460E+03  0.12942281386E+04  0.16427613651E+04  0.50400001928E-02 0.  1.
       -1    1    3    3    0  502  0.96969418038E+03  0.28867217460E+03 -0.13235906924E+04  0.16659924216E+04  0.50400001928E-02 0. -1.
</event>
<event>
 5   0  0.5985183E-07  0.3308825E+04  0.7818609E-02  0.8160654E-01
       -1   -1    0    0    0  501  0.00000000000E+00  0.00000000000E+00  0.19610125509E+04  0.19610125509E+04  0.50400001928E-02 0.  1.
        1   -1    0    0  501    0  0.00000000000E+00  0.00000000000E+00 -0.13957486331E+04  0.13957486331E+04  0.50400001928E-02 0. -1.
    10030    2    1    2    0    0  0.00000000000E+00  0.00000000000E+00  0.56526391782E+03  0.33567611840E+04  0.33088249197E+04 0.  0.
        2    1    3    3  502    0 -0.11828890496E+04 -0.90860778875E+03  0.10087427442E+04  0.18006544759E+04  0.25500000920E-02 0.  1.
       -2    1    3    3    0  502  0.11828890496E+04  0.90860778875E+03 -0.44347882634E+03  0.15561067081E+04  0.25500000920E-02 0. -1.
</event>
<event>
 5   0  0.1743810E-06  0.3306697E+04  0.7818609E-02  0.8161194E-01
       -2   -1    0    0    0  501  0.00000000000E+00  0.00000000000E+00  0.11426528370E+04  0.11426528370E+04  0.25500000920E-02 0.  1.
        2   -1    0    0  501    0  0.00000000000E+00  0.00000000000E+00 -0.23922930644E+04  0.23922930644E+04  0.25500000920E-02 0. -1.
    10030    2    1    2    0    0  0.00000000000E+00  0.00000000000E+00 -0.12496402274E+04  0.35349459014E+04  0.33066965128E+04 0.  0.
        5    1    3    3  502    0  0.61548011052E+03  0.71836391423E+03 -0.20743962297E+04  0.22799132193E+04  0.46999998093E+01 0. -1.
       -5    1    3    3    0  502 -0.61548011052E+03 -0.71836391423E+03  0.82475600230E+03  0.12550326821E+04  0.46999998093E+01 0.  1.
</event>
<event>
 5   0  0.1728937E-06  0.3315813E+04  0.7818609E-02  0.8158883E-01
        2   -1    0    0  501    0  0.00000000000E+00  0.00000000000E+00  0.17394942125E+04  0.17394942125E+04  0.25500000920E-02 0. -1.
       -2   -1    0    0    0  501  0.00000000000E+00  0.00000000000E+00 -0.15801458094E+04  0.15801458094E+04  0.25500000920E-02 0.  1.
    10030    2    1    2    0    0  0.00000000000E+00  0.00000000000E+00  0.15934840312E+03  0.33196400219E+04  0.33158133182E+04 0.  0.
        1    1    3    3  502    0  0.15703477138E+04 -0.52898754313E+03  0.13297780378E+03  0.16623786751E+04  0.50400001928E-02 0.  1.
       -1    1    3    3    0  502 -0.15703477138E+04  0.52898754313E+03  0.26370599334E+02  0.16572613468E+04  0.50400001928E-02 0. -1.
</event>
<event>
 5   0  0.1728937E-06  0.3284491E+04  0.7818609E-02  0.8166853E-01
        2   -1    0    0  501    0  0.00000000000E+00  0.00000000000E+00  0.23345458329E+04  0.23345458329E+04  0.25500000920E-02 0. -1.
       -2   -1    0    0    0  501  0.00000000000E+00  0.00000000000E+00 -0.11552444369E+04  0.11552444369E+04  0.25500000920E-02 0.  1.
    10030    2    1    2    0    0  0.00000000000E+00  0.00000000000E+00  0.11793013960E+04  0.34897902698E+04  0.32844914895E+04 0.  0.
        1    1    3    3  502    0  0.10907516930E+03 -0.72963481482E+03 -0.96926855549E+03  0.12180910837E+04  0.50400001928E-02 0.  1.
       -1    1    3    3    0  502 -0.10907516930E+03  0.72963481482E+03  0.21485699515E+04  0.22716991861E+04  0.50400001928E-02 0. -1.
</event>
<event>
 5   0  0.1832626E-06  0.3310383E+04  0.7818609E-02  0.8160258E-01
        2   -1    0    0  501    0  0.00000000000E+00  0.00000000000E+00  0.28553389378E+04  0.28553389378E+04  0.25500000920E-02 0.  1.
       -2   -1    0    0    0  501  0.00000000000E+00  0.00000000000E+00 -0.95948644344E+03  0.95948644344E+03  0.25500000920E-02 0. -1.
    10030    2    1    2    0    0  0.00000000000E+00  0.00000000000E+00  0.18958524944E+04  0.38148253813E+04  0.33103830608E+04 0.  0.
        3    1    3    3  502    0  0.73164823647E+03 -0.12664779710E+03 -0.75678510529E+03  0.10602228597E+04  0.10100000352E+00 0. -1.
       -3    1    3    3    0  502 -0.73164823647E+03  0.12664779710E+03  0.26526375997E+04  0.27546025216E+04  0.10100000352E+00 0.  1.
</event>
<event>
 5   0  0.5988516E-07  0.3280416E+04  0.7818609E-02  0.8167896E-01
        1   -1    0    0  501    0  0.00000000000E+00  0.00000000000E+00  0.24426243513E+04  0.24426243513E+04  0.50400001928E-02 0. -1.
       -1   -1    0    0    0  501  0.00000000000E+00  0.00000000000E+00 -0.11013903611E+04  0.11013903612E+04  0.50400001928E-02 0.  1.
    10030    2    1    2    0    0  0.00000000000E+00  0.00000000000E+00  0.13412339901E+04  0.35440147124E+04  0.32804163860E+04 0.  0.
        4    1    3    3  502    0  0.85109373854E+03  0.90519153974E+03 -0.48619520140E+03  0.13342112510E+04  0.12699999809E+01 0.  1.
       -4    1    3    3    0  502 -0.85109373854E+03 -0.90519153974E+03  0.18274291915E+04  0.22098034615E+04  0.12699999809E+01 0. -1.
</event>
<event>
 5   0  0.5988516E-07  0.3357223E+04  0.7818609E-02  0.8148486E-01
        1   -1    0    0  501    0  0.00000000000E+00  0.00000000000E+00  0.14568395448E+04  0.14568395448E+04  0.50400001928E-02 0.  1.
       -1   -1    0    0    0  501  0.00000000000E+00  0.00000000000E+00 -0.19341434684E+04  0.19341434684E+04  0.50400001928E-02 0. -1.
    10030    2    1    2    0    0  0.00000000000E+00  0.00000000000E+00 -0.47730392356E+03  0.33909830132E+04  0.33572230728E+04 0.  0.
        4    1    3    3  502    0 -0.54095921405E+03 -0.76337846865E+02  0.13645300684E+04  0.14698327315E+04  0.12699999809E+01 0.  1.
       -4    1    3    3    0  502  0.54095921405E+03  0.76337846865E+02 -0.18418339920E+04  0.19211502817E+04  0.12699999809E+01 0. -1.
</event>
<event>
 5   0  0.6085351E-07  0.3236693E+04  0.7818609E-02  0.8179193E-01
        1   -1    0    0  501    0  0.00000000000E+00  0.00000000000E+00  0.17408085103E+04  0.17408085103E+04  0.50400001928E-02 0.  1.
       -1   -1    0    0    0  501  0.00000000000E+00  0.00000000000E+00 -0.15044998681E+04  0.15044998681E+04  0.50400001928E-02 0. -1.
    10030    2    1    2    0    0  0.00000000000E+00  0.00000000000E+00  0.23630864215E+03  0.32453083784E+04  0.32366934820E+04 0.  0.
        1    1    3    3  502    0  0.11985645782E+04 -0.59620942859E+03 -0.79367448469E+03  0.15562589497E+04  0.50400001928E-02 0. -1.
       -1    1    3    3    0  502 -0.11985645782E+04  0.59620942859E+03  0.10299831268E+04  0.16890494287E+04  0.50400001928E-02 0.  1.
</event>
<event>
 5   0  0.1743810E-06  0.3302252E+04  0.7818609E-02  0.8162323E-01
        2   -1    0    0  501    0  0.00000000000E+00  0.00000000000E+00  0.82773161525E+03  0.82773161526E+03  0.25500000920E-02 0. -1.
       -2   -1    0    0    0  501  0.00000000000E+00  0.00000000000E+00 -0.32936008017E+04  0.32936008017E+04  0.25500000920E-02 0.  1.
    10030    2    1    2    0    0  0.00000000000E+00  0.00000000000E+00 -0.24658691864E+04  0.41213324170E+04  0.33022522687E+04 0.  0.
        5    1    3    3  502    0 -0.10018078457E+04 -0.64824545990E+03 -0.26572034223E+04  0.29128325138E+04  0.46999998093E+01 0.  1.
       -5    1    3    3    0  502  0.10018078457E+04  0.64824545990E+03  0.19133423587E+03  0.12084999031E+04  0.46999998093E+01 0. -1.
</event>
<event>
 5   0  0.5858859E-07  0.3230056E+04  0.7818609E-02  0.8180924E-01
        1   -1    0    0  501    0  0.00000000000E+00  0.00000000000E+00  0.18325155565E+04  0.18325155565E+04  0.50400001928E-02 0.  1.
       -1   -1    0    0    0  501  0.00000000000E+00  0.00000000000E+00 -0.14233524054E+04  0.14233524054E+04  0.50400001928E-02 0. -1.
    10030    2    1    2    0    0  0.00000000000E+00  0.00000000000E+00  0.40916315106E+03  0.32558679619E+04  0.32300559904E+04 0.  0.
        3    1    3    3  502    0 -0.13706722777E+04 -0.22479292874E+03  0.10352061046E+04  0.17323181125E+04  0.10100000352E+00 0.  1.
       -3    1    3    3    0  502  0.13706722777E+04  0.22479292874E+03 -0.62604295351E+03  0.15235498494E+04  0.10100000352E+00 0. -1.
</event>
<event>
 5   0  0.1743810E-06  0.3249935E+04  0.7818609E-02  0.8175753E-01
       -2   -1    0    0    0  501  0.00000000000E+00  0.00000000000E+00  0.10989781486E+04  0.10989781486E+04  0.25500000920E-02 0.  1.
        2   -1    0    0  501    0  0.00000000000E+00  0.00000000000E+00 -0.24027038460E+04  0.24027038460E+04  0.25500000920E-02 0. -1.
    10030    2    1    2    0    0  0.00000000000E+00  0.00000000000E+00 -0.13037256974E+04  0.35016819946E+04  0.32499347836E+04 0.  0.
        5    1    3    3  502    0  0.78883930088E+02  0.16966934035E+03 -0.23910506350E+04  0.23983651909E+04  0.46999998093E+01 0. -1.
       -5    1    3    3    0  502 -0.78883930088E+02 -0.16966934035E+03  0.10873249376E+04  0.11033168038E+04  0.46999998093E+01 0.  1.
</event>
<event>
 5   0  0.1728937E-06  0.2843049E+04  0.7818609E-02  0.8290027E-01
        2   -1    0    0  501    0  0.00000000000E+00  0.00000000000E+00  0.11769204865E+04  0.11769204865E+04  0.25500000920E-02 0.  1.
       -2   -1    0    0    0  501  0.00000000000E+00  0.00000000000E+00 -0.17169656817E+04  0.17169656817E+04  0.25500000920E-02 0. -1.
    10030    2    1    2    0    0  0.00000000000E+00  0.00000000000E+00 -0.54004519514E+03  0.28938861682E+04  0.28430491276E+04 0.  0.
        1    1    3    3  502    0  0.13783643283E+04 -0.34762552755E+03 -0.27063035227E+03  0.14470565008E+04  0.50400001928E-02 0. -1.
       -1    1    3    3    0  502 -0.13783643283E+04  0.34762552755E+03 -0.26941484286E+03  0.14468296674E+04  0.50400001928E-02 0.  1.
</event>
<event>
 5   0  0.1696681E-06  0.3271287E+04  0.7818609E-02  0.8170240E-01
        2   -1    0    0  501    0  0.00000000000E+00  0.00000000000E+00  0.23892193142E+04  0.23892193142E+04  0.25500000920E-02 0.  1.
       -2   -1    0    0    0  501  0.00000000000E+00  0.00000000000E+00 -0.11197507389E+04  0.11197507389E+04  0.25500000920E-02 0. -1.
    10030    2    1    2    0    0  0.00000000000E+00  0.00000000000E+00  0.12694685753E+04  0.35089700531E+04  0.32712872649E+04 0.  0.
        4    1    3    3  502    0  0.23954151343E+03 -0.15524913464E+04  0.11236106633E+04  0.19313498007E+04  0.12699999809E+01 0.  1.
       -4    1    3    3    0  502 -0.23954151343E+03  0.15524913464E+04  0.14585791204E+03  0.15776202524E+04  0.12699999809E+01 0. -1.
</event>
<event>
 5   0  0.1743810E-06  0.3291323E+04  0.7818609E-02  0.8165107E-01
        2   -1    0    0  501    0  0.00000000000E+00  0.00000000000E+00  0.21599069164E+04  0.21599069164E+04  0.25500000920E-02 0. -1.
       -2   -1    0    0    0  501  0.00000000000E+00  0.00000000000E+00 -0.12538513666E+04  0.12538513666E+04  0.25500000920E-02 0.  1.
    10030    2    1    2    0    0  0.00000000000E+00  0.00000000000E+00  0.90605554979E+03  0.34137582831E+04  0.32913232834E+04 0.  0.
        5    1    3    3  502    0 -0.33272177846E+03 -0.32781309312E+03 -0.11836500624E+04  0.12724836997E+04  0.46999998093E+01 0.  1.
       -5    1    3    3    0  502  0.33272177846E+03  0.32781309312E+03  0.20897056121E+04  0.21412745834E+04  0.46999998093E+01 0. -1.
</event>
<event>
 5   0  0.5988516E-07  0.3307966E+04  0.7818609E-02  0.8160872E-01
        1   -1    0    0  501    0  0.00000000000E+00  0.00000000000E+00  0.26737274949E+04  0.26737274949E+04  0.50400001928E-02 0. -1.
       -1   -1    0    0    0  501  0.00000000000E+00  0.00000000000E+00 -0.10231629829E+04  0.10231629829E+04  0.50400001928E-02 0.  1.
    10030    2    1    2    0    0  0.00000000000E+00  0.00000000000E+00  0.16505645119E+04  0.36968904778E+04  0.33079655374E+04 0.  0.
        4    1    3    3  502    0 -0.11990318922E+04  0.11587318566E+03  0.20919178116E+04  0.24139647505E+04  0.12699999809E+01 0. -1.
       -4    1    3    3    0  502  0.11990318922E+04 -0.11587318566E+03 -0.44135329962E+03  0.12829257273E+04  0.12699999809E+01 0.  1.
</event>
<event>
 5   0  0.1728937E-06  0.3308633E+04  0.7818609E-02  0.8160702E-01
       -2   -1    0    0    0  501  0.00000000000E+00  0.00000000000E+00  0.18761926446E+04  0.18761926447E+04  0.25500000920E-02 0. -1.
        2   -1    0    0  501    0  0.00000000000E+00  0.00000000000E+00 -0.14586794576E+04  0.14586794576E+04  0.25500000920E-02 0.  1.
    10030    2    1    2    0    0  0.00000000000E+00  0.00000000000E+00  0.41751318702E+03  0.33348721023E+04  0.33086333549E+04 0.  0.
        1    1    3    3  502    0  0.24831733998E+03  0.93419213239E+03  0.15619335380E+04  0.18368486107E+04  0.50400001928E-02 0. -1.
       -1    1    3    3    0  502 -0.24831733998E+03 -0.93419213239E+03 -0.11444203510E+04  0.14980234916E+04  0.50400001928E-02 0.  1.
</event>
<event>
 5   0  0.5988516E-07  0.2936450E+04  0.7818609E-02  0.8262114E-01
        1   -1    0    0  501    0  0.00000000000E+00  0.00000000000E+00  0.11037745750E+04  0.11037745750E+04  0.50400001928E-02 0. -1.
       -1   -1    0    0    0  501  0.00000000000E+00  0.00000000000E+00 -0.19530119390E+04  0.19530119390E+04  0.50400001928E-02 0.  1.
    10030    2    1    2    0    0  0.00000000000E+00  0.00000000000E+00 -0.84923736394E+03  0.30567865140E+04  0.29364501855E+04 0.  0.
        4    1    3    3  502    0 -0.10054891597E+03  0.89963619867E+03  0.77870577714E+03  0.11940852879E+04  0.12699999809E+01 0. -1.
       -4    1    3    3    0  502  0.10054891597E+03 -0.89963619867E+03 -0.16279431411E+04  0.18627012262E+04  0.12699999809E+01 0.  1.
</event>
<event>
 5   0  0.5985183E-07  0.3292672E+04  0.7818609E-02  0.8164762E-01
        1   -1    0    0  501    0  0.00000000000E+00  0.00000000000E+00  0.22014108393E+04  0.22014108393E+04  0.50400001928E-02 0. -1.
       -1   -1    0    0    0  501  0.00000000000E+00  0.00000000000E+00 -0.12312206039E+04  0.12312206039E+04  0.50400001928E-02 0.  1.
    10030    2    1    2    0    0  0.00000000000E+00  0.00000000000E+00  0.97019023542E+03  0.34326314432E+04  0.32926720960E+04 0.  0.
        2    1    3    3  502    0 -0.13858445328E+04  0.36973918377E+03 -0.35743462620E+03  0.14781852540E+04  0.25500000920E-02 0.  1.
       -2    1    3    3    0  502  0.13858445328E+04 -0.36973918377E+03  0.13276248616E+04  0.19544461892E+04  0.25500000920E-02 0. -1.
</event>
<event>
 5   0  0.5985183E-07  0.3332164E+04  0.7818609E-02  0.8154759E-01
       -1   -1    0    0    0  501  0.00000000000E+00  0.00000000000E+00  0.15225309386E+04  0.15225309386E+04  0.50400001928E-02 0. -1.
        1   -1    0    0  501    0  0.00000000000E+00  0.00000000000E+00 -0.18231678324E+04  0.18231678324E+04  0.50400001928E-02 0.  1.
    10030    2    1    2    0    0  0.00000000000E+00  0.00000000000E+00 -0.30063689380E+03  0.33456987710E+04  0.33321641203E+04 0.  0.
        2    1    3    3  502    0  0.73264758199E+03  0.13831559154E+04  0.42290911256E+03  0.16213404588E+04  0.25500000920E-02 0. -1.
       -2    1    3    3    0  502 -0.73264758199E+03 -0.13831559154E+04 -0.72354600636E+03  0.17243583123E+04  0.25500000920E-02 0.  1.
</event>
<event>
 5   0  0.6085351E-07  0.3301562E+04  0.7818609E-02  0.8162498E-01
       -1   -1    0    0    0  501  0.00000000000E+00  0.00000000000E+00  0.88636627550E+03  0.88636627551E+03  0.50400001928E-02 0. -1.
        1   -1    0    0  501    0  0.00000000000E+00  0.00000000000E+00 -0.30744385178E+04  0.30744385178E+04  0.50400001928E-02 0.  1.
    10030    2    1    2    0    0  0.00000000000E+00  0.00000000000E+00 -0.21880722423E+04  0.39608047933E+04  0.33015624291E+04 0.  0.
        1    1    3    3  502    0 -0.41119945979E+03 -0.55106986086E+03  0.70640345422E+03  0.98578335725E+03  0.50400001928E-02 0. -1.
       -1    1    3    3    0  502  0.41119945979E+03  0.55106986086E+03 -0.28944756965E+04  0.29750214360E+04  0.50400001928E-02 0.  1.
</event>
<event>
 5   0  0.5988516E-07  0.3304759E+04  0.7818609E-02  0.8161686E-01
        1   -1    0    0  501    0  0.00000000000E+00  0.00000000000E+00  0.11259699298E+04  0.11259699298E+04  0.50400001928E-02 0.  1.
       -1   -1    0    0    0  501  0.00000000000E+00  0.00000000000E+00 -0.24248940596E+04  0.24248940596E+04  0.50400001928E-02 0. -1.
    10030    2    1    2    0    0  0.00000000000E+00  0.00000000000E+00 -0.12989241298E+04  0.35508639894E+04  0.33047588681E+04 0.  0.
        4    1    3    3  502    0  0.14812257932E+04  0.69025154062E+03 -0.91238716222E+03  0.18716113342E+04  0.12699999809E+01 0. -1.
       -4    1    3    3    0  502 -0.14812257932E+04 -0.69025154062E+03 -0.38653696759E+03  0.16792526552E+04  0.12699999809E+01 0.  1.
</event>
<event>
 5   0  0.1696681E-06  0.3443408E+04  0.7818609E-02  0.8127334E-01
       -2   -1    0    0    0  501  0.00000000000E+00  0.00000000000E+00  0.19422851489E+04  0.19422851489E+04  0.25500000920E-02 0.  1.
        2   -1    0    0  501    0  0.00000000000E+00  0.00000000000E+00 -0.15261737854E+04  0.15261737854E+04  0.25500000920E-02 0. -1.
    10030    2    1    2    0    0  0.00000000000E+00  0.00000000000E+00  0.41611136342E+03  0.34684589343E+04  0.34434080084E+04 0.  0.
        4    1    3    3  502    0 -0.74395796196E+03 -0.33622440215E+02 -0.13555451010E+04  0.15466441257E+04  0.12699999809E+01 0. -1.
       -4    1    3    3    0  502  0.74395796196E+03  0.33622440215E+02  0.17716564645E+04  0.19218148086E+04  0.12699999809E+01 0.  1.
</event>
<event>
 5   0  0.1696681E-06  0.3389434E+04  0.7818609E-02  0.8140504E-01
        2   -1    0    0  501    0  0.00000000000E+00  0.00000000000E+00  0.24363131844E+04  0.24363131844E+04  0.25500000920E-02 0. -1.
       -2   -1    0    0    0  501  0.00000000000E+00  0.00000000000E+00 -0.11788574321E+04  0.11788574321E+04  0.25500000920E-02 0.  1.
    10030    2    1    2    0    0  0.00000000000E+00  0.00000000000E+00  0.12574557523E+04  0.36151706165E+04  0.33894341146E+04 0.  0.
        4    1    3    3  502    0  0.15187630570E+04 -0.12567314563E+03  0.14194730529E+04  0.20826282251E+04  0.12699999809E+01 0. -1.
       -4    1    3    3    0  502 -0.15187630570E+04  0.12567314563E+03 -0.16201730062E+03  0.15325423914E+04  0.12699999809E+01 0.  1.
</event>
<event>
 5   0  0.6023446E-07  0.3273391E+04  0.7818609E-02  0.8169699E-01
       -1   -1    0    0    0  501  0.00000000000E+00  0.00000000000E+00  0.17238121399E+04  0.17238121400E+04  0.50400001928E-02 0. -1.
        1   -1    0    0  501    0  0.00000000000E+00  0.00000000000E+00 -0.15539813645E+04  0.15539813645E+04  0.50400001928E-02 0.  1.
    10030    2    1    2    0    0  0.00000000000E+00  0.00000000000E+00  0.16983077550E+03  0.32777935044E+04  0.32733908666E+04 0.  0.
        5    1    3    3  502    0  0.36619081560E+02 -0.14359744291E+04  0.87043611191E+03  0.16795965686E+04  0.46999998093E+01 0. -1.
       -5    1    3    3    0  502 -0.36619081560E+02  0.14359744291E+04 -0.70060533641E+03  0.15981969358E+04  0.46999998093E+01 0.  1.
</event>
<event>
 5   0  0.1784626E-06  0.3304112E+04  0.7818609E-02  0.8161850E-01
        2   -1    0    0  501    0  0.00000000000E+00  0.00000000000E+00  0.16045605744E+04  0.16045605744E+04  0.25500000920E-02 0.  1.
       -2   -1    0    0    0  501  0.00000000000E+00  0.00000000000E+00 -0.17009574938E+04  0.17009574938E+04  0.25500000920E-02 0. -1.
    10030    2    1    2    0    0  0.00000000000E+00  0.00000000000E+00 -0.96396919413E+02  0.33055180681E+04  0.33041121852E+04 0.  0.
        2    1    3    3  502    0  0.49445882990E+03 -0.14795432927E+03 -0.16182321128E+04  0.16985450211E+04  0.25500000920E-02 0. -1.
       -2    1    3    3    0  502 -0.49445882990E+03  0.14795432927E+03  0.15218351934E+04  0.16069730470E+04  0.25500000920E-02 0.  1.
</event>
<event>
 5   0  0.6023446E-07  0.3328317E+04  0.7818609E-02  0.8155727E-01
       -1   -1    0    0    0  501  0.00000000000E+00  0.00000000000E+00  0.16599526831E+04  0.16599526831E+04  0.50400001928E-02 0. -1.
        1   -1    0    0  501    0  0.00000000000E+00  0.00000000000E+00 -0.16683746418E+04  0.16683746418E+04  0.50400001928E-02 0.  1.
    10030    2    1    2    0    0  0.00000000000E+00  0.00000000000E+00 -0.84219586652E+01  0.33283273249E+04  0.33283166694E+04 0.  0.
        5    1    3    3  502    0  0.55311348698E+03 -0.15508923227E+04 -0.24545715958E+03  0.16647741088E+04  0.46999998093E+01 0.  1.
       -5    1    3    3    0  502 -0.55311348698E+03  0.15508923227E+04  0.23703520092E+03  0.16635532161E+04  0.46999998093E+01 0. -1.
</event>
<event>
 5   0  0.1728937E-06  0.3176425E+04  0.7818609E-02  0.8195071E-01
        2   -1    0    0  501    0  0.00000000000E+00  0.00000000000E+00  0.21364233051E+04  0.21364233051E+04  0.25500000920E-02 0. -1.
       -2   -1    0    0    0  501  0.00000000000E+00  0.00000000000E+00 -0.11806740403E+04  0.11806740403E+04  0.25500000920E-02 0.  1.
    10030    2    1    2    0    0  0.00000000000E+00  0.00000000000E+00  0.95574926480E+03  0.33170973453E+04  0.31764253716E+04 0.  0.
        1    1    3    3  502    0 -0.96858125094E+01  0.15834517808E+04  0.60579939296E+03  0.16954074028E+04  0.50400001928E-02 0. -1.
       -1    1    3    3    0  502  0.96858125094E+01 -0.15834517808E+04  0.34994987184E+03  0.16216899425E+04  0.50400001928E-02 0.  1.
</event>
<event>
 5   0  0.1696681E-06  0.3219178E+04  0.7818609E-02  0.8183771E-01
       -2   -1    0    0    0  501  0.00000000000E+00  0.00000000000E+00  0.12768750942E+04  0.12768750942E+04  0.25500000920E-02 0. -1.
        2   -1    0    0  501    0  0.00000000000E+00  0.00000000000E+00 -0.20289980173E+04  0.20289980173E+04  0.25500000920E-02 0.  1.
    10030    2    1    2    0    0  0.00000000000E+00  0.00000000000E+00 -0.75212292308E+03  0.33058731115E+04  0.32191781774E+04 0.  0.
        4    1    3    3  502    0  0.12795819454E+04 -0.48393302718E+03  0.49486682521E+03  0.14547906782E+04  0.12699999809E+01 0. -1.
       -4    1    3    3    0  502 -0.12795819454E+04  0.48393302718E+03 -0.12469897483E+04  0.18510824333E+04  0.12699999809E+01 0.  1.
</event>
<event>
 5   0  0.6023446E-07  0.3298460E+04  0.7818609E-02  0.8163287E-01
        1   -1    0    0  501    0  0.00000000000E+00  0.00000000000E+00  0.97644591357E+03  0.97644591358E+03  0.50400001928E-02 0.  1.
       -1   -1    0    0    0  501  0.00000000000E+00  0.00000000000E+00 -0.27855709860E+04  0.27855709860E+04  0.50400001928E-02 0. -1.
    10030    2    1    2    0    0  0.00000000000E+00  0.00000000000E+00 -0.18091250724E+04  0.37620168995E+04  0.32984598868E+04 0.  0.
        5    1    3    3  502    0  0.15359660968E+04 -0.27719562013E+03 -0.15122753470E+04  0.21732528793E+04  0.46999998093E+01 0.  1.
       -5    1    3    3    0  502 -0.15359660968E+04  0.27719562013E+03 -0.29684972539E+03  0.15887640202E+04  0.46999998093E+01 0. -1.
</event>
<event>
 5   0  0.1696681E-06  0.3099557E+04  0.7818609E-02  0.8215859E-01
        2   -1    0    0  501    0  0.00000000000E+00  0.00000000000E+00  0.22508867932E+04  0.22508867932E+04  0.25500000920E-02 0.  1.
       -2   -1    0    0    0  501  0.00000000000E+00  0.00000000000E+00 -0.10670522862E+04  0.10670522862E+04  0.25500000920E-02 0. -1.
    10030    2    1    2    0    0  0.00000000000E+00  0.00000000000E+00  0.11838345070E+04  0.33179390794E+04  0.30995573224E+04 0.  0.
        4    1    3    3  502    0 -0.22847496298E+03 -0.14844567683E+04  0.18289725871E+03  0.15130319645E+04  0.12699999809E+01 0. -1.
       -4    1    3    3    0  502  0.22847496298E+03  0.14844567683E+04  0.10009372482E+04  0.18049071149E+04  0.12699999809E+01 0.  1.
</event>
<event>
 5   0  0.1743810E-06  0.3302809E+04  0.7818609E-02  0.8162181E-01
       -2   -1    0    0    0  501  0.00000000000E+00  0.00000000000E+00  0.18135215458E+04  0.18135215458E+04  0.25500000920E-02 0. -1.
        2   -1    0    0  501    0  0.00000000000E+00  0.00000000000E+00 -0.15037798118E+04  0.15037798118E+04  0.25500000920E-02 0.  1.
    10030    2    1    2    0    0  0.00000000000E+00  0.00000000000E+00  0.30974173395E+03  0.33173013576E+04  0.33028091612E+04 0.  0.
        5    1    3    3  502    0  0.56130056203E+03  0.69060311092E+03 -0.12423203531E+04  0.15281926997E+04  0.46999998093E+01 0.  1.
       -5    1    3    3    0  502 -0.56130056203E+03 -0.69060311092E+03  0.15520620870E+04  0.17891086579E+04  0.46999998093E+01 0. -1.
</event>
<event>
 5   0  0.1728937E-06  0.3301891E+04  0.7818609E-02  0.8162414E-01
        2   -1    0    0  501    0  0.00000000000E+00  0.00000000000E+00  0.24475758099E+04  0.24475758099E+04  0.25500000920E-02 0.  1.
       -2   -1    0    0    0  501  0.00000000000E+00  0.00000000000E+00 -0.11136004774E+04  0.11136004774E+04  0.25500000920E-02 0. -1.
    10030    2    1    2    0    0  0.00000000000E+00  0.00000000000E+00  0.13339753325E+04  0.35611762873E+04  0.33018913309E+04 0.  0.
        1    1    3    3  502    0 -0.28155541282E+03 -0.40767740108E+03  0.23655028451E+04  0.24168322292E+04  0.50400001928E-02 0.  1.
       -1    1    3    3    0  502  0.28155541282E+03  0.40767740108E+03 -0.10315275126E+04  0.11443440580E+04  0.50400001928E-02 0. -1.
</event>
<event>
 5   0  0.5988516E-07  0.3331832E+04  0.7818609E-02  0.8154843E-01
        1   -1    0    0  501    0  0.00000000000E+00  0.00000000000E+00  0.22582928941E+04  0.22582928941E+04  0.50400001928E-02 0. -1.
       -1   -1    0    0    0  501  0.00000000000E+00  0.00000000000E+00 -0.12289262000E+04  0.12289262000E+04  0.50400001928E-02 0.  1.
    10030    2    1    2    0    0  0.00000000000E+00  0.00000000000E+00  0.10293666941E+04  0.34872190941E+04  0.33318315113E+04 0.  0.
        4    1    3    3  502    0 -0.21647771057E+03  0.99677242863E+03  0.18932504042E+04  0.21505386719E+04  0.12699999809E+01 0. -1.
       -4    1    3    3    0  502  0.21647771057E+03 -0.99677242863E+03 -0.86388371007E+03  0.13366804222E+04  0.12699999809E+01 0.  1.
</event>
<event>
 5   0  0.1728937E-06  0.3288225E+04  0.7818609E-02  0.8165898E-01
       -2   -1    0    0    0  501  0.00000000000E+00  0.00000000000E+00  0.11684743921E+04  0.11684743921E+04  0.25500000920E-02 0. -1.
        2   -1    0    0  501    0  0.00000000000E+00  0.00000000000E+00 -0.23133627618E+04  0.23133627618E+04  0.25500000920E-02 0.  1.
    10030    2    1    2    0    0  0.00000000000E+00  0.00000000000E+00 -0.11448883697E+04  0.34818371539E+04  0.32882245342E+04 0.  0.
        1    1    3    3  502    0 -0.14577332453E+04 -0.29445485981E+03 -0.13147302584E+04  0.19849950961E+04  0.50400001928E-02 0.  1.
       -1    1    3    3    0  502  0.14577332453E+04  0.29445485981E+03  0.16984188870E+03  0.14968420579E+04  0.50400001928E-02 0. -1.
</event>
<event>
 5   0  0.5985183E-07  0.3273264E+04  0.7818609E-02  0.8169732E-01
        1   -1    0    0  501    0  0.00000000000E+00  0.00000000000E+00  0.20473645728E+04  0.20473645728E+04  0.50400001928E-02 0. -1.
       -1   -1    0    0    0  501  0.00000000000E+00  0.00000000000E+00 -0.13082983522E+04  0.13082983523E+04  0.50400001928E-02 0.  1.
    10030    2    1    2    0    0  0.00000000000E+00  0.00000000000E+00  0.73906622057E+03  0.33556629251E+04  0.32732636295E+04 0.  0.
        2    1    3    3  502    0  0.13157307618E+04  0.76094991134E+03 -0.25268171021E+03  0.15407920858E+04  0.25500000920E-02 0.  1.
       -2    1    3    3    0  502 -0.13157307618E+04 -0.76094991134E+03  0.99174793078E+03  0.18148708393E+04  0.25500000920E-02 0. -1.
</event>
<event>
 5   0  0.1832626E-06  0.3346127E+04  0.7818609E-02  0.8151257E-01
       -2   -1    0    0    0  501  0.00000000000E+00  0.00000000000E+00  0.13791464122E+04  0.13791464122E+04  0.25500000920E-02 0. -1.
        2   -1    0    0  501    0  0.00000000000E+00  0.00000000000E+00 -0.20296189472E+04  0.20296189472E+04  0.25500000920E-02 0.  1.
    10030    2    1    2    0    0  0.00000000000E+00  0.00000000000E+00 -0.65047253498E+03  0.34087653595E+04  0.33461271280E+04 0.  0.
        3    1    3    3  502    0 -0.14420664808E+04 -0.53676615718E+03 -0.99439474614E+03  0.18320738424E+04  0.10100000352E+00 0. -1.
       -3    1    3    3    0  502  0.14420664808E+04  0.53676615718E+03  0.34392221116E+03  0.15766915171E+04  0.10100000352E+00 0.  1.
</event>
<event>
 5   0  0.5988516E-07  0.3228605E+04  0.7818609E-02  0.8181303E-01
        1   -1    0    0  501    0  0.00000000000E+00  0.00000000000E+00  0.20820589932E+04  0.20820589932E+04  0.50400001928E-02 0. -1.
       -1   -1    0    0    0  501  0.00000000000E+00  0.00000000000E+00 -0.12516327639E+04  0.12516327639E+04  0.50400001928E-02 0.  1.
    10030    2    1    2    0    0  0.00000000000E+00  0.00000000000E+00  0.83042622925E+03  0.33336917571E+04  0.32286054279E+04 0.  0.
        4    1    3    3  502    0  0.97743044049E+03  0.12714007111E+04  0.22442450776E+03  0.16193202298E+04  0.12699999809E+01 0.  1.
       -4    1    3    3    0  502 -0.97743044049E+03 -0.12714007111E+04  0.60600172149E+03  0.17143715273E+04  0.12699999809E+01 0. -1.
</event>
<event>
 5   0  0.6085351E-07  0.3341700E+04  0.7818609E-02  0.8152365E-01
        1   -1    0    0  501    0  0.00000000000E+00  0.00000000000E+00  0.10567275774E+04  0.10567275774E+04  0.50400001928E-02 0. -1.
       -1   -1    0    0    0  501  0.00000000000E+00  0.00000000000E+00 -0.26418721813E+04  0.26418721813E+04  0.50400001928E-02 0.  1.
    10030    2    1    2    0    0  0.00000000000E+00  0.00000000000E+00 -0.15851446039E+04  0.36985997587E+04  0.33416996812E+04 0.  0.
        1    1    3    3  502    0  0.72218686698E+02  0.85004637478E+03  0.79750764278E+03  0.11678239672E+04  0.50400001928E-02 0. -1.
       -1    1    3    3    0  502 -0.72218686698E+02 -0.85004637478E+03 -0.23826522467E+04  0.25307757915E+04  0.50400001928E-02 0.  1.
</event>
<event>
 5   0  0.1728937E-06  0.3323592E+04  0.7818609E-02  0.8156918E-01
        2   -1    0    0  501    0  0.00000000000E+00  0.00000000000E+00  0.18484257288E+04  0.18484257288E+04  0.25500000920E-02 0. -1.
       -2   -1    0    0    0  501  0.00000000000E+00  0.00000000000E+00 -0.14940096385E+04  0.14940096385E+04  0.25500000920E-02 0.  1.
    10030    2    1    2    0    0  0.00000000000E+00  0.00000000000E+00  0.35441609024E+03  0.33424353673E+04  0.33235919454E+04 0.  0.
        1    1    3    3  502    0 -0.64752914112E+03 -0.10299511376E+04 -0.96123148960E+03  0.15505029220E+04  0.50400001928E-02 0.  1.
       -1    1    3    3    0  502  0.64752914112E+03  0.10299511376E+04  0.13156475798E+04  0.17919324454E+04  0.50400001928E-02 0. -1.
</event>
<event>
 5   0  0.1696681E-06  0.3146934E+04  0.7818609E-02  0.8202974E-01
        2   -1    0    0  501    0  0.00000000000E+00  0.00000000000E+00  0.19682050666E+04  0.19682050666E+04  0.25500000920E-02 0. -1.
       -2   -1    0    0    0  501  0.00000000000E+00  0.00000000000E+00 -0.12578963263E+04  0.12578963263E+04  0.25500000920E-02 0.  1.
    10030    2    1    2    0    0  0.00000000000E+00  0.00000000000E+00  0.71030874039E+03  0.32261013929E+04  0.31469336966E+04 0.  0.
        4    1    3    3  502    0 -0.53965006777E+03  0.11191401745E+04  0.13448952998E+04  0.18309674782E+04  0.12699999809E+01 0. -1.
       -4    1    3    3    0  502  0.53965006777E+03 -0.11191401745E+04 -0.63458655937E+03  0.13951339147E+04  0.12699999809E+01 0.  1.
</event>
<event>
 5   0  0.6023446E-07  0.3109421E+04  0.7818609E-02  0.8213157E-01
       -1   -1    0    0    0  501  0.00000000000E+00  0.00000000000E+00  0.11526945955E+04  0.11526945955E+04  0.50400001928E-02 0. -1.
        1   -1    0    0  501    0  0.00000000000E+00  0.00000000000E+00 -0.20969336600E+04  0.20969336601E+04  0.50400001928E-02 0.  1.
    10030    2    1    2    0    0  0.00000000000E+00  0.00000000000E+00 -0.94423906456E+03  0.32496282556E+04  0.31094205872E+04 0.  0.
        5    1    3    3  502    0 -0.86683315511E+03  0.11304601886E+04  0.17866446350E+03  0.14357169071E+04  0.46999998093E+01 0. -1.
       -5    1    3    3    0  502  0.86683315511E+03 -0.11304601886E+04 -0.11229035281E+04  0.18139113485E+04  0.46999998093E+01 0.  1.
</event>
<event>
 5   0  0.1728937E-06  0.3258177E+04  0.7818609E-02  0.8173620E-01
        2   -1    0    0  501    0  0.00000000000E+00  0.00000000000E+00  0.15443563889E+04  0.15443563889E+04  0.25500000920E-02 0.  1.
       -2   -1    0    0    0  501  0.00000000000E+00  0.00000000000E+00 -0.17184690063E+04  0.17184690063E+04  0.25500000920E-02 0. -1.
    10030    2    1    2    0    0  0.00000000000E+00  0.00000000000E+00 -0.17411261747E+03  0.32628253952E+04  0.32581765385E+04 0.  0.
        1    1    3    3  502    0  0.42817051203E+03 -0.13124409969E+04 -0.95321655142E+03  0.16776331994E+04  0.50400001928E-02 0.  1.
       -1    1    3    3    0  502 -0.42817051203E+03  0.13124409969E+04  0.77910393395E+03  0.15851921958E+04  0.50400001928E-02 0. -1.
</event>
<event>
 5   0  0.1832626E-06  0.3001047E+04  0.7818609E-02  0.8243432E-01
       -2   -1    0    0    0  501  0.00000000000E+00  0.00000000000E+00  0.10721473705E+04  0.10721473705E+04  0.25500000920E-02 0. -1.
        2   -1    0    0  501    0  0.00000000000E+00  0.00000000000E+00 -0.21000569870E+04  0.21000569870E+04  0.25500000920E-02 0.  1.
    10030    2    1    2    0    0  0.00000000000E+00  0.00000000000E+00 -0.10279096166E+04  0.31722043575E+04  0.30010468684E+04 0.  0.
        3    1    3    3  502    0  0.84198825778E+03  0.12002927290E+04 -0.85141766590E+03  0.16954524215E+04  0.10100000352E+00 0.  1.
       -3    1    3    3    0  502 -0.84198825778E+03 -0.12002927290E+04 -0.17649195067E+03  0.14767519360E+04  0.10100000352E+00 0. -1.
</event>
<event>
 5   0  0.6085351E-07  0.3291981E+04  0.7818609E-02  0.8164939E-01
       -1   -1    0    0    0  501  0.00000000000E+00  0.00000000000E+00  0.13087530996E+04  0.13087530996E+04  0.50400001928E-02 0.  1.
        1   -1    0    0  501    0  0.00000000000E+00  0.00000000000E+00 -0.20701261818E+04  0.20701261818E+04  0.50400001928E-02 0. -1.
    10030    2    1    2    0    0  0.00000000000E+00  0.00000000000E+00 -0.76137308223E+03  0.33788792814E+04  0.32919805935E+04 0.  0.
        1    1    3    3  502    0  0.17241582750E+03  0.72393239037E+03 -0.18875964223E+04  0.20289961994E+04  0.50400001928E-02 0. -1.
       -1    1    3    3    0  502 -0.17241582750E+03 -0.72393239037E+03  0.11262233401E+04  0.13498830820E+04  0.50400001928E-02 0.  1.
</event>
<event>
 5   0  0.6085351E-07  0.3184183E+04  0.7818609E-02  0.8193007E-01
        1   -1    0    0  501    0  0.00000000000E+00  0.00000000000E+00  0.18147380309E+04  0.18147380309E+04  0.50400001928E-02 0.  1.
       -1   -1    0    0    0  501  0.00000000000E+00  0.00000000000E+00 -0.13967606166E+04  0.13967606166E+04  0.50400001928E-02 0. -1.
    10030    2    1    2    0    0  0.00000000000E+00  0.00000000000E+00  0.41797741427E+03  0.32114986476E+04  0.31841825394E+04 0.  0.
        1    1    3    3  502    0 -0.14236237055E+04  0.20486545913E+03  0.89754612323E+03  0.16953652570E+04  0.50400001928E-02 0.  1.
       -1    1    3    3    0  502  0.14236237055E+04 -0.20486545913E+03 -0.47956870897E+03  0.15161333906E+04  0.50400001928E-02 0. -1.
</event>
<event>
 5   0  0.5858859E-07  0.3509220E+04  0.7818609E-02  0.8111608E-01
        1   -1    0    0  501    0  0.00000000000E+00  0.00000000000E+00  0.12004063359E+04  0.12004063360E+04  0.50400001928E-02 0. -1.
       -1   -1    0    0    0  501  0.00000000000E+00  0.00000000000E+00 -0.25646781515E+04  0.25646781515E+04  0.50400001928E-02 0.  1.
    10030    2    1    2    0    0  0.00000000000E+00  0.00000000000E+00 -0.13642718156E+04  0.37650844875E+04  0.35092198009E+04 0.  0.
        3    1    3    3  502    0 -0.11523023158E+04  0.74734491099E+03  0.48941872367E+03  0.14580314607E+04  0.10100000352E+00 0. -1.
       -3    1    3    3    0  502  0.11523023158E+04 -0.74734491099E+03 -0.18536905392E+04  0.23070530268E+04  0.10100000352E+00 0.  1.
</event>
<event>
 5   0  0.6023446E-07  0.3284069E+04  0.7818609E-02  0.8166961E-01
        1   -1    0    0  501    0  0.00000000000E+00  0.00000000000E+00  0.18906752629E+04  0.18906752629E+04  0.50400001928E-02 0. -1.
       -1   -1    0    0    0  501  0.00000000000E+00  0.00000000000E+00 -0.14260922834E+04  0.14260922834E+04  0.50400001928E-02 0.  1.
    10030    2    1    2    0    0  0.00000000000E+00  0.00000000000E+00  0.46458297947E+03  0.33167675463E+04  0.32840690632E+04 0.  0.
        5    1    3    3  502    0 -0.46648047048E+03  0.24461103280E+03 -0.13384482633E+04  0.14383686698E+04  0.46999998093E+01 0.  1.
       -5    1    3    3    0  502  0.46648047048E+03 -0.24461103280E+03  0.18030312428E+04  0.18783988765E+04  0.46999998093E+01 0. -1.
</event>
<event>
 5   0  0.6023446E-07  0.3303871E+04  0.7818609E-02  0.8161911E-01
       -1   -1    0    0    0  501  0.00000000000E+00  0.00000000000E+00  0.16344134023E+04  0.16344134023E+04  0.50400001928E-02 0. -1.
        1   -1    0    0  501    0  0.00000000000E+00  0.00000000000E+00 -0.16696453583E+04  0.16696453583E+04  0.50400001928E-02 0.  1.
    10030    2    1    2    0    0  0.00000000000E+00  0.00000000000E+00 -0.35231956009E+02  0.33040587606E+04  0.33038709119E+04 0.  0.
        5    1    3    3  502    0 -0.81190666429E+03  0.13720280611E+04  0.41509237458E+03  0.16474153093E+04  0.46999998093E+01 0. -1.
       -5    1    3    3    0  502  0.81190666429E+03 -0.13720280611E+04 -0.45032433058E+03  0.16566434513E+04  0.46999998093E+01 0.  1.
</event>
<event>
 5   0  0.1696681E-06  0.3513266E+04  0.7818609E-02  0.8110653E-01
       -2   -1    0    0    0  501  0.00000000000E+00  0.00000000000E+00  0.97058622198E+03  0.97058622198E+03  0.25500000920E-02 0.  1.
        2   -1    0    0  501    0  0.00000000000E+00  0.00000000000E+00 -0.31792735956E+04  0.31792735956E+04  0.25500000920E-02 0. -1.
    10030    2    1    2    0    0  0.00000000000E+00  0.00000000000E+00 -0.22086873736E+04  0.41498598176E+04  0.35132658014E+04 0.  0.
        4    1    3    3  502    0  0.14098744588E+04 -0.27159345724E+03 -0.22997762862E+04  0.27111771568E+04  0.12699999809E+01 0. -1.
       -4    1    3    3    0  502 -0.14098744588E+04  0.27159345724E+03  0.91088912635E+02  0.14386826608E+04  0.12699999809E+01 0.  1.
</event>
<event>
 5   0  0.1728937E-06  0.3303708E+04  0.7818609E-02  0.8161953E-01
       -2   -1    0    0    0  501  0.00000000000E+00  0.00000000000E+00  0.11378905840E+04  0.11378905840E+04  0.25500000920E-02 0. -1.
        2   -1    0    0  501    0  0.00000000000E+00  0.00000000000E+00 -0.23979648535E+04  0.23979648535E+04  0.25500000920E-02 0.  1.
    10030    2    1    2    0    0  0.00000000000E+00  0.00000000000E+00 -0.12600742696E+04  0.35358554375E+04  0.33037079941E+04 0.  0.
        1    1    3    3  502    0 -0.14606024283E+04 -0.39679468654E+03 -0.13382091091E+04  0.20202992591E+04  0.50400001928E-02 0.  1.
       -1    1    3    3    0  502  0.14606024283E+04  0.39679468654E+03  0.78134839496E+02  0.15155561784E+04  0.50400001928E-02 0. -1.
</event>
<event>
 5   0  0.5985183E-07  0.3269097E+04  0.7818609E-02  0.8170803E-01
       -1   -1    0    0    0  501  0.00000000000E+00  0.00000000000E+00  0.15472209244E+04  0.15472209245E+04  0.50400001928E-02 0.  1.
        1   -1    0    0  501    0  0.00000000000E+00  0.00000000000E+00 -0.17268054234E+04  0.17268054235E+04  0.50400001928E-02 0. -1.
    10030    2    1    2    0    0  0.00000000000E+00  0.00000000000E+00 -0.17958449901E+03  0.32740263479E+04  0.32690974189E+04 0.  0.
        2    1    3    3  502    0 -0.87307155045E+03  0.39705281271E+03 -0.14153605158E+04  0.17097222751E+04  0.25500000920E-02 0. -1.
       -2    1    3    3    0  502  0.87307155045E+03 -0.39705281271E+03  0.12357760168E+04  0.15643040728E+04  0.25500000920E-02 0.  1.
</event>
<event>
 5   0  0.1743810E-06  0.3308427E+04  0.7818609E-02  0.8160754E-01
       -2   -1    0    0    0  501  0.00000000000E+00  0.00000000000E+00  0.13040069314E+04  0.13040069314E+04  0.25500000920E-02 0.  1.
        2   -1    0    0  501    0  0.00000000000E+00  0.00000000000E+00 -0.20984720460E+04  0.20984720460E+04  0.25500000920E-02 0. -1.
    10030    2    1    2    0    0  0.00000000000E+00  0.00000000000E+00 -0.79446511462E+03  0.34024789774E+04  0.33084268729E+04 0.  0.
        5    1    3    3  502    0 -0.15172523470E+04 -0.46569895471E+03 -0.87682617045E+03  0.18132226625E+04  0.46999998093E+01 0.  1.
       -5    1    3    3    0  502  0.15172523470E+04  0.46569895471E+03  0.82361055832E+02  0.15892563148E+04  0.46999998093E+01 0. -1.
</event>
<event>
 5   0  0.5985183E-07  0.3290421E+04  0.7818609E-02  0.8165337E-01
       -1   -1    0    0    0  501  0.00000000000E+00  0.00000000000E+00  0.27709641325E+04  0.27709641325E+04  0.50400001928E-02 0. -1.
        1   -1    0    0  501    0  0.00000000000E+00  0.00000000000E+00 -0.97681446432E+03  0.97681446434E+03  0.50400001928E-02 0.  1.
    10030    2    1    2    0    0  0.00000000000E+00  0.00000000000E+00  0.17941496682E+04  0.37477785969E+04  0.32904211553E+04 0.  0.
        2    1    3    3  502    0  0.53343230933E+03 -0.22708698221E+03  0.26507595444E+04  0.27134193720E+04  0.25500000920E-02 0. -1.
       -2    1    3    3    0  502 -0.53343230933E+03  0.22708698221E+03 -0.85660987618E+03  0.10343592249E+04  0.25500000920E-02 0.  1.
</event>
<event>
 5   0  0.1784626E-06  0.3284672E+04  0.7818609E-02  0.8166807E-01
        2   -1    0    0  501    0  0.00000000000E+00  0.00000000000E+00  0.28684571364E+04  0.28684571364E+04  0.25500000920E-02 0. -1.
       -2   -1    0    0    0  501  0.00000000000E+00  0.00000000000E+00 -0.94032012305E+03  0.94032012306E+03  0.25500000920E-02 0.  1.
    10030    2    1    2    0    0  0.00000000000E+00  0.00000000000E+00  0.19281370133E+04  0.38087772594E+04  0.32846722622E+04 0.  0.
        2    1    3    3  502    0 -0.13979364383E+04  0.12548004496E+03 -0.24824403824E+02  0.14037762565E+04  0.25500000920E-02 0.  1.
       -2    1    3    3    0  502  0.13979364383E+04 -0.12548004496E+03  0.19529614172E+04  0.24050010030E+04  0.25500000920E-02 0. -1.
</event>
<event>
 5   0  0.1832626E-06  0.3352176E+04  0.7818609E-02  0.8149745E-01
        2   -1    0    0  501    0  0.00000000000E+00  0.00000000000E+00  0.23302059053E+04  0.23302059053E+04  0.25500000920E-02 0. -1.
       -2   -1    0    0    0  501  0.00000000000E+00  0.00000000000E+00 -0.12055890057E+04  0.12055890057E+04  0.25500000920E-02 0.  1.
    10030    2    1    2    0    0  0.00000000000E+00  0.00000000000E+00  0.11246168996E+04  0.35357949110E+04  0.33521757833E+04 0.  0.
        3    1    3    3  502    0  0.10750386084E+04 -0.35342715165E+03  0.18664195006E+04  0.21826911196E+04  0.10100000352E+00 0. -1.
       -3    1    3    3    0  502 -0.10750386084E+04  0.35342715165E+03 -0.74180260107E+03  0.13531037914E+04  0.10100000352E+00 0.  1.
</event>
<event>
 5   0  0.1728937E-06  0.3315936E+04  0.7818609E-02  0.8158852E-01
       -2   -1    0    0    0  501  0.00000000000E+00  0.00000000000E+00  0.15804699324E+04  0.15804699324E+04  0.25500000920E-02 0. -1.
        2   -1    0    0  501    0  0.00000000000E+00  0.00000000000E+00 -0.17392665273E+04  0.17392665273E+04  0.25500000920E-02 0.  1.
    10030    2    1    2    0    0  0.00000000000E+00  0.00000000000E+00 -0.15879659489E+03  0.33197364597E+04  0.33159363389E+04 0.  0.
        1    1    3    3  502    0 -0.64576042980E+03  0.14560253217E+04  0.38139233687E+03  0.16378267261E+04  0.50400001928E-02 0.  1.
       -1    1    3    3    0  502  0.64576042980E+03 -0.14560253217E+04 -0.54018893176E+03  0.16819097336E+04  0.50400001928E-02 0. -1.
</event>
<event>
 5   0  0.1696681E-06  0.3333525E+04  0.7818609E-02  0.8154417E-01
       -2   -1    0    0    0  501  0.00000000000E+00  0.00000000000E+00  0.10222262770E+04  0.10222262770E+04  0.25500000920E-02 0. -1.
        2   -1    0    0  501    0  0.00000000000E+00  0.00000000000E+00 -0.27176933498E+04  0.27176933498E+04  0.25500000920E-02 0.  1.
    10030    2    1    2    0    0  0.00000000000E+00  0.00000000000E+00 -0.16954670728E+04  0.37399196268E+04  0.33335251942E+04 0.  0.
        4    1    3    3  502    0 -0.60871805106E+03  0.91314165027E+03  0.55968647704E+03  0.12319155428E+04  0.12699999809E+01 0. -1.
       -4    1    3    3    0  502  0.60871805106E+03 -0.91314165027E+03 -0.22551535499E+04  0.25080040840E+04  0.12699999809E+01 0.  1.
</event>
<event>
 5   0  0.6023446E-07  0.3318487E+04  0.7818609E-02  0.8158207E-01
       -1   -1    0    0    0  501  0.00000000000E+00  0.00000000000E+00  0.16363991329E+04  0.16363991329E+04  0.50400001928E-02 0. -1.
        1   -1    0    0  501    0  0.00000000000E+00  0.00000000000E+00 -0.16824070124E+04  0.16824070124E+04  0.50400001928E-02 0.  1.
    10030    2    1    2    0    0  0.00000000000E+00  0.00000000000E+00 -0.46007879512E+02  0.33188061453E+04  0.33184872314E+04 0.  0.
        5    1    3    3  502    0  0.85570792449E+03 -0.13429925301E+04  0.44309052216E+03  0.16529417076E+04  0.46999998093E+01 0.  1.
       -5    1    3    3    0  502 -0.85570792449E+03  0.13429925301E+04 -0.48909840167E+03  0.16658644376E+04  0.46999998093E+01 0. -1.
</event>
<event>
 5   0  0.5988516E-07  0.3329916E+04  0.7818609E-02  0.8155325E-01
       -1   -1    0    0    0  501  0.00000000000E+00  0.00000000000E+00  0.15160588053E+04  0.15160588053E+04  0.50400001928E-02 0.  1.
        1   -1    0    0  501    0  0.00000000000E+00  0.00000000000E+00 -0.18284812143E+04  0.18284812143E+04  0.50400001928E-02 0. -1.
    10030    2    1    2    0    0  0.00000000000E+00  0.00000000000E+00 -0.31242240900E+03  0.33445400196E+04  0.33299159420E+04 0.  0.
        4    1    3    3  502    0  0.14188473948E+04 -0.24087704321E+03  0.68468349123E+03  0.15937197921E+04  0.12699999809E+01 0.  1.
       -4    1    3    3    0  502 -0.14188473948E+04  0.24087704321E+03 -0.99710590022E+03  0.17508202275E+04  0.12699999809E+01 0. -1.
</event>
<event>
 5   0  0.5685000E-07  0.3308756E+04  0.7818609E-02  0.8160671E-01
       -3   -1    0    0    0  501  0.00000000000E+00  0.00000000000E+00  0.11175703156E+04  0.11175703202E+04  0.10100000352E+00 0.  1.
        3   -1    0    0  501    0  0.00000000000E+00  0.00000000000E+00 -0.24490336187E+04  0.24490336208E+04  0.10100000352E+00 0. -1.
    10030    2    1    2    0    0  0.00000000000E+00  0.00000000000E+00 -0.13314633031E+04  0.35666039410E+04  0.33087564347E+04 0.  0.
        2    1    3    3  502    0  0.53383151583E+03  0.95621101493E+03  0.67092256178E+03  0.12843101947E+04  0.25500000920E-02 0.  1.
       -2    1    3    3    0  502 -0.53383151583E+03 -0.95621101493E+03 -0.20023858649E+04  0.22822937463E+04  0.25500000920E-02 0. -1.
</event>
<event>
 5   0  0.1832626E-06  0.3320434E+04  0.7818609E-02  0.8157715E-01
        2   -1    0    0  501    0  0.00000000000E+00  0.00000000000E+00  0.18146922260E+04  0.18146922260E+04  0.25500000920E-02 0.  1.
       -2   -1    0    0    0  501  0.00000000000E+00  0.00000000000E+00 -0.15188912131E+04  0.15188912131E+04  0.25500000920E-02 0. -1.
    10030    2    1    2    0    0  0.00000000000E+00  0.00000000000E+00  0.29580101285E+03  0.33335834391E+04  0.33204337528E+04 0.  0.
        3    1    3    3  502    0  0.68744577311E+02  0.65554996431E+03 -0.13818952392E+04  0.15310473654E+04  0.10100000352E+00 0. -1.
       -3    1    3    3    0  502 -0.68744577311E+02 -0.65554996431E+03  0.16776962521E+04  0.18025360737E+04  0.10100000352E+00 0.  1.
</event>
<event>
 5   0  0.1784626E-06  0.3211555E+04  0.7818609E-02  0.8185772E-01
        2   -1    0    0  501    0  0.00000000000E+00  0.00000000000E+00  0.14176343212E+04  0.14176343212E+04  0.25500000920E-02 0.  1.
       -2   -1    0    0    0  501  0.00000000000E+00  0.00000000000E+00 -0.18188903887E+04  0.18188903887E+04  0.25500000920E-02 0. -1.
    10030    2    1    2    0    0  0.00000000000E+00  0.00000000000E+00 -0.40125606748E+03  0.32365247099E+04  0.32115550386E+04 0.  0.
        2    1    3    3  502    0  0.98632229207E+03 -0.12663796269E+04 -0.24538525012E+03  0.16238112403E+04  0.25500000920E-02 0. -1.
       -2    1    3    3    0  502 -0.98632229207E+03  0.12663796269E+04 -0.15587081737E+03  0.16127134696E+04  0.25500000920E-02 0.  1.
</event>
<event>
 5   0  0.1743810E-06  0.3333451E+04  0.7818609E-02  0.8154436E-01
       -2   -1    0    0    0  501  0.00000000000E+00  0.00000000000E+00  0.11331913991E+04  0.11331913991E+04  0.25500000920E-02 0. -1.
        2   -1    0    0  501    0  0.00000000000E+00  0.00000000000E+00 -0.24514598632E+04  0.24514598632E+04  0.25500000920E-02 0.  1.
    10030    2    1    2    0    0  0.00000000000E+00  0.00000000000E+00 -0.13182684642E+04  0.35846512623E+04  0.33334506039E+04 0.  0.
        5    1    3    3  502    0 -0.83369085311E+03  0.37529466517E+03  0.83946230646E+03  0.12412113350E+04  0.46999998093E+01 0. -1.
       -5    1    3    3    0  502  0.83369085311E+03 -0.37529466517E+03 -0.21577307706E+04  0.23434399273E+04  0.46999998093E+01 0.  1.
</event>
<event>
 5   0  0.5988516E-07  0.3294460E+04  0.7818609E-02  0.8164306E-01
        1   -1    0    0  501    0  0.00000000000E+00  0.00000000000E+00  0.21338770070E+04  0.21338770070E+04  0.50400001928E-02 0. -1.
       -1   -1    0    0    0  501  0.00000000000E+00  0.00000000000E+00 -0.12715668556E+04  0.12715668556E+04  0.50400001928E-02 0.  1.
    10030    2    1    2    0    0  0.00000000000E+00  0.00000000000E+00  0.86231015146E+03  0.34054438626E+04  0.32944603661E+04 0.  0.
        4    1    3    3  502    0 -0.10095247519E+04 -0.86085361729E+03  0.14403418320E+04  0.19582633584E+04  0.12699999809E+01 0. -1.
       -4    1    3    3    0  502  0.10095247519E+04  0.86085361729E+03 -0.57803168054E+03  0.14471805042E+04  0.12699999809E+01 0.  1.
</event>
<event>
 5   0  0.6085351E-07  0.3306355E+04  0.7818609E-02  0.8161280E-01
        1   -1    0    0  501    0  0.00000000000E+00  0.00000000000E+00  0.14060302585E+04  0.14060302585E+04  0.50400001928E-02 0.  1.
       -1   -1    0    0    0  501  0.00000000000E+00  0.00000000000E+00 -0.19437680325E+04  0.19437680326E+04  0.50400001928E-02 0. -1.
    10030    2    1    2    0    0  0.00000000000E+00  0.00000000000E+00 -0.53773777409E+03  0.33497982910E+04  0.33063554976E+04 0.  0.
        1    1    3    3  502    0  0.87558305860E+02 -0.37982886085E+03 -0.18965457155E+04  0.19361875093E+04  0.50400001928E-02 0. -1.
       -1    1    3    3    0  502 -0.87558305860E+02  0.37982886085E+03  0.13588079414E+04  0.14136107817E+04  0.50400001928E-02 0.  1.
</event>
<event>
 5   0  0.1784626E-06  0.3281755E+04  0.7818609E-02  0.8167553E-01
        2   -1    0    0  501    0  0.00000000000E+00  0.00000000000E+00  0.29851728018E+04  0.29851728018E+04  0.25500000920E-02 0. -1.
       -2   -1    0    0    0  501  0.00000000000E+00  0.00000000000E+00 -0.90195064842E+03  0.90195064843E+03  0.25500000920E-02 0.  1.
    10030    2    1    2    0    0  0.00000000000E+00  0.00000000000E+00  0.20832221534E+04  0.38871234502E+04  0.32817547405E+04 0.  0.
        2    1    3    3  502    0  0.73937651446E+02 -0.16365013604E+04  0.11531966343E+04  0.20033636606E+04  0.25500000920E-02 0. -1.
       -2    1    3    3    0  502 -0.73937651446E+02  0.16365013604E+04  0.93002551906E+03  0.18837597897E+04  0.25500000920E-02 0.  1.
</event>
<event>
 5   0  0.5988516E-07  0.3303013E+04  0.7818609E-02  0.8162129E-01
        1   -1    0    0  501    0  0.00000000000E+00  0.00000000000E+00  0.18285434568E+04  0.18285434568E+04  0.50400001928E-02 0. -1.
       -1   -1    0    0    0  501  0.00000000000E+00  0.00000000000E+00 -0.14916100661E+04  0.14916100661E+04  0.50400001928E-02 0.  1.
    10030    2    1    2    0    0  0.00000000000E+00  0.00000000000E+00  0.33693339077E+03  0.33201535229E+04  0.33030130647E+04 0.  0.
        4    1    3    3  502    0  0.11555731912E+04  0.11704048725E+04  0.31849014503E+03  0.16753013314E+04  0.12699999809E+01 0. -1.
       -4    1    3    3    0  502 -0.11555731912E+04 -0.11704048725E+04  0.18443245740E+02  0.16448521915E+04  0.12699999809E+01 0.  1.
</event>
<event>
 5   0  0.1696681E-06  0.3373759E+04  0.7818609E-02  0.8144377E-01
       -2   -1    0    0    0  501  0.00000000000E+00  0.00000000000E+00  0.26389717080E+04  0.26389717080E+04  0.25500000920E-02 0.  1.
        2   -1    0    0  501    0  0.00000000000E+00  0.00000000000E+00 -0.10782847472E+04  0.10782847472E+04  0.25500000920E-02 0. -1.
    10030    2    1    2    0    0  0.00000000000E+00  0.00000000000E+00  0.15606869608E+04  0.37172564553E+04  0.33737592926E+04 0.  0.
        4    1    3    3  502    0  0.78523934132E+03  0.14326191745E+04  0.12433190148E+04  0.20530081120E+04  0.12699999809E+01 0.  1.
       -4    1    3    3    0  502 -0.78523934132E+03 -0.14326191745E+04  0.31736794597E+03  0.16642483433E+04  0.12699999809E+01 0. -1.
</event>
<event>
 5   0  0.6023446E-07  0.3297420E+04  0.7818609E-02  0.8163552E-01
        1   -1    0    0  501    0  0.00000000000E+00  0.00000000000E+00  0.25276232469E+04  0.25276232469E+04  0.50400001928E-02 0.  1.
       -1   -1    0    0    0  501  0.00000000000E+00  0.00000000000E+00 -0.10754155915E+04  0.10754155916E+04  0.50400001928E-02 0. -1.
    10030    2    1    2    0    0  0.00000000000E+00  0.00000000000E+00  0.14522076553E+04  0.36030388384E+04  0.32974204762E+04 0.  0.
        5    1    3    3  502    0  0.77059064186E+03 -0.27245935345E+03 -0.83845010160E+03  0.11709247198E+04  0.46999998093E+01 0. -1.
       -5    1    3    3    0  502 -0.77059064186E+03  0.27245935345E+03  0.22906577569E+04  0.24321141186E+04  0.46999998093E+01 0.  1.
</event>
<event>
 5   0  0.1832626E-06  0.3235200E+04  0.7818609E-02  0.8179582E-01
       -2   -1    0    0    0  501  0.00000000000E+00  0.00000000000E+00  0.11784570470E+04  0.11784570470E+04  0.25500000920E-02 0.  1.
        2   -1    0    0  501    0  0.00000000000E+00  0.00000000000E+00 -0.22203856024E+04  0.22203856024E+04  0.25500000920E-02 0. -1.
    10030    2    1    2    0    0  0.00000000000E+00  0.00000000000E+00 -0.10419285554E+04  0.33988426494E+04  0.32351995674E+04 0.  0.
        3    1    3    3  502    0  0.92281599256E+02 -0.73134869658E+03 -0.20336719434E+04  0.21631477973E+04  0.10100000352E+00 0. -1.
       -3    1    3    3    0  502 -0.92281599256E+02  0.73134869658E+03  0.99174338800E+03  0.12356948521E+04  0.10100000352E+00 0.  1.
</event>
<event>
 5   0  0.1728937E-06  0.3278189E+04  0.7818609E-02  0.8168467E-01
       -2   -1    0    0    0  501  0.00000000000E+00  0.00000000000E+00  0.12575174211E+04  0.12575174211E+04  0.25500000920E-02 0. -1.
        2   -1    0    0  501    0  0.00000000000E+00  0.00000000000E+00 -0.21364566975E+04  0.21364566975E+04  0.25500000920E-02 0.  1.
    10030    2    1    2    0    0  0.00000000000E+00  0.00000000000E+00 -0.87893927640E+03  0.33939741185E+04  0.32781894493E+04 0.  0.
        1    1    3    3  502    0  0.52980912601E+03  0.37930395471E+03  0.11176671327E+04  0.12937345244E+04  0.50400001928E-02 0. -1.
       -1    1    3    3    0  502 -0.52980912601E+03 -0.37930395471E+03 -0.19966064091E+04  0.21002395942E+04  0.50400001928E-02 0.  1.
</event>
<event>
 5   0  0.5858859E-07  0.3154805E+04  0.7818609E-02  0.8200856E-01
       -1   -1    0    0    0  501  0.00000000000E+00  0.00000000000E+00  0.10625816773E+04  0.10625816773E+04  0.50400001928E-02 0.  1.
        1   -1    0    0  501    0  0.00000000000E+00  0.00000000000E+00 -0.23416538627E+04  0.23416538627E+04  0.50400001928E-02 0. -1.
    10030    2    1    2    0    0  0.00000000000E+00  0.00000000000E+00 -0.12790721855E+04  0.34042355400E+04  0.31548048999E+04 0.  0.
        3    1    3    3  502    0 -0.15428678217E+04  0.32743213084E+03 -0.66474010448E+03  0.17115876642E+04  0.10100000352E+00 0. -1.
       -3    1    3    3    0  502  0.15428678217E+04 -0.32743213084E+03 -0.61433208100E+03  0.16926478758E+04  0.10100000352E+00 0.  1.
</event>
<event>
 5   0  0.5988516E-07  0.3282080E+04  0.7818609E-02  0.8167470E-01
        1   -1    0    0  501    0  0.00000000000E+00  0.00000000000E+00  0.12371337767E+04  0.12371337767E+04  0.50400001928E-02 0. -1.
       -1   -1    0    0    0  501  0.00000000000E+00  0.00000000000E+00 -0.21768151857E+04  0.21768151857E+04  0.50400001928E-02 0.  1.
    10030    2    1    2    0    0  0.00000000000E+00  0.00000000000E+00 -0.93968140906E+03  0.34139489624E+04  0.32820795797E+04 0.  0.
        4    1    3    3  502    0  0.14192797642E+04 -0.34420470127E+03 -0.12483628347E+04  0.19212608634E+04  0.12699999809E+01 0.  1.
       -4    1    3    3    0  502 -0.14192797642E+04  0.34420470127E+03  0.30868142561E+03  0.14926880990E+04  0.12699999809E+01 0. -1.
</event>
<event>
 5   0  0.5988516E-07  0.3318452E+04  0.7818609E-02  0.8158216E-01
       -1   -1    0    0    0  501  0.00000000000E+00  0.00000000000E+00  0.25991210249E+04  0.25991210249E+04  0.50400001928E-02 0. -1.
        1   -1    0    0  501    0  0.00000000000E+00  0.00000000000E+00 -0.10592161798E+04  0.10592161799E+04  0.50400001928E-02 0.  1.
    10030    2    1    2    0    0  0.00000000000E+00  0.00000000000E+00  0.15399048451E+04  0.36583372048E+04  0.33184520747E+04 0.  0.
        4    1    3    3  502    0  0.85783288062E+03 -0.13868783238E+04  0.11074463260E+04  0.19712300002E+04  0.12699999809E+01 0. -1.
       -4    1    3    3    0  502 -0.85783288062E+03  0.13868783238E+04  0.43245851909E+03  0.16871072045E+04  0.12699999809E+01 0.  1.
</event>
<event>
 5   0  0.5988516E-07  0.2997909E+04  0.7818609E-02  0.8244328E-01
        1   -1    0    0  501    0  0.00000000000E+00  0.00000000000E+00  0.21421642605E+04  0.21421642605E+04  0.50400001928E-02 0.  1.
       -1   -1    0    0    0  501  0.00000000000E+00  0.00000000000E+00 -0.10488761545E+04  0.10488761545E+04  0.50400001928E-02 0. -1.
    10030    2    1    2    0    0  0.00000000000E+00  0.00000000000E+00  0.10932881060E+04  0.31910404150E+04  0.29979092793E+04 0.  0.
        4    1    3    3  502    0  0.19776783384E+03  0.69377043692E+03  0.19452288121E+04  0.20746918517E+04  0.12699999809E+01 0.  1.
       -4    1    3    3    0  502 -0.19776783384E+03 -0.69377043692E+03 -0.85194070603E+03  0.11163485633E+04  0.12699999809E+01 0. -1.
</event>
<event>
 5   0  0.5858859E-07  0.3282307E+04  0.7818609E-02  0.8167412E-01
        1   -1    0    0  501    0  0.00000000000E+00  0.00000000000E+00  0.23923679060E+04  0.23923679060E+04  0.50400001928E-02 0. -1.
       -1   -1    0    0    0  501  0.00000000000E+00  0.00000000000E+00 -0.11258236450E+04  0.11258236450E+04  0.50400001928E-02 0.  1.
    10030    2    1    2    0    0  0.00000000000E+00  0.00000000000E+00  0.12665442610E+04  0.35181915510E+04  0.32823067231E+04 0.  0.
        3    1    3    3  502    0  0.11058999158E+04  0.51151978746E+03 -0.54515484467E+03  0.13348636378E+04  0.10100000352E+00 0.  1.
       -3    1    3    3    0  502 -0.11058999158E+04 -0.51151978746E+03  0.18116991057E+04  0.21833279132E+04  0.10100000352E+00 0. -1.
</event>
<event>
 5   0  0.1743810E-06  0.2799705E+04  0.7818609E-02  0.8303360E-01
       -2   -1    0    0    0  501  0.00000000000E+00  0.00000000000E+00  0.13631252934E+04  0.13631252934E+04  0.25500000920E-02 0.  1.
        2   -1    0    0  501    0  0.00000000000E+00  0.00000000000E+00 -0.14375688133E+04  0.14375688133E+04  0.25500000920E-02 0. -1.
    10030    2    1    2    0    0  0.00000000000E+00  0.00000000000E+00 -0.74443519877E+02  0.28006941067E+04  0.27997045633E+04 0.  0.
        5    1    3    3  502    0 -0.79896198480E+03 -0.12889537903E+03 -0.11798207399E+04  0.14307177710E+04  0.46999998093E+01 0. -1.
       -5    1    3    3    0  502  0.79896198480E+03  0.12889537903E+03  0.11053772200E+04  0.13699763357E+04  0.46999998093E+01 0.  1.
</event>
<event>
 5   0  0.1784626E-06  0.3350725E+04  0.7818609E-02  0.8150107E-01
        2   -1    0    0  501    0  0.00000000000E+00  0.00000000000E+00  0.19224225114E+04  0.19224225114E+04  0.25500000920E-02 0.  1.
       -2   -1    0    0    0  501  0.00000000000E+00  0.00000000000E+00 -0.14600533718E+04  0.14600533718E+04  0.25500000920E-02 0. -1.
    10030    2    1    2    0    0  0.00000000000E+00  0.00000000000E+00  0.46236913963E+03  0.33824758832E+04  0.33507249781E+04 0.  0.
        2    1    3    3  502    0  0.71146550278E+03 -0.75607467472E+03 -0.10961926221E+04  0.15097914889E+04  0.25500000920E-02 0. -1.
       -2    1    3    3    0  502 -0.71146550278E+03  0.75607467472E+03  0.15585617617E+04  0.18726843942E+04  0.25500000920E-02 0.  1.
</event>
<event>
 5   0  0.5985183E-07  0.3355718E+04  0.7818609E-02  0.8148861E-01
        1   -1    0    0  501    0  0.00000000000E+00  0.00000000000E+00  0.22439336972E+04  0.22439336972E+04  0.50400001928E-02 0.  1.
       -1   -1    0    0    0  501  0.00000000000E+00  0.00000000000E+00 -0.12545873938E+04  0.12545873938E+04  0.50400001928E-02 0. -1.
    10030    2    1    2    0    0  0.00000000000E+00  0.00000000000E+00  0.98934630345E+03  0.34985210910E+04  0.33557180626E+04 0.  0.
        2    1    3    3  502    0 -0.81179371022E+03 -0.54578048815E+03  0.19158886376E+04  0.21511658794E+04  0.25500000920E-02 0.  1.
       -2    1    3    3    0  502  0.81179371022E+03  0.54578048815E+03 -0.92654233412E+03  0.13473552116E+04  0.25500000920E-02 0. -1.
</event>
<event>
 5   0  0.6085351E-07  0.3341400E+04  0.7818609E-02  0.8152440E-01
        1   -1    0    0  501    0  0.00000000000E+00  0.00000000000E+00  0.19767351877E+04  0.19767351877E+04  0.50400001928E-02 0. -1.
       -1   -1    0    0    0  501  0.00000000000E+00  0.00000000000E+00 -0.14120449631E+04  0.14120449631E+04  0.50400001928E-02 0.  1.
    10030    2    1    2    0    0  0.00000000000E+00  0.00000000000E+00  0.56469022464E+03  0.33887801508E+04  0.33414002844E+04 0.  0.
        1    1    3    3  502    0  0.34274350583E+03 -0.78359468685E+03 -0.11731864971E+04  0.14518472030E+04  0.50400001928E-02 0.  1.
       -1    1    3    3    0  502 -0.34274350583E+03  0.78359468685E+03  0.17378767217E+04  0.19369329477E+04  0.50400001928E-02 0. -1.
</event>
<event>
 5   0  0.5858859E-07  0.3314948E+04  0.7818609E-02  0.8159102E-01
        1   -1    0    0  501    0  0.00000000000E+00  0.00000000000E+00  0.17594666767E+04  0.17594666767E+04  0.50400001928E-02 0. -1.
       -1   -1    0    0    0  501  0.00000000000E+00  0.00000000000E+00 -0.15613936405E+04  0.15613936405E+04  0.50400001928E-02 0.  1.
    10030    2    1    2    0    0  0.00000000000E+00  0.00000000000E+00  0.19807303619E+03  0.33208603173E+04  0.33149480115E+04 0.  0.
        3    1    3    3  502    0 -0.61441757645E+03  0.70229691049E+03  0.14713301015E+04  0.17422807427E+04  0.10100000352E+00 0. -1.
       -3    1    3    3    0  502  0.61441757645E+03 -0.70229691049E+03 -0.12732570653E+04  0.15785795746E+04  0.10100000352E+00 0.  1.
</event>
<event>
 5   0  0.6085351E-07  0.3435062E+04  0.7818609E-02  0.8129354E-01
       -1   -1    0    0    0  501  0.00000000000E+00  0.00000000000E+00  0.11663862953E+04  0.11663862953E+04  0.50400001928E-02 0. -1.
        1   -1    0    0  501    0  0.00000000000E+00  0.00000000000E+00 -0.25291044575E+04  0.25291044575E+04  0.50400001928E-02 0.  1.
    10030    2    1    2    0    0  0.00000000000E+00  0.00000000000E+00 -0.13627181622E+04  0.36954907529E+04  0.34350620249E+04 0.  0.
        1    1    3    3  502    0  0.19319070070E+03 -0.31249639594E+03 -0.24863366520E+04  0.25133337604E+04  0.50400001928E-02 0.  1.
       -1    1    3    3    0  502 -0.19319070070E+03  0.31249639594E+03  0.11236184898E+04  0.11821569925E+04  0.50400001928E-02 0. -1.
</event>
<event>
 5   0  0.5988516E-07  0.3138872E+04  0.7818609E-02  0.8205150E-01
       -1   -1    0    0    0  501  0.00000000000E+00  0.00000000000E+00  0.10853957746E+04  0.10853957746E+04  0.50400001928E-02 0. -1.
        1   -1    0    0  501    0  0.00000000000E+00  0.00000000000E+00 -0.22693381184E+04  0.22693381184E+04  0.50400001928E-02 0.  1.
    10030    2    1    2    0    0  0.00000000000E+00  0.00000000000E+00 -0.11839423438E+04  0.33547338930E+04  0.31388724121E+04 0.  0.
        4    1    3    3  502    0  0.56352616019E+03 -0.13198715118E+04  0.86934335429E+02  0.14377697077E+04  0.12699999809E+01 0.  1.
       -4    1    3    3    0  502 -0.56352616019E+03  0.13198715118E+04 -0.12708766792E+04  0.19169641853E+04  0.12699999809E+01 0. -1.
</event>
<event>
 5   0  0.5988516E-07  0.3328659E+04  0.7818609E-02  0.8155641E-01
       -1   -1    0    0    0  501  0.00000000000E+00  0.00000000000E+00  0.13081529360E+04  0.13081529360E+04  0.50400001928E-02 0.  1.
        1   -1    0    0  501    0  0.00000000000E+00  0.00000000000E+00 -0.21174832491E+04  0.21174832491E+04  0.50400001928E-02 0. -1.
    10030    2    1    2    0    0  0.00000000000E+00  0.00000000000E+00 -0.80933031310E+03  0.34256361852E+04  0.33286585462E+04 0.  0.
        4    1    3    3  502    0 -0.16506291771E+04 -0.32517687582E+02 -0.62141027877E+03  0.17640256313E+04  0.12699999809E+01 0. -1.
       -4    1    3    3    0  502  0.16506291771E+04  0.32517687582E+02 -0.18792003434E+03  0.16616105539E+04  0.12699999809E+01 0.  1.
</event>
<event>
 5   0  0.5858859E-07  0.3290238E+04  0.7818609E-02  0.8165384E-01
        1   -1    0    0  501    0  0.00000000000E+00  0.00000000000E+00  0.17606797022E+04  0.17606797022E+04  0.50400001928E-02 0. -1.
       -1   -1    0    0    0  501  0.00000000000E+00  0.00000000000E+00 -0.15371430471E+04  0.15371430471E+04  0.50400001928E-02 0.  1.
    10030    2    1    2    0    0  0.00000000000E+00  0.00000000000E+00  0.22353665505E+03  0.32978227493E+04  0.32902380232E+04 0.  0.
        3    1    3    3  502    0 -0.85277541377E+03  0.11544103296E+04  0.91769118350E+03  0.17035393256E+04  0.10100000352E+00 0. -1.
       -3    1    3    3    0  502  0.85277541377E+03 -0.11544103296E+04 -0.69415452844E+03  0.15942834237E+04  0.10100000352E+00 0.  1.
</event>
<event>
 5   0  0.1784626E-06  0.3285754E+04  0.7818609E-02  0.8166530E-01
        2   -1    0    0  501    0  0.00000000000E+00  0.00000000000E+00  0.15681445575E+04  0.15681445575E+04  0.25500000920E-02 0. -1.
       -2   -1    0    0    0  501  0.00000000000E+00  0.00000000000E+00 -0.17211712217E+04  0.17211712217E+04  0.25500000920E-02 0.  1.
    10030    2    1    2    0    0  0.00000000000E+00  0.00000000000E+00 -0.15302666414E+03  0.32893157792E+04  0.32857542719E+04 0.  0.
        2    1    3    3  502    0  0.89511712218E+03 -0.33620388566E+03  0.12608904183E+04  0.15824387388E+04  0.25500000920E-02 0. -1.
       -2    1    3    3    0  502 -0.89511712218E+03  0.33620388566E+03 -0.14139170824E+04  0.17068770404E+04  0.25500000920E-02 0.  1.
</event>
<event>
 5   0  0.6023446E-07  0.3291418E+04  0.7818609E-02  0.8165082E-01
       -1   -1    0    0    0  501  0.00000000000E+00  0.00000000000E+00  0.88309251264E+03  0.88309251266E+03  0.50400001928E-02 0.  1.
        1   -1    0    0  501    0  0.00000000000E+00  0.00000000000E+00 -0.30669024291E+04  0.30669024291E+04  0.50400001928E-02 0. -1.
    10030    2    1    2    0    0  0.00000000000E+00  0.00000000000E+00 -0.21838099164E+04  0.39499949417E+04  0.32914182792E+04 0.  0.
        5    1    3    3  502    0  0.15226165908E+04  0.45055724096E+03 -0.16108284636E+04  0.22618915843E+04  0.46999998093E+01 0.  1.
       -5    1    3    3    0  502 -0.15226165908E+04 -0.45055724096E+03 -0.57298145276E+03  0.16881033574E+04  0.46999998093E+01 0. -1.
</event>
<event>
 5   0  0.1728937E-06  0.3302120E+04  0.7818609E-02  0.8162356E-01
       -2   -1    0    0    0  501  0.00000000000E+00  0.00000000000E+00  0.15846715520E+04  0.15846715520E+04  0.25500000920E-02 0.  1.
        2   -1    0    0  501    0  0.00000000000E+00  0.00000000000E+00 -0.17202299808E+04  0.17202299808E+04  0.25500000920E-02 0. -1.
    10030    2    1    2    0    0  0.00000000000E+00  0.00000000000E+00 -0.13555842880E+03  0.33049015328E+04  0.33021202361E+04 0.  0.
        1    1    3    3  502    0 -0.24415083995E+03  0.15741993265E+04  0.36650602935E+03  0.16346375200E+04  0.50400001928E-02 0.  1.
       -1    1    3    3    0  502  0.24415083995E+03 -0.15741993265E+04 -0.50206445815E+03  0.16702640128E+04  0.50400001928E-02 0. -1.
</event>
<event>
 5   0  0.5858859E-07  0.3246749E+04  0.7818609E-02  0.8176579E-01
        1   -1    0    0  501    0  0.00000000000E+00  0.00000000000E+00  0.28187463733E+04  0.28187463733E+04  0.50400001928E-02 0.  1.
       -1   -1    0    0    0  501  0.00000000000E+00  0.00000000000E+00 -0.93493521665E+03  0.93493521666E+03  0.50400001928E-02 0. -1.
    10030    2    1    2    0    0  0.00000000000E+00  0.00000000000E+00  0.18838111566E+04  0.37536815900E+04  0.32467492981E+04 0.  0.
        3    1    3    3  502    0  0.74359145526E+02  0.16052588099E+04  0.12079677436E+04  0.20103659391E+04  0.10100000352E+00 0.  1.
       -3    1    3    3    0  502 -0.74359145526E+02 -0.16052588099E+04  0.67584341300E+03  0.17433156508E+04  0.10100000352E+00 0. -1.
</event>
<event>
 5   0  0.1728937E-06  0.3340697E+04  0.7818609E-02  0.8152617E-01
       -2   -1    0    0    0  501  0.00000000000E+00  0.00000000000E+00  0.96215808895E+03  0.96215808896E+03  0.25500000920E-02 0. -1.
        2   -1    0    0  501    0  0.00000000000E+00  0.00000000000E+00 -0.28997978191E+04  0.28997978191E+04  0.25500000920E-02 0.  1.
    10030    2    1    2    0    0  0.00000000000E+00  0.00000000000E+00 -0.19376397302E+04  0.38619559081E+04  0.33406968902E+04 0.  0.
        1    1    3    3  502    0 -0.16629683766E+04 -0.12949132765E+03 -0.10711278237E+04  0.19823084120E+04  0.50400001928E-02 0.  1.
       -1    1    3    3    0  502  0.16629683766E+04  0.12949132765E+03 -0.86651190651E+03  0.18796474961E+04  0.50400001928E-02 0. -1.
</event>
<event>
 5   0  0.6085351E-07  0.3260241E+04  0.7818609E-02  0.8173086E-01
        1   -1    0    0  501    0  0.00000000000E+00  0.00000000000E+00  0.17569428085E+04  0.17569428085E+04  0.50400001928E-02 0.  1.
       -1   -1    0    0    0  501  0.00000000000E+00  0.00000000000E+00 -0.15124530605E+04  0.15124530605E+04  0.50400001928E-02 0. -1.
    10030    2    1    2    0    0  0.00000000000E+00  0.00000000000E+00  0.24448974794E+03  0.32693958690E+04  0.32602414192E+04 0.  0.
        1    1    3    3  502    0 -0.87508212561E+03 -0.12128719574E+04 -0.52800968481E+03  0.15860710384E+04  0.50400001928E-02 0. -1.
       -1    1    3    3    0  502  0.87508212561E+03  0.12128719574E+04  0.77249943275E+03  0.16833248306E+04  0.50400001928E-02 0.  1.
</event>
<event>
 5   0  0.1743810E-06  0.3277923E+04  0.7818609E-02  0.8168536E-01
       -2   -1    0    0    0  501  0.00000000000E+00  0.00000000000E+00  0.14322655029E+04  0.14322655029E+04  0.25500000920E-02 0.  1.
        2   -1    0    0  501    0  0.00000000000E+00  0.00000000000E+00 -0.18754869186E+04  0.18754869186E+04  0.25500000920E-02 0. -1.
    10030    2    1    2    0    0  0.00000000000E+00  0.00000000000E+00 -0.44322141570E+03  0.33077524215E+04  0.32779232539E+04 0.  0.
        5    1    3    3  502    0 -0.50409283870E+02 -0.16296041160E+04 -0.39053312865E+03  0.16765109261E+04  0.46999998093E+01 0. -1.
       -5    1    3    3    0  502  0.50409283870E+02  0.16296041160E+04 -0.52688287055E+02  0.16312414954E+04  0.46999998093E+01 0.  1.
</event>
<event>
 5   0  0.5985183E-07  0.3252335E+04  0.7818609E-02  0.8175131E-01
       -1   -1    0    0    0  501  0.00000000000E+00  0.00000000000E+00  0.10649620476E+04  0.10649620476E+04  0.50400001928E-02 0.  1.
        1   -1    0    0  501    0  0.00000000000E+00  0.00000000000E+00 -0.24831122370E+04  0.24831122370E+04  0.50400001928E-02 0. -1.
    10030    2    1    2    0    0  0.00000000000E+00  0.00000000000E+00 -0.14181501893E+04  0.35480742846E+04  0.32523347260E+04 0.  0.
        2    1    3    3  502    0 -0.10753626531E+04  0.66326449947E+03  0.40778282743E+03  0.13276337847E+04  0.25500000920E-02 0.  1.
       -2    1    3    3    0  502  0.10753626531E+04 -0.66326449947E+03 -0.18259330168E+04  0.22204404999E+04  0.25500000920E-02 0. -1.
</event>
<event>
 5   0  0.1832626E-06  0.3333466E+04  0.7818609E-02  0.8154432E-01
        2   -1    0    0  501    0  0.00000000000E+00  0.00000000000E+00  0.21993292798E+04  0.21993292798E+04  0.25500000920E-02 0.  1.
       -2   -1    0    0    0  501  0.00000000000E+00  0.00000000000E+00 -0.12631122339E+04  0.12631122339E+04  0.25500000920E-02 0. -1.
    10030    2    1    2    0    0  0.00000000000E+00  0.00000000000E+00  0.93621704588E+03  0.34624415137E+04  0.33334664958E+04 0.  0.
        3    1    3    3  502    0 -0.25197334947E+03 -0.46979429168E+03  0.21083862079E+04  0.21747389860E+04  0.10100000352E+00 0.  1.
       -3    1    3    3    0  502  0.25197334947E+03  0.46979429168E+03 -0.11721691620E+04  0.12877025277E+04  0.10100000352E+00 0. -1.
</event>
<event>
 5   0  0.1784626E-06  0.2997749E+04  0.7818609E-02  0.8244374E-01
        2   -1    0    0  501    0  0.00000000000E+00  0.00000000000E+00  0.13429027292E+04  0.13429027292E+04  0.25500000920E-02 0.  1.
       -2   -1    0    0    0  501  0.00000000000E+00  0.00000000000E+00 -0.16729619849E+04  0.16729619849E+04  0.25500000920E-02 0. -1.
    10030    2    1    2    0    0  0.00000000000E+00  0.00000000000E+00 -0.33005925570E+03  0.30158647142E+04  0.29977492994E+04 0.  0.
        2    1    3    3  502    0 -0.10809745593E+04  0.26773225996E+03  0.84424696250E+03  0.13974761159E+04  0.25500000920E-02 0.  1.
       -2    1    3    3    0  502  0.10809745593E+04 -0.26773225996E+03 -0.11743062182E+04  0.16183885983E+04  0.25500000920E-02 0. -1.
</event>
<event>
 5   0  0.5985183E-07  0.3288249E+04  0.7818609E-02  0.8165892E-01
        1   -1    0    0  501    0  0.00000000000E+00  0.00000000000E+00  0.15005954342E+04  0.15005954342E+04  0.50400001928E-02 0. -1.
       -1   -1    0    0    0  501  0.00000000000E+00  0.00000000000E+00 -0.18013823425E+04  0.18013823425E+04  0.50400001928E-02 0.  1.
    10030    2    1    2    0    0  0.00000000000E+00  0.00000000000E+00 -0.30078690827E+03  0.33019777768E+04  0.32882494544E+04 0.  0.
        2    1    3    3  502    0 -0.48704058594E+03  0.94598797412E+03  0.11082525760E+04  0.15363351040E+04  0.25500000920E-02 0. -1.
       -2    1    3    3    0  502  0.48704058594E+03 -0.94598797412E+03 -0.14090394843E+04  0.17656426728E+04  0.25500000920E-02 0.  1.
</event>
<event>
 5   0  0.1743810E-06  0.3314342E+04  0.7818609E-02  0.8159256E-01
       -2   -1    0    0    0  501  0.00000000000E+00  0.00000000000E+00  0.15458852494E+04  0.15458852494E+04  0.25500000920E-02 0. -1.
        2   -1    0    0  501    0  0.00000000000E+00  0.00000000000E+00 -0.17764675859E+04  0.17764675859E+04  0.25500000920E-02 0.  1.
    10030    2    1    2    0    0  0.00000000000E+00  0.00000000000E+00 -0.23058233655E+03  0.33223528353E+04  0.33143415860E+04 0.  0.
        5    1    3    3  502    0  0.37548877845E+03 -0.72343643417E+03  0.13310550013E+04  0.15607951831E+04  0.46999998093E+01 0. -1.
       -5    1    3    3    0  502 -0.37548877845E+03  0.72343643417E+03 -0.15616373379E+04  0.17615576522E+04  0.46999998093E+01 0.  1.
</event>
<event>
 5   0  0.1743810E-06  0.3273748E+04  0.7818609E-02  0.8169607E-01
        2   -1    0    0  501    0  0.00000000000E+00  0.00000000000E+00  0.13776058333E+04  0.13776058333E+04  0.25500000920E-02 0.  1.
       -2   -1    0    0    0  501  0.00000000000E+00  0.00000000000E+00 -0.19449374052E+04  0.19449374052E+04  0.25500000920E-02 0. -1.
    10030    2    1    2    0    0  0.00000000000E+00  0.00000000000E+00 -0.56733157192E+03  0.33225432386E+04  0.32737483806E+04 0.  0.
        5    1    3    3  502    0  0.16677211838E+03  0.18637328330E+03 -0.19254252884E+04  0.19416056683E+04  0.46999998093E+01 0. -1.
       -5    1    3    3    0  502 -0.16677211838E+03 -0.18637328330E+03  0.13580937164E+04  0.13809375702E+04  0.46999998093E+01 0.  1.
</event>
<event>
 5   0  0.1832626E-06  0.3324587E+04  0.7818609E-02  0.8156667E-01
        2   -1    0    0  501    0  0.00000000000E+00  0.00000000000E+00  0.27285190529E+04  0.27285190529E+04  0.25500000920E-02 0. -1.
       -2   -1    0    0    0  501  0.00000000000E+00  0.00000000000E+00 -0.10127175621E+04  0.10127175621E+04  0.25500000920E-02 0.  1.
    10030    2    1    2    0    0  0.00000000000E+00  0.00000000000E+00  0.17158014908E+04  0.37412366150E+04  0.33245866892E+04 0.  0.
        3    1    3    3  502    0 -0.52214626217E+03 -0.67941219025E+02  0.26321929471E+04  0.26843420887E+04  0.10100000352E+00 0. -1.
       -3    1    3    3    0  502  0.52214626217E+03  0.67941219025E+02 -0.91639145632E+03  0.10568945263E+04  0.10100000352E+00 0.  1.
</event>
<event>
 5   0  0.1728937E-06  0.3324239E+04  0.7818609E-02  0.8156755E-01
        2   -1    0    0  501    0  0.00000000000E+00  0.00000000000E+00  0.16507114664E+04  0.16507114664E+04  0.25500000920E-02 0.  1.
       -2   -1    0    0    0  501  0.00000000000E+00  0.00000000000E+00 -0.16736064429E+04  0.16736064429E+04  0.25500000920E-02 0. -1.
    10030    2    1    2    0    0  0.00000000000E+00  0.00000000000E+00 -0.22894976493E+02  0.33243179093E+04  0.33242390681E+04 0.  0.
        1    1    3    3  502    0 -0.47658523890E+03  0.13985897473E+04 -0.77268467898E+03  0.16674016866E+04  0.50400001928E-02 0. -1.
       -1    1    3    3    0  502  0.47658523890E+03 -0.13985897473E+04  0.74978970249E+03  0.16569162227E+04  0.50400001928E-02 0.  1.
</event>
<event>
 5   0  0.6023446E-07  0.3303173E+04  0.7818609E-02  0.8162089E-01
        1   -1    0    0  501    0  0.00000000000E+00  0.00000000000E+00  0.16009685149E+04  0.16009685149E+04  0.50400001928E-02 0. -1.
       -1   -1    0    0    0  501  0.00000000000E+00  0.00000000000E+00 -0.17038045656E+04  0.17038045656E+04  0.50400001928E-02 0.  1.
    10030    2    1    2    0    0  0.00000000000E+00  0.00000000000E+00 -0.10283605068E+03  0.33047730805E+04  0.33031726961E+04 0.  0.
        5    1    3    3  502    0 -0.12309086340E+04  0.20028114770E+03 -0.11347476914E+04  0.16860969772E+04  0.46999998093E+01 0.  1.
       -5    1    3    3    0  502  0.12309086340E+04 -0.20028114770E+03  0.10319116407E+04  0.16186761033E+04  0.46999998093E+01 0. -1.
</event>
<event>
 5   0  0.6085351E-07  0.3307548E+04  0.7818609E-02  0.8160977E-01
        1   -1    0    0  501    0  0.00000000000E+00  0.00000000000E+00  0.17083638460E+04  0.17083638461E+04  0.50400001928E-02 0. -1.
       -1   -1    0    0    0  501  0.00000000000E+00  0.00000000000E+00 -0.16009287905E+04  0.16009287905E+04  0.50400001928E-02 0.  1.
    10030    2    1    2    0    0  0.00000000000E+00  0.00000000000E+00  0.10743505556E+03  0.33092926366E+04  0.33075482556E+04 0.  0.
        1    1    3    3  502    0  0.17430705971E+03  0.36176768288E+03 -0.15514072314E+04  0.16025364910E+04  0.50400001928E-02 0.  1.
       -1    1    3    3    0  502 -0.17430705971E+03 -0.36176768288E+03  0.16588422869E+04  0.17067561455E+04  0.50400001928E-02 0. -1.
</event>
<event>
 5   0  0.1784626E-06  0.3255375E+04  0.7818609E-02  0.8174344E-01
       -2   -1    0    0    0  501  0.00000000000E+00  0.00000000000E+00  0.14393686835E+04  0.14393686835E+04  0.25500000920E-02 0. -1.
        2   -1    0    0  501    0  0.00000000000E+00  0.00000000000E+00 -0.18406453911E+04  0.18406453911E+04  0.25500000920E-02 0.  1.
    10030    2    1    2    0    0  0.00000000000E+00  0.00000000000E+00 -0.40127670761E+03  0.32800140745E+04  0.32553754519E+04 0.  0.
        2    1    3    3  502    0  0.29886128176E+03 -0.15443390877E+04  0.22093736504E+03  0.15884314914E+04  0.25500000920E-02 0. -1.
       -2    1    3    3    0  502 -0.29886128176E+03  0.15443390877E+04 -0.62221407265E+03  0.16915825832E+04  0.25500000920E-02 0.  1.
</event>
<event>
 5   0  0.5985183E-07  0.3282335E+04  0.7818609E-02  0.8167405E-01
       -1   -1    0    0    0  501  0.00000000000E+00  0.00000000000E+00  0.13858325804E+04  0.13858325804E+04  0.50400001928E-02 0. -1.
        1   -1    0    0  501    0  0.00000000000E+00  0.00000000000E+00 -0.19435467826E+04  0.19435467826E+04  0.50400001928E-02 0.  1.
    10030    2    1    2    0    0  0.00000000000E+00  0.00000000000E+00 -0.55771420218E+03  0.33293793631E+04  0.32823348111E+04 0.  0.
        2    1    3    3  502    0  0.13110634763E+04 -0.95328767359E+03 -0.53902032672E+03  0.17082703943E+04  0.25500000920E-02 0.  1.
       -2    1    3    3    0  502 -0.13110634763E+04  0.95328767359E+03 -0.18693875465E+02  0.16211089687E+04  0.25500000920E-02 0. -1.
</event>
<event>
 5   0  0.1728937E-06  0.3311177E+04  0.7818609E-02  0.8160057E-01
        2   -1    0    0  501    0  0.00000000000E+00  0.00000000000E+00  0.21664339995E+04  0.21664339995E+04  0.25500000920E-02 0.  1.
       -2   -1    0    0    0  501  0.00000000000E+00  0.00000000000E+00 -0.12652004915E+04  0.12652004915E+04  0.25500000920E-02 0. -1.
    10030    2    1    2    0    0  0.00000000000E+00  0.00000000000E+00  0.90123350796E+03  0.34316344910E+04  0.33111770481E+04 0.  0.
        1    1    3    3  502    0  0.98251693708E+03  0.12369326904E+04 -0.63025233171E+02  0.15809219438E+04  0.50400001928E-02 0. -1.
       -1    1    3    3    0  502 -0.98251693708E+03 -0.12369326904E+04  0.96425874113E+03  0.18507125472E+04  0.50400001928E-02 0.  1.
</event>
<event>
 5   0  0.1743810E-06  0.3307250E+04  0.7818609E-02  0.8161053E-01
       -2   -1    0    0    0  501  0.00000000000E+00  0.00000000000E+00  0.18547933884E+04  0.18547933884E+04  0.25500000920E-02 0. -1.
        2   -1    0    0  501    0  0.00000000000E+00  0.00000000000E+00 -0.14742748951E+04  0.14742748951E+04  0.25500000920E-02 0.  1.
    10030    2    1    2    0    0  0.00000000000E+00  0.00000000000E+00  0.38051849331E+03  0.33290682835E+04  0.33072498110E+04 0.  0.
        5    1    3    3  502    0  0.15719796258E+04  0.44093287491E+03  0.45450105690E+03  0.16947374560E+04  0.46999998093E+01 0. -1.
       -5    1    3    3    0  502 -0.15719796258E+04 -0.44093287491E+03 -0.73982563591E+02  0.16343308275E+04  0.46999998093E+01 0.  1.
</event>
<event>
 5   0  0.6023446E-07  0.3293368E+04  0.7818609E-02  0.8164585E-01
       -1   -1    0    0    0  501  0.00000000000E+00  0.00000000000E+00  0.16234658021E+04  0.16234658021E+04  0.50400001928E-02 0.  1.
        1   -1    0    0  501    0  0.00000000000E+00  0.00000000000E+00 -0.16702340390E+04  0.16702340390E+04  0.50400001928E-02 0. -1.
    10030    2    1    2    0    0  0.00000000000E+00  0.00000000000E+00 -0.46768236919E+02  0.32936998411E+04  0.32933677862E+04 0.  0.
        5    1    3    3  502    0  0.19087049783E+03 -0.33750206537E+03 -0.16239224835E+04  0.16695764473E+04  0.46999998093E+01 0. -1.
       -5    1    3    3    0  502 -0.19087049783E+03  0.33750206537E+03  0.15771542465E+04  0.16241233938E+04  0.46999998093E+01 0.  1.
</event>
<event>
 5   0  0.6023446E-07  0.3286072E+04  0.7818609E-02  0.8166448E-01
       -1   -1    0    0    0  501  0.00000000000E+00  0.00000000000E+00  0.12583999701E+04  0.12583999701E+04  0.50400001928E-02 0.  1.
        1   -1    0    0  501    0  0.00000000000E+00  0.00000000000E+00 -0.21452383685E+04  0.21452383685E+04  0.50400001928E-02 0. -1.
    10030    2    1    2    0    0  0.00000000000E+00  0.00000000000E+00 -0.88683839843E+03  0.34036383386E+04  0.32860723660E+04 0.  0.
        5    1    3    3  502    0  0.48169264251E+03  0.12377572777E+04  0.55838387460E+03  0.14407933654E+04  0.46999998093E+01 0.  1.
       -5    1    3    3    0  502 -0.48169264251E+03 -0.12377572777E+04 -0.14452222730E+04  0.19628449732E+04  0.46999998093E+01 0. -1.
</event>
<event>
 5   0  0.1728937E-06  0.3316009E+04  0.7818609E-02  0.8158834E-01
       -2   -1    0    0    0  501  0.00000000000E+00  0.00000000000E+00  0.12608268037E+04  0.12608268037E+04  0.25500000920E-02 0.  1.
        2   -1    0    0  501    0  0.00000000000E+00  0.00000000000E+00 -0.21802981110E+04  0.21802981110E+04  0.25500000920E-02 0. -1.
    10030    2    1    2    0    0  0.00000000000E+00  0.00000000000E+00 -0.91947130729E+03  0.34411249147E+04  0.33160086239E+04 0.  0.
        1    1    3    3  502    0  0.66470566763E+03 -0.14671008931E+04 -0.51497447536E+02  0.16114808848E+04  0.50400001928E-02 0. -1.
       -1    1    3    3    0  502 -0.66470566763E+03  0.14671008931E+04 -0.86797385975E+03  0.18296440299E+04  0.50400001928E-02 0.  1.
</event>
<event>
 5   0  0.1696681E-06  0.3285075E+04  0.7818609E-02  0.8166703E-01
       -2   -1    0    0    0  501  0.00000000000E+00  0.00000000000E+00  0.15618351951E+04  0.15618351951E+04  0.25500000920E-02 0.  1.
        2   -1    0    0  501    0  0.00000000000E+00  0.00000000000E+00 -0.17274101945E+04  0.17274101945E+04  0.25500000920E-02 0. -1.
    10030    2    1    2    0    0  0.00000000000E+00  0.00000000000E+00 -0.16557499939E+03  0.32892453896E+04  0.32850753648E+04 0.  0.
        4    1    3    3  502    0 -0.33211210945E+03 -0.10776108527E+04  0.11130420797E+04  0.15844266746E+04  0.12699999809E+01 0.  1.
       -4    1    3    3    0  502  0.33211210945E+03  0.10776108527E+04 -0.12786170791E+04  0.17048187150E+04  0.12699999809E+01 0. -1.
</event>
<event>
 5   0  0.5985183E-07  0.3307980E+04  0.7818609E-02  0.8160868E-01
       -1   -1    0    0    0  501  0.00000000000E+00  0.00000000000E+00  0.14885232102E+04  0.14885232102E+04  0.50400001928E-02 0.  1.
        1   -1    0    0  501    0  0.00000000000E+00  0.00000000000E+00 -0.18378501443E+04  0.18378501443E+04  0.50400001928E-02 0. -1.
    10030    2    1    2    0    0  0.00000000000E+00  0.00000000000E+00 -0.34932693407E+03  0.33263733545E+04  0.33079798044E+04 0.  0.
        2    1    3    3  502    0 -0.77759779827E+02  0.37942502981E+03 -0.17916072295E+04  0.18329938357E+04  0.25500000920E-02 0. -1.
       -2    1    3    3    0  502  0.77759779827E+02 -0.37942502981E+03  0.14422802955E+04  0.14933795188E+04  0.25500000920E-02 0.  1.
</event>
<event>
 5   0  0.5988516E-07  0.3178399E+04  0.7818609E-02  0.8194545E-01
        1   -1    0    0  501    0  0.00000000000E+00  0.00000000000E+00  0.23888883638E+04  0.23888883638E+04  0.50400001928E-02 0. -1.
       -1   -1    0    0    0  501  0.00000000000E+00  0.00000000000E+00 -0.10572096221E+04  0.10572096221E+04  0.50400001928E-02 0.  1.
    10030    2    1    2    0    0  0.00000000000E+00  0.00000000000E+00  0.13316787417E+04  0.34460979860E+04  0.31783994490E+04 0.  0.
        4    1    3    3  502    0  0.60253131959E+03  0.14613114227E+04  0.48742240570E+03  0.16541031648E+04  0.12699999809E+01 0. -1.
       -4    1    3    3    0  502 -0.60253131959E+03 -0.14613114227E+04  0.84425633602E+03  0.17919948212E+04  0.12699999809E+01 0.  1.
</event>
<event>
 5   0  0.1832626E-06  0.3292082E+04  0.7818609E-02  0.8164913E-01
        2   -1    0    0  501    0  0.00000000000E+00  0.00000000000E+00  0.25682814366E+04  0.25682814366E+04  0.25500000920E-02 0.  1.
       -2   -1    0    0    0  501  0.00000000000E+00  0.00000000000E+00 -0.10549663475E+04  0.10549663475E+04  0.25500000920E-02 0. -1.
    10030    2    1    2    0    0  0.00000000000E+00  0.00000000000E+00  0.15133150890E+04  0.36232477841E+04  0.32920817040E+04 0.  0.
        3    1    3    3  502    0  0.79187984584E+02 -0.45895247469E+03 -0.98093804064E+03  0.10858856112E+04  0.10100000352E+00 0. -1.
       -3    1    3    3    0  502 -0.79187984584E+02  0.45895247469E+03  0.24942531297E+04  0.25373621728E+04  0.10100000352E+00 0.  1.
</event>
<event>
 5   0  0.6085351E-07  0.3335550E+04  0.7818609E-02  0.8153908E-01
       -1   -1    0    0    0  501  0.00000000000E+00  0.00000000000E+00  0.15158490189E+04  0.15158490189E+04  0.50400001928E-02 0.  1.
        1   -1    0    0  501    0  0.00000000000E+00  0.00000000000E+00 -0.18349276945E+04  0.18349276945E+04  0.50400001928E-02 0. -1.
    10030    2    1    2    0    0  0.00000000000E+00  0.00000000000E+00 -0.31907867557E+03  0.33507767134E+04  0.33355499370E+04 0.  0.
        1    1    3    3  502    0 -0.25204796779E+03 -0.12733987428E+04  0.89233222801E+03  0.15752235845E+04  0.50400001928E-02 0.  1.
       -1    1    3    3    0  502  0.25204796779E+03  0.12733987428E+04 -0.12114109036E+04  0.17755531289E+04  0.50400001928E-02 0. -1.
</event>
<event>
 5   0  0.1743810E-06  0.3555891E+04  0.7818609E-02  0.8100671E-01
        2   -1    0    0  501    0  0.00000000000E+00  0.00000000000E+00  0.20518406736E+04  0.20518406736E+04  0.25500000920E-02 0.  1.
       -2   -1    0    0    0  501  0.00000000000E+00  0.00000000000E+00 -0.15406120427E+04  0.15406120427E+04  0.25500000920E-02 0. -1.
    10030    2    1    2    0    0  0.00000000000E+00  0.00000000000E+00  0.51122863087E+03  0.35924527163E+04  0.35558911409E+04 0.  0.
        5    1    3    3  502    0 -0.47267855015E+03 -0.10784042273E+03 -0.14725331076E+04  0.15503001037E+04  0.46999998093E+01 0. -1.
       -5    1    3    3    0  502  0.47267855015E+03  0.10784042273E+03  0.19837617384E+04  0.20421526127E+04  0.46999998093E+01 0.  1.
</event>
<event>
 5   0  0.5985183E-07  0.3285702E+04  0.7818609E-02  0.8166543E-01
        1   -1    0    0  501    0  0.00000000000E+00  0.00000000000E+00  0.21022074676E+04  0.21022074676E+04  0.50400001928E-02 0. -1.
       -1   -1    0    0    0  501  0.00000000000E+00  0.00000000000E+00 -0.12838689374E+04  0.12838689374E+04  0.50400001928E-02 0.  1.
    10030    2    1    2    0    0  0.00000000000E+00  0.00000000000E+00  0.81833853027E+03  0.33860764050E+04  0.32857016710E+04 0.  0.
        2    1    3    3  502    0  0.25261501367E+03  0.13148288941E+04 -0.57194878723E+03  0.14559240300E+04  0.25500000920E-02 0.  1.
       -2    1    3    3    0  502 -0.25261501367E+03 -0.13148288941E+04  0.13902873175E+04  0.19301523751E+04  0.25500000920E-02 0. -1.
</event>
<event>
 5   0  0.1728937E-06  0.3329553E+04  0.7818609E-02  0.8155416E-01
       -2   -1    0    0    0  501  0.00000000000E+00  0.00000000000E+00  0.12712790788E+04  0.12712790788E+04  0.25500000920E-02 0. -1.
        2   -1    0    0  501    0  0.00000000000E+00  0.00000000000E+00 -0.21800726651E+04  0.21800726651E+04  0.25500000920E-02 0.  1.
    10030    2    1    2    0    0  0.00000000000E+00  0.00000000000E+00 -0.90879358629E+03  0.34513517439E+04  0.33295529846E+04 0.  0.
        1    1    3    3  502    0  0.96210465140E+03 -0.73006016067E+02 -0.18606769722E+04  0.20959709047E+04  0.50400001928E-02 0.  1.
       -1    1    3    3    0  502 -0.96210465140E+03  0.73006016067E+02  0.95188338591E+03  0.13553808391E+04  0.50400001928E-02 0. -1.
</event>
<event>
 5   0  0.1784626E-06  0.3251290E+04  0.7818609E-02  0.8175401E-01
       -2   -1    0    0    0  501  0.00000000000E+00  0.00000000000E+00  0.17149343642E+04  0.17149343642E+04  0.25500000920E-02 0. -1.
        2   -1    0    0  501    0  0.00000000000E+00  0.00000000000E+00 -0.15410044667E+04  0.15410044667E+04  0.25500000920E-02 0.  1.
    10030    2    1    2    0    0  0.00000000000E+00  0.00000000000E+00  0.17392989750E+03  0.32559388309E+04  0.32512899073E+04 0.  0.
        2    1    3    3  502    0 -0.60652324403E+02  0.15562892647E+04  0.55347064172E+03  0.16528898122E+04  0.25500000920E-02 0. -1.
       -2    1    3    3    0  502  0.60652324403E+02 -0.15562892647E+04 -0.37954074422E+03  0.16030490188E+04  0.25500000920E-02 0.  1.
</event>
<event>
 5   0  0.5685000E-07  0.3254027E+04  0.7818609E-02  0.8174693E-01
        3   -1    0    0  501    0  0.00000000000E+00  0.00000000000E+00  0.22371581079E+04  0.22371581102E+04  0.10100000352E+00 0.  1.
       -3   -1    0    0    0  501  0.00000000000E+00  0.00000000000E+00 -0.11832747206E+04  0.11832747249E+04  0.10100000352E+00 0. -1.
    10030    2    1    2    0    0  0.00000000000E+00  0.00000000000E+00  0.10538833873E+04  0.34204328351E+04  0.32540268262E+04 0.  0.
        5    1    3    3  502    0 -0.14407550715E+04 -0.36398535997E+03  0.12233080801E+04  0.19247766798E+04  0.46999998093E+01 0.  1.
       -5    1    3    3    0  502  0.14407550715E+04  0.36398535997E+03 -0.16942469273E+03  0.14956561553E+04  0.46999998093E+01 0. -1.
</event>
<event>
 5   0  0.5988516E-07  0.3295079E+04  0.7818609E-02  0.8164149E-01
        1   -1    0    0  501    0  0.00000000000E+00  0.00000000000E+00  0.23768520249E+04  0.23768520249E+04  0.50400001928E-02 0.  1.
       -1   -1    0    0    0  501  0.00000000000E+00  0.00000000000E+00 -0.11420089356E+04  0.11420089356E+04  0.50400001928E-02 0. -1.
    10030    2    1    2    0    0  0.00000000000E+00  0.00000000000E+00  0.12348430894E+04  0.35188609605E+04  0.32950789071E+04 0.  0.
        4    1    3    3  502    0  0.87713526140E+03  0.10328303073E+04  0.16182341499E+04  0.21106368914E+04  0.12699999809E+01 0.  1.
       -4    1    3    3    0  502 -0.87713526140E+03 -0.10328303073E+04 -0.38339106059E+03  0.14082240691E+04  0.12699999809E+01 0. -1.
</event>
<event>
 5   0  0.1696681E-06  0.3191593E+04  0.7818609E-02  0.8191041E-01
        2   -1    0    0  501    0  0.00000000000E+00  0.00000000000E+00  0.23559587664E+04  0.23559587664E+04  0.25500000920E-02 0.  1.
       -2   -1    0    0    0  501  0.00000000000E+00  0.00000000000E+00 -0.10809043695E+04  0.10809043695E+04  0.25500000920E-02 0. -1.
    10030    2    1    2    0    0  0.00000000000E+00  0.00000000000E+00  0.12750543970E+04  0.34368631359E+04  0.31915927841E+04 0.  0.
        4    1    3    3  502    0 -0.95447665124E+02  0.69670780951E+03 -0.90505741577E+03  0.11461424725E+04  0.12699999809E+01 0. -1.
       -4    1    3    3    0  502  0.95447665124E+02 -0.69670780951E+03  0.21801118127E+04  0.22907206634E+04  0.12699999809E+01 0.  1.
</event>
<event>
 5   0  0.1743810E-06  0.3228818E+04  0.7818609E-02  0.8181248E-01
        2   -1    0    0  501    0  0.00000000000E+00  0.00000000000E+00  0.18385141715E+04  0.18385141715E+04  0.25500000920E-02 0. -1.
       -2   -1    0    0    0  501  0.00000000000E+00  0.00000000000E+00 -0.14176213287E+04  0.14176213287E+04  0.25500000920E-02 0.  1.
    10030    2    1    2    0    0  0.00000000000E+00  0.00000000000E+00  0.42089284273E+03  0.32561355002E+04  0.32288182994E+04 0.  0.
        5    1    3    3  502    0 -0.15585168496E+04  0.41826526467E+03  0.16130830720E+03  0.16217160855E+04  0.46999998093E+01 0.  1.
       -5    1    3    3    0  502  0.15585168496E+04 -0.41826526467E+03  0.25958453553E+03  0.16344194147E+04  0.46999998093E+01 0. -1.
</event>
<event>
 5   0  0.6085351E-07  0.3390586E+04  0.7818609E-02  0.8140221E-01
       -1   -1    0    0    0  501  0.00000000000E+00  0.00000000000E+00  0.10461005710E+04  0.10461005710E+04  0.50400001928E-02 0. -1.
        1   -1    0    0  501    0  0.00000000000E+00  0.00000000000E+00 -0.27473632294E+04  0.27473632294E+04  0.50400001928E-02 0.  1.
    10030    2    1    2    0    0  0.00000000000E+00  0.00000000000E+00 -0.17012626585E+04  0.37934638004E+04  0.33905859334E+04 0.  0.
        1    1    3    3  502    0 -0.94690288442E+03  0.13326081491E+04 -0.13529174521E+04  0.21219932101E+04  0.50400001928E-02 0.  1.
       -1    1    3    3    0  502  0.94690288442E+03 -0.13326081491E+04 -0.34834520641E+03  0.16714705903E+04  0.50400001928E-02 0. -1.
</event>
<event>
 5   0  0.1696681E-06  0.3314780E+04  0.7818609E-02  0.8159145E-01
        2   -1    0    0  501    0  0.00000000000E+00  0.00000000000E+00  0.15208652432E+04  0.15208652432E+04  0.25500000920E-02 0. -1.
       -2   -1    0    0    0  501  0.00000000000E+00  0.00000000000E+00 -0.18061707721E+04  0.18061707721E+04  0.25500000920E-02 0.  1.
    10030    2    1    2    0    0  0.00000000000E+00  0.00000000000E+00 -0.28530552897E+03  0.33270360153E+04  0.33147804456E+04 0.  0.
        4    1    3    3  502    0  0.23759544048E+03  0.62144755008E+03 -0.16662546385E+04  0.17941724510E+04  0.12699999809E+01 0.  1.
       -4    1    3    3    0  502 -0.23759544048E+03 -0.62144755008E+03  0.13809491095E+04  0.15328635643E+04  0.12699999809E+01 0. -1.
</event>
<event>
 5   0  0.5858859E-07  0.3296163E+04  0.7818609E-02  0.8163872E-01
       -1   -1    0    0    0  501  0.00000000000E+00  0.00000000000E+00  0.12499106007E+04  0.12499106007E+04  0.50400001928E-02 0.  1.
        1   -1    0    0  501    0  0.00000000000E+00  0.00000000000E+00 -0.21730934522E+04  0.21730934522E+04  0.50400001928E-02 0. -1.
    10030    2    1    2    0    0  0.00000000000E+00  0.00000000000E+00 -0.92318285150E+03  0.34230040528E+04  0.32961629463E+04 0.  0.
        3    1    3    3  502    0 -0.57669731916E+03  0.91550267049E+03 -0.17525903542E+04  0.20596839315E+04  0.10100000352E+00 0. -1.
       -3    1    3    3    0  502  0.57669731916E+03 -0.91550267049E+03  0.82940750271E+03  0.13633201214E+04  0.10100000352E+00 0.  1.
</event>
<event>
 5   0  0.5985183E-07  0.3217899E+04  0.7818609E-02  0.8184106E-01
       -1   -1    0    0    0  501  0.00000000000E+00  0.00000000000E+00  0.11710603776E+04  0.11710603776E+04  0.50400001928E-02 0.  1.
        1   -1    0    0  501    0  0.00000000000E+00  0.00000000000E+00 -0.22105770052E+04  0.22105770052E+04  0.50400001928E-02 0. -1.
    10030    2    1    2    0    0  0.00000000000E+00  0.00000000000E+00 -0.10395166276E+04  0.33816373828E+04  0.32178994034E+04 0.  0.
        2    1    3    3  502    0  0.92874164925E+03 -0.12309551137E+04 -0.37143457028E+02  0.15424626995E+04  0.25500000920E-02 0.  1.
       -2    1    3    3    0  502 -0.92874164925E+03  0.12309551137E+04 -0.10023731705E+04  0.18391746834E+04  0.25500000920E-02 0. -1.
</event>
<event>
 5   0  0.5985183E-07  0.3135615E+04  0.7818609E-02  0.8206031E-01
       -1   -1    0    0    0  501  0.00000000000E+00  0.00000000000E+00  0.16758903589E+04  0.16758903589E+04  0.50400001928E-02 0. -1.
        1   -1    0    0  501    0  0.00000000000E+00  0.00000000000E+00 -0.14666956648E+04  0.14666956648E+04  0.50400001928E-02 0.  1.
    10030    2    1    2    0    0  0.00000000000E+00  0.00000000000E+00  0.20919469413E+03  0.31425860237E+04  0.31356154893E+04 0.  0.
        2    1    3    3  502    0  0.52552680168E+03 -0.22553891549E+03 -0.13584336953E+04  0.14739024141E+04  0.25500000920E-02 0.  1.
       -2    1    3    3    0  502 -0.52552680168E+03  0.22553891549E+03  0.15676283894E+04  0.16686836096E+04  0.25500000920E-02 0. -1.
</event>
<event>
 5   0  0.6085351E-07  0.3350282E+04  0.7818609E-02  0.8150218E-01
        1   -1    0    0  501    0  0.00000000000E+00  0.00000000000E+00  0.94237784658E+03  0.94237784660E+03  0.50400001928E-02 0.  1.
       -1   -1    0    0    0  501  0.00000000000E+00  0.00000000000E+00 -0.29776766871E+04  0.29776766871E+04  0.50400001928E-02 0. -1.
    10030    2    1    2    0    0  0.00000000000E+00  0.00000000000E+00 -0.20352988405E+04  0.39200545337E+04  0.33502815071E+04 0.  0.
        1    1    3    3  502    0  0.14190629487E+04 -0.46974872327E+03 -0.13295710084E+03  0.15006935417E+04  0.50400001928E-02 0. -1.
       -1    1    3    3    0  502 -0.14190629487E+04  0.46974872327E+03 -0.19023417396E+04  0.24193609920E+04  0.50400001928E-02 0.  1.
</event>
<event>
 5   0  0.6023446E-07  0.3135649E+04  0.7818609E-02  0.8206022E-01
        1   -1    0    0  501    0  0.00000000000E+00  0.00000000000E+00  0.20583215516E+04  0.20583215516E+04  0.50400001928E-02 0.  1.
       -1   -1    0    0    0  501  0.00000000000E+00  0.00000000000E+00 -0.11942129339E+04  0.11942129339E+04  0.50400001928E-02 0. -1.
    10030    2    1    2    0    0  0.00000000000E+00  0.00000000000E+00  0.86410861771E+03  0.32525344855E+04  0.31356493548E+04 0.  0.
        5    1    3    3  502    0  0.93954759285E+03  0.39538325442E+03  0.16676651745E+04  0.19545349373E+04  0.46999998093E+01 0.  1.
       -5    1    3    3    0  502 -0.93954759285E+03 -0.39538325442E+03 -0.80355655675E+03  0.12979995481E+04  0.46999998093E+01 0. -1.
</event>
<event>
 5   0  0.5985183E-07  0.3300457E+04  0.7818609E-02  0.8162779E-01
        1   -1    0    0  501    0  0.00000000000E+00  0.00000000000E+00  0.17785766699E+04  0.17785766699E+04  0.50400001928E-02 0.  1.
       -1   -1    0    0    0  501  0.00000000000E+00  0.00000000000E+00 -0.15311423866E+04  0.15311423866E+04  0.50400001928E-02 0. -1.
    10030    2    1    2    0    0  0.00000000000E+00  0.00000000000E+00  0.24743428338E+03  0.33097190565E+04  0.33004570151E+04 0.  0.
        2    1    3    3  502    0 -0.12489285394E+04  0.67184816097E+03 -0.72248244145E+03  0.15915977275E+04  0.25500000920E-02 0. -1.
       -2    1    3    3    0  502  0.12489285394E+04 -0.67184816097E+03  0.96991672482E+03  0.17181213290E+04  0.25500000920E-02 0.  1.
</event>
<event>
 5   0  0.1696681E-06  0.3306427E+04  0.7818609E-02  0.8161262E-01
       -2   -1    0    0    0  501  0.00000000000E+00  0.00000000000E+00  0.12786684229E+04  0.12786684229E+04  0.25500000920E-02 0.  1.
        2   -1    0    0  501    0  0.00000000000E+00  0.00000000000E+00 -0.21374697483E+04  0.21374697483E+04  0.25500000920E-02 0. -1.
    10030    2    1    2    0    0  0.00000000000E+00  0.00000000000E+00 -0.85880132546E+03  0.34161381712E+04  0.33064271183E+04 0.  0.
        4    1    3    3  502    0 -0.11324035827E+04 -0.62191910109E+03  0.63632567642E+03  0.14401504164E+04  0.12699999809E+01 0.  1.
       -4    1    3    3    0  502  0.11324035827E+04  0.62191910109E+03 -0.14951270019E+04  0.19759877548E+04  0.12699999809E+01 0. -1.
</event>
<event>
 5   0  0.1696681E-06  0.3303041E+04  0.7818609E-02  0.8162122E-01
        2   -1    0    0  501    0  0.00000000000E+00  0.00000000000E+00  0.29631296060E+04  0.29631296060E+04  0.25500000920E-02 0. -1.
       -2   -1    0    0    0  501  0.00000000000E+00  0.00000000000E+00 -0.92048639823E+03  0.92048639823E+03  0.25500000920E-02 0.  1.
    10030    2    1    2    0    0  0.00000000000E+00  0.00000000000E+00  0.20426432078E+04  0.38836160042E+04  0.33030413249E+04 0.  0.
        4    1    3    3  502    0  0.10298075179E+04 -0.53850588166E+03  0.24010495712E+04  0.26674955979E+04  0.12699999809E+01 0. -1.
       -4    1    3    3    0  502 -0.10298075179E+04  0.53850588166E+03 -0.35840636344E+03  0.12161204063E+04  0.12699999809E+01 0.  1.
</event>
<event>
 5   0  0.1728937E-06  0.3333432E+04  0.7818609E-02  0.8154440E-01
        2   -1    0    0  501    0  0.00000000000E+00  0.00000000000E+00  0.21600959729E+04  0.21600959729E+04  0.25500000920E-02 0. -1.
       -2   -1    0    0    0  501  0.00000000000E+00  0.00000000000E+00 -0.12860273701E+04  0.12860273701E+04  0.25500000920E-02 0.  1.
    10030    2    1    2    0    0  0.00000000000E+00  0.00000000000E+00  0.87406860272E+03  0.34461233430E+04  0.33334321911E+04 0.  0.
        1    1    3    3  502    0  0.13715813702E+04  0.28720438728E+02  0.14155429134E+04  0.19712488575E+04  0.50400001928E-02 0. -1.
       -1    1    3    3    0  502 -0.13715813702E+04 -0.28720438728E+02 -0.54147431067E+03  0.14748744855E+04  0.50400001928E-02 0.  1.
</event>
<event>
 5   0  0.5988516E-07  0.3292756E+04  0.7818609E-02  0.8164741E-01
        1   -1    0    0  501    0  0.00000000000E+00  0.00000000000E+00  0.20791617400E+04  0.20791617400E+04  0.50400001928E-02 0. -1.
       -1   -1    0    0    0  501  0.00000000000E+00  0.00000000000E+00 -0.13036791076E+04  0.13036791076E+04  0.50400001928E-02 0.  1.
    10030    2    1    2    0    0  0.00000000000E+00  0.00000000000E+00  0.77548263244E+03  0.33828408476E+04  0.32927555158E+04 0.  0.
        4    1    3    3  502    0 -0.39185220866E+03 -0.12653352832E+03  0.20254035962E+04  0.20668382200E+04  0.12699999809E+01 0. -1.
       -4    1    3    3    0  502  0.39185220866E+03  0.12653352832E+03 -0.12499209638E+04  0.13160026276E+04  0.12699999809E+01 0.  1.
</event>
<event>
 5   0  0.5988516E-07  0.3332607E+04  0.7818609E-02  0.8154648E-01
       -1   -1    0    0    0  501  0.00000000000E+00  0.00000000000E+00  0.17033427654E+04  0.17033427654E+04  0.50400001928E-02 0. -1.
        1   -1    0    0  501    0  0.00000000000E+00  0.00000000000E+00 -0.16300695601E+04  0.16300695601E+04  0.50400001928E-02 0.  1.
    10030    2    1    2    0    0  0.00000000000E+00  0.00000000000E+00  0.73273205349E+02  0.33334123255E+04  0.33326069029E+04 0.  0.
        4    1    3    3  502    0  0.58996403044E+03  0.15322610344E+04 -0.24748159209E+03  0.16604608355E+04  0.12699999809E+01 0.  1.
       -4    1    3    3    0  502 -0.58996403044E+03 -0.15322610344E+04  0.32075479744E+03  0.16729514900E+04  0.12699999809E+01 0. -1.
</event>
<event>
 5   0  0.1743810E-06  0.2999774E+04  0.7818609E-02  0.8243796E-01
        2   -1    0    0  501    0  0.00000000000E+00  0.00000000000E+00  0.11635257359E+04  0.11635257359E+04  0.25500000920E-02 0. -1.
       -2   -1    0    0    0  501  0.00000000000E+00  0.00000000000E+00 -0.19334857235E+04  0.19334857235E+04  0.25500000920E-02 0.  1.
    10030    2    1    2    0    0  0.00000000000E+00  0.00000000000E+00 -0.76995998756E+03  0.30970114594E+04  0.29997735910E+04 0.  0.
        5    1    3    3  502    0  0.66447673980E+03 -0.80938154051E+03 -0.14935700144E+04  0.18241165790E+04  0.46999998093E+01 0.  1.
       -5    1    3    3    0  502 -0.66447673980E+03  0.80938154051E+03  0.72361002680E+03  0.12728948805E+04  0.46999998093E+01 0. -1.
</event>
<event>
 5   0  0.6023446E-07  0.3340827E+04  0.7818609E-02  0.8152584E-01
       -1   -1    0    0    0  501  0.00000000000E+00  0.00000000000E+00  0.90229722248E+03  0.90229722249E+03  0.50400001928E-02 0.  1.
        1   -1    0    0  501    0  0.00000000000E+00  0.00000000000E+00 -0.30924184350E+04  0.30924184350E+04  0.50400001928E-02 0. -1.
    10030    2    1    2    0    0  0.00000000000E+00  0.00000000000E+00 -0.21901212125E+04  0.39947156574E+04  0.33408265831E+04 0.  0.
        5    1    3    3  502    0 -0.99892041348E+03  0.13367638228E+04 -0.10065528829E+04  0.19488330628E+04  0.46999998093E+01 0.  1.
       -5    1    3    3    0  502  0.99892041348E+03 -0.13367638228E+04 -0.11835683296E+04  0.20458825947E+04  0.46999998093E+01 0. -1.
</event>
<event>
 5   0  0.5685000E-07  0.3290919E+04  0.7818609E-02  0.8165210E-01
       -3   -1    0    0    0  501  0.00000000000E+00  0.00000000000E+00  0.17078378051E+04  0.17078378081E+04  0.10100000352E+00 0. -1.
        3   -1    0    0  501    0  0.00000000000E+00  0.00000000000E+00 -0.15853599285E+04  0.15853599317E+04  0.10100000352E+00 0.  1.
    10030    2    1    2    0    0  0.00000000000E+00  0.00000000000E+00  0.12247787661E+03  0.32931977398E+04  0.32909194039E+04 0.  0.
        2    1    3    3  502    0  0.98981163917E+03  0.51100480344E+03  0.12731449346E+04  0.16916710717E+04  0.25500000920E-02 0. -1.
       -2    1    3    3    0  502 -0.98981163917E+03 -0.51100480344E+03 -0.11506670580E+04  0.16015266681E+04  0.25500000920E-02 0.  1.
</event>
<event>
 5   0  0.1784626E-06  0.3317150E+04  0.7818609E-02  0.8158545E-01
        2   -1    0    0  501    0  0.00000000000E+00  0.00000000000E+00  0.12985570819E+04  0.12985570819E+04  0.25500000920E-02 0. -1.
       -2   -1    0    0    0  501  0.00000000000E+00  0.00000000000E+00 -0.21184065114E+04  0.21184065114E+04  0.25500000920E-02 0.  1.
    10030    2    1    2    0    0  0.00000000000E+00  0.00000000000E+00 -0.81984942948E+03  0.34169635933E+04  0.33171504504E+04 0.  0.
        2    1    3    3  502    0  0.21123591145E+03  0.15537667404E+04 -0.96661197792E+03  0.18420505991E+04  0.25500000920E-02 0.  1.
       -2    1    3    3    0  502 -0.21123591145E+03 -0.15537667404E+04  0.14676254844E+03  0.15749129942E+04  0.25500000920E-02 0. -1.
</event>
<event>
 5   0  0.5858859E-07  0.3277382E+04  0.7818609E-02  0.8168674E-01
        1   -1    0    0  501    0  0.00000000000E+00  0.00000000000E+00  0.16523734867E+04  0.16523734867E+04  0.50400001928E-02 0.  1.
       -1   -1    0    0    0  501  0.00000000000E+00  0.00000000000E+00 -0.16251218841E+04  0.16251218841E+04  0.50400001928E-02 0. -1.
    10030    2    1    2    0    0  0.00000000000E+00  0.00000000000E+00  0.27251602620E+02  0.32774953708E+04  0.32773820735E+04 0.  0.
        3    1    3    3  502    0 -0.21639442505E+03  0.38616271676E+03  0.15914509587E+04  0.16518669302E+04  0.10100000352E+00 0.  1.
       -3    1    3    3    0  502  0.21639442505E+03 -0.38616271676E+03 -0.15641993561E+04  0.16256284406E+04  0.10100000352E+00 0. -1.
</event>
<event>
 5   0  0.1832626E-06  0.3322031E+04  0.7818609E-02  0.8157312E-01
        2   -1    0    0  501    0  0.00000000000E+00  0.00000000000E+00  0.11222662678E+04  0.11222662678E+04  0.25500000920E-02 0.  1.
       -2   -1    0    0    0  501  0.00000000000E+00  0.00000000000E+00 -0.24583933012E+04  0.24583933012E+04  0.25500000920E-02 0. -1.
    10030    2    1    2    0    0  0.00000000000E+00  0.00000000000E+00 -0.13361270334E+04  0.35806595690E+04  0.33220306289E+04 0.  0.
        3    1    3    3  502    0 -0.83777481257E+03 -0.54703012310E+03  0.76100136328E+03  0.12570726619E+04  0.10100000352E+00 0.  1.
       -3    1    3    3    0  502  0.83777481257E+03  0.54703012310E+03 -0.20971283967E+04  0.23235869071E+04  0.10100000352E+00 0. -1.
</event>
<event>
 5   0  0.1696681E-06  0.3334421E+04  0.7818609E-02  0.8154192E-01
       -2   -1    0    0    0  501  0.00000000000E+00  0.00000000000E+00  0.18659184761E+04  0.18659184761E+04  0.25500000920E-02 0. -1.
        2   -1    0    0  501    0  0.00000000000E+00  0.00000000000E+00 -0.14896636226E+04  0.14896636226E+04  0.25500000920E-02 0.  1.
    10030    2    1    2    0    0  0.00000000000E+00  0.00000000000E+00  0.37625485348E+03  0.33555820987E+04  0.33344210152E+04 0.  0.
        4    1    3    3  502    0 -0.37619561404E+03  0.91609261902E+02  0.18200456032E+04  0.18607748406E+04  0.12699999809E+01 0. -1.
       -4    1    3    3    0  502  0.37619561404E+03 -0.91609261902E+02 -0.14437907497E+04  0.14948072581E+04  0.12699999809E+01 0.  1.
</event>
<event>
 5   0  0.1696681E-06  0.3322254E+04  0.7818609E-02  0.8157256E-01
        2   -1    0    0  501    0  0.00000000000E+00  0.00000000000E+00  0.24321521884E+04  0.24321521884E+04  0.25500000920E-02 0.  1.
       -2   -1    0    0    0  501  0.00000000000E+00  0.00000000000E+00 -0.11345271102E+04  0.11345271102E+04  0.25500000920E-02 0. -1.
    10030    2    1    2    0    0  0.00000000000E+00  0.00000000000E+00  0.12976250782E+04  0.35666792986E+04  0.33222538096E+04 0.  0.
        4    1    3    3  502    0  0.72294451587E+02  0.11011552588E+04 -0.68413513714E+03  0.12983881895E+04  0.12699999809E+01 0. -1.
       -4    1    3    3    0  502 -0.72294451587E+02 -0.11011552588E+04  0.19817602153E+04  0.22682911091E+04  0.12699999809E+01 0.  1.
</event>
<event>
 5   0  0.5985183E-07  0.3289288E+04  0.7818609E-02  0.8165626E-01
        1   -1    0    0  501    0  0.00000000000E+00  0.00000000000E+00  0.11202670713E+04  0.11202670713E+04  0.50400001928E-02 0.  1.
       -1   -1    0    0    0  501  0.00000000000E+00  0.00000000000E+00 -0.24144723233E+04  0.24144723233E+04  0.50400001928E-02 0. -1.
    10030    2    1    2    0    0  0.00000000000E+00  0.00000000000E+00 -0.12942052521E+04  0.35347393946E+04  0.32892879706E+04 0.  0.
        2    1    3    3  502    0  0.32731360015E+03  0.11354971290E+04 -0.18762957275E+04  0.22174249886E+04  0.25500000920E-02 0. -1.
       -2    1    3    3    0  502 -0.32731360015E+03 -0.11354971290E+04  0.58209047543E+03  0.13173144061E+04  0.25500000920E-02 0.  1.
</event>
<event>
 5   0  0.1728937E-06  0.3299527E+04  0.7818609E-02  0.8163016E-01
       -2   -1    0    0    0  501  0.00000000000E+00  0.00000000000E+00  0.96085147858E+03  0.96085147858E+03  0.25500000920E-02 0. -1.
        2   -1    0    0  501    0  0.00000000000E+00  0.00000000000E+00 -0.28326127824E+04  0.28326127824E+04  0.25500000920E-02 0.  1.
    10030    2    1    2    0    0  0.00000000000E+00  0.00000000000E+00 -0.18717613038E+04  0.37934642610E+04  0.32995273481E+04 0.  0.
        1    1    3    3  502    0 -0.75897656554E+03 -0.93274926514E+03  0.36264531111E+03  0.12560168153E+04  0.50400001928E-02 0. -1.
       -1    1    3    3    0  502  0.75897656554E+03  0.93274926514E+03 -0.22344066149E+04  0.25374474457E+04  0.50400001928E-02 0.  1.
</event>
<event>
 5   0  0.6085351E-07  0.3301207E+04  0.7818609E-02  0.8162588E-01
        1   -1    0    0  501    0  0.00000000000E+00  0.00000000000E+00  0.30488915670E+04  0.30488915670E+04  0.50400001928E-02 0.  1.
       -1   -1    0    0    0  501  0.00000000000E+00  0.00000000000E+00 -0.89360088752E+03  0.89360088753E+03  0.50400001928E-02 0. -1.
    10030    2    1    2    0    0  0.00000000000E+00  0.00000000000E+00  0.21552906795E+04  0.39424924545E+04  0.33012071793E+04 0.  0.
        1    1    3    3  502    0  0.44933568232E+03 -0.17629815207E+03  0.29627231732E+04  0.30017848348E+04  0.50400001928E-02 0.  1.
       -1    1    3    3    0  502 -0.44933568232E+03  0.17629815207E+03 -0.80743249369E+03  0.94070761968E+03  0.50400001928E-02 0. -1.
</event>
<event>
 5   0  0.6023446E-07  0.3203185E+04  0.7818609E-02  0.8187976E-01
       -1   -1    0    0    0  501  0.00000000000E+00  0.00000000000E+00  0.18926865623E+04  0.18926865623E+04  0.50400001928E-02 0. -1.
        1   -1    0    0  501    0  0.00000000000E+00  0.00000000000E+00 -0.13552689302E+04  0.13552689302E+04  0.50400001928E-02 0.  1.
    10030    2    1    2    0    0  0.00000000000E+00  0.00000000000E+00  0.53741763208E+03  0.32479554925E+04  0.32031854723E+04 0.  0.
        5    1    3    3  502    0  0.85196260417E+03 -0.92548844672E+03 -0.73646285894E+03  0.14576586626E+04  0.46999998093E+01 0.  1.
       -5    1    3    3    0  502 -0.85196260417E+03  0.92548844672E+03  0.12738804910E+04  0.17902968299E+04  0.46999998093E+01 0. -1.
</event>
<event>
 5   0  0.1728937E-06  0.3300296E+04  0.7818609E-02  0.8162820E-01
        2   -1    0    0  501    0  0.00000000000E+00  0.00000000000E+00  0.23074031742E+04  0.23074031742E+04  0.25500000920E-02 0.  1.
       -2   -1    0    0    0  501  0.00000000000E+00  0.00000000000E+00 -0.11801095140E+04  0.11801095140E+04  0.25500000920E-02 0. -1.
    10030    2    1    2    0    0  0.00000000000E+00  0.00000000000E+00  0.11272936602E+04  0.34875126882E+04  0.33002960100E+04 0.  0.
        1    1    3    3  502    0 -0.71506898588E+03  0.53088612755E+03  0.20316325560E+04  0.22182638656E+04  0.50400001928E-02 0.  1.
       -1    1    3    3    0  502  0.71506898588E+03 -0.53088612755E+03 -0.90433889580E+03  0.12692488225E+04  0.50400001928E-02 0. -1.
</event>
<event>
 5   0  0.6023446E-07  0.3241604E+04  0.7818609E-02  0.8177915E-01
       -1   -1    0    0    0  501  0.00000000000E+00  0.00000000000E+00  0.10575148000E+04  0.10575148000E+04  0.50400001928E-02 0.  1.
        1   -1    0    0  501    0  0.00000000000E+00  0.00000000000E+00 -0.24841249388E+04  0.24841249388E+04  0.50400001928E-02 0. -1.
    10030    2    1    2    0    0  0.00000000000E+00  0.00000000000E+00 -0.14266101388E+04  0.35416397388E+04  0.32416038548E+04 0.  0.
        5    1    3    3  502    0  0.30281527886E+03  0.14084818123E+04 -0.15246414194E+04  0.20976347767E+04  0.46999998093E+01 0. -1.
       -5    1    3    3    0  502 -0.30281527886E+03 -0.14084818123E+04  0.98031280693E+02  0.14440049621E+04  0.46999998093E+01 0.  1.
</event>
<event>
 5   0  0.5858859E-07  0.3333850E+04  0.7818609E-02  0.8154335E-01
       -1   -1    0    0    0  501  0.00000000000E+00  0.00000000000E+00  0.99633051622E+03  0.99633051623E+03  0.50400001928E-02 0.  1.
        1   -1    0    0  501    0  0.00000000000E+00  0.00000000000E+00 -0.27888718425E+04  0.27888718425E+04  0.50400001928E-02 0. -1.
    10030    2    1    2    0    0  0.00000000000E+00  0.00000000000E+00 -0.17925413263E+04  0.37852023588E+04  0.33338495003E+04 0.  0.
        3    1    3    3  502    0  0.16078726872E+04 -0.37192926845E+03 -0.62987308838E+03  0.17664444732E+04  0.10100000352E+00 0.  1.
       -3    1    3    3    0  502 -0.16078726872E+04  0.37192926845E+03 -0.11626682379E+04  0.20187578856E+04  0.10100000352E+00 0. -1.
</event>
<event>
 5   0  0.5988516E-07  0.3308338E+04  0.7818609E-02  0.8160777E-01
       -1   -1    0    0    0  501  0.00000000000E+00  0.00000000000E+00  0.24986110199E+04  0.24986110199E+04  0.50400001928E-02 0. -1.
        1   -1    0    0  501    0  0.00000000000E+00  0.00000000000E+00 -0.10951184259E+04  0.10951184259E+04  0.50400001928E-02 0.  1.
    10030    2    1    2    0    0  0.00000000000E+00  0.00000000000E+00  0.14034925940E+04  0.35937294457E+04  0.33083379313E+04 0.  0.
        4    1    3    3  502    0 -0.84571099977E+03  0.88855082605E+03  0.19072176627E+04  0.22676486702E+04  0.12699999809E+01 0. -1.
       -4    1    3    3    0  502  0.84571099977E+03 -0.88855082605E+03 -0.50372506867E+03  0.13260807756E+04  0.12699999809E+01 0.  1.
</event>
<event>
 5   0  0.1743810E-06  0.3340202E+04  0.7818609E-02  0.8152741E-01
       -2   -1    0    0    0  501  0.00000000000E+00  0.00000000000E+00  0.13499098857E+04  0.13499098857E+04  0.25500000920E-02 0.  1.
        2   -1    0    0  501    0  0.00000000000E+00  0.00000000000E+00 -0.20662391434E+04  0.20662391434E+04  0.25500000920E-02 0. -1.
    10030    2    1    2    0    0  0.00000000000E+00  0.00000000000E+00 -0.71632925772E+03  0.34161490291E+04  0.33402015783E+04 0.  0.
        5    1    3    3  502    0 -0.10328615698E+04  0.51075234685E+03  0.87826674185E+03  0.14488083179E+04  0.46999998093E+01 0.  1.
       -5    1    3    3    0  502  0.10328615698E+04 -0.51075234685E+03 -0.15945959996E+04  0.19673407112E+04  0.46999998093E+01 0. -1.
</event>
<event>
 5   0  0.1728937E-06  0.3281284E+04  0.7818609E-02  0.8167674E-01
        2   -1    0    0  501    0  0.00000000000E+00  0.00000000000E+00  0.29867430913E+04  0.29867430913E+04  0.25500000920E-02 0. -1.
       -2   -1    0    0    0  501  0.00000000000E+00  0.00000000000E+00 -0.90121776533E+03  0.90121776533E+03  0.25500000920E-02 0.  1.
    10030    2    1    2    0    0  0.00000000000E+00  0.00000000000E+00  0.20855253260E+04  0.38879608567E+04  0.32812838551E+04 0.  0.
        1    1    3    3  502    0  0.11056323778E+04 -0.66318419660E+03  0.22449852047E+04  0.25888597496E+04  0.50400001928E-02 0. -1.
       -1    1    3    3    0  502 -0.11056323778E+04  0.66318419660E+03 -0.15945987870E+03  0.12991011071E+04  0.50400001928E-02 0.  1.
</event>
<event>
 5   0  0.5985183E-07  0.3337552E+04  0.7818609E-02  0.8153405E-01
        1   -1    0    0  501    0  0.00000000000E+00  0.00000000000E+00  0.11495119954E+04  0.11495119954E+04  0.50400001928E-02 0.  1.
       -1   -1    0    0    0  501  0.00000000000E+00  0.00000000000E+00 -0.24226048108E+04  0.24226048109E+04  0.50400001928E-02 0. -1.
    10030    2    1    2    0    0  0.00000000000E+00  0.00000000000E+00 -0.12730928155E+04  0.35721168063E+04  0.33375519713E+04 0.  0.
        2    1    3    3  502    0  0.77564023922E+03  0.10293384456E+03  0.94101951139E+03  0.12238181556E+04  0.25500000920E-02 0.  1.
       -2    1    3    3    0  502 -0.77564023922E+03 -0.10293384456E+03 -0.22141123268E+04  0.23482986507E+04  0.25500000920E-02 0. -1.
</event>
<event>
 5   0  0.6023446E-07  0.3306973E+04  0.7818609E-02  0.8161123E-01
       -1   -1    0    0    0  501  0.00000000000E+00  0.00000000000E+00  0.15554340410E+04  0.15554340410E+04  0.50400001928E-02 0.  1.
        1   -1    0    0  501    0  0.00000000000E+00  0.00000000000E+00 -0.17577202462E+04  0.17577202462E+04  0.50400001928E-02 0. -1.
    10030    2    1    2    0    0  0.00000000000E+00  0.00000000000E+00 -0.20228620519E+03  0.33131542872E+04  0.33069731813E+04 0.  0.
        5    1    3    3  502    0 -0.15117370949E+04  0.21557659517E+03  0.53421374457E+03  0.16177851302E+04  0.46999998093E+01 0.  1.
       -5    1    3    3    0  502  0.15117370949E+04 -0.21557659517E+03 -0.73649994976E+03  0.16953691570E+04  0.46999998093E+01 0. -1.
</event>
<event>
 5   0  0.1832626E-06  0.3308960E+04  0.7818609E-02  0.8160619E-01
       -2   -1    0    0    0  501  0.00000000000E+00  0.00000000000E+00  0.12445039516E+04  0.12445039517E+04  0.25500000920E-02 0. -1.
        2   -1    0    0  501    0  0.00000000000E+00  0.00000000000E+00 -0.21995138599E+04  0.21995138599E+04  0.25500000920E-02 0.  1.
    10030    2    1    2    0    0  0.00000000000E+00  0.00000000000E+00 -0.95500990828E+03  0.34440178116E+04  0.33089597703E+04 0.  0.
        3    1    3    3  502    0 -0.87418799079E+03 -0.10301025689E+04 -0.14714637939E+04  0.19976290077E+04  0.10100000352E+00 0.  1.
       -3    1    3    3    0  502  0.87418799079E+03  0.10301025689E+04  0.51645388558E+03  0.14463888038E+04  0.10100000352E+00 0. -1.
</event>
<event>
 5   0  0.1728937E-06  0.3295812E+04  0.7818609E-02  0.8163962E-01
        2   -1    0    0  501    0  0.00000000000E+00  0.00000000000E+00  0.17175012543E+04  0.17175012543E+04  0.25500000920E-02 0. -1.
       -2   -1    0    0    0  501  0.00000000000E+00  0.00000000000E+00 -0.15811304070E+04  0.15811304070E+04  0.25500000920E-02 0.  1.
    10030    2    1    2    0    0  0.00000000000E+00  0.00000000000E+00  0.13637084733E+03  0.32986316613E+04  0.32958115585E+04 0.  0.
        1    1    3    3  502    0  0.97291781758E+03  0.60728444673E+03  0.12525110767E+04  0.16982777971E+04  0.50400001928E-02 0. -1.
       -1    1    3    3    0  502 -0.97291781758E+03 -0.60728444673E+03 -0.11161402294E+04  0.16003538642E+04  0.50400001928E-02 0.  1.
</event>
<event>
 5   0  0.5685000E-07  0.3250330E+04  0.7818609E-02  0.8175650E-01
        3   -1    0    0  501    0  0.00000000000E+00  0.00000000000E+00  0.22310445170E+04  0.22310445193E+04  0.10100000352E+00 0.  1.
       -3   -1    0    0    0  501  0.00000000000E+00  0.00000000000E+00 -0.11838228587E+04  0.11838228630E+04  0.10100000352E+00 0. -1.
    10030    2    1    2    0    0  0.00000000000E+00  0.00000000000E+00  0.10472216583E+04  0.34148673823E+04  0.32503301428E+04 0.  0.
        4    1    3    3  502    0 -0.58425516603E+03  0.10088641437E+04  0.17131813670E+04  0.20722338113E+04  0.12699999809E+01 0.  1.
       -4    1    3    3    0  502  0.58425516603E+03 -0.10088641437E+04 -0.66595970870E+03  0.13426335710E+04  0.12699999809E+01 0. -1.
</event>
<event>
 5   0  0.5985183E-07  0.3279328E+04  0.7818609E-02  0.8168175E-01
       -1   -1    0    0    0  501  0.00000000000E+00  0.00000000000E+00  0.24154241031E+04  0.24154241031E+04  0.50400001928E-02 0.  1.
        1   -1    0    0  501    0  0.00000000000E+00  0.00000000000E+00 -0.11130544380E+04  0.11130544380E+04  0.50400001928E-02 0. -1.
    10030    2    1    2    0    0  0.00000000000E+00  0.00000000000E+00  0.13023696651E+04  0.35284785411E+04  0.32793282956E+04 0.  0.
        2    1    3    3  502    0 -0.14825978551E+04 -0.47654753776E+03  0.12033026671E+04  0.19680272519E+04  0.25500000920E-02 0. -1.
       -2    1    3    3    0  502  0.14825978551E+04  0.47654753776E+03  0.99066997986E+02  0.15604512891E+04  0.25500000920E-02 0.  1.
</event>
<event>
 5   0  0.6023446E-07  0.3241045E+04  0.7818609E-02  0.8178061E-01
        1   -1    0    0  501    0  0.00000000000E+00  0.00000000000E+00  0.15018921294E+04  0.15018921295E+04  0.50400001928E-02 0.  1.
       -1   -1    0    0    0  501  0.00000000000E+00  0.00000000000E+00 -0.17485235056E+04  0.17485235056E+04  0.50400001928E-02 0. -1.
    10030    2    1    2    0    0  0.00000000000E+00  0.00000000000E+00 -0.24663137618E+03  0.32504156351E+04  0.32410453198E+04 0.  0.
        5    1    3    3  502    0  0.40804353009E+03 -0.14642810191E+04 -0.68659168715E+03  0.16679474393E+04  0.46999998093E+01 0. -1.
       -5    1    3    3    0  502 -0.40804353009E+03  0.14642810191E+04  0.43996031098E+03  0.15824681958E+04  0.46999998093E+01 0.  1.
</event>
<event>
 5   0  0.5985183E-07  0.3303331E+04  0.7818609E-02  0.8162048E-01
        1   -1    0    0  501    0  0.00000000000E+00  0.00000000000E+00  0.22154887390E+04  0.22154887390E+04  0.50400001928E-02 0. -1.
       -1   -1    0    0    0  501  0.00000000000E+00  0.00000000000E+00 -0.12313307267E+04  0.12313307267E+04  0.50400001928E-02 0.  1.
    10030    2    1    2    0    0  0.00000000000E+00  0.00000000000E+00  0.98415801236E+03  0.34468194657E+04  0.33033312634E+04 0.  0.
        2    1    3    3  502    0  0.43199472167E+03 -0.13973431115E+04 -0.30859326841E+03  0.14947966471E+04  0.25500000920E-02 0.  1.
       -2    1    3    3    0  502 -0.43199472167E+03  0.13973431115E+04  0.12927512808E+04  0.19520228187E+04  0.25500000920E-02 0. -1.
</event>
<event>
 5   0  0.6023446E-07  0.3361650E+04  0.7818609E-02  0.8147383E-01
       -1   -1    0    0    0  501  0.00000000000E+00  0.00000000000E+00  0.12737559824E+04  0.12737559824E+04  0.50400001928E-02 0. -1.
        1   -1    0    0  501    0  0.00000000000E+00  0.00000000000E+00 -0.22179863754E+04  0.22179863754E+04  0.50400001928E-02 0.  1.
    10030    2    1    2    0    0  0.00000000000E+00  0.00000000000E+00 -0.94423039304E+03  0.34917423578E+04  0.33616504366E+04 0.  0.
        5    1    3    3  502    0 -0.13609408802E+04  0.98299977285E+03 -0.38707695638E+03  0.17228752981E+04  0.46999998093E+01 0. -1.
       -5    1    3    3    0  502  0.13609408802E+04 -0.98299977285E+03 -0.55715343666E+03  0.17688670597E+04  0.46999998093E+01 0.  1.
</event>
<event>
 5   0  0.5985183E-07  0.3296772E+04  0.7818609E-02  0.8163717E-01
       -1   -1    0    0    0  501  0.00000000000E+00  0.00000000000E+00  0.16423006777E+04  0.16423006777E+04  0.50400001928E-02 0. -1.
        1   -1    0    0  501    0  0.00000000000E+00  0.00000000000E+00 -0.16544938199E+04  0.16544938199E+04  0.50400001928E-02 0.  1.
    10030    2    1    2    0    0  0.00000000000E+00  0.00000000000E+00 -0.12193142212E+02  0.32967944976E+04  0.32967719495E+04 0.  0.
        2    1    3    3  502    0  0.19708704220E+03 -0.21871282519E+02 -0.16425229510E+04  0.16544495459E+04  0.25500000920E-02 0.  1.
       -2    1    3    3    0  502 -0.19708704220E+03  0.21871282519E+02  0.16303298088E+04  0.16423449518E+04  0.25500000920E-02 0. -1.
</event>
<event>
 5   0  0.1832626E-06  0.3299213E+04  0.7818609E-02  0.8163096E-01
       -2   -1    0    0    0  501  0.00000000000E+00  0.00000000000E+00  0.11973800053E+04  0.11973800053E+04  0.25500000920E-02 0. -1.
        2   -1    0    0  501    0  0.00000000000E+00  0.00000000000E+00 -0.22726292360E+04  0.22726292360E+04  0.25500000920E-02 0.  1.
    10030    2    1    2    0    0  0.00000000000E+00  0.00000000000E+00 -0.10752492307E+04  0.34700092413E+04  0.32992125161E+04 0.  0.
        3    1    3    3  502    0  0.93467102242E+03  0.68652166222E+03 -0.17715064299E+04  0.21173466778E+04  0.10100000352E+00 0.  1.
       -3    1    3    3    0  502 -0.93467102242E+03 -0.68652166222E+03  0.69625719919E+03  0.13526625634E+04  0.10100000352E+00 0. -1.
</event>
<event>
 5   0  0.1784626E-06  0.3333741E+04  0.7818609E-02  0.8154363E-01
       -2   -1    0    0    0  501  0.00000000000E+00  0.00000000000E+00  0.11984402910E+04  0.11984402910E+04  0.25500000920E-02 0. -1.
        2   -1    0    0  501    0  0.00000000000E+00  0.00000000000E+00 -0.23183949410E+04  0.23183949410E+04  0.25500000920E-02 0.  1.
    10030    2    1    2    0    0  0.00000000000E+00  0.00000000000E+00 -0.11199546500E+04  0.35168352321E+04  0.33337413864E+04 0.  0.
        2    1    3    3  502    0  0.25697134020E+03 -0.80948162413E+03  0.95307686259E+03  0.12765775634E+04  0.25500000920E-02 0. -1.
       -2    1    3    3    0  502 -0.25697134020E+03  0.80948162413E+03 -0.20730315126E+04  0.22402576686E+04  0.25500000920E-02 0.  1.
</event>
<event>
 5   0  0.1728937E-06  0.3300879E+04  0.7818609E-02  0.8162672E-01
       -2   -1    0    0    0  501  0.00000000000E+00  0.00000000000E+00  0.13142799380E+04  0.13142799380E+04  0.25500000920E-02 0.  1.
        2   -1    0    0  501    0  0.00000000000E+00  0.00000000000E+00 -0.20725800163E+04  0.20725800163E+04  0.25500000920E-02 0. -1.
    10030    2    1    2    0    0  0.00000000000E+00  0.00000000000E+00 -0.75830007836E+03  0.33868599543E+04  0.33008788741E+04 0.  0.
        1    1    3    3  502    0  0.11393671605E+04 -0.66932350371E+03 -0.13937443280E+04  0.19205922865E+04  0.50400001928E-02 0. -1.
       -1    1    3    3    0  502 -0.11393671605E+04  0.66932350371E+03  0.63544424969E+03  0.14662676678E+04  0.50400001928E-02 0.  1.
</event>
<event>
 5   0  0.5985183E-07  0.3357479E+04  0.7818609E-02  0.8148422E-01
       -1   -1    0    0    0  501  0.00000000000E+00  0.00000000000E+00  0.16091382389E+04  0.16091382390E+04  0.50400001928E-02 0. -1.
        1   -1    0    0  501    0  0.00000000000E+00  0.00000000000E+00 -0.17513514481E+04  0.17513514481E+04  0.50400001928E-02 0.  1.
    10030    2    1    2    0    0  0.00000000000E+00  0.00000000000E+00 -0.14221320916E+03  0.33604896871E+04  0.33574791645E+04 0.  0.
        2    1    3    3  502    0 -0.25346675124E+03 -0.12014690941E+04 -0.12168571093E+04  0.17287320794E+04  0.25500000920E-02 0.  1.
       -2    1    3    3    0  502  0.25346675124E+03  0.12014690941E+04  0.10746439001E+04  0.16317576076E+04  0.25500000920E-02 0. -1.
</event>
<event>
 5   0  0.1696681E-06  0.3287884E+04  0.7818609E-02  0.8165985E-01
       -2   -1    0    0    0  501  0.00000000000E+00  0.00000000000E+00  0.14322370688E+04  0.14322370688E+04  0.25500000920E-02 0. -1.
        2   -1    0    0  501    0  0.00000000000E+00  0.00000000000E+00 -0.18869400684E+04  0.18869400684E+04  0.25500000920E-02 0.  1.
    10030    2    1    2    0    0  0.00000000000E+00  0.00000000000E+00 -0.45470299957E+03  0.33191771372E+04  0.32878841297E+04 0.  0.
        4    1    3    3  502    0 -0.14874210777E+03 -0.10235987851E+04 -0.15172706669E+04  0.18362980632E+04  0.12699999809E+01 0.  1.
       -4    1    3    3    0  502  0.14874210777E+03  0.10235987851E+04  0.10625676674E+04  0.14828790740E+04  0.12699999809E+01 0. -1.
</event>
<event>
 5   0  0.6085351E-07  0.3314781E+04  0.7818609E-02  0.8159145E-01
       -1   -1    0    0    0  501  0.00000000000E+00  0.00000000000E+00  0.11830363265E+04  0.11830363265E+04  0.50400001928E-02 0. -1.
        1   -1    0    0  501    0  0.00000000000E+00  0.00000000000E+00 -0.23219426097E+04  0.23219426097E+04  0.50400001928E-02 0.  1.
    10030    2    1    2    0    0  0.00000000000E+00  0.00000000000E+00 -0.11389062832E+04  0.35049789363E+04  0.33147805088E+04 0.  0.
        1    1    3    3  502    0 -0.11791746597E+04 -0.84654737481E+03 -0.14152552150E+04  0.20273240144E+04  0.50400001928E-02 0.  1.
       -1    1    3    3    0  502  0.11791746597E+04  0.84654737481E+03  0.27634893172E+03  0.14776549218E+04  0.50400001928E-02 0. -1.
</event>
<event>
 5   0  0.5988516E-07  0.3364974E+04  0.7818609E-02  0.8146557E-01
        1   -1    0    0  501    0  0.00000000000E+00  0.00000000000E+00  0.22404178360E+04  0.22404178360E+04  0.50400001928E-02 0. -1.
       -1   -1    0    0    0  501  0.00000000000E+00  0.00000000000E+00 -0.12634977816E+04  0.12634977816E+04  0.50400001928E-02 0.  1.
    10030    2    1    2    0    0  0.00000000000E+00  0.00000000000E+00  0.97692005448E+03  0.35039156176E+04  0.33649742737E+04 0.  0.
        4    1    3    3  502    0  0.14489206884E+04  0.41442944138E+03 -0.29051880275E+03  0.15347722016E+04  0.12699999809E+01 0.  1.
       -4    1    3    3    0  502 -0.14489206884E+04 -0.41442944138E+03  0.12674388572E+04  0.19691434160E+04  0.12699999809E+01 0. -1.
</event>
<event>
 5   0  0.1832626E-06  0.3280163E+04  0.7818609E-02  0.8167961E-01
       -2   -1    0    0    0  501  0.00000000000E+00  0.00000000000E+00  0.11933727368E+04  0.11933727368E+04  0.25500000920E-02 0.  1.
        2   -1    0    0  501    0  0.00000000000E+00  0.00000000000E+00 -0.22540037424E+04  0.22540037424E+04  0.25500000920E-02 0. -1.
    10030    2    1    2    0    0  0.00000000000E+00  0.00000000000E+00 -0.10606310056E+04  0.34473764793E+04  0.32801625661E+04 0.  0.
        3    1    3    3  502    0  0.55861912097E+02  0.93475097723E+03  0.88479596587E+03  0.12883104649E+04  0.10100000352E+00 0.  1.
       -3    1    3    3    0  502 -0.55861912097E+02 -0.93475097723E+03 -0.19454269715E+04  0.21590660143E+04  0.10100000352E+00 0. -1.
</event>
<event>
 5   0  0.6023446E-07  0.3282239E+04  0.7818609E-02  0.8167430E-01
        1   -1    0    0  501    0  0.00000000000E+00  0.00000000000E+00  0.16135956685E+04  0.16135956685E+04  0.50400001928E-02 0.  1.
       -1   -1    0    0    0  501  0.00000000000E+00  0.00000000000E+00 -0.16691123883E+04  0.16691123883E+04  0.50400001928E-02 0. -1.
    10030    2    1    2    0    0  0.00000000000E+00  0.00000000000E+00 -0.55516719845E+02  0.32827080568E+04  0.32822385776E+04 0.  0.
        5    1    3    3  502    0  0.15673149403E+04 -0.26724091060E+03 -0.43445715630E+03  0.16482320641E+04  0.46999998093E+01 0. -1.
       -5    1    3    3    0  502 -0.15673149403E+04  0.26724091060E+03  0.37894043645E+03  0.16344759927E+04  0.46999998093E+01 0.  1.
</event>
<event>
 5   0  0.1832626E-06  0.3306798E+04  0.7818609E-02  0.8161168E-01
        2   -1    0    0  501    0  0.00000000000E+00  0.00000000000E+00  0.25855975885E+04  0.25855975885E+04  0.25500000920E-02 0. -1.
       -2   -1    0    0    0  501  0.00000000000E+00  0.00000000000E+00 -0.10572904209E+04  0.10572904209E+04  0.25500000920E-02 0.  1.
    10030    2    1    2    0    0  0.00000000000E+00  0.00000000000E+00  0.15283071676E+04  0.36428880094E+04  0.33067975824E+04 0.  0.
        3    1    3    3  502    0 -0.15187519046E+04 -0.64610095147E+03  0.87250534639E+03  0.18669010089E+04  0.10100000352E+00 0. -1.
       -3    1    3    3    0  502  0.15187519046E+04  0.64610095147E+03  0.65580182124E+03  0.17759870006E+04  0.10100000352E+00 0.  1.
</event>
<event>
 5   0  0.5988516E-07  0.3265080E+04  0.7818609E-02  0.8171838E-01
       -1   -1    0    0    0  501  0.00000000000E+00  0.00000000000E+00  0.10076863487E+04  0.10076863488E+04  0.50400001928E-02 0. -1.
        1   -1    0    0  501    0  0.00000000000E+00  0.00000000000E+00 -0.26448577708E+04  0.26448577709E+04  0.50400001928E-02 0.  1.
    10030    2    1    2    0    0  0.00000000000E+00  0.00000000000E+00 -0.16371714221E+04  0.36525441196E+04  0.32650801338E+04 0.  0.
        4    1    3    3  502    0 -0.10776963413E+03  0.77754897825E+03  0.78270953001E+03  0.11085271891E+04  0.12699999809E+01 0. -1.
       -4    1    3    3    0  502  0.10776963413E+03 -0.77754897825E+03 -0.24198809521E+04  0.25440169306E+04  0.12699999809E+01 0.  1.
</event>
<event>
 5   0  0.6023446E-07  0.3243297E+04  0.7818609E-02  0.8177475E-01
       -1   -1    0    0    0  501  0.00000000000E+00  0.00000000000E+00  0.17798435253E+04  0.17798435253E+04  0.50400001928E-02 0. -1.
        1   -1    0    0  501    0  0.00000000000E+00  0.00000000000E+00 -0.14775144916E+04  0.14775144916E+04  0.50400001928E-02 0.  1.
    10030    2    1    2    0    0  0.00000000000E+00  0.00000000000E+00  0.30232903368E+03  0.32573580170E+04  0.32432974588E+04 0.  0.
        5    1    3    3  502    0 -0.21742789234E+03  0.16066987751E+04  0.18239061184E+03  0.16315772331E+04  0.46999998093E+01 0. -1.
       -5    1    3    3    0  502  0.21742789234E+03 -0.16066987751E+04  0.11993842184E+03  0.16257807839E+04  0.46999998093E+01 0.  1.
</event>
<event>
 5   0  0.1743810E-06  0.3613234E+04  0.7818609E-02  0.8087467E-01
        2   -1    0    0  501    0  0.00000000000E+00  0.00000000000E+00  0.24892902888E+04  0.24892902888E+04  0.25500000920E-02 0.  1.
       -2   -1    0    0    0  501  0.00000000000E+00  0.00000000000E+00 -0.13111625497E+04  0.13111625497E+04  0.25500000920E-02 0. -1.
    10030    2    1    2    0    0  0.00000000000E+00  0.00000000000E+00  0.11781277391E+04  0.38004528385E+04  0.36132335668E+04 0.  0.
        5    1    3    3  502    0  0.17407831805E+03  0.27629476773E+03  0.24579823654E+04  0.24795849367E+04  0.46999998093E+01 0.  1.
       -5    1    3    3    0  502 -0.17407831805E+03 -0.27629476773E+03 -0.12798546263E+04  0.13208679018E+04  0.46999998093E+01 0. -1.
</event>
<event>
 5   0  0.6085351E-07  0.3336387E+04  0.7818609E-02  0.8153698E-01
        1   -1    0    0  501    0  0.00000000000E+00  0.00000000000E+00  0.15282784699E+04  0.15282784699E+04  0.50400001928E-02 0.  1.
       -1   -1    0    0    0  501  0.00000000000E+00  0.00000000000E+00 -0.18209175074E+04  0.18209175074E+04  0.50400001928E-02 0. -1.
    10030    2    1    2    0    0  0.00000000000E+00  0.00000000000E+00 -0.29263903756E+03  0.33491959773E+04  0.33363866814E+04 0.  0.
        1    1    3    3  502    0 -0.12759594682E+04  0.41321673689E+03  0.84948113877E+03  0.15875890026E+04  0.50400001928E-02 0.  1.
       -1    1    3    3    0  502  0.12759594682E+04 -0.41321673689E+03 -0.11421201763E+04  0.17616069747E+04  0.50400001928E-02 0. -1.
</event>
<event>
 5   0  0.1743810E-06  0.3310230E+04  0.7818609E-02  0.8160297E-01
       -2   -1    0    0    0  501  0.00000000000E+00  0.00000000000E+00  0.94201662636E+03  0.94201662636E+03  0.25500000920E-02 0.  1.
        2   -1    0    0  501    0  0.00000000000E+00  0.00000000000E+00 -0.29080218283E+04  0.29080218283E+04  0.25500000920E-02 0. -1.
    10030    2    1    2    0    0  0.00000000000E+00  0.00000000000E+00 -0.19660052019E+04  0.38500384547E+04  0.33102295462E+04 0.  0.
        5    1    3    3  502    0  0.11195270824E+04 -0.83407788277E+03 -0.20169973640E+04  0.24530241049E+04  0.46999998093E+01 0. -1.
       -5    1    3    3    0  502 -0.11195270824E+04  0.83407788277E+03  0.50992162089E+02  0.13970143497E+04  0.46999998093E+01 0.  1.
</event>
<event>
 5   0  0.5985183E-07  0.3352273E+04  0.7818609E-02  0.8149720E-01
        1   -1    0    0  501    0  0.00000000000E+00  0.00000000000E+00  0.15041972496E+04  0.15041972496E+04  0.50400001928E-02 0.  1.
       -1   -1    0    0    0  501  0.00000000000E+00  0.00000000000E+00 -0.18677294870E+04  0.18677294870E+04  0.50400001928E-02 0. -1.
    10030    2    1    2    0    0  0.00000000000E+00  0.00000000000E+00 -0.36353223739E+03  0.33719267367E+04  0.33522729945E+04 0.  0.
        2    1    3    3  502    0  0.12101242686E+03 -0.11522850223E+04  0.10365446082E+04  0.15546155488E+04  0.25500000920E-02 0.  1.
       -2    1    3    3    0  502 -0.12101242686E+03  0.11522850223E+04 -0.14000768456E+04  0.18173111878E+04  0.25500000920E-02 0. -1.
</event>
<event>
 5   0  0.5858859E-07  0.3250766E+04  0.7818609E-02  0.8175537E-01
        1   -1    0    0  501    0  0.00000000000E+00  0.00000000000E+00  0.18634169731E+04  0.18634169732E+04  0.50400001928E-02 0. -1.
       -1   -1    0    0    0  501  0.00000000000E+00  0.00000000000E+00 -0.14177555066E+04  0.14177555066E+04  0.50400001928E-02 0.  1.
    10030    2    1    2    0    0  0.00000000000E+00  0.00000000000E+00  0.44566146652E+03  0.32811724798E+04  0.32507658635E+04 0.  0.
        3    1    3    3  502    0  0.14431943946E+04 -0.71783764909E+03  0.43399734944E+03  0.16692677019E+04  0.10100000352E+00 0.  1.
       -3    1    3    3    0  502 -0.14431943946E+04  0.71783764909E+03  0.11664117075E+02  0.16119047779E+04  0.10100000352E+00 0. -1.
</event>
<event>
 5   0  0.6023446E-07  0.3288022E+04  0.7818609E-02  0.8165950E-01
        1   -1    0    0  501    0  0.00000000000E+00  0.00000000000E+00  0.18464416288E+04  0.18464416288E+04  0.50400001928E-02 0. -1.
       -1   -1    0    0    0  501  0.00000000000E+00  0.00000000000E+00 -0.14637730894E+04  0.14637730894E+04  0.50400001928E-02 0.  1.
    10030    2    1    2    0    0  0.00000000000E+00  0.00000000000E+00  0.38266853944E+03  0.33102147182E+04  0.32880216345E+04 0.  0.
        5    1    3    3  502    0 -0.88340452462E+03 -0.13755920452E+04  0.36597689866E+03  0.16752964542E+04  0.46999998093E+01 0. -1.
       -5    1    3    3    0  502  0.88340452462E+03  0.13755920452E+04  0.16691640783E+02  0.16349182640E+04  0.46999998093E+01 0.  1.
</event>
<event>
 5   0  0.1784626E-06  0.3080709E+04  0.7818609E-02  0.8221052E-01
        2   -1    0    0  501    0  0.00000000000E+00  0.00000000000E+00  0.17847490356E+04  0.17847490356E+04  0.25500000920E-02 0. -1.
       -2   -1    0    0    0  501  0.00000000000E+00  0.00000000000E+00 -0.13294261965E+04  0.13294261965E+04  0.25500000920E-02 0.  1.
    10030    2    1    2    0    0  0.00000000000E+00  0.00000000000E+00  0.45532283905E+03  0.31141752321E+04  0.30807090886E+04 0.  0.
        2    1    3    3  502    0 -0.35878971166E+02  0.15366526276E+04  0.32926962647E+03  0.15719437284E+04  0.25500000920E-02 0. -1.
       -2    1    3    3    0  502  0.35878971166E+02 -0.15366526276E+04  0.12605321258E+03  0.15422315036E+04  0.25500000920E-02 0.  1.
</event>
<event>
 5   0  0.1728937E-06  0.3338320E+04  0.7818609E-02  0.8153213E-01
        2   -1    0    0  501    0  0.00000000000E+00  0.00000000000E+00  0.25821376930E+04  0.25821376930E+04  0.25500000920E-02 0.  1.
       -2   -1    0    0    0  501  0.00000000000E+00  0.00000000000E+00 -0.10789880760E+04  0.10789880760E+04  0.25500000920E-02 0. -1.
    10030    2    1    2    0    0  0.00000000000E+00  0.00000000000E+00  0.15031496169E+04  0.36611257690E+04  0.33383204049E+04 0.  0.
        1    1    3    3  502    0  0.14793983456E+04  0.77293700391E+03  0.75890745873E+03  0.18335734531E+04  0.50400001928E-02 0.  1.
       -1    1    3    3    0  502 -0.14793983456E+04 -0.77293700391E+03  0.74424215822E+03  0.18275523159E+04  0.50400001928E-02 0. -1.
</event>
<event>
 5   0  0.6085351E-07  0.3316927E+04  0.7818609E-02  0.8158602E-01
       -1   -1    0    0    0  501  0.00000000000E+00  0.00000000000E+00  0.32896213035E+04  0.32896213035E+04  0.50400001928E-02 0.  1.
        1   -1    0    0  501    0  0.00000000000E+00  0.00000000000E+00 -0.83611461859E+03  0.83611461860E+03  0.50400001928E-02 0. -1.
    10030    2    1    2    0    0  0.00000000000E+00  0.00000000000E+00  0.24535066849E+04  0.41257359221E+04  0.33169265663E+04 0.  0.
        1    1    3    3  502    0  0.39732018058E+03  0.47528670622E+03  0.31403077546E+04  0.32008270139E+04  0.50400001928E-02 0.  1.
       -1    1    3    3    0  502 -0.39732018058E+03 -0.47528670622E+03 -0.68680106975E+03  0.92490890819E+03  0.50400001928E-02 0. -1.
</event>
<event>
 5   0  0.5858859E-07  0.3276662E+04  0.7818609E-02  0.8168859E-01
       -1   -1    0    0    0  501  0.00000000000E+00  0.00000000000E+00  0.15774387126E+04  0.15774387126E+04  0.50400001928E-02 0. -1.
        1   -1    0    0  501    0  0.00000000000E+00  0.00000000000E+00 -0.17015738731E+04  0.17015738731E+04  0.50400001928E-02 0.  1.
    10030    2    1    2    0    0  0.00000000000E+00  0.00000000000E+00 -0.12413516049E+03  0.32790125858E+04  0.32766620210E+04 0.  0.
        3    1    3    3  502    0  0.44449537582E+03 -0.49907811914E+03  0.14348241013E+04  0.15828377428E+04  0.10100000352E+00 0. -1.
       -3    1    3    3    0  502 -0.44449537582E+03  0.49907811914E+03 -0.15589592618E+04  0.16961748430E+04  0.10100000352E+00 0.  1.
</event>
<event>
 5   0  0.5858859E-07  0.3304367E+04  0.7818609E-02  0.8161785E-01
       -1   -1    0    0    0  501  0.00000000000E+00  0.00000000000E+00  0.14686572911E+04  0.14686572911E+04  0.50400001928E-02 0.  1.
        1   -1    0    0  501    0  0.00000000000E+00  0.00000000000E+00 -0.18586432451E+04  0.18586432451E+04  0.50400001928E-02 0. -1.
    10030    2    1    2    0    0  0.00000000000E+00  0.00000000000E+00 -0.38998595408E+03  0.33273005362E+04  0.33043667796E+04 0.  0.
        3    1    3    3  502    0  0.46529583284E+03  0.15743582166E+04 -0.76751593769E+01  0.16416951375E+04  0.10100000352E+00 0.  1.
       -3    1    3    3    0  502 -0.46529583284E+03 -0.15743582166E+04 -0.38231079470E+03  0.16856053987E+04  0.10100000352E+00 0. -1.
</event>
<event>
 5   0  0.5988516E-07  0.3322277E+04  0.7818609E-02  0.8157250E-01
        1   -1    0    0  501    0  0.00000000000E+00  0.00000000000E+00  0.12830875091E+04  0.12830875091E+04  0.50400001928E-02 0.  1.
       -1   -1    0    0    0  501  0.00000000000E+00  0.00000000000E+00 -0.21505785707E+04  0.21505785707E+04  0.50400001928E-02 0. -1.
    10030    2    1    2    0    0  0.00000000000E+00  0.00000000000E+00 -0.86749106163E+03  0.34336660798E+04  0.33222766299E+04 0.  0.
        4    1    3    3  502    0  0.23675018655E+03 -0.14209869718E+04  0.42110416975E+03  0.15008614058E+04  0.12699999809E+01 0.  1.
       -4    1    3    3    0  502 -0.23675018655E+03  0.14209869718E+04 -0.12885952314E+04  0.19328046740E+04  0.12699999809E+01 0. -1.
</event>
<event>
 5   0  0.1728937E-06  0.3147417E+04  0.7818609E-02  0.8202844E-01
        2   -1    0    0  501    0  0.00000000000E+00  0.00000000000E+00  0.20395745040E+04  0.20395745041E+04  0.25500000920E-02 0.  1.
       -2   -1    0    0    0  501  0.00000000000E+00  0.00000000000E+00 -0.12142524602E+04  0.12142524602E+04  0.25500000920E-02 0. -1.
    10030    2    1    2    0    0  0.00000000000E+00  0.00000000000E+00  0.82532204383E+03  0.32538269643E+04  0.31474169469E+04 0.  0.
        1    1    3    3  502    0  0.11637683744E+04  0.12305733338E+03 -0.67507984419E+03  0.13510117441E+04  0.50400001928E-02 0. -1.
       -1    1    3    3    0  502 -0.11637683744E+04 -0.12305733338E+03  0.15004018880E+04  0.19028152202E+04  0.50400001928E-02 0.  1.
</event>
<event>
 5   0  0.1832626E-06  0.3280861E+04  0.7818609E-02  0.8167782E-01
       -2   -1    0    0    0  501  0.00000000000E+00  0.00000000000E+00  0.15343251654E+04  0.15343251654E+04  0.25500000920E-02 0.  1.
        2   -1    0    0  501    0  0.00000000000E+00  0.00000000000E+00 -0.17538732985E+04  0.17538732985E+04  0.25500000920E-02 0. -1.
    10030    2    1    2    0    0  0.00000000000E+00  0.00000000000E+00 -0.21954813312E+03  0.32881984639E+04  0.32808608253E+04 0.  0.
        3    1    3    3  502    0 -0.11325730827E+03  0.15671919570E+04  0.36254851114E+03  0.16125629541E+04  0.10100000352E+00 0.  1.
       -3    1    3    3    0  502  0.11325730827E+03 -0.15671919570E+04 -0.58209664426E+03  0.16756355097E+04  0.10100000352E+00 0. -1.
</event>
<event>
 5   0  0.5858859E-07  0.3297331E+04  0.7818609E-02  0.8163575E-01
        1   -1    0    0  501    0  0.00000000000E+00  0.00000000000E+00  0.18790008909E+04  0.18790008909E+04  0.50400001928E-02 0. -1.
       -1   -1    0    0    0  501  0.00000000000E+00  0.00000000000E+00 -0.14465651703E+04  0.14465651703E+04  0.50400001928E-02 0.  1.
    10030    2    1    2    0    0  0.00000000000E+00  0.00000000000E+00  0.43243572059E+03  0.33255660613E+04  0.32973305833E+04 0.  0.
        3    1    3    3  502    0 -0.12001668347E+03  0.36153951921E+03  0.18340054398E+04  0.18731499651E+04  0.10100000352E+00 0. -1.
       -3    1    3    3    0  502  0.12001668347E+03 -0.36153951921E+03 -0.14015697192E+04  0.14524160962E+04  0.10100000352E+00 0.  1.
</event>
<event>
 5   0  0.1696681E-06  0.3272784E+04  0.7818609E-02  0.8169855E-01
        2   -1    0    0  501    0  0.00000000000E+00  0.00000000000E+00  0.10003446106E+04  0.10003446106E+04  0.25500000920E-02 0.  1.
       -2   -1    0    0    0  501  0.00000000000E+00  0.00000000000E+00 -0.26768569429E+04  0.26768569429E+04  0.25500000920E-02 0. -1.
    10030    2    1    2    0    0  0.00000000000E+00  0.00000000000E+00 -0.16765123323E+04  0.36772015536E+04  0.32727843903E+04 0.  0.
        4    1    3    3  502    0 -0.17768793185E+03  0.11744916241E+04 -0.21028458927E+04  0.24151534191E+04  0.12699999809E+01 0. -1.
       -4    1    3    3    0  502  0.17768793185E+03 -0.11744916241E+04  0.42633356041E+03  0.12620481345E+04  0.12699999809E+01 0.  1.
</event>
<event>
 5   0  0.5858859E-07  0.3245993E+04  0.7818609E-02  0.8176775E-01
        1   -1    0    0  501    0  0.00000000000E+00  0.00000000000E+00  0.99817555683E+03  0.99817555684E+03  0.50400001928E-02 0.  1.
       -1   -1    0    0    0  501  0.00000000000E+00  0.00000000000E+00 -0.26389317569E+04  0.26389317569E+04  0.50400001928E-02 0. -1.
    10030    2    1    2    0    0  0.00000000000E+00  0.00000000000E+00 -0.16407562001E+04  0.36371073138E+04  0.32459927147E+04 0.  0.
        3    1    3    3  502    0  0.13730602557E+04 -0.33406133184E+03 -0.17148263631E+04  0.22220533083E+04  0.10100000352E+00 0. -1.
       -3    1    3    3    0  502 -0.13730602557E+04  0.33406133184E+03  0.74070163007E+02  0.14150540055E+04  0.10100000352E+00 0.  1.
</event>
<event>
 5   0  0.5858859E-07  0.3296519E+04  0.7818609E-02  0.8163782E-01
        1   -1    0    0  501    0  0.00000000000E+00  0.00000000000E+00  0.27375158004E+04  0.27375158004E+04  0.50400001928E-02 0.  1.
       -1   -1    0    0    0  501  0.00000000000E+00  0.00000000000E+00 -0.99241783413E+03  0.99241783414E+03  0.50400001928E-02 0. -1.
    10030    2    1    2    0    0  0.00000000000E+00  0.00000000000E+00  0.17450979662E+04  0.37299336345E+04  0.32965190741E+04 0.  0.
        3    1    3    3  502    0  0.11320992972E+04  0.11970888844E+04  0.92426222830E+03  0.18891615316E+04  0.10100000352E+00 0.  1.
       -3    1    3    3    0  502 -0.11320992972E+04 -0.11970888844E+04  0.82083573793E+03  0.18407721029E+04  0.10100000352E+00 0. -1.
</event>
<event>
 5   0  0.1832626E-06  0.3071180E+04  0.7818609E-02  0.8223692E-01
       -2   -1    0    0    0  501  0.00000000000E+00  0.00000000000E+00  0.14488823437E+04  0.14488823437E+04  0.25500000920E-02 0.  1.
        2   -1    0    0  501    0  0.00000000000E+00  0.00000000000E+00 -0.16274867504E+04  0.16274867504E+04  0.25500000920E-02 0. -1.
    10030    2    1    2    0    0  0.00000000000E+00  0.00000000000E+00 -0.17860440676E+03  0.30763690941E+04  0.30711801102E+04 0.  0.
        3    1    3    3  502    0  0.13764787408E+04  0.55615462294E+03 -0.48243839546E+03  0.15610088098E+04  0.10100000352E+00 0. -1.
       -3    1    3    3    0  502 -0.13764787408E+04 -0.55615462294E+03  0.30383398869E+03  0.15153602844E+04  0.10100000352E+00 0.  1.
</event>
<event>
 5   0  0.5988516E-07  0.3316352E+04  0.7818609E-02  0.8158747E-01
        1   -1    0    0  501    0  0.00000000000E+00  0.00000000000E+00  0.22586755780E+04  0.22586755780E+04  0.50400001928E-02 0.  1.
       -1   -1    0    0    0  501  0.00000000000E+00  0.00000000000E+00 -0.12173273163E+04  0.12173273163E+04  0.50400001928E-02 0. -1.
    10030    2    1    2    0    0  0.00000000000E+00  0.00000000000E+00  0.10413482617E+04  0.34760028943E+04  0.33163518992E+04 0.  0.
        4    1    3    3  502    0 -0.36368841947E+03 -0.11373249199E+04 -0.68526549001E+03  0.13767235179E+04  0.12699999809E+01 0. -1.
       -4    1    3    3    0  502  0.36368841947E+03  0.11373249199E+04  0.17266137517E+04  0.20992793765E+04  0.12699999809E+01 0.  1.
</event>
<event>
 5   0  0.5858859E-07  0.2717868E+04  0.7818609E-02  0.8329231E-01
       -1   -1    0    0    0  501  0.00000000000E+00  0.00000000000E+00  0.10514162907E+04  0.10514162907E+04  0.50400001928E-02 0.  1.
        1   -1    0    0  501    0  0.00000000000E+00  0.00000000000E+00 -0.17563937527E+04  0.17563937527E+04  0.50400001928E-02 0. -1.
    10030    2    1    2    0    0  0.00000000000E+00  0.00000000000E+00 -0.70497746204E+03  0.28078100434E+04  0.27178675498E+04 0.  0.
        3    1    3    3  502    0  0.10525973270E+04  0.66611136689E+03 -0.91363564466E+03  0.15447962932E+04  0.10100000352E+00 0. -1.
       -3    1    3    3    0  502 -0.10525973270E+04 -0.66611136689E+03  0.20865818262E+03  0.12630137503E+04  0.10100000352E+00 0.  1.
</event>
<event>
 5   0  0.1784626E-06  0.3342879E+04  0.7818609E-02  0.8152070E-01
       -2   -1    0    0    0  501  0.00000000000E+00  0.00000000000E+00  0.99926732817E+03  0.99926732818E+03  0.25500000920E-02 0.  1.
        2   -1    0    0  501    0  0.00000000000E+00  0.00000000000E+00 -0.27957576765E+04  0.27957576765E+04  0.25500000920E-02 0. -1.
    10030    2    1    2    0    0  0.00000000000E+00  0.00000000000E+00 -0.17964903483E+04  0.37950250047E+04  0.33428785821E+04 0.  0.
        2    1    3    3  502    0  0.43305980837E+03 -0.13554738336E+04  0.97200227098E+02  0.14262881880E+04  0.25500000920E-02 0.  1.
       -2    1    3    3    0  502 -0.43305980837E+03  0.13554738336E+04 -0.18936905754E+04  0.23687368167E+04  0.25500000920E-02 0. -1.
</event>
<event>
 5   0  0.5988516E-07  0.3411954E+04  0.7818609E-02  0.8134979E-01
       -1   -1    0    0    0  501  0.00000000000E+00  0.00000000000E+00  0.19742114719E+04  0.19742114719E+04  0.50400001928E-02 0.  1.
        1   -1    0    0  501    0  0.00000000000E+00  0.00000000000E+00 -0.14741871429E+04  0.14741871429E+04  0.50400001928E-02 0. -1.
    10030    2    1    2    0    0  0.00000000000E+00  0.00000000000E+00  0.50002432901E+03  0.34483986149E+04  0.34119537918E+04 0.  0.
        4    1    3    3  502    0  0.98706704297E+02 -0.69864569879E+03  0.18198275742E+04  0.19518255144E+04  0.12699999809E+01 0.  1.
       -4    1    3    3    0  502 -0.98706704297E+02  0.69864569879E+03 -0.13198032452E+04  0.14965731004E+04  0.12699999809E+01 0. -1.
</event>
<event>
 5   0  0.1728937E-06  0.3310887E+04  0.7818609E-02  0.8160131E-01
       -2   -1    0    0    0  501  0.00000000000E+00  0.00000000000E+00  0.21182305279E+04  0.21182305279E+04  0.25500000920E-02 0. -1.
        2   -1    0    0  501    0  0.00000000000E+00  0.00000000000E+00 -0.12937653386E+04  0.12937653386E+04  0.25500000920E-02 0.  1.
    10030    2    1    2    0    0  0.00000000000E+00  0.00000000000E+00  0.82446518936E+03  0.34119958665E+04  0.33108870329E+04 0.  0.
        1    1    3    3  502    0  0.14448364634E+04 -0.72028531617E+02  0.12416416190E+04  0.19064140226E+04  0.50400001928E-02 0. -1.
       -1    1    3    3    0  502 -0.14448364634E+04  0.72028531617E+02 -0.41717642967E+03  0.15055818439E+04  0.50400001928E-02 0.  1.
</event>
<event>
 5   0  0.5985183E-07  0.3243988E+04  0.7818609E-02  0.8177296E-01
        1   -1    0    0  501    0  0.00000000000E+00  0.00000000000E+00  0.14625907452E+04  0.14625907452E+04  0.50400001928E-02 0.  1.
       -1   -1    0    0    0  501  0.00000000000E+00  0.00000000000E+00 -0.17987695827E+04  0.17987695827E+04  0.50400001928E-02 0. -1.
    10030    2    1    2    0    0  0.00000000000E+00  0.00000000000E+00 -0.33617883749E+03  0.32613603280E+04  0.32439875120E+04 0.  0.
        2    1    3    3  502    0  0.72960823280E+03  0.14396940149E+04 -0.32962570592E+03  0.16473312162E+04  0.25500000920E-02 0. -1.
       -2    1    3    3    0  502 -0.72960823280E+03 -0.14396940149E+04 -0.65531315717E+01  0.16140291117E+04  0.25500000920E-02 0.  1.
</event>
<event>
 5   0  0.5988516E-07  0.3325587E+04  0.7818609E-02  0.8156415E-01
       -1   -1    0    0    0  501  0.00000000000E+00  0.00000000000E+00  0.17654108772E+04  0.17654108772E+04  0.50400001928E-02 0. -1.
        1   -1    0    0  501    0  0.00000000000E+00  0.00000000000E+00 -0.15661409191E+04  0.15661409191E+04  0.50400001928E-02 0.  1.
    10030    2    1    2    0    0  0.00000000000E+00  0.00000000000E+00  0.19926995814E+03  0.33315517963E+04  0.33255869941E+04 0.  0.
        4    1    3    3  502    0 -0.54404449016E+03 -0.52164632831E+03  0.15844476614E+04  0.17545869325E+04  0.12699999809E+01 0. -1.
       -4    1    3    3    0  502  0.54404449016E+03  0.52164632831E+03 -0.13851777033E+04  0.15769648638E+04  0.12699999809E+01 0.  1.
</event>
<event>
 5   0  0.1832626E-06  0.3308353E+04  0.7818609E-02  0.8160773E-01
        2   -1    0    0  501    0  0.00000000000E+00  0.00000000000E+00  0.23668379985E+04  0.23668379985E+04  0.25500000920E-02 0.  1.
       -2   -1    0    0    0  501  0.00000000000E+00  0.00000000000E+00 -0.11560991918E+04  0.11560991918E+04  0.25500000920E-02 0. -1.
    10030    2    1    2    0    0  0.00000000000E+00  0.00000000000E+00  0.12107388067E+04  0.35229371904E+04  0.33083527607E+04 0.  0.
        3    1    3    3  502    0  0.13304082051E+03 -0.50385404770E+03  0.22771444128E+04  0.23360127243E+04  0.10100000352E+00 0.  1.
       -3    1    3    3    0  502 -0.13304082051E+03  0.50385404770E+03 -0.10664056061E+04  0.11869244661E+04  0.10100000352E+00 0. -1.
</event>
<event>
 5   0  0.5858859E-07  0.2994262E+04  0.7818609E-02  0.8245371E-01
       -1   -1    0    0    0  501  0.00000000000E+00  0.00000000000E+00  0.14157004889E+04  0.14157004889E+04  0.50400001928E-02 0.  1.
        1   -1    0    0  501    0  0.00000000000E+00  0.00000000000E+00 -0.15832450096E+04  0.15832450096E+04  0.50400001928E-02 0. -1.
    10030    2    1    2    0    0  0.00000000000E+00  0.00000000000E+00 -0.16754452071E+03  0.29989454985E+04  0.29942616681E+04 0.  0.
        3    1    3    3  502    0 -0.88235497295E+03 -0.11547160674E+04 -0.44417014199E+03  0.15196073901E+04  0.10100000352E+00 0. -1.
       -3    1    3    3    0  502  0.88235497295E+03  0.11547160674E+04  0.27662562127E+03  0.14793381085E+04  0.10100000352E+00 0.  1.
</event>
<event>
 5   0  0.1784626E-06  0.3353924E+04  0.7818609E-02  0.8149308E-01
        2   -1    0    0  501    0  0.00000000000E+00  0.00000000000E+00  0.27329984820E+04  0.27329984820E+04  0.25500000920E-02 0. -1.
       -2   -1    0    0    0  501  0.00000000000E+00  0.00000000000E+00 -0.10289802486E+04  0.10289802486E+04  0.25500000920E-02 0.  1.
    10030    2    1    2    0    0  0.00000000000E+00  0.00000000000E+00  0.17040182334E+04  0.37619787306E+04  0.33539239451E+04 0.  0.
        2    1    3    3  502    0 -0.13745502388E+04 -0.58253155954E+03 -0.47770011752E+01  0.14929012682E+04  0.25500000920E-02 0.  1.
       -2    1    3    3    0  502  0.13745502388E+04  0.58253155954E+03  0.17087952345E+04  0.22690774624E+04  0.25500000920E-02 0. -1.
</event>
<event>
 5   0  0.1832626E-06  0.3282726E+04  0.7818609E-02  0.8167305E-01
        2   -1    0    0  501    0  0.00000000000E+00  0.00000000000E+00  0.26051562040E+04  0.26051562040E+04  0.25500000920E-02 0.  1.
       -2   -1    0    0    0  501  0.00000000000E+00  0.00000000000E+00 -0.10341311029E+04  0.10341311029E+04  0.25500000920E-02 0. -1.
    10030    2    1    2    0    0  0.00000000000E+00  0.00000000000E+00  0.15710251011E+04  0.36392873069E+04  0.32827263416E+04 0.  0.
        3    1    3    3  502    0 -0.14237809414E+04 -0.15313277038E+03  0.16748083295E+04  0.22035391454E+04  0.10100000352E+00 0.  1.
       -3    1    3    3    0  502  0.14237809414E+04  0.15313277038E+03 -0.10378322836E+03  0.14357481615E+04  0.10100000352E+00 0. -1.
</event>
<event>
 5   0  0.1784626E-06  0.3297824E+04  0.7818609E-02  0.8163449E-01
       -2   -1    0    0    0  501  0.00000000000E+00  0.00000000000E+00  0.14346286629E+04  0.14346286629E+04  0.25500000920E-02 0.  1.
        2   -1    0    0  501    0  0.00000000000E+00  0.00000000000E+00 -0.18952019903E+04  0.18952019903E+04  0.25500000920E-02 0. -1.
    10030    2    1    2    0    0  0.00000000000E+00  0.00000000000E+00 -0.46057332741E+03  0.33298306533E+04  0.32978241902E+04 0.  0.
        2    1    3    3  502    0  0.86579612608E+03  0.58308608189E+03  0.10585494010E+04  0.14866469471E+04  0.25500000920E-02 0.  1.
       -2    1    3    3    0  502 -0.86579612608E+03 -0.58308608189E+03 -0.15191227284E+04  0.18431837062E+04  0.25500000920E-02 0. -1.
</event>
<event>
 5   0  0.1696681E-06  0.3295127E+04  0.7818609E-02  0.8164136E-01
       -2   -1    0    0    0  501  0.00000000000E+00  0.00000000000E+00  0.10221106851E+04  0.10221106851E+04  0.25500000920E-02 0.  1.
        2   -1    0    0  501    0  0.00000000000E+00  0.00000000000E+00 -0.26557454971E+04  0.26557454971E+04  0.25500000920E-02 0. -1.
    10030    2    1    2    0    0  0.00000000000E+00  0.00000000000E+00 -0.16336348119E+04  0.36778561822E+04  0.32951272203E+04 0.  0.
        4    1    3    3  502    0  0.14920155402E+04 -0.49294247851E+03 -0.13696909814E+04  0.20845041753E+04  0.12699999809E+01 0.  1.
       -4    1    3    3    0  502 -0.14920155402E+04  0.49294247851E+03 -0.26394383050E+03  0.15933520069E+04  0.12699999809E+01 0. -1.
</event>
<event>
 5   0  0.6023446E-07  0.3316974E+04  0.7818609E-02  0.8158590E-01
       -1   -1    0    0    0  501  0.00000000000E+00  0.00000000000E+00  0.16303016904E+04  0.16303016904E+04  0.50400001928E-02 0.  1.
        1   -1    0    0  501    0  0.00000000000E+00  0.00000000000E+00 -0.16871600857E+04  0.16871600857E+04  0.50400001928E-02 0. -1.
    10030    2    1    2    0    0  0.00000000000E+00  0.00000000000E+00 -0.56858395293E+02  0.33174617762E+04  0.33169744888E+04 0.  0.
        5    1    3    3  502    0 -0.14241859488E+04  0.65381058474E+03 -0.57144905972E+03  0.16680377739E+04  0.46999998093E+01 0. -1.
       -5    1    3    3    0  502  0.14241859488E+04 -0.65381058474E+03  0.51459066443E+03  0.16494240023E+04  0.46999998093E+01 0.  1.
</event>
<event>
 5   0  0.6085351E-07  0.3268990E+04  0.7818609E-02  0.8170831E-01
       -1   -1    0    0    0  501  0.00000000000E+00  0.00000000000E+00  0.96336729272E+03  0.96336729274E+03  0.50400001928E-02 0. -1.
        1   -1    0    0  501    0  0.00000000000E+00  0.00000000000E+00 -0.27731616826E+04  0.27731616826E+04  0.50400001928E-02 0.  1.
    10030    2    1    2    0    0  0.00000000000E+00  0.00000000000E+00 -0.18097943899E+04  0.37365289753E+04  0.32689896069E+04 0.  0.
        1    1    3    3  502    0 -0.12373213770E+04  0.92146694818E+03 -0.15220317391E+04  0.21671746910E+04  0.50400001928E-02 0.  1.
       -1    1    3    3    0  502  0.12373213770E+04 -0.92146694818E+03 -0.28776265079E+03  0.15693542843E+04  0.50400001928E-02 0. -1.
</event>
<event>
 5   0  0.1784626E-06  0.3301330E+04  0.7818609E-02  0.8162557E-01
       -2   -1    0    0    0  501  0.00000000000E+00  0.00000000000E+00  0.20032570757E+04  0.20032570757E+04  0.25500000920E-02 0. -1.
        2   -1    0    0  501    0  0.00000000000E+00  0.00000000000E+00 -0.13601328469E+04  0.13601328469E+04  0.25500000920E-02 0.  1.
    10030    2    1    2    0    0  0.00000000000E+00  0.00000000000E+00  0.64312422880E+03  0.33633899226E+04  0.33013304890E+04 0.  0.
        2    1    3    3  502    0  0.26657669374E+03  0.10872746832E+04 -0.91428112914E+03  0.14453855380E+04  0.25500000920E-02 0.  1.
       -2    1    3    3    0  502 -0.26657669374E+03 -0.10872746832E+04  0.15574053579E+04  0.19180043846E+04  0.25500000920E-02 0. -1.
</event>
<event>
 5   0  0.1784626E-06  0.3292614E+04  0.7818609E-02  0.8164777E-01
        2   -1    0    0  501    0  0.00000000000E+00  0.00000000000E+00  0.20306849586E+04  0.20306849586E+04  0.25500000920E-02 0.  1.
       -2   -1    0    0    0  501  0.00000000000E+00  0.00000000000E+00 -0.13346861320E+04  0.13346861320E+04  0.25500000920E-02 0. -1.
    10030    2    1    2    0    0  0.00000000000E+00  0.00000000000E+00  0.69599882664E+03  0.33653710906E+04  0.32926141910E+04 0.  0.
        2    1    3    3  502    0  0.11716259527E+04  0.14183288347E+03 -0.82518946986E+03  0.14400561103E+04  0.25500000920E-02 0.  1.
       -2    1    3    3    0  502 -0.11716259527E+04 -0.14183288347E+03  0.15211882965E+04  0.19253149803E+04  0.25500000920E-02 0. -1.
</event>
<event>
 5   0  0.1832626E-06  0.2895576E+04  0.7818609E-02  0.8274195E-01
       -2   -1    0    0    0  501  0.00000000000E+00  0.00000000000E+00  0.10960506739E+04  0.10960506739E+04  0.25500000920E-02 0. -1.
        2   -1    0    0  501    0  0.00000000000E+00  0.00000000000E+00 -0.19124030660E+04  0.19124030660E+04  0.25500000920E-02 0.  1.
    10030    2    1    2    0    0  0.00000000000E+00  0.00000000000E+00 -0.81635239214E+03  0.30084537399E+04  0.28955763981E+04 0.  0.
        3    1    3    3  502    0  0.12018539392E+04 -0.49651409980E+03 -0.10694717527E+04  0.16836712810E+04  0.10100000352E+00 0.  1.
       -3    1    3    3    0  502 -0.12018539392E+04  0.49651409980E+03  0.25311936057E+03  0.13247824589E+04  0.10100000352E+00 0. -1.
</event>
<event>
 5   0  0.5985183E-07  0.3255692E+04  0.7818609E-02  0.8174262E-01
        1   -1    0    0  501    0  0.00000000000E+00  0.00000000000E+00  0.21649266020E+04  0.21649266020E+04  0.50400001928E-02 0. -1.
       -1   -1    0    0    0  501  0.00000000000E+00  0.00000000000E+00 -0.12240057003E+04  0.12240057004E+04  0.50400001928E-02 0.  1.
    10030    2    1    2    0    0  0.00000000000E+00  0.00000000000E+00  0.94092090168E+03  0.33889323024E+04  0.32556919398E+04 0.  0.
        2    1    3    3  502    0  0.94763048033E+02 -0.93143699508E+03 -0.91570182259E+03  0.13096048026E+04  0.25500000920E-02 0.  1.
       -2    1    3    3    0  502 -0.94763048033E+02  0.93143699508E+03  0.18566227243E+04  0.20793274998E+04  0.25500000920E-02 0. -1.
</event>
<event>
 5   0  0.6085351E-07  0.3219417E+04  0.7818609E-02  0.8183708E-01
       -1   -1    0    0    0  501  0.00000000000E+00  0.00000000000E+00  0.14489108628E+04  0.14489108628E+04  0.50400001928E-02 0. -1.
        1   -1    0    0  501    0  0.00000000000E+00  0.00000000000E+00 -0.17883514191E+04  0.17883514191E+04  0.50400001928E-02 0.  1.
    10030    2    1    2    0    0  0.00000000000E+00  0.00000000000E+00 -0.33944055626E+03  0.32372622819E+04  0.32194172129E+04 0.  0.
        1    1    3    3  502    0  0.60140007348E+03  0.11510995432E+04 -0.11260173122E+04  0.17189029042E+04  0.50400001928E-02 0.  1.
       -1    1    3    3    0  502 -0.60140007348E+03 -0.11510995432E+04  0.78657675591E+03  0.15183593777E+04  0.50400001928E-02 0. -1.
</event>
<event>
 5   0  0.1784626E-06  0.3174214E+04  0.7818609E-02  0.8195660E-01
        2   -1    0    0  501    0  0.00000000000E+00  0.00000000000E+00  0.13248273429E+04  0.13248273429E+04  0.25500000920E-02 0.  1.
       -2   -1    0    0    0  501  0.00000000000E+00  0.00000000000E+00 -0.19013114347E+04  0.19013114347E+04  0.25500000920E-02 0. -1.
    10030    2    1    2    0    0  0.00000000000E+00  0.00000000000E+00 -0.57648409177E+03  0.32261387777E+04  0.31742144705E+04 0.  0.
        2    1    3    3  502    0 -0.46119027890E+03  0.61836424540E+03  0.11214722083E+04  0.13611652094E+04  0.25500000920E-02 0.  1.
       -2    1    3    3    0  502  0.46119027890E+03 -0.61836424540E+03 -0.16979563001E+04  0.18649735682E+04  0.25500000920E-02 0. -1.
</event>
<event>
 5   0  0.1743810E-06  0.3298897E+04  0.7818609E-02  0.8163176E-01
       -2   -1    0    0    0  501  0.00000000000E+00  0.00000000000E+00  0.11562969229E+04  0.11562969229E+04  0.25500000920E-02 0. -1.
        2   -1    0    0  501    0  0.00000000000E+00  0.00000000000E+00 -0.23529247605E+04  0.23529247605E+04  0.25500000920E-02 0.  1.
    10030    2    1    2    0    0  0.00000000000E+00  0.00000000000E+00 -0.11966278376E+04  0.35092216834E+04  0.32988965794E+04 0.  0.
        5    1    3    3  502    0 -0.14365047098E+04  0.49564915769E+03 -0.12806483909E+04  0.19872836385E+04  0.46999998093E+01 0.  1.
       -5    1    3    3    0  502  0.14365047098E+04 -0.49564915769E+03  0.84020553310E+02  0.15219380448E+04  0.46999998093E+01 0. -1.
</event>
<event>
 5   0  0.5985183E-07  0.3489544E+04  0.7818609E-02  0.8116272E-01
       -1   -1    0    0    0  501  0.00000000000E+00  0.00000000000E+00  0.23296294894E+04  0.23296294894E+04  0.50400001928E-02 0. -1.
        1   -1    0    0  501    0  0.00000000000E+00  0.00000000000E+00 -0.13067442883E+04  0.13067442883E+04  0.50400001928E-02 0.  1.
    10030    2    1    2    0    0  0.00000000000E+00  0.00000000000E+00  0.10228852011E+04  0.36363737778E+04  0.34895443996E+04 0.  0.
        2    1    3    3  502    0  0.59659043414E+03 -0.69777920297E+03  0.20575891570E+04  0.22531065446E+04  0.25500000920E-02 0. -1.
       -2    1    3    3    0  502 -0.59659043414E+03  0.69777920297E+03 -0.10347039558E+04  0.13832672332E+04  0.25500000920E-02 0.  1.
</event>
<event>
 5   0  0.6023446E-07  0.3299729E+04  0.7818609E-02  0.8162964E-01
        1   -1    0    0  501    0  0.00000000000E+00  0.00000000000E+00  0.20540531488E+04  0.20540531488E+04  0.50400001928E-02 0. -1.
       -1   -1    0    0    0  501  0.00000000000E+00  0.00000000000E+00 -0.13252107148E+04  0.13252107148E+04  0.50400001928E-02 0.  1.
    10030    2    1    2    0    0  0.00000000000E+00  0.00000000000E+00  0.72884243402E+03  0.33792638636E+04  0.32997292262E+04 0.  0.
        5    1    3    3  502    0  0.38744713424E+03 -0.11921373685E+04  0.14629955679E+04  0.19265733593E+04  0.46999998093E+01 0. -1.
       -5    1    3    3    0  502 -0.38744713424E+03  0.11921373685E+04 -0.73415313384E+03  0.14526905043E+04  0.46999998093E+01 0.  1.
</event>
<event>
 5   0  0.1696681E-06  0.3301203E+04  0.7818609E-02  0.8162589E-01
       -2   -1    0    0    0  501  0.00000000000E+00  0.00000000000E+00  0.10987355780E+04  0.10987355780E+04  0.25500000920E-02 0. -1.
        2   -1    0    0  501    0  0.00000000000E+00  0.00000000000E+00 -0.24796555768E+04  0.24796555768E+04  0.25500000920E-02 0.  1.
    10030    2    1    2    0    0  0.00000000000E+00  0.00000000000E+00 -0.13809199989E+04  0.35783911548E+04  0.33012032979E+04 0.  0.
        4    1    3    3  502    0 -0.12816022326E+03 -0.16230016950E+04 -0.98518037852E+03  0.19029297244E+04  0.12699999809E+01 0.  1.
       -4    1    3    3    0  502  0.12816022326E+03  0.16230016950E+04 -0.39573962034E+03  0.16754614304E+04  0.12699999809E+01 0. -1.
</event>
<event>
 5   0  0.5858859E-07  0.3301795E+04  0.7818609E-02  0.8162439E-01
       -1   -1    0    0    0  501  0.00000000000E+00  0.00000000000E+00  0.20729077930E+04  0.20729077930E+04  0.50400001928E-02 0. -1.
        1   -1    0    0  501    0  0.00000000000E+00  0.00000000000E+00 -0.13148019665E+04  0.13148019665E+04  0.50400001928E-02 0.  1.
    10030    2    1    2    0    0  0.00000000000E+00  0.00000000000E+00  0.75810582649E+03  0.33877097596E+04  0.33017954163E+04 0.  0.
        3    1    3    3  502    0  0.94629333183E+03 -0.13315707686E+04  0.62382160327E+03  0.17486295161E+04  0.10100000352E+00 0.  1.
       -3    1    3    3    0  502 -0.94629333183E+03  0.13315707686E+04  0.13428422322E+03  0.16390802435E+04  0.10100000352E+00 0. -1.
</event>
<event>
 5   0  0.5985183E-07  0.3152802E+04  0.7818609E-02  0.8201395E-01
       -1   -1    0    0    0  501  0.00000000000E+00  0.00000000000E+00  0.23676796275E+04  0.23676796275E+04  0.50400001928E-02 0.  1.
        1   -1    0    0  501    0  0.00000000000E+00  0.00000000000E+00 -0.10495674407E+04  0.10495674407E+04  0.50400001928E-02 0. -1.
    10030    2    1    2    0    0  0.00000000000E+00  0.00000000000E+00  0.13181121868E+04  0.34172470682E+04  0.31528015776E+04 0.  0.
        2    1    3    3  502    0 -0.14590581078E+04  0.54016112499E+03  0.93414477391E+03  0.18147316776E+04  0.25500000920E-02 0. -1.
       -2    1    3    3    0  502  0.14590581078E+04 -0.54016112499E+03  0.38396741291E+03  0.16025153906E+04  0.25500000920E-02 0.  1.
</event>
<event>
 5   0  0.1784626E-06  0.3317498E+04  0.7818609E-02  0.8158457E-01
        2   -1    0    0  501    0  0.00000000000E+00  0.00000000000E+00  0.28461619744E+04  0.28461619744E+04  0.25500000920E-02 0. -1.
       -2   -1    0    0    0  501  0.00000000000E+00  0.00000000000E+00 -0.96672255873E+03  0.96672255874E+03  0.25500000920E-02 0.  1.
    10030    2    1    2    0    0  0.00000000000E+00  0.00000000000E+00  0.18794394157E+04  0.38128845332E+04  0.33174984470E+04 0.  0.
        2    1    3    3  502    0  0.28094102389E+03 -0.85469948398E+03 -0.66193408797E+03  0.11169582820E+04  0.25500000920E-02 0.  1.
       -2    1    3    3    0  502 -0.28094102389E+03  0.85469948398E+03  0.25413735037E+04  0.26959262512E+04  0.25500000920E-02 0. -1.
</event>
<event>
 5   0  0.1743810E-06  0.3347887E+04  0.7818609E-02  0.8150816E-01
        2   -1    0    0  501    0  0.00000000000E+00  0.00000000000E+00  0.21046145090E+04  0.21046145090E+04  0.25500000920E-02 0.  1.
       -2   -1    0    0    0  501  0.00000000000E+00  0.00000000000E+00 -0.13314015394E+04  0.13314015394E+04  0.25500000920E-02 0. -1.
    10030    2    1    2    0    0  0.00000000000E+00  0.00000000000E+00  0.77321296966E+03  0.34360160484E+04  0.33478870931E+04 0.  0.
        5    1    3    3  502    0  0.66029407889E+03  0.15374105941E+04  0.43735818438E+03  0.17294287719E+04  0.46999998093E+01 0. -1.
       -5    1    3    3    0  502 -0.66029407889E+03 -0.15374105941E+04  0.33585478528E+03  0.17065872765E+04  0.46999998093E+01 0.  1.
</event>
<event>
 5   0  0.5988516E-07  0.3307304E+04  0.7818609E-02  0.8161039E-01
       -1   -1    0    0    0  501  0.00000000000E+00  0.00000000000E+00  0.15848817861E+04  0.15848817861E+04  0.50400001928E-02 0. -1.
        1   -1    0    0  501    0  0.00000000000E+00  0.00000000000E+00 -0.17254057871E+04  0.17254057871E+04  0.50400001928E-02 0.  1.
    10030    2    1    2    0    0  0.00000000000E+00  0.00000000000E+00 -0.14052400099E+03  0.33102875733E+04  0.33073035577E+04 0.  0.
        4    1    3    3  502    0  0.34901271433E+03  0.15033977567E+04  0.52403116201E+03  0.16299156301E+04  0.12699999809E+01 0.  1.
       -4    1    3    3    0  502 -0.34901271433E+03 -0.15033977567E+04 -0.66455516300E+03  0.16803719431E+04  0.12699999809E+01 0. -1.
</event>
<event>
 5   0  0.1743810E-06  0.3279075E+04  0.7818609E-02  0.8168240E-01
        2   -1    0    0  501    0  0.00000000000E+00  0.00000000000E+00  0.21502753180E+04  0.21502753180E+04  0.25500000920E-02 0.  1.
       -2   -1    0    0    0  501  0.00000000000E+00  0.00000000000E+00 -0.12501109397E+04  0.12501109397E+04  0.25500000920E-02 0. -1.
    10030    2    1    2    0    0  0.00000000000E+00  0.00000000000E+00  0.90016437829E+03  0.34003862578E+04  0.32790746857E+04 0.  0.
        5    1    3    3  502    0  0.42426695634E+03  0.10181543387E+04  0.17079796969E+04  0.20331889835E+04  0.46999998093E+01 0.  1.
       -5    1    3    3    0  502 -0.42426695634E+03 -0.10181543387E+04 -0.80781531861E+03  0.13671972742E+04  0.46999998093E+01 0. -1.
</event>
<event>
 5   0  0.5858859E-07  0.3321480E+04  0.7818609E-02  0.8157451E-01
       -1   -1    0    0    0  501  0.00000000000E+00  0.00000000000E+00  0.18676954852E+04  0.18676954852E+04  0.50400001928E-02 0.  1.
        1   -1    0    0  501    0  0.00000000000E+00  0.00000000000E+00 -0.14767164497E+04  0.14767164497E+04  0.50400001928E-02 0. -1.
    10030    2    1    2    0    0  0.00000000000E+00  0.00000000000E+00  0.39097903548E+03  0.33444119350E+04  0.33214795776E+04 0.  0.
        3    1    3    3  502    0  0.12050218438E+03 -0.94206470368E+03  0.15672649114E+04  0.18325735989E+04  0.10100000352E+00 0.  1.
       -3    1    3    3    0  502 -0.12050218438E+03  0.94206470368E+03 -0.11762858760E+04  0.15118383361E+04  0.10100000352E+00 0. -1.
</event>
<event>
 5   0  0.1784626E-06  0.2823754E+04  0.7818609E-02  0.8295931E-01
        2   -1    0    0  501    0  0.00000000000E+00  0.00000000000E+00  0.10702634223E+04  0.10702634223E+04  0.25500000920E-02 0.  1.
       -2   -1    0    0    0  501  0.00000000000E+00  0.00000000000E+00 -0.18625287075E+04  0.18625287075E+04  0.25500000920E-02 0. -1.
    10030    2    1    2    0    0  0.00000000000E+00  0.00000000000E+00 -0.79226528526E+03  0.29327921298E+04  0.28237537772E+04 0.  0.
        2    1    3    3  502    0 -0.44469481536E+02 -0.12084423705E+04  0.36076442535E+03  0.12619276795E+04  0.25500000920E-02 0.  1.
       -2    1    3    3    0  502  0.44469481536E+02  0.12084423705E+04 -0.11530297106E+04  0.16708644503E+04  0.25500000920E-02 0. -1.
</event>
<event>
 5   0  0.1832626E-06  0.3099291E+04  0.7818609E-02  0.8215933E-01
       -2   -1    0    0    0  501  0.00000000000E+00  0.00000000000E+00  0.15705846580E+04  0.15705846580E+04  0.25500000920E-02 0.  1.
        2   -1    0    0  501    0  0.00000000000E+00  0.00000000000E+00 -0.15289854606E+04  0.15289854606E+04  0.25500000920E-02 0. -1.
    10030    2    1    2    0    0  0.00000000000E+00  0.00000000000E+00  0.41599197389E+02  0.30995701185E+04  0.30992909554E+04 0.  0.
        3    1    3    3  502    0 -0.40403068743E+03  0.71128408669E+01 -0.14753664727E+04  0.15297050787E+04  0.10100000352E+00 0. -1.
       -3    1    3    3    0  502  0.40403068743E+03 -0.71128408669E+01  0.15169656701E+04  0.15698650398E+04  0.10100000352E+00 0.  1.
</event>
<event>
 5   0  0.1728937E-06  0.3293011E+04  0.7818609E-02  0.8164676E-01
        2   -1    0    0  501    0  0.00000000000E+00  0.00000000000E+00  0.22494946150E+04  0.22494946150E+04  0.25500000920E-02 0. -1.
       -2   -1    0    0    0  501  0.00000000000E+00  0.00000000000E+00 -0.12051505981E+04  0.12051505981E+04  0.25500000920E-02 0.  1.
    10030    2    1    2    0    0  0.00000000000E+00  0.00000000000E+00  0.10443440169E+04  0.34546452131E+04  0.32930106473E+04 0.  0.
        1    1    3    3  502    0  0.72832637346E+03  0.61033428752E+03  0.19327952527E+04  0.21537559606E+04  0.50400001928E-02 0.  1.
       -1    1    3    3    0  502 -0.72832637346E+03 -0.61033428752E+03 -0.88845123586E+03  0.13008892525E+04  0.50400001928E-02 0. -1.
</event>
<event>
 5   0  0.6085351E-07  0.3131755E+04  0.7818609E-02  0.8207077E-01
       -1   -1    0    0    0  501  0.00000000000E+00  0.00000000000E+00  0.18385855581E+04  0.18385855581E+04  0.50400001928E-02 0.  1.
        1   -1    0    0  501    0  0.00000000000E+00  0.00000000000E+00 -0.13336187193E+04  0.13336187193E+04  0.50400001928E-02 0. -1.
    10030    2    1    2    0    0  0.00000000000E+00  0.00000000000E+00  0.50496683873E+03  0.31722042774E+04  0.31317548546E+04 0.  0.
        1    1    3    3  502    0 -0.89394580567E+03 -0.12329949853E+04  0.62126880727E+03  0.16448071826E+04  0.50400001928E-02 0.  1.
       -1    1    3    3    0  502  0.89394580567E+03  0.12329949853E+04 -0.11630196853E+03  0.15273970948E+04  0.50400001928E-02 0. -1.
</event>
<event>
 5   0  0.1832626E-06  0.3290309E+04  0.7818609E-02  0.8165366E-01
       -2   -1    0    0    0  501  0.00000000000E+00  0.00000000000E+00  0.14586252762E+04  0.14586252762E+04  0.25500000920E-02 0. -1.
        2   -1    0    0  501    0  0.00000000000E+00  0.00000000000E+00 -0.18555375943E+04  0.18555375943E+04  0.25500000920E-02 0.  1.
    10030    2    1    2    0    0  0.00000000000E+00  0.00000000000E+00 -0.39691231810E+03  0.33141628706E+04  0.32903094299E+04 0.  0.
        3    1    3    3  502    0  0.83138496602E+02 -0.36995423854E+03 -0.18109227475E+04  0.18501944102E+04  0.10100000352E+00 0.  1.
       -3    1    3    3    0  502 -0.83138496602E+02  0.36995423854E+03  0.14140104294E+04  0.14639684603E+04  0.10100000352E+00 0. -1.
</event>
<event>
 5   0  0.5988516E-07  0.3243952E+04  0.7818609E-02  0.8177305E-01
        1   -1    0    0  501    0  0.00000000000E+00  0.00000000000E+00  0.22126407964E+04  0.22126407964E+04  0.50400001928E-02 0.  1.
       -1   -1    0    0    0  501  0.00000000000E+00  0.00000000000E+00 -0.11889892422E+04  0.11889892423E+04  0.50400001928E-02 0. -1.
    10030    2    1    2    0    0  0.00000000000E+00  0.00000000000E+00  0.10236515542E+04  0.34016300387E+04  0.32439519749E+04 0.  0.
        4    1    3    3  502    0  0.95969861167E+03 -0.11547459806E+04  0.11551140195E+04  0.18943995661E+04  0.12699999809E+01 0. -1.
       -4    1    3    3    0  502 -0.95969861167E+03  0.11547459806E+04 -0.13146246533E+03  0.15072304726E+04  0.12699999809E+01 0.  1.
</event>
<event>
 5   0  0.1743810E-06  0.3310829E+04  0.7818609E-02  0.8160145E-01
       -2   -1    0    0    0  501  0.00000000000E+00  0.00000000000E+00  0.13580765354E+04  0.13580765354E+04  0.25500000920E-02 0.  1.
        2   -1    0    0  501    0  0.00000000000E+00  0.00000000000E+00 -0.20178522721E+04  0.20178522721E+04  0.25500000920E-02 0. -1.
    10030    2    1    2    0    0  0.00000000000E+00  0.00000000000E+00 -0.65977573667E+03  0.33759288075E+04  0.33108293962E+04 0.  0.
        5    1    3    3  502    0  0.12046723091E+04 -0.14332337380E+03 -0.14783551312E+04  0.19124154741E+04  0.46999998093E+01 0. -1.
       -5    1    3    3    0  502 -0.12046723091E+04  0.14332337380E+03  0.81857939452E+03  0.14635133334E+04  0.46999998093E+01 0.  1.
</event>
<event>
 5   0  0.5988516E-07  0.3326618E+04  0.7818609E-02  0.8156155E-01
        1   -1    0    0  501    0  0.00000000000E+00  0.00000000000E+00  0.21260338669E+04  0.21260338669E+04  0.50400001928E-02 0. -1.
       -1   -1    0    0    0  501  0.00000000000E+00  0.00000000000E+00 -0.13012950840E+04  0.13012950840E+04  0.50400001928E-02 0.  1.
    10030    2    1    2    0    0  0.00000000000E+00  0.00000000000E+00  0.82473878292E+03  0.34273289510E+04  0.33266183547E+04 0.  0.
        4    1    3    3  502    0  0.19660521935E+03 -0.27102564350E+03 -0.12662148266E+04  0.13097366574E+04  0.12699999809E+01 0.  1.
       -4    1    3    3    0  502 -0.19660521935E+03  0.27102564350E+03  0.20909536095E+04  0.21175922936E+04  0.12699999809E+01 0. -1.
</event>
<event>
 5   0  0.5858859E-07  0.3161475E+04  0.7818609E-02  0.8199066E-01
       -1   -1    0    0    0  501  0.00000000000E+00  0.00000000000E+00  0.30573010647E+04  0.30573010647E+04  0.50400001928E-02 0.  1.
        1   -1    0    0  501    0  0.00000000000E+00  0.00000000000E+00 -0.81729946662E+03  0.81729946664E+03  0.50400001928E-02 0. -1.
    10030    2    1    2    0    0  0.00000000000E+00  0.00000000000E+00  0.22400015981E+04  0.38746005313E+04  0.31614746746E+04 0.  0.
        3    1    3    3  502    0  0.14925510304E+04 -0.55066701409E+02  0.48555256009E+03  0.15705101779E+04  0.10100000352E+00 0.  1.
       -3    1    3    3    0  502 -0.14925510304E+04  0.55066701409E+02  0.17544490380E+04  0.23040903535E+04  0.10100000352E+00 0. -1.
</event>
<event>
 5   0  0.1728937E-06  0.3248784E+04  0.7818609E-02  0.8176051E-01
        2   -1    0    0  501    0  0.00000000000E+00  0.00000000000E+00  0.23935584848E+04  0.23935584848E+04  0.25500000920E-02 0.  1.
       -2   -1    0    0    0  501  0.00000000000E+00  0.00000000000E+00 -0.11023961494E+04  0.11023961494E+04  0.25500000920E-02 0. -1.
    10030    2    1    2    0    0  0.00000000000E+00  0.00000000000E+00  0.12911623354E+04  0.34959546342E+04  0.32487841769E+04 0.  0.
        1    1    3    3  502    0  0.40824872839E+03 -0.11782183707E+04  0.17658346831E+04  0.21617209999E+04  0.50400001928E-02 0.  1.
       -1    1    3    3    0  502 -0.40824872839E+03  0.11782183707E+04 -0.47467234770E+03  0.13342336344E+04  0.50400001928E-02 0. -1.
</event>
<event>
 5   0  0.1696681E-06  0.3287352E+04  0.7818609E-02  0.8166121E-01
        2   -1    0    0  501    0  0.00000000000E+00  0.00000000000E+00  0.20542465823E+04  0.20542465823E+04  0.25500000920E-02 0.  1.
       -2   -1    0    0    0  501  0.00000000000E+00  0.00000000000E+00 -0.13151641641E+04  0.13151641641E+04  0.25500000920E-02 0. -1.
    10030    2    1    2    0    0  0.00000000000E+00  0.00000000000E+00  0.73908241821E+03  0.33694107465E+04  0.32873524237E+04 0.  0.
        4    1    3    3  502    0  0.17220922893E+03  0.14297331126E+04  0.11817075891E+04  0.18628545920E+04  0.12699999809E+01 0.  1.
       -4    1    3    3    0  502 -0.17220922893E+03 -0.14297331126E+04 -0.44262517086E+03  0.15065561545E+04  0.12699999809E+01 0. -1.
</event>
<event>
 5   0  0.1832626E-06  0.3274845E+04  0.7818609E-02  0.8169326E-01
        2   -1    0    0  501    0  0.00000000000E+00  0.00000000000E+00  0.12485242098E+04  0.12485242098E+04  0.25500000920E-02 0.  1.
       -2   -1    0    0    0  501  0.00000000000E+00  0.00000000000E+00 -0.21474572766E+04  0.21474572766E+04  0.25500000920E-02 0. -1.
    10030    2    1    2    0    0  0.00000000000E+00  0.00000000000E+00 -0.89893306684E+03  0.33959814864E+04  0.32748449730E+04 0.  0.
        3    1    3    3  502    0  0.10916696311E+04 -0.70382128801E+03 -0.14833644926E+04  0.19716686378E+04  0.10100000352E+00 0.  1.
       -3    1    3    3    0  502 -0.10916696311E+04  0.70382128801E+03  0.58443142580E+03  0.14243128486E+04  0.10100000352E+00 0. -1.
</event>
<event>
 5   0  0.5988516E-07  0.3304614E+04  0.7818609E-02  0.8161722E-01
       -1   -1    0    0    0  501  0.00000000000E+00  0.00000000000E+00  0.10368116836E+04  0.10368116836E+04  0.50400001928E-02 0.  1.
        1   -1    0    0  501    0  0.00000000000E+00  0.00000000000E+00 -0.26331868846E+04  0.26331868846E+04  0.50400001928E-02 0. -1.
    10030    2    1    2    0    0  0.00000000000E+00  0.00000000000E+00 -0.15963752010E+04  0.36699985682E+04  0.33046143055E+04 0.  0.
        4    1    3    3  502    0 -0.31399461525E+03 -0.12336744231E+04 -0.19680179461E+04  0.23438518404E+04  0.12699999809E+01 0. -1.
       -4    1    3    3    0  502  0.31399461525E+03  0.12336744231E+04  0.37164274508E+03  0.13261467278E+04  0.12699999809E+01 0.  1.
</event>
<event>
 5   0  0.5985183E-07  0.3311529E+04  0.7818609E-02  0.8159968E-01
        1   -1    0    0  501    0  0.00000000000E+00  0.00000000000E+00  0.85538196621E+03  0.85538196623E+03  0.50400001928E-02 0.  1.
       -1   -1    0    0    0  501  0.00000000000E+00  0.00000000000E+00 -0.32050671099E+04  0.32050671099E+04  0.50400001928E-02 0. -1.
    10030    2    1    2    0    0  0.00000000000E+00  0.00000000000E+00 -0.23496851436E+04  0.40604490761E+04  0.33115293182E+04 0.  0.
        2    1    3    3  502    0 -0.12630041111E+03  0.15006548444E+04 -0.20187009790E+04  0.25185452941E+04  0.25500000920E-02 0. -1.
       -2    1    3    3    0  502  0.12630041111E+03 -0.15006548444E+04 -0.33098416465E+03  0.15419037820E+04  0.25500000920E-02 0.  1.
</event>
<event>
 5   0  0.1743810E-06  0.3026225E+04  0.7818609E-02  0.8236281E-01
       -2   -1    0    0    0  501  0.00000000000E+00  0.00000000000E+00  0.16344403893E+04  0.16344403893E+04  0.25500000920E-02 0. -1.
        2   -1    0    0  501    0  0.00000000000E+00  0.00000000000E+00 -0.14007914470E+04  0.14007914470E+04  0.25500000920E-02 0.  1.
    10030    2    1    2    0    0  0.00000000000E+00  0.00000000000E+00  0.23364894234E+03  0.30352318363E+04  0.30262254496E+04 0.  0.
        5    1    3    3  502    0  0.98994385824E+03  0.46770779562E+03  0.11643217958E+04  0.15982511563E+04  0.46999998093E+01 0. -1.
       -5    1    3    3    0  502 -0.98994385824E+03 -0.46770779562E+03 -0.93067285341E+03  0.14369806800E+04  0.46999998093E+01 0.  1.
</event>
<event>
 5   0  0.6085351E-07  0.3287297E+04  0.7818609E-02  0.8166135E-01
       -1   -1    0    0    0  501  0.00000000000E+00  0.00000000000E+00  0.18749887165E+04  0.18749887165E+04  0.50400001928E-02 0. -1.
        1   -1    0    0  501    0  0.00000000000E+00  0.00000000000E+00 -0.14408516667E+04  0.14408516667E+04  0.50400001928E-02 0.  1.
    10030    2    1    2    0    0  0.00000000000E+00  0.00000000000E+00  0.43413704983E+03  0.33158403832E+04  0.32872971373E+04 0.  0.
        1    1    3    3  502    0  0.77723723701E+03  0.10347927808E+04 -0.80498500646E+03  0.15241045511E+04  0.50400001928E-02 0.  1.
       -1    1    3    3    0  502 -0.77723723701E+03 -0.10347927808E+04  0.12391220563E+04  0.17917358322E+04  0.50400001928E-02 0. -1.
</event>
<event>
 5   0  0.1832626E-06  0.3289765E+04  0.7818609E-02  0.8165505E-01
        2   -1    0    0  501    0  0.00000000000E+00  0.00000000000E+00  0.12999336087E+04  0.12999336087E+04  0.25500000920E-02 0. -1.
       -2   -1    0    0    0  501  0.00000000000E+00  0.00000000000E+00 -0.20813668935E+04  0.20813668935E+04  0.25500000920E-02 0.  1.
    10030    2    1    2    0    0  0.00000000000E+00  0.00000000000E+00 -0.78143328475E+03  0.33813005022E+04  0.32897652056E+04 0.  0.
        3    1    3    3  502    0 -0.89511182205E+03  0.82338167013E+03  0.74755231172E+03  0.14275913343E+04  0.10100000352E+00 0. -1.
       -3    1    3    3    0  502  0.89511182205E+03 -0.82338167013E+03 -0.15289855965E+04  0.19537091680E+04  0.10100000352E+00 0.  1.
</event>
<event>
 5   0  0.5985183E-07  0.2816202E+04  0.7818609E-02  0.8298256E-01
       -1   -1    0    0    0  501  0.00000000000E+00  0.00000000000E+00  0.16538570927E+04  0.16538570927E+04  0.50400001928E-02 0. -1.
        1   -1    0    0  501    0  0.00000000000E+00  0.00000000000E+00 -0.11988634851E+04  0.11988634851E+04  0.50400001928E-02 0.  1.
    10030    2    1    2    0    0  0.00000000000E+00  0.00000000000E+00  0.45499360759E+03  0.28527205778E+04  0.28162023209E+04 0.  0.
        2    1    3    3  502    0 -0.23361668853E+03 -0.13105932074E+04 -0.23727476414E+03  0.13522317205E+04  0.25500000920E-02 0.  1.
       -2    1    3    3    0  502  0.23361668853E+03  0.13105932074E+04  0.69226837173E+03  0.15004888573E+04  0.25500000920E-02 0. -1.
</event>
<event>
 5   0  0.5988516E-07  0.3312382E+04  0.7818609E-02  0.8159752E-01
       -1   -1    0    0    0  501  0.00000000000E+00  0.00000000000E+00  0.15794415102E+04  0.15794415102E+04  0.50400001928E-02 0.  1.
        1   -1    0    0  501    0  0.00000000000E+00  0.00000000000E+00 -0.17366699640E+04  0.17366699640E+04  0.50400001928E-02 0. -1.
    10030    2    1    2    0    0  0.00000000000E+00  0.00000000000E+00 -0.15722845385E+03  0.33161114742E+04  0.33123820013E+04 0.  0.
        4    1    3    3  502    0 -0.27369932675E+03  0.21633633386E+03 -0.16994659315E+04  0.17349059906E+04  0.12699999809E+01 0. -1.
       -4    1    3    3    0  502  0.27369932675E+03 -0.21633633386E+03  0.15422374777E+04  0.15812054836E+04  0.12699999809E+01 0.  1.
</event>
<event>
 5   0  0.5685000E-07  0.3272981E+04  0.7818609E-02  0.8169805E-01
       -3   -1    0    0    0  501  0.00000000000E+00  0.00000000000E+00  0.14784895843E+04  0.14784895878E+04  0.10100000352E+00 0.  1.
        3   -1    0    0  501    0  0.00000000000E+00  0.00000000000E+00 -0.18113765168E+04  0.18113765196E+04  0.10100000352E+00 0. -1.
    10030    2    1    2    0    0  0.00000000000E+00  0.00000000000E+00 -0.33288693241E+03  0.32898661074E+04  0.32729811021E+04 0.  0.
        1    1    3    3  502    0  0.64174384910E+03  0.15041899499E+04 -0.10547786153E+03  0.16387642151E+04  0.50400001928E-02 0. -1.
       -1    1    3    3    0  502 -0.64174384910E+03 -0.15041899499E+04 -0.22740907088E+03  0.16511018923E+04  0.50400001928E-02 0.  1.
</event>
<event>
 5   0  0.1696681E-06  0.3306550E+04  0.7818609E-02  0.8161231E-01
        2   -1    0    0  501    0  0.00000000000E+00  0.00000000000E+00  0.23740911804E+04  0.23740911804E+04  0.25500000920E-02 0. -1.
       -2   -1    0    0    0  501  0.00000000000E+00  0.00000000000E+00 -0.11513113248E+04  0.11513113248E+04  0.25500000920E-02 0.  1.
    10030    2    1    2    0    0  0.00000000000E+00  0.00000000000E+00  0.12227798556E+04  0.35254025053E+04  0.33065499012E+04 0.  0.
        4    1    3    3  502    0  0.19368331733E+03  0.88529582079E+03 -0.86290294010E+03  0.12513452820E+04  0.12699999809E+01 0.  1.
       -4    1    3    3    0  502 -0.19368331733E+03 -0.88529582079E+03  0.20856827957E+04  0.22740572233E+04  0.12699999809E+01 0. -1.
</event>
<event>
 5   0  0.6023446E-07  0.3302125E+04  0.7818609E-02  0.8162355E-01
       -1   -1    0    0    0  501  0.00000000000E+00  0.00000000000E+00  0.17803523347E+04  0.17803523347E+04  0.50400001928E-02 0. -1.
        1   -1    0    0  501    0  0.00000000000E+00  0.00000000000E+00 -0.15311616899E+04  0.15311616899E+04  0.50400001928E-02 0.  1.
    10030    2    1    2    0    0  0.00000000000E+00  0.00000000000E+00  0.24919064481E+03  0.33115140247E+04  0.33021249459E+04 0.  0.
        5    1    3    3  502    0  0.11730627193E+04  0.91434687339E+03  0.84348702140E+03  0.17098534421E+04  0.46999998093E+01 0. -1.
       -5    1    3    3    0  502 -0.11730627193E+04 -0.91434687339E+03 -0.59429637660E+03  0.16016605825E+04  0.46999998093E+01 0.  1.
</event>
<event>
 5   0  0.1784626E-06  0.3275628E+04  0.7818609E-02  0.8169125E-01
       -2   -1    0    0    0  501  0.00000000000E+00  0.00000000000E+00  0.11759037498E+04  0.11759037498E+04  0.25500000920E-02 0. -1.
        2   -1    0    0  501    0  0.00000000000E+00  0.00000000000E+00 -0.22811684278E+04  0.22811684278E+04  0.25500000920E-02 0.  1.
    10030    2    1    2    0    0  0.00000000000E+00  0.00000000000E+00 -0.11052646780E+04  0.34570721776E+04  0.32756278838E+04 0.  0.
        2    1    3    3  502    0 -0.12619037886E+03 -0.11079967859E+04  0.71333410489E+03  0.13237924439E+04  0.25500000920E-02 0. -1.
       -2    1    3    3    0  502  0.12619037886E+03  0.11079967859E+04 -0.18185987829E+04  0.21332797338E+04  0.25500000920E-02 0.  1.
</event>
<event>
 5   0  0.5988516E-07  0.3371361E+04  0.7818609E-02  0.8144971E-01
       -1   -1    0    0    0  501  0.00000000000E+00  0.00000000000E+00  0.12626692272E+04  0.12626692272E+04  0.50400001928E-02 0.  1.
        1   -1    0    0  501    0  0.00000000000E+00  0.00000000000E+00 -0.22504064556E+04  0.22504064556E+04  0.50400001928E-02 0. -1.
    10030    2    1    2    0    0  0.00000000000E+00  0.00000000000E+00 -0.98773722840E+03  0.35130756829E+04  0.33713611378E+04 0.  0.
        4    1    3    3  502    0  0.13133107696E+03  0.77473592056E+03 -0.20478824136E+04  0.21934647459E+04  0.12699999809E+01 0. -1.
       -4    1    3    3    0  502 -0.13133107696E+03 -0.77473592056E+03  0.10601451852E+04  0.13196109370E+04  0.12699999809E+01 0.  1.
</event>
<event>
 5   0  0.6085351E-07  0.3316567E+04  0.7818609E-02  0.8158693E-01
        1   -1    0    0  501    0  0.00000000000E+00  0.00000000000E+00  0.26496270108E+04  0.26496270108E+04  0.50400001928E-02 0.  1.
       -1   -1    0    0    0  501  0.00000000000E+00  0.00000000000E+00 -0.10378457695E+04  0.10378457695E+04  0.50400001928E-02 0. -1.
    10030    2    1    2    0    0  0.00000000000E+00  0.00000000000E+00  0.16117812412E+04  0.36874727803E+04  0.33165670106E+04 0.  0.
        1    1    3    3  502    0 -0.19848269488E+03 -0.85220576394E+03  0.23720598753E+04  0.25283034028E+04  0.50400001928E-02 0.  1.
       -1    1    3    3    0  502  0.19848269488E+03  0.85220576394E+03 -0.76027863412E+03  0.11591693775E+04  0.50400001928E-02 0. -1.
</event>
<event>
 5   0  0.1784626E-06  0.3319555E+04  0.7818609E-02  0.8157937E-01
        2   -1    0    0  501    0  0.00000000000E+00  0.00000000000E+00  0.14587195008E+04  0.14587195008E+04  0.25500000920E-02 0.  1.
       -2   -1    0    0    0  501  0.00000000000E+00  0.00000000000E+00 -0.18885481633E+04  0.18885481633E+04  0.25500000920E-02 0. -1.
    10030    2    1    2    0    0  0.00000000000E+00  0.00000000000E+00 -0.42982866243E+03  0.33472676641E+04  0.33195554124E+04 0.  0.
        2    1    3    3  502    0  0.84406100240E+03  0.29931042658E+03  0.11941909484E+04  0.14926880881E+04  0.25500000920E-02 0.  1.
       -2    1    3    3    0  502 -0.84406100240E+03 -0.29931042658E+03 -0.16240196108E+04  0.18545795760E+04  0.25500000920E-02 0. -1.
</event>
<event>
 5   0  0.1696681E-06  0.3307298E+04  0.7818609E-02  0.8161041E-01
       -2   -1    0    0    0  501  0.00000000000E+00  0.00000000000E+00  0.15228114553E+04  0.15228114553E+04  0.25500000920E-02 0.  1.
        2   -1    0    0  501    0  0.00000000000E+00  0.00000000000E+00 -0.17957282113E+04  0.17957282113E+04  0.25500000920E-02 0. -1.
    10030    2    1    2    0    0  0.00000000000E+00  0.00000000000E+00 -0.27291675604E+03  0.33185396666E+04  0.33072982876E+04 0.  0.
        4    1    3    3  502    0  0.14089429653E+04  0.35581126565E+02  0.73144842037E+03  0.15878931641E+04  0.12699999809E+01 0. -1.
       -4    1    3    3    0  502 -0.14089429653E+04 -0.35581126565E+02 -0.10043651764E+04  0.17306465025E+04  0.12699999809E+01 0.  1.
</event>
<event>
 5   0  0.5985183E-07  0.3069144E+04  0.7818609E-02  0.8224257E-01
        1   -1    0    0  501    0  0.00000000000E+00  0.00000000000E+00  0.20551439932E+04  0.20551439932E+04  0.50400001928E-02 0.  1.
       -1   -1    0    0    0  501  0.00000000000E+00  0.00000000000E+00 -0.11458617730E+04  0.11458617731E+04  0.50400001928E-02 0. -1.
    10030    2    1    2    0    0  0.00000000000E+00  0.00000000000E+00  0.90928222010E+03  0.32010057662E+04  0.30691438154E+04 0.  0.
        2    1    3    3  502    0  0.65102279929E+03 -0.12628688726E+04  0.10594184323E+04  0.17722967836E+04  0.25500000920E-02 0.  1.
       -2    1    3    3    0  502 -0.65102279929E+03  0.12628688726E+04 -0.15013621215E+03  0.14287089826E+04  0.25500000920E-02 0. -1.
</event>
<event>
 5   0  0.6085351E-07  0.3275189E+04  0.7818609E-02  0.8169237E-01
       -1   -1    0    0    0  501  0.00000000000E+00  0.00000000000E+00  0.25967163896E+04  0.25967163896E+04  0.50400001928E-02 0. -1.
        1   -1    0    0  501    0  0.00000000000E+00  0.00000000000E+00 -0.10327336338E+04  0.10327336338E+04  0.50400001928E-02 0.  1.
    10030    2    1    2    0    0  0.00000000000E+00  0.00000000000E+00  0.15639827558E+04  0.36294500233E+04  0.32751893703E+04 0.  0.
        1    1    3    3  502    0 -0.13645973663E+04  0.12776769917E+03 -0.21120251882E+03  0.13867433291E+04  0.50400001928E-02 0.  1.
       -1    1    3    3    0  502  0.13645973663E+04 -0.12776769917E+03  0.17751852746E+04  0.22427066942E+04  0.50400001928E-02 0. -1.
</event>
<event>
 5   0  0.6085351E-07  0.3304334E+04  0.7818609E-02  0.8161793E-01
        1   -1    0    0  501    0  0.00000000000E+00  0.00000000000E+00  0.16926955674E+04  0.16926955674E+04  0.50400001928E-02 0.  1.
       -1   -1    0    0    0  501  0.00000000000E+00  0.00000000000E+00 -0.16126089152E+04  0.16126089152E+04  0.50400001928E-02 0. -1.
    10030    2    1    2    0    0  0.00000000000E+00  0.00000000000E+00  0.80086652196E+02  0.33053044825E+04  0.33043341009E+04 0.  0.
        1    1    3    3  502    0  0.67914777337E+03 -0.33858760688E+03 -0.14279614003E+04  0.16170828756E+04  0.50400001928E-02 0. -1.
       -1    1    3    3    0  502 -0.67914777337E+03  0.33858760688E+03  0.15080480525E+04  0.16882216070E+04  0.50400001928E-02 0.  1.
</event>
<event>
 5   0  0.1696681E-06  0.3301587E+04  0.7818609E-02  0.8162492E-01
        2   -1    0    0  501    0  0.00000000000E+00  0.00000000000E+00  0.20024647525E+04  0.20024647525E+04  0.25500000920E-02 0. -1.
       -2   -1    0    0    0  501  0.00000000000E+00  0.00000000000E+00 -0.13608825433E+04  0.13608825433E+04  0.25500000920E-02 0.  1.
    10030    2    1    2    0    0  0.00000000000E+00  0.00000000000E+00  0.64158220920E+03  0.33633472958E+04  0.33015870882E+04 0.  0.
        4    1    3    3  502    0  0.14057240157E+04 -0.62391559304E+02  0.12001682621E+04  0.18494210405E+04  0.12699999809E+01 0. -1.
       -4    1    3    3    0  502 -0.14057240157E+04  0.62391559304E+02 -0.55858605291E+03  0.15139262552E+04  0.12699999809E+01 0.  1.
</event>
<event>
 5   0  0.5858859E-07  0.3291466E+04  0.7818609E-02  0.8165070E-01
       -1   -1    0    0    0  501  0.00000000000E+00  0.00000000000E+00  0.17872764543E+04  0.17872764543E+04  0.50400001928E-02 0.  1.
        1   -1    0    0  501    0  0.00000000000E+00  0.00000000000E+00 -0.15153987183E+04  0.15153987183E+04  0.50400001928E-02 0. -1.
    10030    2    1    2    0    0  0.00000000000E+00  0.00000000000E+00  0.27187773603E+03  0.33026751726E+04  0.32914655995E+04 0.  0.
        3    1    3    3  502    0  0.13024834977E+04  0.68998156819E+03  0.87048293833E+03  0.17118055913E+04  0.10100000352E+00 0.  1.
       -3    1    3    3    0  502 -0.13024834977E+04 -0.68998156819E+03 -0.59860520230E+03  0.15908695813E+04  0.10100000352E+00 0. -1.
</event>
<event>
 5   0  0.6085351E-07  0.3276196E+04  0.7818609E-02  0.8168979E-01
       -1   -1    0    0    0  501  0.00000000000E+00  0.00000000000E+00  0.98155985876E+03  0.98155985877E+03  0.50400001928E-02 0.  1.
        1   -1    0    0  501    0  0.00000000000E+00  0.00000000000E+00 -0.27337770158E+04  0.27337770158E+04  0.50400001928E-02 0. -1.
    10030    2    1    2    0    0  0.00000000000E+00  0.00000000000E+00 -0.17522171571E+04  0.37153368746E+04  0.32761964419E+04 0.  0.
        1    1    3    3  502    0 -0.51951611137E+03 -0.13058274688E+04 -0.18305115863E+04  0.23077814099E+04  0.50400001928E-02 0. -1.
       -1    1    3    3    0  502  0.51951611137E+03  0.13058274688E+04  0.78294429288E+02  0.14075554646E+04  0.50400001928E-02 0.  1.
</event>
<event>
 5   0  0.6085351E-07  0.3307266E+04  0.7818609E-02  0.8161049E-01
       -1   -1    0    0    0  501  0.00000000000E+00  0.00000000000E+00  0.12037274542E+04  0.12037274542E+04  0.50400001928E-02 0.  1.
        1   -1    0    0  501    0  0.00000000000E+00  0.00000000000E+00 -0.22716958950E+04  0.22716958950E+04  0.50400001928E-02 0. -1.
    10030    2    1    2    0    0  0.00000000000E+00  0.00000000000E+00 -0.10679684408E+04  0.34754233492E+04  0.33072663735E+04 0.  0.
        1    1    3    3  502    0  0.66830498967E+02  0.16492008184E+04 -0.42799434675E+03  0.17051418755E+04  0.50400001928E-02 0.  1.
       -1    1    3    3    0  502 -0.66830498967E+02 -0.16492008184E+04 -0.63997409406E+03  0.17702814737E+04  0.50400001928E-02 0. -1.
</event>
<event>
 5   0  0.1696681E-06  0.2961895E+04  0.7818609E-02  0.8254697E-01
       -2   -1    0    0    0  501  0.00000000000E+00  0.00000000000E+00  0.13117473378E+04  0.13117473378E+04  0.25500000920E-02 0. -1.
        2   -1    0    0  501    0  0.00000000000E+00  0.00000000000E+00 -0.16719720006E+04  0.16719720007E+04  0.25500000920E-02 0.  1.
    10030    2    1    2    0    0  0.00000000000E+00  0.00000000000E+00 -0.36022466284E+03  0.29837193385E+04  0.29618945429E+04 0.  0.
        4    1    3    3  502    0  0.40017674809E+03  0.12486155710E+04 -0.87367728281E+03  0.15755938186E+04  0.12699999809E+01 0.  1.
       -4    1    3    3    0  502 -0.40017674809E+03 -0.12486155710E+04  0.51345261998E+03  0.14081255199E+04  0.12699999809E+01 0. -1.
</event>
<event>
 5   0  0.1832626E-06  0.3304198E+04  0.7818609E-02  0.8161828E-01
        2   -1    0    0  501    0  0.00000000000E+00  0.00000000000E+00  0.15410313086E+04  0.15410313086E+04  0.25500000920E-02 0. -1.
       -2   -1    0    0    0  501  0.00000000000E+00  0.00000000000E+00 -0.17711713867E+04  0.17711713867E+04  0.25500000920E-02 0.  1.
    10030    2    1    2    0    0  0.00000000000E+00  0.00000000000E+00 -0.23014007814E+03  0.33122026953E+04  0.33041976695E+04 0.  0.
        3    1    3    3  502    0  0.13557418937E+04 -0.11518995439E+03 -0.10544239328E+04  0.17213699916E+04  0.10100000352E+00 0.  1.
       -3    1    3    3    0  502 -0.13557418937E+04  0.11518995439E+03  0.82428385462E+03  0.15908327037E+04  0.10100000352E+00 0. -1.
</event>
<event>
 5   0  0.1743810E-06  0.2709338E+04  0.7818609E-02  0.8331981E-01
       -2   -1    0    0    0  501  0.00000000000E+00  0.00000000000E+00  0.10124026012E+04  0.10124026012E+04  0.25500000920E-02 0.  1.
        2   -1    0    0  501    0  0.00000000000E+00  0.00000000000E+00 -0.18126468474E+04  0.18126468474E+04  0.25500000920E-02 0. -1.
    10030    2    1    2    0    0  0.00000000000E+00  0.00000000000E+00 -0.80024424621E+03  0.28250494486E+04  0.27093382095E+04 0.  0.
        5    1    3    3  502    0 -0.36554741685E+03 -0.16438855840E+03  0.94915119754E+03  0.10303196581E+04  0.46999998093E+01 0.  1.
       -5    1    3    3    0  502  0.36554741685E+03  0.16438855840E+03 -0.17493954438E+04  0.17947297904E+04  0.46999998093E+01 0. -1.
</event>
<event>
 5   0  0.1832626E-06  0.3303381E+04  0.7818609E-02  0.8162036E-01
       -2   -1    0    0    0  501  0.00000000000E+00  0.00000000000E+00  0.17719550188E+04  0.17719550188E+04  0.25500000920E-02 0. -1.
        2   -1    0    0  501    0  0.00000000000E+00  0.00000000000E+00 -0.15395887899E+04  0.15395887899E+04  0.25500000920E-02 0.  1.
    10030    2    1    2    0    0  0.00000000000E+00  0.00000000000E+00  0.23236622892E+03  0.33115438087E+04  0.33033813483E+04 0.  0.
        3    1    3    3  502    0  0.86939616713E+01 -0.48817790128E+03 -0.14655905021E+04  0.15447811425E+04  0.10100000352E+00 0.  1.
       -3    1    3    3    0  502 -0.86939616713E+01  0.48817790128E+03  0.16979567310E+04  0.17667626662E+04  0.10100000352E+00 0. -1.
</event>
<event>
 5   0  0.6023446E-07  0.3402562E+04  0.7818609E-02  0.8137278E-01
        1   -1    0    0  501    0  0.00000000000E+00  0.00000000000E+00  0.21078537424E+04  0.21078537424E+04  0.50400001928E-02 0. -1.
       -1   -1    0    0    0  501  0.00000000000E+00  0.00000000000E+00 -0.13731301308E+04  0.13731301308E+04  0.50400001928E-02 0.  1.
    10030    2    1    2    0    0  0.00000000000E+00  0.00000000000E+00  0.73472361155E+03  0.34809838732E+04  0.34025622610E+04 0.  0.
        5    1    3    3  502    0 -0.51305336261E+03 -0.86587988019E+03 -0.10358793309E+04  0.14443129156E+04  0.46999998093E+01 0.  1.
       -5    1    3    3    0  502  0.51305336261E+03  0.86587988019E+03  0.17706029425E+04  0.20366709576E+04  0.46999998093E+01 0. -1.
</event>
<event>
 5   0  0.1743810E-06  0.3295517E+04  0.7818609E-02  0.8164037E-01
        2   -1    0    0  501    0  0.00000000000E+00  0.00000000000E+00  0.18785669264E+04  0.18785669264E+04  0.25500000920E-02 0. -1.
       -2   -1    0    0    0  501  0.00000000000E+00  0.00000000000E+00 -0.14453082561E+04  0.14453082561E+04  0.25500000920E-02 0.  1.
    10030    2    1    2    0    0  0.00000000000E+00  0.00000000000E+00  0.43325867024E+03  0.33238751825E+04  0.32955171299E+04 0.  0.
        5    1    3    3  502    0 -0.27916235978E+03 -0.16178982869E+04  0.35768882936E+03  0.16803243373E+04  0.46999998093E+01 0. -1.
       -5    1    3    3    0  502  0.27916235978E+03  0.16178982869E+04  0.75569840877E+02  0.16435508452E+04  0.46999998093E+01 0.  1.
</event>
<event>
 5   0  0.1784626E-06  0.3136279E+04  0.7818609E-02  0.8205851E-01
       -2   -1    0    0    0  501  0.00000000000E+00  0.00000000000E+00  0.10242003002E+04  0.10242003002E+04  0.25500000920E-02 0.  1.
        2   -1    0    0  501    0  0.00000000000E+00  0.00000000000E+00 -0.24009578687E+04  0.24009578687E+04  0.25500000920E-02 0. -1.
    10030    2    1    2    0    0  0.00000000000E+00  0.00000000000E+00 -0.13767575685E+04  0.34251581690E+04  0.31362791776E+04 0.  0.
        2    1    3    3  502    0 -0.30919630882E+03 -0.93687920613E+02 -0.23642168362E+04  0.23861896472E+04  0.25500000920E-02 0. -1.
       -2    1    3    3    0  502  0.30919630882E+03  0.93687920613E+02  0.98745926767E+03  0.10389685217E+04  0.25500000920E-02 0.  1.
</event>
<event>
 5   0  0.1743810E-06  0.3287470E+04  0.7818609E-02  0.8166091E-01
       -2   -1    0    0    0  501  0.00000000000E+00  0.00000000000E+00  0.14584587387E+04  0.14584587387E+04  0.25500000920E-02 0. -1.
        2   -1    0    0  501    0  0.00000000000E+00  0.00000000000E+00 -0.18525482998E+04  0.18525482998E+04  0.25500000920E-02 0.  1.
    10030    2    1    2    0    0  0.00000000000E+00  0.00000000000E+00 -0.39408956107E+03  0.33110070384E+04  0.32874703081E+04 0.  0.
        5    1    3    3  502    0 -0.16280966043E+04  0.74554705115E+02  0.17993117760E+02  0.16299088316E+04  0.46999998093E+01 0. -1.
       -5    1    3    3    0  502  0.16280966043E+04 -0.74554705115E+02 -0.41208267883E+03  0.16810982069E+04  0.46999998093E+01 0.  1.
</event>
<event>
 5   0  0.6085351E-07  0.3308090E+04  0.7818609E-02  0.8160840E-01
        1   -1    0    0  501    0  0.00000000000E+00  0.00000000000E+00  0.18197284636E+04  0.18197284636E+04  0.50400001928E-02 0.  1.
       -1   -1    0    0    0  501  0.00000000000E+00  0.00000000000E+00 -0.15034463687E+04  0.15034463687E+04  0.50400001928E-02 0. -1.
    10030    2    1    2    0    0  0.00000000000E+00  0.00000000000E+00  0.31628209491E+03  0.33231748324E+04  0.33080895700E+04 0.  0.
        1    1    3    3  502    0  0.76111128098E+03  0.11408929656E+04 -0.77070339948E+03  0.15731849449E+04  0.50400001928E-02 0. -1.
       -1    1    3    3    0  502 -0.76111128098E+03 -0.11408929656E+04  0.10869854944E+04  0.17499898874E+04  0.50400001928E-02 0.  1.
</event>
<event>
 5   0  0.1784626E-06  0.3254676E+04  0.7818609E-02  0.8174525E-01
        2   -1    0    0  501    0  0.00000000000E+00  0.00000000000E+00  0.17539773443E+04  0.17539773443E+04  0.25500000920E-02 0.  1.
       -2   -1    0    0    0  501  0.00000000000E+00  0.00000000000E+00 -0.15098422547E+04  0.15098422547E+04  0.25500000920E-02 0. -1.
    10030    2    1    2    0    0  0.00000000000E+00  0.00000000000E+00  0.24413508959E+03  0.32638195991E+04  0.32546760873E+04 0.  0.
        2    1    3    3  502    0 -0.10262317729E+03  0.50090292061E+03 -0.14271978792E+04  0.15160240891E+04  0.25500000920E-02 0. -1.
       -2    1    3    3    0  502  0.10262317729E+03 -0.50090292061E+03  0.16713329687E+04  0.17477955100E+04  0.25500000920E-02 0.  1.
</event>
<event>
 5   0  0.6023446E-07  0.3328531E+04  0.7818609E-02  0.8155673E-01
        1   -1    0    0  501    0  0.00000000000E+00  0.00000000000E+00  0.18387933845E+04  0.18387933845E+04  0.50400001928E-02 0.  1.
       -1   -1    0    0    0  501  0.00000000000E+00  0.00000000000E+00 -0.15063028347E+04  0.15063028348E+04  0.50400001928E-02 0. -1.
    10030    2    1    2    0    0  0.00000000000E+00  0.00000000000E+00  0.33249054970E+03  0.33450962192E+04  0.33285310199E+04 0.  0.
        5    1    3    3  502    0 -0.14331733986E+04  0.21310518142E+03 -0.65658324387E+03  0.15907619102E+04  0.46999998093E+01 0. -1.
       -5    1    3    3    0  502  0.14331733986E+04 -0.21310518142E+03  0.98907379357E+03  0.17543343090E+04  0.46999998093E+01 0.  1.
</event>
<event>
 5   0  0.5858859E-07  0.3325589E+04  0.7818609E-02  0.8156415E-01
        1   -1    0    0  501    0  0.00000000000E+00  0.00000000000E+00  0.12930789198E+04  0.12930789198E+04  0.50400001928E-02 0.  1.
       -1   -1    0    0    0  501  0.00000000000E+00  0.00000000000E+00 -0.21382191455E+04  0.21382191455E+04  0.50400001928E-02 0. -1.
    10030    2    1    2    0    0  0.00000000000E+00  0.00000000000E+00 -0.84514022569E+03  0.34312980653E+04  0.33255893331E+04 0.  0.
        3    1    3    3  502    0  0.24888079716E+03  0.13192505613E+04 -0.14348375093E+04  0.19649738886E+04  0.10100000352E+00 0. -1.
       -3    1    3    3    0  502 -0.24888079716E+03 -0.13192505613E+04  0.58969728360E+03  0.14663241767E+04  0.10100000352E+00 0.  1.
</event>
<event>
 5   0  0.1696681E-06  0.3139015E+04  0.7818609E-02  0.8205111E-01
        2   -1    0    0  501    0  0.00000000000E+00  0.00000000000E+00  0.17244169470E+04  0.17244169470E+04  0.25500000920E-02 0.  1.
       -2   -1    0    0    0  501  0.00000000000E+00  0.00000000000E+00 -0.14285139456E+04  0.14285139456E+04  0.25500000920E-02 0. -1.
    10030    2    1    2    0    0  0.00000000000E+00  0.00000000000E+00  0.29590300147E+03  0.31529308926E+04  0.31390149135E+04 0.  0.
        4    1    3    3  502    0  0.43626387245E+03  0.35681108829E+03 -0.13233672167E+04  0.14383819807E+04  0.12699999809E+01 0. -1.
       -4    1    3    3    0  502 -0.43626387245E+03 -0.35681108829E+03  0.16192702182E+04  0.17145489119E+04  0.12699999809E+01 0.  1.
</event>
<event>
 5   0  0.6023446E-07  0.3325638E+04  0.7818609E-02  0.8156402E-01
        1   -1    0    0  501    0  0.00000000000E+00  0.00000000000E+00  0.21321373866E+04  0.21321373866E+04  0.50400001928E-02 0.  1.
       -1   -1    0    0    0  501  0.00000000000E+00  0.00000000000E+00 -0.12968054350E+04  0.12968054350E+04  0.50400001928E-02 0. -1.
    10030    2    1    2    0    0  0.00000000000E+00  0.00000000000E+00  0.83533195162E+03  0.34289428217E+04  0.33256381951E+04 0.  0.
        5    1    3    3  502    0 -0.67063498525E+03  0.89671205698E+03 -0.84978758854E+03  0.14057043901E+04  0.46999998093E+01 0. -1.
       -5    1    3    3    0  502  0.67063498525E+03 -0.89671205698E+03  0.16851195402E+04  0.20232384316E+04  0.46999998093E+01 0.  1.
</event>
<event>
 5   0  0.6085351E-07  0.3299165E+04  0.7818609E-02  0.8163108E-01
        1   -1    0    0  501    0  0.00000000000E+00  0.00000000000E+00  0.18050033284E+04  0.18050033284E+04  0.50400001928E-02 0. -1.
       -1   -1    0    0    0  501  0.00000000000E+00  0.00000000000E+00 -0.15075446134E+04  0.15075446134E+04  0.50400001928E-02 0.  1.
    10030    2    1    2    0    0  0.00000000000E+00  0.00000000000E+00  0.29745871504E+03  0.33125479418E+04  0.32991653762E+04 0.  0.
        1    1    3    3  502    0 -0.94195993239E+03 -0.99979839388E+03 -0.76834171224E+03  0.15739232286E+04  0.50400001928E-02 0.  1.
       -1    1    3    3    0  502  0.94195993239E+03  0.99979839388E+03  0.10658004273E+04  0.17386247132E+04  0.50400001928E-02 0. -1.
</event>
<event>
 5   0  0.6023446E-07  0.3282507E+04  0.7818609E-02  0.8167361E-01
        1   -1    0    0  501    0  0.00000000000E+00  0.00000000000E+00  0.23228875140E+04  0.23228875140E+04  0.50400001928E-02 0. -1.
       -1   -1    0    0    0  501  0.00000000000E+00  0.00000000000E+00 -0.11596397510E+04  0.11596397510E+04  0.50400001928E-02 0.  1.
    10030    2    1    2    0    0  0.00000000000E+00  0.00000000000E+00  0.11632477631E+04  0.34825272650E+04  0.32825067850E+04 0.  0.
        5    1    3    3  502    0 -0.11021361502E+04 -0.12002250732E+04  0.37359860767E+03  0.16717781939E+04  0.46999998093E+01 0. -1.
       -5    1    3    3    0  502  0.11021361502E+04  0.12002250732E+04  0.78964915539E+03  0.18107490711E+04  0.46999998093E+01 0.  1.
</event>
<event>
 5   0  0.1743810E-06  0.3358106E+04  0.7818609E-02  0.8148266E-01
       -2   -1    0    0    0  501  0.00000000000E+00  0.00000000000E+00  0.13162917187E+04  0.13162917187E+04  0.25500000920E-02 0. -1.
        2   -1    0    0  501    0  0.00000000000E+00  0.00000000000E+00 -0.21417893538E+04  0.21417893538E+04  0.25500000920E-02 0.  1.
    10030    2    1    2    0    0  0.00000000000E+00  0.00000000000E+00 -0.82549763514E+03  0.34580810726E+04  0.33581063650E+04 0.  0.
        5    1    3    3  502    0  0.14092843856E+04 -0.78420382585E+03 -0.89370748976E+03  0.18438528377E+04  0.46999998093E+01 0.  1.
       -5    1    3    3    0  502 -0.14092843856E+04  0.78420382585E+03  0.68209854624E+02  0.16142282348E+04  0.46999998093E+01 0. -1.
</event>
<event>
 5   0  0.5988516E-07  0.3409064E+04  0.7818609E-02  0.8135685E-01
        1   -1    0    0  501    0  0.00000000000E+00  0.00000000000E+00  0.11222617787E+04  0.11222617787E+04  0.50400001928E-02 0.  1.
       -1   -1    0    0    0  501  0.00000000000E+00  0.00000000000E+00 -0.25889058507E+04  0.25889058507E+04  0.50400001928E-02 0. -1.
    10030    2    1    2    0    0  0.00000000000E+00  0.00000000000E+00 -0.14666440720E+04  0.37111676294E+04  0.34090644376E+04 0.  0.
        4    1    3    3  502    0 -0.71985142639E+03  0.12339563649E+04  0.27891329372E+03  0.14555509695E+04  0.12699999809E+01 0.  1.
       -4    1    3    3    0  502  0.71985142639E+03 -0.12339563649E+04 -0.17455573657E+04  0.22556166599E+04  0.12699999809E+01 0. -1.
</event>
<event>
 5   0  0.5685000E-07  0.3286490E+04  0.7818609E-02  0.8166341E-01
        3   -1    0    0  501    0  0.00000000000E+00  0.00000000000E+00  0.15296940099E+04  0.15296940132E+04  0.10100000352E+00 0. -1.
       -3   -1    0    0    0  501  0.00000000000E+00  0.00000000000E+00 -0.17652254162E+04  0.17652254191E+04  0.10100000352E+00 0.  1.
    10030    2    1    2    0    0  0.00000000000E+00  0.00000000000E+00 -0.23553140631E+03  0.32949194323E+04  0.32864903806E+04 0.  0.
        4    1    3    3  502    0 -0.15930333760E+04  0.53050413602E+02  0.28286331267E+03  0.16188214694E+04  0.12699999809E+01 0.  1.
       -4    1    3    3    0  502  0.15930333760E+04 -0.53050413602E+02 -0.51839471898E+03  0.16760979628E+04  0.12699999809E+01 0. -1.
</event>
<event>
 5   0  0.1743810E-06  0.3293039E+04  0.7818609E-02  0.8164669E-01
       -2   -1    0    0    0  501  0.00000000000E+00  0.00000000000E+00  0.15602306040E+04  0.15602306040E+04  0.25500000920E-02 0.  1.
        2   -1    0    0  501    0  0.00000000000E+00  0.00000000000E+00 -0.17375807573E+04  0.17375807573E+04  0.25500000920E-02 0. -1.
    10030    2    1    2    0    0  0.00000000000E+00  0.00000000000E+00 -0.17735015338E+03  0.32978113613E+04  0.32930391279E+04 0.  0.
        5    1    3    3  502    0 -0.85616385667E+03  0.73891319818E+03  0.11097191779E+04  0.15844582694E+04  0.46999998093E+01 0.  1.
       -5    1    3    3    0  502  0.85616385667E+03 -0.73891319818E+03 -0.12870693312E+04  0.17133530918E+04  0.46999998093E+01 0. -1.
</event>
<event>
 5   0  0.6023446E-07  0.3297581E+04  0.7818609E-02  0.8163511E-01
        1   -1    0    0  501    0  0.00000000000E+00  0.00000000000E+00  0.17156869416E+04  0.17156869416E+04  0.50400001928E-02 0.  1.
       -1   -1    0    0    0  501  0.00000000000E+00  0.00000000000E+00 -0.15845024468E+04  0.15845024468E+04  0.50400001928E-02 0. -1.
    10030    2    1    2    0    0  0.00000000000E+00  0.00000000000E+00  0.13118449479E+03  0.33001893884E+04  0.32975810267E+04 0.  0.
        5    1    3    3  502    0  0.28622560588E+03 -0.56251141290E+03 -0.14588144451E+04  0.15894986198E+04  0.46999998093E+01 0. -1.
       -5    1    3    3    0  502 -0.28622560588E+03  0.56251141290E+03  0.15899989399E+04  0.17106907686E+04  0.46999998093E+01 0.  1.
</event>
<event>
 5   0  0.1696681E-06  0.3264260E+04  0.7818609E-02  0.8172049E-01
        2   -1    0    0  501    0  0.00000000000E+00  0.00000000000E+00  0.25785349433E+04  0.25785349433E+04  0.25500000920E-02 0. -1.
       -2   -1    0    0    0  501  0.00000000000E+00  0.00000000000E+00 -0.10330858697E+04  0.10330858697E+04  0.25500000920E-02 0.  1.
    10030    2    1    2    0    0  0.00000000000E+00  0.00000000000E+00  0.15454490736E+04  0.36116208130E+04  0.32642598025E+04 0.  0.
        4    1    3    3  502    0  0.10183074194E+04 -0.21749910120E+03  0.21632844086E+04  0.24008450397E+04  0.12699999809E+01 0. -1.
       -4    1    3    3    0  502 -0.10183074194E+04  0.21749910120E+03 -0.61783533493E+03  0.12107757734E+04  0.12699999809E+01 0.  1.
</event>
<event>
 5   0  0.5988516E-07  0.3267984E+04  0.7818609E-02  0.8171090E-01
       -1   -1    0    0    0  501  0.00000000000E+00  0.00000000000E+00  0.12909261175E+04  0.12909261175E+04  0.50400001928E-02 0.  1.
        1   -1    0    0  501    0  0.00000000000E+00  0.00000000000E+00 -0.20682282776E+04  0.20682282776E+04  0.50400001928E-02 0. -1.
    10030    2    1    2    0    0  0.00000000000E+00  0.00000000000E+00 -0.77730216012E+03  0.33591543951E+04  0.32679840272E+04 0.  0.
        4    1    3    3  502    0  0.15774436129E+04 -0.38317339073E+03 -0.58034259657E+03  0.17239342626E+04  0.12699999809E+01 0.  1.
       -4    1    3    3    0  502 -0.15774436129E+04  0.38317339073E+03 -0.19695956355E+03  0.16352201326E+04  0.12699999809E+01 0. -1.
</event>
<event>
 5   0  0.5985183E-07  0.3338816E+04  0.7818609E-02  0.8153088E-01
       -1   -1    0    0    0  501  0.00000000000E+00  0.00000000000E+00  0.12034044665E+04  0.12034044665E+04  0.50400001928E-02 0.  1.
        1   -1    0    0  501    0  0.00000000000E+00  0.00000000000E+00 -0.23158653892E+04  0.23158653892E+04  0.50400001928E-02 0. -1.
    10030    2    1    2    0    0  0.00000000000E+00  0.00000000000E+00 -0.11124609227E+04  0.35192698557E+04  0.33388158100E+04 0.  0.
        2    1    3    3  502    0  0.93731627662E+03  0.93563316208E+03  0.51504234648E+03  0.14209995901E+04  0.25500000920E-02 0.  1.
       -2    1    3    3    0  502 -0.93731627662E+03 -0.93563316208E+03 -0.16275032692E+04  0.20982702656E+04  0.25500000920E-02 0. -1.
</event>
<event>
 5   0  0.5858859E-07  0.3363530E+04  0.7818609E-02  0.8146916E-01
        1   -1    0    0  501    0  0.00000000000E+00  0.00000000000E+00  0.18311629891E+04  0.18311629891E+04  0.50400001928E-02 0.  1.
       -1   -1    0    0    0  501  0.00000000000E+00  0.00000000000E+00 -0.15445556590E+04  0.15445556590E+04  0.50400001928E-02 0. -1.
    10030    2    1    2    0    0  0.00000000000E+00  0.00000000000E+00  0.28660733009E+03  0.33757186480E+04  0.33635297871E+04 0.  0.
        3    1    3    3  502    0  0.21474670286E+03 -0.12225378335E+04 -0.99554108967E+03  0.15911684298E+04  0.10100000352E+00 0. -1.
       -3    1    3    3    0  502 -0.21474670286E+03  0.12225378335E+04  0.12821484198E+04  0.17845502182E+04  0.10100000352E+00 0.  1.
</event>
<event>
 5   0  0.1832626E-06  0.3107053E+04  0.7818609E-02  0.8213805E-01
        2   -1    0    0  501    0  0.00000000000E+00  0.00000000000E+00  0.13466213199E+04  0.13466213199E+04  0.25500000920E-02 0.  1.
       -2   -1    0    0    0  501  0.00000000000E+00  0.00000000000E+00 -0.17922216698E+04  0.17922216698E+04  0.25500000920E-02 0. -1.
    10030    2    1    2    0    0  0.00000000000E+00  0.00000000000E+00 -0.44560034995E+03  0.31388429897E+04  0.31070525650E+04 0.  0.
        3    1    3    3  502    0  0.68287434463E+02 -0.15515663356E+04 -0.18469645232E+03  0.15640121666E+04  0.10100000352E+00 0. -1.
       -3    1    3    3    0  502 -0.68287434463E+02  0.15515663356E+04 -0.26090389763E+03  0.15748308231E+04  0.10100000352E+00 0.  1.
</event>
<event>
 5   0  0.5985183E-07  0.3306878E+04  0.7818609E-02  0.8161147E-01
        1   -1    0    0  501    0  0.00000000000E+00  0.00000000000E+00  0.21507013075E+04  0.21507013075E+04  0.50400001928E-02 0. -1.
       -1   -1    0    0    0  501  0.00000000000E+00  0.00000000000E+00 -0.12711485151E+04  0.12711485151E+04  0.50400001928E-02 0.  1.
    10030    2    1    2    0    0  0.00000000000E+00  0.00000000000E+00  0.87955279247E+03  0.34218498226E+04  0.33068781492E+04 0.  0.
        2    1    3    3  502    0 -0.12652049596E+04  0.79279710562E+03 -0.29526541525E+03  0.15219896537E+04  0.25500000920E-02 0. -1.
       -2    1    3    3    0  502  0.12652049596E+04 -0.79279710562E+03  0.11748182077E+04  0.18998601690E+04  0.25500000920E-02 0.  1.
</event>
<event>
 5   0  0.5985183E-07  0.3217423E+04  0.7818609E-02  0.8184231E-01
       -1   -1    0    0    0  501  0.00000000000E+00  0.00000000000E+00  0.15334801157E+04  0.15334801157E+04  0.50400001928E-02 0.  1.
        1   -1    0    0  501    0  0.00000000000E+00  0.00000000000E+00 -0.16876332594E+04  0.16876332595E+04  0.50400001928E-02 0. -1.
    10030    2    1    2    0    0  0.00000000000E+00  0.00000000000E+00 -0.15415314379E+03  0.32211133751E+04  0.32174225995E+04 0.  0.
        2    1    3    3  502    0 -0.80425856850E+03 -0.30838099908E+03  0.12831656904E+04  0.15454594381E+04  0.25500000920E-02 0.  1.
       -2    1    3    3    0  502  0.80425856850E+03  0.30838099908E+03 -0.14373188342E+04  0.16756539371E+04  0.25500000920E-02 0. -1.
</event>
<event>
 5   0  0.1743810E-06  0.3421618E+04  0.7818609E-02  0.8132621E-01
        2   -1    0    0  501    0  0.00000000000E+00  0.00000000000E+00  0.25635669053E+04  0.25635669053E+04  0.25500000920E-02 0.  1.
       -2   -1    0    0    0  501  0.00000000000E+00  0.00000000000E+00 -0.11417166913E+04  0.11417166914E+04  0.25500000920E-02 0. -1.
    10030    2    1    2    0    0  0.00000000000E+00  0.00000000000E+00  0.14218502140E+04  0.37052835967E+04  0.34216178192E+04 0.  0.
        5    1    3    3  502    0 -0.10682549440E+04  0.72688833787E+03  0.19251834530E+04  0.23185962777E+04  0.46999998093E+01 0.  1.
       -5    1    3    3    0  502  0.10682549440E+04 -0.72688833787E+03 -0.50333323902E+03  0.13866873190E+04  0.46999998093E+01 0. -1.
</event>
<event>
 5   0  0.1696681E-06  0.3074940E+04  0.7818609E-02  0.8222649E-01
        2   -1    0    0  501    0  0.00000000000E+00  0.00000000000E+00  0.16773569921E+04  0.16773569921E+04  0.25500000920E-02 0.  1.
       -2   -1    0    0    0  501  0.00000000000E+00  0.00000000000E+00 -0.14092492395E+04  0.14092492395E+04  0.25500000920E-02 0. -1.
    10030    2    1    2    0    0  0.00000000000E+00  0.00000000000E+00  0.26810775256E+03  0.30866062316E+04  0.30749400420E+04 0.  0.
        4    1    3    3  502    0  0.42028263490E+03 -0.10547968592E+04 -0.90649781486E+03  0.14529190647E+04  0.12699999809E+01 0. -1.
       -4    1    3    3    0  502 -0.42028263490E+03  0.10547968592E+04  0.11746055674E+04  0.16336871669E+04  0.12699999809E+01 0.  1.
</event>
<event>
 5   0  0.5985183E-07  0.3279689E+04  0.7818609E-02  0.8168083E-01
        1   -1    0    0  501    0  0.00000000000E+00  0.00000000000E+00  0.26235647304E+04  0.26235647304E+04  0.50400001928E-02 0.  1.
       -1   -1    0    0    0  501  0.00000000000E+00  0.00000000000E+00 -0.10249757596E+04  0.10249757596E+04  0.50400001928E-02 0. -1.
    10030    2    1    2    0    0  0.00000000000E+00  0.00000000000E+00  0.15985889708E+04  0.36485404900E+04  0.32796891635E+04 0.  0.
        2    1    3    3  502    0 -0.47000962691E+03 -0.12060825164E+04  0.19192692909E+04  0.23149813599E+04  0.25500000920E-02 0.  1.
       -2    1    3    3    0  502  0.47000962691E+03  0.12060825164E+04 -0.32068032004E+03  0.13335591301E+04  0.25500000920E-02 0. -1.
</event>
<event>
 5   0  0.5858859E-07  0.3290154E+04  0.7818609E-02  0.8165405E-01
        1   -1    0    0  501    0  0.00000000000E+00  0.00000000000E+00  0.16519538237E+04  0.16519538237E+04  0.50400001928E-02 0. -1.
       -1   -1    0    0    0  501  0.00000000000E+00  0.00000000000E+00 -0.16382287564E+04  0.16382287564E+04  0.50400001928E-02 0.  1.
    10030    2    1    2    0    0  0.00000000000E+00  0.00000000000E+00  0.13725067217E+02  0.32901825801E+04  0.32901539528E+04 0.  0.
        3    1    3    3  502    0 -0.12861395505E+03 -0.24295641752E+03 -0.16150975945E+04  0.16383252486E+04  0.10100000352E+00 0.  1.
       -3    1    3    3    0  502  0.12861395505E+03  0.24295641752E+03  0.16288226617E+04  0.16518573315E+04  0.10100000352E+00 0. -1.
</event>
<event>
 5   0  0.5858859E-07  0.3363085E+04  0.7818609E-02  0.8147026E-01
       -1   -1    0    0    0  501  0.00000000000E+00  0.00000000000E+00  0.15117251827E+04  0.15117251827E+04  0.50400001928E-02 0. -1.
        1   -1    0    0  501    0  0.00000000000E+00  0.00000000000E+00 -0.18704362776E+04  0.18704362776E+04  0.50400001928E-02 0.  1.
    10030    2    1    2    0    0  0.00000000000E+00  0.00000000000E+00 -0.35871109490E+03  0.33821614603E+04  0.33630852641E+04 0.  0.
        3    1    3    3  502    0 -0.10995053814E+04 -0.79517432777E+03  0.81944018014E+03  0.15851487357E+04  0.10100000352E+00 0. -1.
       -3    1    3    3    0  502  0.10995053814E+04  0.79517432777E+03 -0.11781512750E+04  0.17970127246E+04  0.10100000352E+00 0.  1.
</event>
<event>
 5   0  0.1784626E-06  0.3235988E+04  0.7818609E-02  0.8179377E-01
        2   -1    0    0  501    0  0.00000000000E+00  0.00000000000E+00  0.26956097768E+04  0.26956097768E+04  0.25500000920E-02 0. -1.
       -2   -1    0    0    0  501  0.00000000000E+00  0.00000000000E+00 -0.97117359374E+03  0.97117359375E+03  0.25500000920E-02 0.  1.
    10030    2    1    2    0    0  0.00000000000E+00  0.00000000000E+00  0.17244361831E+04  0.36667833706E+04  0.32359882783E+04 0.  0.
        2    1    3    3  502    0  0.17232467750E+03 -0.67479057531E+03 -0.79263784587E+03  0.10551364223E+04  0.25500000920E-02 0.  1.
       -2    1    3    3    0  502 -0.17232467750E+03  0.67479057531E+03  0.25170740289E+04  0.26116469482E+04  0.25500000920E-02 0. -1.
</event>
<event>
 5   0  0.6085351E-07  0.3322537E+04  0.7818609E-02  0.8157185E-01
       -1   -1    0    0    0  501  0.00000000000E+00  0.00000000000E+00  0.12995444644E+04  0.12995444644E+04  0.50400001928E-02 0. -1.
        1   -1    0    0  501    0  0.00000000000E+00  0.00000000000E+00 -0.21236766910E+04  0.21236766910E+04  0.50400001928E-02 0.  1.
    10030    2    1    2    0    0  0.00000000000E+00  0.00000000000E+00 -0.82413222657E+03  0.34232211555E+04  0.33225365539E+04 0.  0.
        1    1    3    3  502    0 -0.84765423034E+02  0.16533857467E+04 -0.55386928471E+03  0.17457493488E+04  0.50400001928E-02 0. -1.
       -1    1    3    3    0  502  0.84765423034E+02 -0.16533857467E+04 -0.27026294186E+03  0.16774718066E+04  0.50400001928E-02 0.  1.
</event>
<event>
 5   0  0.1743810E-06  0.3365589E+04  0.7818609E-02  0.8146404E-01
       -2   -1    0    0    0  501  0.00000000000E+00  0.00000000000E+00  0.15365530198E+04  0.15365530198E+04  0.25500000920E-02 0. -1.
        2   -1    0    0  501    0  0.00000000000E+00  0.00000000000E+00 -0.18429542407E+04  0.18429542407E+04  0.25500000920E-02 0.  1.
    10030    2    1    2    0    0  0.00000000000E+00  0.00000000000E+00 -0.30640122085E+03  0.33795072605E+04  0.33655887472E+04 0.  0.
        5    1    3    3  502    0  0.45624177792E+03  0.12304888424E+04  0.90449089496E+03  0.15938585948E+04  0.46999998093E+01 0. -1.
       -5    1    3    3    0  502 -0.45624177792E+03 -0.12304888424E+04 -0.12108921158E+04  0.17856486657E+04  0.46999998093E+01 0.  1.
</event>
<event>
 5   0  0.5858859E-07  0.3176232E+04  0.7818609E-02  0.8195123E-01
       -1   -1    0    0    0  501  0.00000000000E+00  0.00000000000E+00  0.12987918866E+04  0.12987918866E+04  0.50400001928E-02 0.  1.
        1   -1    0    0  501    0  0.00000000000E+00  0.00000000000E+00 -0.19418914558E+04  0.19418914558E+04  0.50400001928E-02 0. -1.
    10030    2    1    2    0    0  0.00000000000E+00  0.00000000000E+00 -0.64309956923E+03  0.32406833424E+04  0.31762322758E+04 0.  0.
        3    1    3    3  502    0 -0.11901553721E+04 -0.90898307987E+03 -0.86085168854E+03  0.17273637975E+04  0.10100000352E+00 0. -1.
       -3    1    3    3    0  502  0.11901553721E+04  0.90898307987E+03  0.21775211931E+03  0.15133195449E+04  0.10100000352E+00 0.  1.
</event>
<event>
 5   0  0.1784626E-06  0.3743889E+04  0.7818609E-02  0.8058304E-01
        2   -1    0    0  501    0  0.00000000000E+00  0.00000000000E+00  0.24655741558E+04  0.24655741558E+04  0.25500000920E-02 0.  1.
       -2   -1    0    0    0  501  0.00000000000E+00  0.00000000000E+00 -0.14212418217E+04  0.14212418217E+04  0.25500000920E-02 0. -1.
    10030    2    1    2    0    0  0.00000000000E+00  0.00000000000E+00  0.10443323342E+04  0.38868159775E+04  0.37438894774E+04 0.  0.
        2    1    3    3  502    0  0.10413199119E+04 -0.13446727187E+04  0.13341267658E+04  0.21615702872E+04  0.25500000920E-02 0.  1.
       -2    1    3    3    0  502 -0.10413199119E+04  0.13446727187E+04 -0.28979443163E+03  0.17252456903E+04  0.25500000920E-02 0. -1.
</event>
<event>
 5   0  0.1743810E-06  0.3243076E+04  0.7818609E-02  0.8177533E-01
        2   -1    0    0  501    0  0.00000000000E+00  0.00000000000E+00  0.16863443532E+04  0.16863443532E+04  0.25500000920E-02 0. -1.
       -2   -1    0    0    0  501  0.00000000000E+00  0.00000000000E+00 -0.15592216930E+04  0.15592216930E+04  0.25500000920E-02 0.  1.
    10030    2    1    2    0    0  0.00000000000E+00  0.00000000000E+00  0.12712266014E+03  0.32455660462E+04  0.32430755140E+04 0.  0.
        5    1    3    3  502    0 -0.58089934811E+03  0.13841283837E+04  0.67730806917E+03  0.16468223176E+04  0.46999998093E+01 0. -1.
       -5    1    3    3    0  502  0.58089934811E+03 -0.13841283837E+04 -0.55018540903E+03  0.15987437285E+04  0.46999998093E+01 0.  1.
</event>
<event>
 5   0  0.6085351E-07  0.3408304E+04  0.7818609E-02  0.8135871E-01
        1   -1    0    0  501    0  0.00000000000E+00  0.00000000000E+00  0.15717340380E+04  0.15717340380E+04  0.50400001928E-02 0.  1.
       -1   -1    0    0    0  501  0.00000000000E+00  0.00000000000E+00 -0.18477266104E+04  0.18477266104E+04  0.50400001928E-02 0. -1.
    10030    2    1    2    0    0  0.00000000000E+00  0.00000000000E+00 -0.27599257242E+03  0.34194606483E+04  0.34083044502E+04 0.  0.
        1    1    3    3  502    0  0.12550298710E+04 -0.11493681084E+04 -0.48329357267E+02  0.17024930991E+04  0.50400001928E-02 0. -1.
       -1    1    3    3    0  502 -0.12550298710E+04  0.11493681084E+04 -0.22766321516E+03  0.17169675493E+04  0.50400001928E-02 0.  1.
</event>
<event>
 5   0  0.5988516E-07  0.3294379E+04  0.7818609E-02  0.8164327E-01
       -1   -1    0    0    0  501  0.00000000000E+00  0.00000000000E+00  0.15673314494E+04  0.15673314494E+04  0.50400001928E-02 0.  1.
        1   -1    0    0  501    0  0.00000000000E+00  0.00000000000E+00 -0.17311167253E+04  0.17311167253E+04  0.50400001928E-02 0. -1.
    10030    2    1    2    0    0  0.00000000000E+00  0.00000000000E+00 -0.16378527586E+03  0.32984481747E+04  0.32943792654E+04 0.  0.
        4    1    3    3  502    0 -0.10228705910E+03  0.71360716733E+03 -0.15647803897E+04  0.17228572526E+04  0.12699999809E+01 0. -1.
       -4    1    3    3    0  502  0.10228705910E+03 -0.71360716733E+03  0.14009951139E+04  0.15755909221E+04  0.12699999809E+01 0.  1.
</event>
<event>
 5   0  0.1832626E-06  0.3264100E+04  0.7818609E-02  0.8172091E-01
        2   -1    0    0  501    0  0.00000000000E+00  0.00000000000E+00  0.21035774634E+04  0.21035774634E+04  0.25500000920E-02 0. -1.
       -2   -1    0    0    0  501  0.00000000000E+00  0.00000000000E+00 -0.12662180990E+04  0.12662180990E+04  0.25500000920E-02 0.  1.
    10030    2    1    2    0    0  0.00000000000E+00  0.00000000000E+00  0.83735936448E+03  0.33697955624E+04  0.32641004009E+04 0.  0.
        3    1    3    3  502    0  0.85975696695E+03 -0.35143990234E+02  0.18503695869E+04  0.20406579235E+04  0.10100000352E+00 0. -1.
       -3    1    3    3    0  502 -0.85975696695E+03  0.35143990234E+02 -0.10130102224E+04  0.13291376389E+04  0.10100000352E+00 0.  1.
</event>
<event>
 5   0  0.6023446E-07  0.3318210E+04  0.7818609E-02  0.8158277E-01
       -1   -1    0    0    0  501  0.00000000000E+00  0.00000000000E+00  0.26000527494E+04  0.26000527494E+04  0.50400001928E-02 0.  1.
        1   -1    0    0  501    0  0.00000000000E+00  0.00000000000E+00 -0.10586823145E+04  0.10586823145E+04  0.50400001928E-02 0. -1.
    10030    2    1    2    0    0  0.00000000000E+00  0.00000000000E+00  0.15413704349E+04  0.36587350639E+04  0.33182102781E+04 0.  0.
        5    1    3    3  502    0  0.83149881027E+03 -0.63038505882E+03  0.21929544591E+04  0.24285483202E+04  0.46999998093E+01 0.  1.
       -5    1    3    3    0  502 -0.83149881027E+03  0.63038505882E+03 -0.65158402413E+03  0.12301867437E+04  0.46999998093E+01 0. -1.
</event>
<event>
 5   0  0.1728937E-06  0.3371202E+04  0.7818609E-02  0.8145011E-01
        2   -1    0    0  501    0  0.00000000000E+00  0.00000000000E+00  0.78334140375E+03  0.78334140376E+03  0.25500000920E-02 0.  1.
       -2   -1    0    0    0  501  0.00000000000E+00  0.00000000000E+00 -0.36270919864E+04  0.36270919864E+04  0.25500000920E-02 0. -1.
    10030    2    1    2    0    0  0.00000000000E+00  0.00000000000E+00 -0.28437505827E+04  0.44104333902E+04  0.33712023542E+04 0.  0.
        1    1    3    3  502    0 -0.14272700614E+03 -0.55964746734E+03 -0.34936001380E+04  0.35410193745E+04  0.50400001928E-02 0. -1.
       -1    1    3    3    0  502  0.14272700614E+03  0.55964746734E+03  0.64984955539E+03  0.86941401567E+03  0.50400001928E-02 0.  1.
</event>
<event>
 5   0  0.6085351E-07  0.3091880E+04  0.7818609E-02  0.8217970E-01
        1   -1    0    0  501    0  0.00000000000E+00  0.00000000000E+00  0.18112775409E+04  0.18112775409E+04  0.50400001928E-02 0.  1.
       -1   -1    0    0    0  501  0.00000000000E+00  0.00000000000E+00 -0.13194720626E+04  0.13194720626E+04  0.50400001928E-02 0. -1.
    10030    2    1    2    0    0  0.00000000000E+00  0.00000000000E+00  0.49180547829E+03  0.31307496036E+04  0.30918797602E+04 0.  0.
        1    1    3    3  502    0  0.36755365901E+03  0.57988016323E+03 -0.11566362702E+04  0.13450517304E+04  0.50400001928E-02 0. -1.
       -1    1    3    3    0  502 -0.36755365901E+03 -0.57988016323E+03  0.16484417485E+04  0.17856978731E+04  0.50400001928E-02 0.  1.
</event>
<event>
 5   0  0.1784626E-06  0.3317341E+04  0.7818609E-02  0.8158497E-01
        2   -1    0    0  501    0  0.00000000000E+00  0.00000000000E+00  0.96266571999E+03  0.96266571999E+03  0.25500000920E-02 0. -1.
       -2   -1    0    0    0  501  0.00000000000E+00  0.00000000000E+00 -0.28578840893E+04  0.28578840893E+04  0.25500000920E-02 0.  1.
    10030    2    1    2    0    0  0.00000000000E+00  0.00000000000E+00 -0.18952183693E+04  0.38205498093E+04  0.33173405279E+04 0.  0.
        2    1    3    3  502    0  0.79267047646E+03  0.10305807152E+04 -0.21337744090E+04  0.24986829177E+04  0.25500000920E-02 0.  1.
       -2    1    3    3    0  502 -0.79267047646E+03 -0.10305807152E+04  0.23855603976E+03  0.13218668915E+04  0.25500000920E-02 0. -1.
</event>
<event>
 5   0  0.5858859E-07  0.3304022E+04  0.7818609E-02  0.8161873E-01
       -1   -1    0    0    0  501  0.00000000000E+00  0.00000000000E+00  0.14226056494E+04  0.14226056494E+04  0.50400001928E-02 0. -1.
        1   -1    0    0  501    0  0.00000000000E+00  0.00000000000E+00 -0.19184098842E+04  0.19184098842E+04  0.50400001928E-02 0.  1.
    10030    2    1    2    0    0  0.00000000000E+00  0.00000000000E+00 -0.49580423479E+03  0.33410155337E+04  0.33040222392E+04 0.  0.
        3    1    3    3  502    0  0.88026837725E+03  0.73250236688E+03  0.95610490297E+03  0.14918340153E+04  0.10100000352E+00 0. -1.
       -3    1    3    3    0  502 -0.88026837725E+03 -0.73250236688E+03 -0.14519091378E+04  0.18491815184E+04  0.10100000352E+00 0.  1.
</event>
<event>
 5   0  0.1696681E-06  0.3320133E+04  0.7818609E-02  0.8157791E-01
       -2   -1    0    0    0  501  0.00000000000E+00  0.00000000000E+00  0.18616325317E+04  0.18616325317E+04  0.25500000920E-02 0. -1.
        2   -1    0    0  501    0  0.00000000000E+00  0.00000000000E+00 -0.14803250092E+04  0.14803250092E+04  0.25500000920E-02 0.  1.
    10030    2    1    2    0    0  0.00000000000E+00  0.00000000000E+00  0.38130752251E+03  0.33419575409E+04  0.33201332471E+04 0.  0.
        4    1    3    3  502    0  0.14319654186E+04  0.36761028965E+03  0.95070480126E+03  0.17576983578E+04  0.12699999809E+01 0. -1.
       -4    1    3    3    0  502 -0.14319654186E+04 -0.36761028965E+03 -0.56939727874E+03  0.15842591830E+04  0.12699999809E+01 0.  1.
</event>
<event>
 5   0  0.1728937E-06  0.3266505E+04  0.7818609E-02  0.8171471E-01
       -2   -1    0    0    0  501  0.00000000000E+00  0.00000000000E+00  0.13074722666E+04  0.13074722666E+04  0.25500000920E-02 0. -1.
        2   -1    0    0  501    0  0.00000000000E+00  0.00000000000E+00 -0.20402071543E+04  0.20402071543E+04  0.25500000920E-02 0.  1.
    10030    2    1    2    0    0  0.00000000000E+00  0.00000000000E+00 -0.73273488766E+03  0.33476794209E+04  0.32665053328E+04 0.  0.
        1    1    3    3  502    0  0.46443704752E+03 -0.14853537280E+04 -0.87419795503E+03  0.17849928663E+04  0.50400001928E-02 0.  1.
       -1    1    3    3    0  502 -0.46443704752E+03  0.14853537280E+04  0.14146306736E+03  0.15626865545E+04  0.50400001928E-02 0. -1.
</event>
<event>
 5   0  0.5858859E-07  0.3173556E+04  0.7818609E-02  0.8195836E-01
       -1   -1    0    0    0  501  0.00000000000E+00  0.00000000000E+00  0.18001914101E+04  0.18001914101E+04  0.50400001928E-02 0.  1.
        1   -1    0    0  501    0  0.00000000000E+00  0.00000000000E+00 -0.13986652408E+04  0.13986652409E+04  0.50400001928E-02 0. -1.
    10030    2    1    2    0    0  0.00000000000E+00  0.00000000000E+00  0.40152616925E+03  0.31988566510E+04  0.31735564606E+04 0.  0.
        3    1    3    3  502    0 -0.49148121902E+03  0.10568442370E+04 -0.88457146061E+03  0.14631952054E+04  0.10100000352E+00 0. -1.
       -3    1    3    3    0  502  0.49148121902E+03 -0.10568442370E+04  0.12860976299E+04  0.17356614456E+04  0.10100000352E+00 0.  1.
</event>
<event>
 5   0  0.6023446E-07  0.2736124E+04  0.7818609E-02  0.8323378E-01
       -1   -1    0    0    0  501  0.00000000000E+00  0.00000000000E+00  0.92900899261E+03  0.92900899262E+03  0.50400001928E-02 0. -1.
        1   -1    0    0  501    0  0.00000000000E+00  0.00000000000E+00 -0.20146134833E+04  0.20146134833E+04  0.50400001928E-02 0.  1.
    10030    2    1    2    0    0  0.00000000000E+00  0.00000000000E+00 -0.10856044907E+04  0.29436224759E+04  0.27361242974E+04 0.  0.
        5    1    3    3  502    0  0.44428559878E+03 -0.24733051088E+03  0.82355668941E+03  0.96789967743E+03  0.46999998093E+01 0. -1.
       -5    1    3    3    0  502 -0.44428559878E+03  0.24733051088E+03 -0.19091611801E+04  0.19757227985E+04  0.46999998093E+01 0.  1.
</event>
<event>
 5   0  0.5858859E-07  0.3301574E+04  0.7818609E-02  0.8162495E-01
        1   -1    0    0  501    0  0.00000000000E+00  0.00000000000E+00  0.12121577637E+04  0.12121577637E+04  0.50400001928E-02 0.  1.
       -1   -1    0    0    0  501  0.00000000000E+00  0.00000000000E+00 -0.22481377194E+04  0.22481377194E+04  0.50400001928E-02 0. -1.
    10030    2    1    2    0    0  0.00000000000E+00  0.00000000000E+00 -0.10359799557E+04  0.34602954831E+04  0.33015739220E+04 0.  0.
        3    1    3    3  502    0 -0.10527395781E+04  0.64319776540E+03 -0.16675961512E+04  0.20743290285E+04  0.10100000352E+00 0. -1.
       -3    1    3    3    0  502  0.10527395781E+04 -0.64319776540E+03  0.63161619554E+03  0.13859664546E+04  0.10100000352E+00 0.  1.
</event>
<event>
 5   0  0.5685000E-07  0.3323889E+04  0.7818609E-02  0.8156843E-01
        3   -1    0    0  501    0  0.00000000000E+00  0.00000000000E+00  0.10070884361E+04  0.10070884412E+04  0.10100000352E+00 0. -1.
       -3   -1    0    0    0  501  0.00000000000E+00  0.00000000000E+00 -0.27426184920E+04  0.27426184938E+04  0.10100000352E+00 0.  1.
    10030    2    1    2    0    0  0.00000000000E+00  0.00000000000E+00 -0.17355300559E+04  0.37497069350E+04  0.33238889156E+04 0.  0.
        2    1    3    3  502    0  0.88804619358E+03 -0.12067124930E+04 -0.16791238337E+04  0.22503861739E+04  0.25500000920E-02 0.  1.
       -2    1    3    3    0  502 -0.88804619358E+03  0.12067124930E+04 -0.56406222222E+02  0.14993207611E+04  0.25500000920E-02 0. -1.
</event>
<event>
 5   0  0.1784626E-06  0.3287380E+04  0.7818609E-02  0.8166114E-01
       -2   -1    0    0    0  501  0.00000000000E+00  0.00000000000E+00  0.13813975221E+04  0.13813975221E+04  0.25500000920E-02 0.  1.
        2   -1    0    0  501    0  0.00000000000E+00  0.00000000000E+00 -0.19557850553E+04  0.19557850553E+04  0.25500000920E-02 0. -1.
    10030    2    1    2    0    0  0.00000000000E+00  0.00000000000E+00 -0.57438753327E+03  0.33371825774E+04  0.32873798862E+04 0.  0.
        2    1    3    3  502    0  0.47383849921E+03  0.89582562546E+03 -0.16008971171E+04  0.18947026295E+04  0.25500000920E-02 0. -1.
       -2    1    3    3    0  502 -0.47383849921E+03 -0.89582562546E+03  0.10265095838E+04  0.14424799479E+04  0.25500000920E-02 0.  1.
</event>
<event>
 5   0  0.5858859E-07  0.3481169E+04  0.7818609E-02  0.8118267E-01
       -1   -1    0    0    0  501  0.00000000000E+00  0.00000000000E+00  0.22539797693E+04  0.22539797693E+04  0.50400001928E-02 0.  1.
        1   -1    0    0  501    0  0.00000000000E+00  0.00000000000E+00 -0.13441266758E+04  0.13441266758E+04  0.50400001928E-02 0. -1.
    10030    2    1    2    0    0  0.00000000000E+00  0.00000000000E+00  0.90985309357E+03  0.35981064451E+04  0.34811689615E+04 0.  0.
        3    1    3    3  502    0  0.63911554128E+03  0.12503402455E+04 -0.60812359233E+03  0.15302397585E+04  0.10100000352E+00 0. -1.
       -3    1    3    3    0  502 -0.63911554128E+03 -0.12503402455E+04  0.15179766859E+04  0.20678666867E+04  0.10100000352E+00 0.  1.
</event>
<event>
 5   0  0.1728937E-06  0.3304150E+04  0.7818609E-02  0.8161840E-01
        2   -1    0    0  501    0  0.00000000000E+00  0.00000000000E+00  0.15935329426E+04  0.15935329426E+04  0.25500000920E-02 0.  1.
       -2   -1    0    0    0  501  0.00000000000E+00  0.00000000000E+00 -0.17127673258E+04  0.17127673258E+04  0.25500000920E-02 0. -1.
    10030    2    1    2    0    0  0.00000000000E+00  0.00000000000E+00 -0.11923438318E+03  0.33063002685E+04  0.33041496073E+04 0.  0.
        1    1    3    3  502    0  0.45759765971E+03 -0.13750702716E+04 -0.85331522017E+03  0.16817730926E+04  0.50400001928E-02 0. -1.
       -1    1    3    3    0  502 -0.45759765971E+03  0.13750702716E+04  0.73408083699E+03  0.16245271759E+04  0.50400001928E-02 0.  1.
</event>
<event>
 5   0  0.1696681E-06  0.3253653E+04  0.7818609E-02  0.8174790E-01
        2   -1    0    0  501    0  0.00000000000E+00  0.00000000000E+00  0.27265453804E+04  0.27265453804E+04  0.25500000920E-02 0.  1.
       -2   -1    0    0    0  501  0.00000000000E+00  0.00000000000E+00 -0.97066580703E+03  0.97066580704E+03  0.25500000920E-02 0. -1.
    10030    2    1    2    0    0  0.00000000000E+00  0.00000000000E+00  0.17558795733E+04  0.36972111874E+04  0.32536529453E+04 0.  0.
        4    1    3    3  502    0  0.83608560937E+03  0.25547374515E+03  0.24369266903E+04  0.25889996692E+04  0.12699999809E+01 0.  1.
       -4    1    3    3    0  502 -0.83608560937E+03 -0.25547374515E+03 -0.68104711693E+03  0.11082115182E+04  0.12699999809E+01 0. -1.
</event>
<event>
 5   0  0.6023446E-07  0.3312102E+04  0.7818609E-02  0.8159823E-01
       -1   -1    0    0    0  501  0.00000000000E+00  0.00000000000E+00  0.15443607046E+04  0.15443607046E+04  0.50400001928E-02 0. -1.
        1   -1    0    0  501    0  0.00000000000E+00  0.00000000000E+00 -0.17758185826E+04  0.17758185826E+04  0.50400001928E-02 0.  1.
    10030    2    1    2    0    0  0.00000000000E+00  0.00000000000E+00 -0.23145787796E+03  0.33201792873E+04  0.33121017119E+04 0.  0.
        5    1    3    3  502    0 -0.13867955582E+04 -0.90175365343E+03 -0.19415512798E+03  0.16655569265E+04  0.46999998093E+01 0. -1.
       -5    1    3    3    0  502  0.13867955582E+04  0.90175365343E+03 -0.37302749988E+02  0.16546223608E+04  0.46999998093E+01 0.  1.
</event>
<event>
 5   0  0.1832626E-06  0.3307927E+04  0.7818609E-02  0.8160881E-01
        2   -1    0    0  501    0  0.00000000000E+00  0.00000000000E+00  0.20837379895E+04  0.20837379895E+04  0.25500000920E-02 0.  1.
       -2   -1    0    0    0  501  0.00000000000E+00  0.00000000000E+00 -0.13128308175E+04  0.13128308175E+04  0.25500000920E-02 0. -1.
    10030    2    1    2    0    0  0.00000000000E+00  0.00000000000E+00  0.77090717193E+03  0.33965688070E+04  0.33079271142E+04 0.  0.
        3    1    3    3  502    0  0.97480523980E+03 -0.12926392009E+04  0.73279948369E+03  0.17771202696E+04  0.10100000352E+00 0.  1.
       -3    1    3    3    0  502 -0.97480523980E+03  0.12926392009E+04  0.38107688249E+02  0.16194485374E+04  0.10100000352E+00 0. -1.
</event>
<event>
 5   0  0.1728937E-06  0.3271513E+04  0.7818609E-02  0.8170182E-01
       -2   -1    0    0    0  501  0.00000000000E+00  0.00000000000E+00  0.12488468137E+04  0.12488468137E+04  0.25500000920E-02 0. -1.
        2   -1    0    0  501    0  0.00000000000E+00  0.00000000000E+00 -0.21425365495E+04  0.21425365495E+04  0.25500000920E-02 0.  1.
    10030    2    1    2    0    0  0.00000000000E+00  0.00000000000E+00 -0.89368973583E+03  0.33913833631E+04  0.32715133764E+04 0.  0.
        1    1    3    3  502    0 -0.13372741982E+04  0.92674700891E+03 -0.62196546846E+03  0.17418390694E+04  0.50400001928E-02 0. -1.
       -1    1    3    3    0  502  0.13372741982E+04 -0.92674700891E+03 -0.27172426737E+03  0.16495442938E+04  0.50400001928E-02 0.  1.
</event>
<event>
 5   0  0.5985183E-07  0.3207454E+04  0.7818609E-02  0.8186851E-01
       -1   -1    0    0    0  501  0.00000000000E+00  0.00000000000E+00  0.15522122424E+04  0.15522122424E+04  0.50400001928E-02 0. -1.
        1   -1    0    0  501    0  0.00000000000E+00  0.00000000000E+00 -0.16569510464E+04  0.16569510464E+04  0.50400001928E-02 0.  1.
    10030    2    1    2    0    0  0.00000000000E+00  0.00000000000E+00 -0.10473880398E+03  0.32091632888E+04  0.32074536314E+04 0.  0.
        2    1    3    3  502    0  0.14408665638E+04  0.70269951797E+03 -0.69951229488E+01  0.16031007451E+04  0.25500000920E-02 0. -1.
       -2    1    3    3    0  502 -0.14408665638E+04 -0.70269951797E+03 -0.97743681029E+02  0.16060625437E+04  0.25500000920E-02 0.  1.
</event>
<event>
 5   0  0.6023446E-07  0.3177959E+04  0.7818609E-02  0.8194662E-01
        1   -1    0    0  501    0  0.00000000000E+00  0.00000000000E+00  0.25635680028E+04  0.25635680028E+04  0.50400001928E-02 0.  1.
       -1   -1    0    0    0  501  0.00000000000E+00  0.00000000000E+00 -0.98489927927E+03  0.98489927929E+03  0.50400001928E-02 0. -1.
    10030    2    1    2    0    0  0.00000000000E+00  0.00000000000E+00  0.15786687235E+04  0.35484672820E+04  0.31779592687E+04 0.  0.
        5    1    3    3  502    0  0.20185641283E+03 -0.15508812841E+04  0.11028854063E+04  0.19137285801E+04  0.46999998093E+01 0.  1.
       -5    1    3    3    0  502 -0.20185641283E+03  0.15508812841E+04  0.47578331723E+03  0.16347387020E+04  0.46999998093E+01 0. -1.
</event>
<event>
 5   0  0.6085351E-07  0.3291606E+04  0.7818609E-02  0.8165035E-01
        1   -1    0    0  501    0  0.00000000000E+00  0.00000000000E+00  0.21546561717E+04  0.21546561717E+04  0.50400001928E-02 0. -1.
       -1   -1    0    0    0  501  0.00000000000E+00  0.00000000000E+00 -0.12571227509E+04  0.12571227509E+04  0.50400001928E-02 0.  1.
    10030    2    1    2    0    0  0.00000000000E+00  0.00000000000E+00  0.89753342077E+03  0.34117789226E+04  0.32916058658E+04 0.  0.
        1    1    3    3  502    0 -0.87880505930E+03  0.13229920547E+04  0.89586263575E+03  0.18235065591E+04  0.50400001928E-02 0. -1.
       -1    1    3    3    0  502  0.87880505930E+03 -0.13229920547E+04  0.16707850267E+01  0.15882723635E+04  0.50400001928E-02 0.  1.
</event>
<event>
 5   0  0.1743810E-06  0.3284877E+04  0.7818609E-02  0.8166754E-01
        2   -1    0    0  501    0  0.00000000000E+00  0.00000000000E+00  0.18775703604E+04  0.18775703604E+04  0.25500000920E-02 0.  1.
       -2   -1    0    0    0  501  0.00000000000E+00  0.00000000000E+00 -0.14367526239E+04  0.14367526239E+04  0.25500000920E-02 0. -1.
    10030    2    1    2    0    0  0.00000000000E+00  0.00000000000E+00  0.44081773649E+03  0.33143229844E+04  0.32848769487E+04 0.  0.
        5    1    3    3  502    0  0.80173835776E+03  0.20388200096E+03  0.16520111991E+04  0.18475701222E+04  0.46999998093E+01 0.  1.
       -5    1    3    3    0  502 -0.80173835776E+03 -0.20388200096E+03 -0.12111934626E+04  0.14667528621E+04  0.46999998093E+01 0. -1.
</event>
<event>
 5   0  0.1832626E-06  0.3295390E+04  0.7818609E-02  0.8164069E-01
       -2   -1    0    0    0  501  0.00000000000E+00  0.00000000000E+00  0.17383056398E+04  0.17383056398E+04  0.25500000920E-02 0.  1.
        2   -1    0    0  501    0  0.00000000000E+00  0.00000000000E+00 -0.15618076260E+04  0.15618076260E+04  0.25500000920E-02 0. -1.
    10030    2    1    2    0    0  0.00000000000E+00  0.00000000000E+00  0.17649801381E+03  0.33001132659E+04  0.32953901163E+04 0.  0.
        3    1    3    3  502    0 -0.37603102851E+02  0.10194559160E+04  0.13840102453E+04  0.17193570679E+04  0.10100000352E+00 0.  1.
       -3    1    3    3    0  502  0.37603102851E+02 -0.10194559160E+04 -0.12075122314E+04  0.15807561979E+04  0.10100000352E+00 0. -1.
</event>
<event>
 5   0  0.1696681E-06  0.3298181E+04  0.7818609E-02  0.8163358E-01
        2   -1    0    0  501    0  0.00000000000E+00  0.00000000000E+00  0.28287370363E+04  0.28287370363E+04  0.25500000920E-02 0. -1.
       -2   -1    0    0    0  501  0.00000000000E+00  0.00000000000E+00 -0.96138309493E+03  0.96138309493E+03  0.25500000920E-02 0.  1.
    10030    2    1    2    0    0  0.00000000000E+00  0.00000000000E+00  0.18673539413E+04  0.37901201312E+04  0.32981812968E+04 0.  0.
        4    1    3    3  502    0  0.51488618468E+03  0.72196086705E+03 -0.66408726896E+03  0.11078577483E+04  0.12699999809E+01 0.  1.
       -4    1    3    3    0  502 -0.51488618468E+03 -0.72196086705E+03  0.25314412103E+04  0.26822623829E+04  0.12699999809E+01 0. -1.
</event>
<event>
 5   0  0.1832626E-06  0.3316118E+04  0.7818609E-02  0.8158806E-01
        2   -1    0    0  501    0  0.00000000000E+00  0.00000000000E+00  0.22848624859E+04  0.22848624859E+04  0.25500000920E-02 0.  1.
       -2   -1    0    0    0  501  0.00000000000E+00  0.00000000000E+00 -0.12032060374E+04  0.12032060374E+04  0.25500000920E-02 0. -1.
    10030    2    1    2    0    0  0.00000000000E+00  0.00000000000E+00  0.10816564485E+04  0.34880685234E+04  0.33161184163E+04 0.  0.
        3    1    3    3  502    0  0.81506081400E+03 -0.42342965941E+03  0.19928208597E+04  0.21942998418E+04  0.10100000352E+00 0.  1.
       -3    1    3    3    0  502 -0.81506081400E+03  0.42342965941E+03 -0.91116441116E+03  0.12937686815E+04  0.10100000352E+00 0. -1.
</event>
<event>
 5   0  0.6023446E-07  0.3590181E+04  0.7818609E-02  0.8092745E-01
        1   -1    0    0  501    0  0.00000000000E+00  0.00000000000E+00  0.15878923012E+04  0.15878923012E+04  0.50400001928E-02 0.  1.
       -1   -1    0    0    0  501  0.00000000000E+00  0.00000000000E+00 -0.20293248311E+04  0.20293248311E+04  0.50400001928E-02 0. -1.
    10030    2    1    2    0    0  0.00000000000E+00  0.00000000000E+00 -0.44143252995E+03  0.36172171323E+04  0.35901806506E+04 0.  0.
        5    1    3    3  502    0 -0.39000062103E+03 -0.10528737706E+04  0.11904323360E+04  0.16363969255E+04  0.46999998093E+01 0.  1.
       -5    1    3    3    0  502  0.39000062103E+03  0.10528737706E+04 -0.16318648659E+04  0.19808202068E+04  0.46999998093E+01 0. -1.
</event>
<event>
 5   0  0.5988516E-07  0.3344681E+04  0.7818609E-02  0.8151618E-01
       -1   -1    0    0    0  501  0.00000000000E+00  0.00000000000E+00  0.10124614185E+04  0.10124614185E+04  0.50400001928E-02 0.  1.
        1   -1    0    0  501    0  0.00000000000E+00  0.00000000000E+00 -0.27623008356E+04  0.27623008356E+04  0.50400001928E-02 0. -1.
    10030    2    1    2    0    0  0.00000000000E+00  0.00000000000E+00 -0.17498394170E+04  0.37747622541E+04  0.33446811641E+04 0.  0.
        4    1    3    3  502    0  0.14271407867E+04 -0.82978641442E+03 -0.11765820346E+04  0.20272205642E+04  0.12699999809E+01 0.  1.
       -4    1    3    3    0  502 -0.14271407867E+04  0.82978641442E+03 -0.57325738244E+03  0.17475416900E+04  0.12699999809E+01 0. -1.
</event>
<event>
 5   0  0.6023446E-07  0.3274579E+04  0.7818609E-02  0.8169394E-01
       -1   -1    0    0    0  501  0.00000000000E+00  0.00000000000E+00  0.10848062334E+04  0.10848062334E+04  0.50400001928E-02 0.  1.
        1   -1    0    0  501    0  0.00000000000E+00  0.00000000000E+00 -0.24711474508E+04  0.24711474508E+04  0.50400001928E-02 0. -1.
    10030    2    1    2    0    0  0.00000000000E+00  0.00000000000E+00 -0.13863412173E+04  0.35559536842E+04  0.32745785429E+04 0.  0.
        5    1    3    3  502    0  0.21586065913E+03  0.90664572205E+03  0.76863888822E+03  0.12080687563E+04  0.46999998093E+01 0.  1.
       -5    1    3    3    0  502 -0.21586065913E+03 -0.90664572205E+03 -0.21549801056E+04  0.23478849279E+04  0.46999998093E+01 0. -1.
</event>
<event>
 5   0  0.5988516E-07  0.3266862E+04  0.7818609E-02  0.8171379E-01
       -1   -1    0    0    0  501  0.00000000000E+00  0.00000000000E+00  0.13795619067E+04  0.13795619067E+04  0.50400001928E-02 0. -1.
        1   -1    0    0  501    0  0.00000000000E+00  0.00000000000E+00 -0.19340173254E+04  0.19340173254E+04  0.50400001928E-02 0.  1.
    10030    2    1    2    0    0  0.00000000000E+00  0.00000000000E+00 -0.55445541868E+03  0.33135792321E+04  0.32668618759E+04 0.  0.
        4    1    3    3  502    0 -0.14383884490E+04 -0.60182639857E+03 -0.77095207645E+03  0.17394036511E+04  0.12699999809E+01 0.  1.
       -4    1    3    3    0  502  0.14383884490E+04  0.60182639857E+03  0.21649665778E+03  0.15741755811E+04  0.12699999809E+01 0. -1.
</event>
<event>
 5   0  0.1832626E-06  0.3211833E+04  0.7818609E-02  0.8185699E-01
       -2   -1    0    0    0  501  0.00000000000E+00  0.00000000000E+00  0.34241777657E+04  0.34241777657E+04  0.25500000920E-02 0. -1.
        2   -1    0    0  501    0  0.00000000000E+00  0.00000000000E+00 -0.75316411507E+03  0.75316411508E+03  0.25500000920E-02 0.  1.
    10030    2    1    2    0    0  0.00000000000E+00  0.00000000000E+00  0.26710136506E+04  0.41773418807E+04  0.32118330073E+04 0.  0.
        3    1    3    3  502    0  0.46299971235E+03 -0.33550496772E+03  0.32873039698E+04  0.33366599642E+04  0.10100000352E+00 0. -1.
       -3    1    3    3    0  502 -0.46299971235E+03  0.33550496772E+03 -0.61629031919E+03  0.84068191650E+03  0.10100000352E+00 0.  1.
</event>
<event>
 5   0  0.5858859E-07  0.3290553E+04  0.7818609E-02  0.8165303E-01
       -1   -1    0    0    0  501  0.00000000000E+00  0.00000000000E+00  0.14029857932E+04  0.14029857932E+04  0.50400001928E-02 0.  1.
        1   -1    0    0  501    0  0.00000000000E+00  0.00000000000E+00 -0.19294101090E+04  0.19294101090E+04  0.50400001928E-02 0. -1.
    10030    2    1    2    0    0  0.00000000000E+00  0.00000000000E+00 -0.52642431581E+03  0.33323959022E+04  0.32905531281E+04 0.  0.
        3    1    3    3  502    0 -0.16005032992E+03 -0.63828306657E+03 -0.17903374232E+04  0.19074405575E+04  0.10100000352E+00 0. -1.
       -3    1    3    3    0  502  0.16005032992E+03  0.63828306657E+03  0.12639131074E+04  0.14249553447E+04  0.10100000352E+00 0.  1.
</event>
<event>
 5   0  0.1743810E-06  0.3318603E+04  0.7818609E-02  0.8158178E-01
        2   -1    0    0  501    0  0.00000000000E+00  0.00000000000E+00  0.20128311722E+04  0.20128311722E+04  0.25500000920E-02 0.  1.
       -2   -1    0    0    0  501  0.00000000000E+00  0.00000000000E+00 -0.13678653346E+04  0.13678653346E+04  0.25500000920E-02 0. -1.
    10030    2    1    2    0    0  0.00000000000E+00  0.00000000000E+00  0.64496583762E+03  0.33806965068E+04  0.33186033115E+04 0.  0.
        5    1    3    3  502    0  0.13658722329E+04  0.94186177179E+03  0.34635948716E+03  0.16949034008E+04  0.46999998093E+01 0. -1.
       -5    1    3    3    0  502 -0.13658722329E+04 -0.94186177179E+03  0.29860635047E+03  0.16857931060E+04  0.46999998093E+01 0.  1.
</event>
<event>
 5   0  0.1832626E-06  0.3328212E+04  0.7818609E-02  0.8155754E-01
        2   -1    0    0  501    0  0.00000000000E+00  0.00000000000E+00  0.23737653473E+04  0.23737653473E+04  0.25500000920E-02 0. -1.
       -2   -1    0    0    0  501  0.00000000000E+00  0.00000000000E+00 -0.11666057455E+04  0.11666057455E+04  0.25500000920E-02 0.  1.
    10030    2    1    2    0    0  0.00000000000E+00  0.00000000000E+00  0.12071596018E+04  0.35403710928E+04  0.33282117076E+04 0.  0.
        3    1    3    3  502    0 -0.13263925994E+04 -0.34367054118E+02  0.16719692386E+04  0.21344740728E+04  0.10100000352E+00 0. -1.
       -3    1    3    3    0  502  0.13263925994E+04  0.34367054118E+02 -0.46480963684E+03  0.14058970200E+04  0.10100000352E+00 0.  1.
</event>
<event>
 5   0  0.5858859E-07  0.3301390E+04  0.7818609E-02  0.8162542E-01
       -1   -1    0    0    0  501  0.00000000000E+00  0.00000000000E+00  0.11957286923E+04  0.11957286923E+04  0.50400001928E-02 0.  1.
        1   -1    0    0  501    0  0.00000000000E+00  0.00000000000E+00 -0.22787727643E+04  0.22787727643E+04  0.50400001928E-02 0. -1.
    10030    2    1    2    0    0  0.00000000000E+00  0.00000000000E+00 -0.10830440721E+04  0.34745014566E+04  0.33013899967E+04 0.  0.
        3    1    3    3  502    0 -0.10111322778E+04 -0.46503407051E+03  0.74147843039E+03  0.13373239857E+04  0.10100000352E+00 0.  1.
       -3    1    3    3    0  502  0.10111322778E+04  0.46503407051E+03 -0.18245225025E+04  0.21371774709E+04  0.10100000352E+00 0. -1.
</event>
<event>
 5   0  0.1696681E-06  0.3288664E+04  0.7818609E-02  0.8165786E-01
       -2   -1    0    0    0  501  0.00000000000E+00  0.00000000000E+00  0.18593501781E+04  0.18593501781E+04  0.25500000920E-02 0. -1.
        2   -1    0    0  501    0  0.00000000000E+00  0.00000000000E+00 -0.14541784703E+04  0.14541784704E+04  0.25500000920E-02 0.  1.
    10030    2    1    2    0    0  0.00000000000E+00  0.00000000000E+00  0.40517170778E+03  0.33135286485E+04  0.32886635571E+04 0.  0.
        4    1    3    3  502    0 -0.56466422817E+03 -0.22340145198E+03 -0.13370619056E+04  0.14684992515E+04  0.12699999809E+01 0.  1.
       -4    1    3    3    0  502  0.56466422817E+03  0.22340145198E+03  0.17422336134E+04  0.18450293970E+04  0.12699999809E+01 0. -1.
</event>
<event>
 5   0  0.1743810E-06  0.3283311E+04  0.7818609E-02  0.8167155E-01
        2   -1    0    0  501    0  0.00000000000E+00  0.00000000000E+00  0.25274500069E+04  0.25274500069E+04  0.25500000920E-02 0. -1.
       -2   -1    0    0    0  501  0.00000000000E+00  0.00000000000E+00 -0.10663051047E+04  0.10663051047E+04  0.25500000920E-02 0.  1.
    10030    2    1    2    0    0  0.00000000000E+00  0.00000000000E+00  0.14611449022E+04  0.35937551115E+04  0.32833110386E+04 0.  0.
        5    1    3    3  502    0 -0.16228889175E+01  0.11990527828E+04  0.19578775840E+04  0.22958738932E+04  0.46999998093E+01 0. -1.
       -5    1    3    3    0  502  0.16228889175E+01 -0.11990527828E+04 -0.49673268174E+03  0.12978812183E+04  0.46999998093E+01 0.  1.
</event>
<event>
 5   0  0.5985183E-07  0.3292109E+04  0.7818609E-02  0.8164906E-01
        1   -1    0    0  501    0  0.00000000000E+00  0.00000000000E+00  0.11892367205E+04  0.11892367205E+04  0.50400001928E-02 0. -1.
       -1   -1    0    0    0  501  0.00000000000E+00  0.00000000000E+00 -0.22783480006E+04  0.22783480006E+04  0.50400001928E-02 0.  1.
    10030    2    1    2    0    0  0.00000000000E+00  0.00000000000E+00 -0.10891112801E+04  0.34675847211E+04  0.32921088101E+04 0.  0.
        2    1    3    3  502    0  0.10387918424E+03  0.15188044125E+04  0.11486303145E+03  0.15266798107E+04  0.25500000920E-02 0. -1.
       -2    1    3    3    0  502 -0.10387918424E+03 -0.15188044125E+04 -0.12039743115E+04  0.19409049104E+04  0.25500000920E-02 0.  1.
</event>
<event>
 5   0  0.5988516E-07  0.3300981E+04  0.7818609E-02  0.8162646E-01
        1   -1    0    0  501    0  0.00000000000E+00  0.00000000000E+00  0.18030442243E+04  0.18030442243E+04  0.50400001928E-02 0. -1.
       -1   -1    0    0    0  501  0.00000000000E+00  0.00000000000E+00 -0.15108443325E+04  0.15108443325E+04  0.50400001928E-02 0.  1.
    10030    2    1    2    0    0  0.00000000000E+00  0.00000000000E+00  0.29219989179E+03  0.33138885568E+04  0.33009811556E+04 0.  0.
        4    1    3    3  502    0  0.39742936429E+03 -0.63274557878E+03 -0.13313204013E+04  0.15266737342E+04  0.12699999809E+01 0.  1.
       -4    1    3    3    0  502 -0.39742936429E+03  0.63274557878E+03  0.16235202930E+04  0.17872148225E+04  0.12699999809E+01 0. -1.
</event>
<event>
 5   0  0.5858859E-07  0.2791397E+04  0.7818609E-02  0.8305944E-01
       -1   -1    0    0    0  501  0.00000000000E+00  0.00000000000E+00  0.11305277065E+04  0.11305277065E+04  0.50400001928E-02 0.  1.
        1   -1    0    0  501    0  0.00000000000E+00  0.00000000000E+00 -0.17230660447E+04  0.17230660447E+04  0.50400001928E-02 0. -1.
    10030    2    1    2    0    0  0.00000000000E+00  0.00000000000E+00 -0.59253833814E+03  0.28535937512E+04  0.27913967139E+04 0.  0.
        3    1    3    3  502    0  0.40327918753E+03  0.85373674204E+03 -0.13470202822E+04  0.16449815132E+04  0.10100000352E+00 0. -1.
       -3    1    3    3    0  502 -0.40327918753E+03 -0.85373674204E+03  0.75448194405E+03  0.12086122380E+04  0.10100000352E+00 0.  1.
</event>
<event>
 5   0  0.6023446E-07  0.3251127E+04  0.7818609E-02  0.8175444E-01
       -1   -1    0    0    0  501  0.00000000000E+00  0.00000000000E+00  0.25497594138E+04  0.25497594138E+04  0.50400001928E-02 0. -1.
        1   -1    0    0  501    0  0.00000000000E+00  0.00000000000E+00 -0.10363551668E+04  0.10363551668E+04  0.50400001928E-02 0.  1.
    10030    2    1    2    0    0  0.00000000000E+00  0.00000000000E+00  0.15134042470E+04  0.35861145806E+04  0.32511267848E+04 0.  0.
        5    1    3    3  502    0  0.15406350884E+04 -0.26472042882E+03  0.12485144365E+04  0.20006108491E+04  0.46999998093E+01 0. -1.
       -5    1    3    3    0  502 -0.15406350884E+04  0.26472042882E+03  0.26488981041E+03  0.15855037315E+04  0.46999998093E+01 0.  1.
</event>
<event>
 5   0  0.1728937E-06  0.3338901E+04  0.7818609E-02  0.8153067E-01
       -2   -1    0    0    0  501  0.00000000000E+00  0.00000000000E+00  0.15447983446E+04  0.15447983446E+04  0.25500000920E-02 0.  1.
        2   -1    0    0  501    0  0.00000000000E+00  0.00000000000E+00 -0.18041615203E+04  0.18041615203E+04  0.25500000920E-02 0. -1.
    10030    2    1    2    0    0  0.00000000000E+00  0.00000000000E+00 -0.25936317566E+03  0.33489598648E+04  0.33389014540E+04 0.  0.
        1    1    3    3  502    0  0.14825916526E+03  0.16588499659E+04 -0.24536219923E+03  0.16834389203E+04  0.50400001928E-02 0.  1.
       -1    1    3    3    0  502 -0.14825916526E+03 -0.16588499659E+04 -0.14000976425E+02  0.16655209446E+04  0.50400001928E-02 0. -1.
</event>
<event>
 5   0  0.6085351E-07  0.3268026E+04  0.7818609E-02  0.8171079E-01
       -1   -1    0    0    0  501  0.00000000000E+00  0.00000000000E+00  0.17822832842E+04  0.17822832842E+04  0.50400001928E-02 0.  1.
        1   -1    0    0  501    0  0.00000000000E+00  0.00000000000E+00 -0.14980776118E+04  0.14980776118E+04  0.50400001928E-02 0. -1.
    10030    2    1    2    0    0  0.00000000000E+00  0.00000000000E+00  0.28420567244E+03  0.32803608960E+04  0.32680261234E+04 0.  0.
        1    1    3    3  502    0 -0.12605339085E+04 -0.11591987170E+03 -0.89505188578E+03  0.15503228791E+04  0.50400001928E-02 0. -1.
       -1    1    3    3    0  502  0.12605339085E+04  0.11591987170E+03  0.11792575582E+04  0.17300380169E+04  0.50400001928E-02 0.  1.
</event>
<event>
 5   0  0.1728937E-06  0.3302263E+04  0.7818609E-02  0.8162320E-01
        2   -1    0    0  501    0  0.00000000000E+00  0.00000000000E+00  0.18354482179E+04  0.18354482179E+04  0.25500000920E-02 0. -1.
       -2   -1    0    0    0  501  0.00000000000E+00  0.00000000000E+00 -0.14853240329E+04  0.14853240329E+04  0.25500000920E-02 0.  1.
    10030    2    1    2    0    0  0.00000000000E+00  0.00000000000E+00  0.35012418494E+03  0.33207722508E+04  0.33022630720E+04 0.  0.
        1    1    3    3  502    0 -0.90803522631E+03  0.12482852241E+04  0.76442845097E+03  0.17225257123E+04  0.50400001928E-02 0. -1.
       -1    1    3    3    0  502  0.90803522631E+03 -0.12482852241E+04 -0.41430426603E+03  0.15982465385E+04  0.50400001928E-02 0.  1.
</event>
<event>
 5   0  0.5858859E-07  0.3284302E+04  0.7818609E-02  0.8166901E-01
       -1   -1    0    0    0  501  0.00000000000E+00  0.00000000000E+00  0.16521299513E+04  0.16521299513E+04  0.50400001928E-02 0.  1.
        1   -1    0    0  501    0  0.00000000000E+00  0.00000000000E+00 -0.16322325230E+04  0.16322325231E+04  0.50400001928E-02 0. -1.
    10030    2    1    2    0    0  0.00000000000E+00  0.00000000000E+00  0.19897428241E+02  0.32843624744E+04  0.32843022022E+04 0.  0.
        3    1    3    3  502    0 -0.62919908904E+03  0.11758116749E+04  0.96821242655E+03  0.16479866206E+04  0.10100000352E+00 0.  1.
       -3    1    3    3    0  502  0.62919908904E+03 -0.11758116749E+04 -0.94831499831E+03  0.16363758538E+04  0.10100000352E+00 0. -1.
</event>
<event>
 5   0  0.5985183E-07  0.3311579E+04  0.7818609E-02  0.8159955E-01
        1   -1    0    0  501    0  0.00000000000E+00  0.00000000000E+00  0.19286143001E+04  0.19286143001E+04  0.50400001928E-02 0.  1.
       -1   -1    0    0    0  501  0.00000000000E+00  0.00000000000E+00 -0.14215588982E+04  0.14215588983E+04  0.50400001928E-02 0. -1.
    10030    2    1    2    0    0  0.00000000000E+00  0.00000000000E+00  0.50705540187E+03  0.33501731984E+04  0.33115789706E+04 0.  0.
        2    1    3    3  502    0  0.35606230088E+03 -0.23481857568E+03  0.18720856908E+04  0.19200585822E+04  0.25500000920E-02 0.  1.
       -2    1    3    3    0  502 -0.35606230088E+03  0.23481857568E+03 -0.13650302889E+04  0.14301146161E+04  0.25500000920E-02 0. -1.
</event>
<event>
 5   0  0.6023446E-07  0.3495842E+04  0.7818609E-02  0.8114776E-01
       -1   -1    0    0    0  501  0.00000000000E+00  0.00000000000E+00  0.17184726912E+04  0.17184726912E+04  0.50400001928E-02 0.  1.
        1   -1    0    0  501    0  0.00000000000E+00  0.00000000000E+00 -0.17778739280E+04  0.17778739280E+04  0.50400001928E-02 0. -1.
    10030    2    1    2    0    0  0.00000000000E+00  0.00000000000E+00 -0.59401236823E+02  0.34963466192E+04  0.34958419836E+04 0.  0.
        5    1    3    3  502    0  0.49176203308E+03 -0.99028266743E+03  0.13242732364E+04  0.17251699491E+04  0.46999998093E+01 0.  1.
       -5    1    3    3    0  502 -0.49176203308E+03  0.99028266743E+03 -0.13836744733E+04  0.17711766701E+04  0.46999998093E+01 0. -1.
</event>
<event>
 5   0  0.1743810E-06  0.3190176E+04  0.7818609E-02  0.8191416E-01
        2   -1    0    0  501    0  0.00000000000E+00  0.00000000000E+00  0.14795305652E+04  0.14795305652E+04  0.25500000920E-02 0. -1.
       -2   -1    0    0    0  501  0.00000000000E+00  0.00000000000E+00 -0.17196711867E+04  0.17196711867E+04  0.25500000920E-02 0.  1.
    10030    2    1    2    0    0  0.00000000000E+00  0.00000000000E+00 -0.24014062141E+03  0.31992017519E+04  0.31901762226E+04 0.  0.
        5    1    3    3  502    0  0.22808582516E+03  0.94440951483E+03  0.11485587282E+04  0.15043741946E+04  0.46999998093E+01 0. -1.
       -5    1    3    3    0  502 -0.22808582516E+03 -0.94440951483E+03 -0.13886993496E+04  0.16948275573E+04  0.46999998093E+01 0.  1.
</event>
<event>
 5   0  0.1743810E-06  0.3276542E+04  0.7818609E-02  0.8168890E-01
        2   -1    0    0  501    0  0.00000000000E+00  0.00000000000E+00  0.14496919862E+04  0.14496919862E+04  0.25500000920E-02 0. -1.
       -2   -1    0    0    0  501  0.00000000000E+00  0.00000000000E+00 -0.18513810614E+04  0.18513810614E+04  0.25500000920E-02 0.  1.
    10030    2    1    2    0    0  0.00000000000E+00  0.00000000000E+00 -0.40168907511E+03  0.33010730476E+04  0.32765422556E+04 0.  0.
        5    1    3    3  502    0 -0.11682024279E+04 -0.11478642018E+04 -0.24140836084E+03  0.16554725081E+04  0.46999998093E+01 0. -1.
       -5    1    3    3    0  502  0.11682024279E+04  0.11478642018E+04 -0.16028071427E+03  0.16456005395E+04  0.46999998093E+01 0.  1.
</event>
<event>
 5   0  0.1743810E-06  0.3343496E+04  0.7818609E-02  0.8151915E-01
       -2   -1    0    0    0  501  0.00000000000E+00  0.00000000000E+00  0.14260481095E+04  0.14260481095E+04  0.25500000920E-02 0. -1.
        2   -1    0    0  501    0  0.00000000000E+00  0.00000000000E+00 -0.19597800393E+04  0.19597800393E+04  0.25500000920E-02 0.  1.
    10030    2    1    2    0    0  0.00000000000E+00  0.00000000000E+00 -0.53373192980E+03  0.33858281487E+04  0.33434955481E+04 0.  0.
        5    1    3    3  502    0  0.14372895829E+04 -0.83801970520E+03 -0.10158129915E+03  0.16668590888E+04  0.46999998093E+01 0. -1.
       -5    1    3    3    0  502 -0.14372895829E+04  0.83801970520E+03 -0.43215063065E+03  0.17189690600E+04  0.46999998093E+01 0.  1.
</event>
<event>
 5   0  0.5988516E-07  0.3209508E+04  0.7818609E-02  0.8186311E-01
        1   -1    0    0  501    0  0.00000000000E+00  0.00000000000E+00  0.19185832981E+04  0.19185832981E+04  0.50400001928E-02 0. -1.
       -1   -1    0    0    0  501  0.00000000000E+00  0.00000000000E+00 -0.13422591585E+04  0.13422591585E+04  0.50400001928E-02 0.  1.
    10030    2    1    2    0    0  0.00000000000E+00  0.00000000000E+00  0.57632413954E+03  0.32608424566E+04  0.32095083756E+04 0.  0.
        4    1    3    3  502    0  0.80891192385E+03 -0.11759297457E+04  0.10334374864E+04  0.17621418554E+04  0.12699999809E+01 0. -1.
       -4    1    3    3    0  502 -0.80891192385E+03  0.11759297457E+04 -0.45711334691E+03  0.14987006012E+04  0.12699999809E+01 0.  1.
</event>
<event>
 5   0  0.1784626E-06  0.3142585E+04  0.7818609E-02  0.8204147E-01
        2   -1    0    0  501    0  0.00000000000E+00  0.00000000000E+00  0.19244947911E+04  0.19244947911E+04  0.25500000920E-02 0.  1.
       -2   -1    0    0    0  501  0.00000000000E+00  0.00000000000E+00 -0.12829135167E+04  0.12829135167E+04  0.25500000920E-02 0. -1.
    10030    2    1    2    0    0  0.00000000000E+00  0.00000000000E+00  0.64158127442E+03  0.32074083078E+04  0.31425851654E+04 0.  0.
        2    1    3    3  502    0 -0.10193773007E+04  0.25908429174E+03  0.15122197793E+04  0.18420269847E+04  0.25500000920E-02 0.  1.
       -2    1    3    3    0  502  0.10193773007E+04 -0.25908429174E+03 -0.87063850489E+03  0.13653813232E+04  0.25500000920E-02 0. -1.
</event>
<event>
 5   0  0.1832626E-06  0.3287674E+04  0.7818609E-02  0.8166039E-01
       -2   -1    0    0    0  501  0.00000000000E+00  0.00000000000E+00  0.11484501402E+04  0.11484501402E+04  0.25500000920E-02 0.  1.
        2   -1    0    0  501    0  0.00000000000E+00  0.00000000000E+00 -0.23529107537E+04  0.23529107537E+04  0.25500000920E-02 0. -1.
    10030    2    1    2    0    0  0.00000000000E+00  0.00000000000E+00 -0.12044606134E+04  0.35013608939E+04  0.32876743664E+04 0.  0.
        3    1    3    3  502    0 -0.41764856455E+03  0.19493097358E+03  0.10782285885E+04  0.11726062029E+04  0.10100000352E+00 0.  1.
       -3    1    3    3    0  502  0.41764856455E+03 -0.19493097358E+03 -0.22826892019E+04  0.23287546910E+04  0.10100000352E+00 0. -1.
</event>
<event>
 5   0  0.5858859E-07  0.3317337E+04  0.7818609E-02  0.8158498E-01
        1   -1    0    0  501    0  0.00000000000E+00  0.00000000000E+00  0.18402109224E+04  0.18402109224E+04  0.50400001928E-02 0.  1.
       -1   -1    0    0    0  501  0.00000000000E+00  0.00000000000E+00 -0.14950357869E+04  0.14950357869E+04  0.50400001928E-02 0. -1.
    10030    2    1    2    0    0  0.00000000000E+00  0.00000000000E+00  0.34517513555E+03  0.33352467093E+04  0.33173369949E+04 0.  0.
        3    1    3    3  502    0  0.63217601267E+03  0.81829406663E+03  0.14764814997E+04  0.18025674244E+04  0.10100000352E+00 0.  1.
       -3    1    3    3    0  502 -0.63217601267E+03 -0.81829406663E+03 -0.11313063641E+04  0.15326792849E+04  0.10100000352E+00 0. -1.
</event>
<event>
 5   0  0.1832626E-06  0.3284831E+04  0.7818609E-02  0.8166766E-01
       -2   -1    0    0    0  501  0.00000000000E+00  0.00000000000E+00  0.13392205838E+04  0.13392205838E+04  0.25500000920E-02 0. -1.
        2   -1    0    0  501    0  0.00000000000E+00  0.00000000000E+00 -0.20142532638E+04  0.20142532638E+04  0.25500000920E-02 0.  1.
    10030    2    1    2    0    0  0.00000000000E+00  0.00000000000E+00 -0.67503267999E+03  0.33534738477E+04  0.32848314611E+04 0.  0.
        3    1    3    3  502    0  0.79300496234E+03  0.49286478234E+02  0.11299649450E+04  0.13813423958E+04  0.10100000352E+00 0. -1.
       -3    1    3    3    0  502 -0.79300496234E+03 -0.49286478234E+02 -0.18049976250E+04  0.19721314519E+04  0.10100000352E+00 0.  1.
</event>
<event>
 5   0  0.5988516E-07  0.2996113E+04  0.7818609E-02  0.8244842E-01
       -1   -1    0    0    0  501  0.00000000000E+00  0.00000000000E+00  0.10657791947E+04  0.10657791947E+04  0.50400001928E-02 0.  1.
        1   -1    0    0  501    0  0.00000000000E+00  0.00000000000E+00 -0.21056636878E+04  0.21056636878E+04  0.50400001928E-02 0. -1.
    10030    2    1    2    0    0  0.00000000000E+00  0.00000000000E+00 -0.10398844931E+04  0.31714428825E+04  0.29961125142E+04 0.  0.
        4    1    3    3  502    0 -0.21031241277E+03  0.13344018367E+04  0.16549403976E+03  0.13609737187E+04  0.12699999809E+01 0. -1.
       -4    1    3    3    0  502  0.21031241277E+03 -0.13344018367E+04 -0.12053785329E+04  0.18104691638E+04  0.12699999809E+01 0.  1.
</event>
<event>
 5   0  0.1743810E-06  0.3311707E+04  0.7818609E-02  0.8159923E-01
        2   -1    0    0  501    0  0.00000000000E+00  0.00000000000E+00  0.11077429148E+04  0.11077429148E+04  0.25500000920E-02 0. -1.
       -2   -1    0    0    0  501  0.00000000000E+00  0.00000000000E+00 -0.24751693728E+04  0.24751693728E+04  0.25500000920E-02 0.  1.
    10030    2    1    2    0    0  0.00000000000E+00  0.00000000000E+00 -0.13674264580E+04  0.35829122876E+04  0.33117073154E+04 0.  0.
        5    1    3    3  502    0 -0.10565307674E+04 -0.17659583688E+03 -0.20498083828E+04  0.23128294032E+04  0.46999998093E+01 0.  1.
       -5    1    3    3    0  502  0.10565307674E+04  0.17659583688E+03  0.68238192477E+03  0.12700828844E+04  0.46999998093E+01 0. -1.
</event>
<event>
 5   0  0.5858859E-07  0.3207883E+04  0.7818609E-02  0.8186738E-01
       -1   -1    0    0    0  501  0.00000000000E+00  0.00000000000E+00  0.20159458972E+04  0.20159458972E+04  0.50400001928E-02 0.  1.
        1   -1    0    0  501    0  0.00000000000E+00  0.00000000000E+00 -0.12761393579E+04  0.12761393579E+04  0.50400001928E-02 0. -1.
    10030    2    1    2    0    0  0.00000000000E+00  0.00000000000E+00  0.73980653931E+03  0.32920852551E+04  0.32078827303E+04 0.  0.
        3    1    3    3  502    0  0.24199451999E+03 -0.87155339242E+03  0.17292319427E+04  0.19515147413E+04  0.10100000352E+00 0.  1.
       -3    1    3    3    0  502 -0.24199451999E+03  0.87155339242E+03 -0.98942540337E+03  0.13405705138E+04  0.10100000352E+00 0. -1.
</event>
<event>
 5   0  0.1784626E-06  0.3280589E+04  0.7818609E-02  0.8167852E-01
        2   -1    0    0  501    0  0.00000000000E+00  0.00000000000E+00  0.18982031577E+04  0.18982031577E+04  0.25500000920E-02 0. -1.
       -2   -1    0    0    0  501  0.00000000000E+00  0.00000000000E+00 -0.14174277749E+04  0.14174277749E+04  0.25500000920E-02 0.  1.
    10030    2    1    2    0    0  0.00000000000E+00  0.00000000000E+00  0.48077538284E+03  0.33156309327E+04  0.32805888973E+04 0.  0.
        2    1    3    3  502    0  0.17507344999E+03  0.14767066299E+04  0.94006317008E+03  0.17592702883E+04  0.25500000920E-02 0. -1.
       -2    1    3    3    0  502 -0.17507344999E+03 -0.14767066299E+04 -0.45928778724E+03  0.15563606443E+04  0.25500000920E-02 0.  1.
</event>
<event>
 5   0  0.6023446E-07  0.3306163E+04  0.7818609E-02  0.8161329E-01
       -1   -1    0    0    0  501  0.00000000000E+00  0.00000000000E+00  0.20304923965E+04  0.20304923965E+04  0.50400001928E-02 0. -1.
        1   -1    0    0  501    0  0.00000000000E+00  0.00000000000E+00 -0.13458206846E+04  0.13458206846E+04  0.50400001928E-02 0.  1.
    10030    2    1    2    0    0  0.00000000000E+00  0.00000000000E+00  0.68467171190E+03  0.33763130811E+04  0.33061631340E+04 0.  0.
        5    1    3    3  502    0 -0.13387634252E+04  0.93871775534E+03  0.59076282302E+03  0.17385342492E+04  0.46999998093E+01 0.  1.
       -5    1    3    3    0  502  0.13387634252E+04 -0.93871775534E+03  0.93908888876E+02  0.16377788319E+04  0.46999998093E+01 0. -1.
</event>
<event>
 5   0  0.5985183E-07  0.3307736E+04  0.7818609E-02  0.8160930E-01
        1   -1    0    0  501    0  0.00000000000E+00  0.00000000000E+00  0.19104278435E+04  0.19104278435E+04  0.50400001928E-02 0.  1.
       -1   -1    0    0    0  501  0.00000000000E+00  0.00000000000E+00 -0.14317625551E+04  0.14317625551E+04  0.50400001928E-02 0. -1.
    10030    2    1    2    0    0  0.00000000000E+00  0.00000000000E+00  0.47866528839E+03  0.33421903987E+04  0.33077358121E+04 0.  0.
        2    1    3    3  502    0  0.53584399341E+03 -0.61406781171E+03  0.16934446643E+04  0.18793517217E+04  0.25500000920E-02 0.  1.
       -2    1    3    3    0  502 -0.53584399341E+03  0.61406781171E+03 -0.12147793759E+04  0.14628386770E+04  0.25500000920E-02 0. -1.
</event>
<event>
 5   0  0.6023446E-07  0.3347941E+04  0.7818609E-02  0.8150803E-01
       -1   -1    0    0    0  501  0.00000000000E+00  0.00000000000E+00  0.11012844413E+04  0.11012844414E+04  0.50400001928E-02 0.  1.
        1   -1    0    0  501    0  0.00000000000E+00  0.00000000000E+00 -0.25444631987E+04  0.25444631987E+04  0.50400001928E-02 0. -1.
    10030    2    1    2    0    0  0.00000000000E+00  0.00000000000E+00 -0.14431787574E+04  0.36457476401E+04  0.33479412972E+04 0.  0.
        5    1    3    3  502    0  0.48519008688E+03 -0.12488555298E+04  0.37122494676E+03  0.13902804055E+04  0.46999998093E+01 0.  1.
       -5    1    3    3    0  502 -0.48519008688E+03  0.12488555298E+04 -0.18144037041E+04  0.22554672346E+04  0.46999998093E+01 0. -1.
</event>
<event>
 5   0  0.1743810E-06  0.3324664E+04  0.7818609E-02  0.8156648E-01
       -2   -1    0    0    0  501  0.00000000000E+00  0.00000000000E+00  0.22258672525E+04  0.22258672525E+04  0.25500000920E-02 0. -1.
        2   -1    0    0  501    0  0.00000000000E+00  0.00000000000E+00 -0.12414698829E+04  0.12414698829E+04  0.25500000920E-02 0.  1.
    10030    2    1    2    0    0  0.00000000000E+00  0.00000000000E+00  0.98439736959E+03  0.34673371354E+04  0.33246636866E+04 0.  0.
        5    1    3    3  502    0 -0.39832894382E+03  0.16125254445E+04  0.56154115510E+03  0.17533553021E+04  0.46999998093E+01 0.  1.
       -5    1    3    3    0  502  0.39832894382E+03 -0.16125254445E+04  0.42285621449E+03  0.17139818333E+04  0.46999998093E+01 0. -1.
</event>
<event>
 5   0  0.6023446E-07  0.3348609E+04  0.7818609E-02  0.8150636E-01
        1   -1    0    0  501    0  0.00000000000E+00  0.00000000000E+00  0.26685355280E+04  0.26685355280E+04  0.50400001928E-02 0. -1.
       -1   -1    0    0    0  501  0.00000000000E+00  0.00000000000E+00 -0.10504997249E+04  0.10504997249E+04  0.50400001928E-02 0.  1.
    10030    2    1    2    0    0  0.00000000000E+00  0.00000000000E+00  0.16180358031E+04  0.37190352529E+04  0.33486091668E+04 0.  0.
        5    1    3    3  502    0 -0.87809499999E+03  0.39177662195E+03  0.23313117083E+04  0.25218200018E+04  0.46999998093E+01 0. -1.
       -5    1    3    3    0  502  0.87809499999E+03 -0.39177662195E+03 -0.71327590513E+03  0.11972152511E+04  0.46999998093E+01 0.  1.
</event>
<event>
 5   0  0.1728937E-06  0.3312088E+04  0.7818609E-02  0.8159826E-01
       -2   -1    0    0    0  501  0.00000000000E+00  0.00000000000E+00  0.12815563875E+04  0.12815563875E+04  0.25500000920E-02 0.  1.
        2   -1    0    0  501    0  0.00000000000E+00  0.00000000000E+00 -0.21399623528E+04  0.21399623528E+04  0.25500000920E-02 0. -1.
    10030    2    1    2    0    0  0.00000000000E+00  0.00000000000E+00 -0.85840596533E+03  0.34215187403E+04  0.33120884180E+04 0.  0.
        1    1    3    3  502    0 -0.12553758394E+04 -0.10324570355E+04 -0.75677006353E+03  0.17929408684E+04  0.50400001928E-02 0. -1.
       -1    1    3    3    0  502  0.12553758394E+04  0.10324570355E+04 -0.10163590180E+03  0.16285778719E+04  0.50400001928E-02 0.  1.
</event>
<event>
 5   0  0.1743810E-06  0.3379280E+04  0.7818609E-02  0.8143011E-01
       -2   -1    0    0    0  501  0.00000000000E+00  0.00000000000E+00  0.16299942013E+04  0.16299942013E+04  0.25500000920E-02 0.  1.
        2   -1    0    0  501    0  0.00000000000E+00  0.00000000000E+00 -0.17514680212E+04  0.17514680212E+04  0.25500000920E-02 0. -1.
    10030    2    1    2    0    0  0.00000000000E+00  0.00000000000E+00 -0.12147381991E+03  0.33814622225E+04  0.33792796382E+04 0.  0.
        5    1    3    3  502    0 -0.60898663481E+03  0.10979325964E+04  0.10707187905E+04  0.16500853087E+04  0.46999998093E+01 0.  1.
       -5    1    3    3    0  502  0.60898663481E+03 -0.10979325964E+04 -0.11921926104E+04  0.17313769139E+04  0.46999998093E+01 0. -1.
</event>
<event>
 5   0  0.1743810E-06  0.3218258E+04  0.7818609E-02  0.8184012E-01
        2   -1    0    0  501    0  0.00000000000E+00  0.00000000000E+00  0.18410198826E+04  0.18410198826E+04  0.25500000920E-02 0. -1.
       -2   -1    0    0    0  501  0.00000000000E+00  0.00000000000E+00 -0.14064466440E+04  0.14064466440E+04  0.25500000920E-02 0.  1.
    10030    2    1    2    0    0  0.00000000000E+00  0.00000000000E+00  0.43457323852E+03  0.32474665266E+04  0.32182580602E+04 0.  0.
        5    1    3    3  502    0 -0.98073928233E+02  0.14920529473E+04 -0.38261186844E+03  0.15434553524E+04  0.46999998093E+01 0. -1.
       -5    1    3    3    0  502  0.98073928233E+02 -0.14920529473E+04  0.81718510695E+03  0.17040111742E+04  0.46999998093E+01 0.  1.
</event>
<event>
 5   0  0.6023446E-07  0.3310016E+04  0.7818609E-02  0.8160352E-01
        1   -1    0    0  501    0  0.00000000000E+00  0.00000000000E+00  0.17601562741E+04  0.17601562741E+04  0.50400001928E-02 0.  1.
       -1   -1    0    0    0  501  0.00000000000E+00  0.00000000000E+00 -0.15561408664E+04  0.15561408664E+04  0.50400001928E-02 0. -1.
    10030    2    1    2    0    0  0.00000000000E+00  0.00000000000E+00  0.20401540775E+03  0.33162971405E+04  0.33100157760E+04 0.  0.
        5    1    3    3  502    0  0.50487427073E+03  0.79967338474E+03 -0.12587498977E+04  0.15744360725E+04  0.46999998093E+01 0. -1.
       -5    1    3    3    0  502 -0.50487427073E+03 -0.79967338474E+03  0.14627653054E+04  0.17418610680E+04  0.46999998093E+01 0.  1.
</event>
<event>
 5   0  0.6023446E-07  0.3143360E+04  0.7818609E-02  0.8203938E-01
        1   -1    0    0  501    0  0.00000000000E+00  0.00000000000E+00  0.22246093459E+04  0.22246093460E+04  0.50400001928E-02 0.  1.
       -1   -1    0    0    0  501  0.00000000000E+00  0.00000000000E+00 -0.11103870733E+04  0.11103870733E+04  0.50400001928E-02 0. -1.
    10030    2    1    2    0    0  0.00000000000E+00  0.00000000000E+00  0.11142222726E+04  0.33349964193E+04  0.31433596428E+04 0.  0.
        5    1    3    3  502    0  0.63542419801E+03 -0.86745911130E+03 -0.65902857963E+03  0.12611859419E+04  0.46999998093E+01 0. -1.
       -5    1    3    3    0  502 -0.63542419801E+03  0.86745911130E+03  0.17732508523E+04  0.20738104774E+04  0.46999998093E+01 0.  1.
</event>
<event>
 5   0  0.1743810E-06  0.3347964E+04  0.7818609E-02  0.8150797E-01
       -2   -1    0    0    0  501  0.00000000000E+00  0.00000000000E+00  0.17450663717E+04  0.17450663717E+04  0.25500000920E-02 0.  1.
        2   -1    0    0  501    0  0.00000000000E+00  0.00000000000E+00 -0.16057935236E+04  0.16057935236E+04  0.25500000920E-02 0. -1.
    10030    2    1    2    0    0  0.00000000000E+00  0.00000000000E+00  0.13927284811E+03  0.33508598954E+04  0.33479643236E+04 0.  0.
        5    1    3    3  502    0  0.27245998254E+01  0.15102253806E+04  0.79234546429E+03  0.17054681318E+04  0.46999998093E+01 0.  1.
       -5    1    3    3    0  502 -0.27245998254E+01 -0.15102253806E+04 -0.65307261618E+03  0.16453917636E+04  0.46999998093E+01 0. -1.
</event>
<event>
 5   0  0.5988516E-07  0.3125901E+04  0.7818609E-02  0.8208665E-01
       -1   -1    0    0    0  501  0.00000000000E+00  0.00000000000E+00  0.14134181244E+04  0.14134181244E+04  0.50400001928E-02 0.  1.
        1   -1    0    0  501    0  0.00000000000E+00  0.00000000000E+00 -0.17283021534E+04  0.17283021535E+04  0.50400001928E-02 0. -1.
    10030    2    1    2    0    0  0.00000000000E+00  0.00000000000E+00 -0.31488402903E+03  0.31417202779E+04  0.31259005667E+04 0.  0.
        4    1    3    3  502    0 -0.90562661335E+02  0.17385406715E+03  0.14010133700E+04  0.14146614111E+04  0.12699999809E+01 0.  1.
       -4    1    3    3    0  502  0.90562661335E+02 -0.17385406715E+03 -0.17158973990E+04  0.17270588667E+04  0.12699999809E+01 0. -1.
</event>
<event>
 5   0  0.1728937E-06  0.3308739E+04  0.7818609E-02  0.8160675E-01
        2   -1    0    0  501    0  0.00000000000E+00  0.00000000000E+00  0.22740990073E+04  0.22740990073E+04  0.25500000920E-02 0. -1.
       -2   -1    0    0    0  501  0.00000000000E+00  0.00000000000E+00 -0.12035262664E+04  0.12035262665E+04  0.25500000920E-02 0.  1.
    10030    2    1    2    0    0  0.00000000000E+00  0.00000000000E+00  0.10705727409E+04  0.34776252738E+04  0.33087386647E+04 0.  0.
        1    1    3    3  502    0  0.10274054546E+04 -0.12583996650E+04  0.86398925583E+03  0.18400024780E+04  0.50400001928E-02 0.  1.
       -1    1    3    3    0  502 -0.10274054546E+04  0.12583996650E+04  0.20658348504E+03  0.16376227958E+04  0.50400001928E-02 0. -1.
</event>
<event>
 5   0  0.6023446E-07  0.3295455E+04  0.7818609E-02  0.8164053E-01
       -1   -1    0    0    0  501  0.00000000000E+00  0.00000000000E+00  0.95563398954E+03  0.95563398956E+03  0.50400001928E-02 0. -1.
        1   -1    0    0  501    0  0.00000000000E+00  0.00000000000E+00 -0.28410518613E+04  0.28410518613E+04  0.50400001928E-02 0.  1.
    10030    2    1    2    0    0  0.00000000000E+00  0.00000000000E+00 -0.18854178718E+04  0.37966858509E+04  0.32954548850E+04 0.  0.
        5    1    3    3  502    0 -0.70432651641E+03  0.53539060682E+03 -0.25441929292E+04  0.26936329918E+04  0.46999998093E+01 0.  1.
       -5    1    3    3    0  502  0.70432651641E+03 -0.53539060682E+03  0.65877505744E+03  0.11030528591E+04  0.46999998093E+01 0. -1.
</event>
<event>
 5   0  0.6085351E-07  0.3281807E+04  0.7818609E-02  0.8167540E-01
       -1   -1    0    0    0  501  0.00000000000E+00  0.00000000000E+00  0.17079685165E+04  0.17079685165E+04  0.50400001928E-02 0. -1.
        1   -1    0    0  501    0  0.00000000000E+00  0.00000000000E+00 -0.15764721534E+04  0.15764721534E+04  0.50400001928E-02 0.  1.
    10030    2    1    2    0    0  0.00000000000E+00  0.00000000000E+00  0.13149636309E+03  0.32844406699E+04  0.32818073101E+04 0.  0.
        1    1    3    3  502    0 -0.10948964064E+04 -0.12095724593E+04  0.24110615763E+03  0.16492409934E+04  0.50400001928E-02 0. -1.
       -1    1    3    3    0  502  0.10948964064E+04  0.12095724593E+04 -0.10960979454E+03  0.16351996765E+04  0.50400001928E-02 0.  1.
</event>
<event>
 5   0  0.6085351E-07  0.3307984E+04  0.7818609E-02  0.8160867E-01
        1   -1    0    0  501    0  0.00000000000E+00  0.00000000000E+00  0.17117961184E+04  0.17117961184E+04  0.50400001928E-02 0.  1.
       -1   -1    0    0    0  501  0.00000000000E+00  0.00000000000E+00 -0.15981395793E+04  0.15981395793E+04  0.50400001928E-02 0. -1.
    10030    2    1    2    0    0  0.00000000000E+00  0.00000000000E+00  0.11365653912E+03  0.33099356978E+04  0.33079837537E+04 0.  0.
        1    1    3    3  502    0 -0.32993123289E+03  0.12286956679E+04 -0.10007445362E+04  0.16186529244E+04  0.50400001928E-02 0. -1.
       -1    1    3    3    0  502  0.32993123289E+03 -0.12286956679E+04  0.11144010753E+04  0.16912827734E+04  0.50400001928E-02 0.  1.
</event>
<event>
 5   0  0.5988516E-07  0.3174385E+04  0.7818609E-02  0.8195615E-01
        1   -1    0    0  501    0  0.00000000000E+00  0.00000000000E+00  0.17169190121E+04  0.17169190121E+04  0.50400001928E-02 0. -1.
       -1   -1    0    0    0  501  0.00000000000E+00  0.00000000000E+00 -0.14672676066E+04  0.14672676066E+04  0.50400001928E-02 0.  1.
    10030    2    1    2    0    0  0.00000000000E+00  0.00000000000E+00  0.24965140545E+03  0.31841866187E+04  0.31743847590E+04 0.  0.
        4    1    3    3  502    0  0.80855477173E+03  0.39451575451E+02  0.14942741370E+04  0.16994628725E+04  0.12699999809E+01 0. -1.
       -4    1    3    3    0  502 -0.80855477173E+03 -0.39451575451E+02 -0.12446227315E+04  0.14847237462E+04  0.12699999809E+01 0.  1.
</event>
<event>
 5   0  0.1696681E-06  0.3299303E+04  0.7818609E-02  0.8163073E-01
        2   -1    0    0  501    0  0.00000000000E+00  0.00000000000E+00  0.20640653436E+04  0.20640653436E+04  0.25500000920E-02 0. -1.
       -2   -1    0    0    0  501  0.00000000000E+00  0.00000000000E+00 -0.13184419914E+04  0.13184419914E+04  0.25500000920E-02 0.  1.
    10030    2    1    2    0    0  0.00000000000E+00  0.00000000000E+00  0.74562335211E+03  0.33825073350E+04  0.32993032125E+04 0.  0.
        4    1    3    3  502    0  0.53893194204E+03 -0.14287541458E+04  0.10127015464E+04  0.18323078569E+04  0.12699999809E+01 0. -1.
       -4    1    3    3    0  502 -0.53893194204E+03  0.14287541458E+04 -0.26707819429E+03  0.15501994782E+04  0.12699999809E+01 0.  1.
</event>
<event>
 5   0  0.1728937E-06  0.3220219E+04  0.7818609E-02  0.8183498E-01
        2   -1    0    0  501    0  0.00000000000E+00  0.00000000000E+00  0.11523488571E+04  0.11523488571E+04  0.25500000920E-02 0.  1.
       -2   -1    0    0    0  501  0.00000000000E+00  0.00000000000E+00 -0.22497109999E+04  0.22497109999E+04  0.25500000920E-02 0. -1.
    10030    2    1    2    0    0  0.00000000000E+00  0.00000000000E+00 -0.10973621428E+04  0.34020598570E+04  0.32202185637E+04 0.  0.
        1    1    3    3  502    0  0.72892252172E+03 -0.12184100304E+04  0.25354032692E+03  0.14422668762E+04  0.50400001928E-02 0.  1.
       -1    1    3    3    0  502 -0.72892252172E+03  0.12184100304E+04 -0.13509024697E+04  0.19597929808E+04  0.50400001928E-02 0. -1.
</event>
<event>
 5   0  0.5988516E-07  0.3269890E+04  0.7818609E-02  0.8170599E-01
       -1   -1    0    0    0  501  0.00000000000E+00  0.00000000000E+00  0.10875694661E+04  0.10875694661E+04  0.50400001928E-02 0.  1.
        1   -1    0    0  501    0  0.00000000000E+00  0.00000000000E+00 -0.24578161728E+04  0.24578161728E+04  0.50400001928E-02 0. -1.
    10030    2    1    2    0    0  0.00000000000E+00  0.00000000000E+00 -0.13702467067E+04  0.35453856389E+04  0.32698904097E+04 0.  0.
        4    1    3    3  502    0  0.13080436326E+04 -0.57971731440E+03  0.17273450610E+03  0.14411416071E+04  0.12699999809E+01 0.  1.
       -4    1    3    3    0  502 -0.13080436326E+04  0.57971731440E+03 -0.15429812128E+04  0.21042440317E+04  0.12699999809E+01 0. -1.
</event>
<event>
 5   0  0.1743810E-06  0.3287733E+04  0.7818609E-02  0.8166024E-01
       -2   -1    0    0    0  501  0.00000000000E+00  0.00000000000E+00  0.17088838084E+04  0.17088838084E+04  0.25500000920E-02 0. -1.
        2   -1    0    0  501    0  0.00000000000E+00  0.00000000000E+00 -0.15813225153E+04  0.15813225153E+04  0.25500000920E-02 0.  1.
    10030    2    1    2    0    0  0.00000000000E+00  0.00000000000E+00  0.12756129313E+03  0.32902063237E+04  0.32877326182E+04 0.  0.
        5    1    3    3  502    0 -0.70669922199E+03  0.12543809626E+04 -0.73015034170E+03  0.16143224589E+04  0.46999998093E+01 0.  1.
       -5    1    3    3    0  502  0.70669922199E+03 -0.12543809626E+04  0.85771163483E+03  0.16758838648E+04  0.46999998093E+01 0. -1.
</event>
<event>
 5   0  0.1832626E-06  0.3330645E+04  0.7818609E-02  0.8155141E-01
       -2   -1    0    0    0  501  0.00000000000E+00  0.00000000000E+00  0.11651023310E+04  0.11651023310E+04  0.25500000920E-02 0.  1.
        2   -1    0    0  501    0  0.00000000000E+00  0.00000000000E+00 -0.23803057763E+04  0.23803057763E+04  0.25500000920E-02 0. -1.
    10030    2    1    2    0    0  0.00000000000E+00  0.00000000000E+00 -0.12152034453E+04  0.35454081073E+04  0.33306454681E+04 0.  0.
        3    1    3    3  502    0 -0.39964227919E+03 -0.81076645013E+03  0.88124262045E+03  0.12623964331E+04  0.10100000352E+00 0.  1.
       -3    1    3    3    0  502  0.39964227919E+03  0.81076645013E+03 -0.20964460657E+04  0.22830116742E+04  0.10100000352E+00 0. -1.
</event>
<event>
 5   0  0.1696681E-06  0.3314860E+04  0.7818609E-02  0.8159125E-01
       -2   -1    0    0    0  501  0.00000000000E+00  0.00000000000E+00  0.16109783617E+04  0.16109783617E+04  0.25500000920E-02 0.  1.
        2   -1    0    0  501    0  0.00000000000E+00  0.00000000000E+00 -0.17052205753E+04  0.17052205753E+04  0.25500000920E-02 0. -1.
    10030    2    1    2    0    0  0.00000000000E+00  0.00000000000E+00 -0.94242213640E+02  0.33161989370E+04  0.33148595437E+04 0.  0.
        4    1    3    3  502    0 -0.59000381493E+03 -0.88649254130E+03 -0.13177123629E+04  0.16942080780E+04  0.12699999809E+01 0. -1.
       -4    1    3    3    0  502  0.59000381493E+03  0.88649254130E+03  0.12234701493E+04  0.16219908589E+04  0.12699999809E+01 0.  1.
</event>
<event>
 5   0  0.1784626E-06  0.3312807E+04  0.7818609E-02  0.8159644E-01
       -2   -1    0    0    0  501  0.00000000000E+00  0.00000000000E+00  0.15241394968E+04  0.15241394968E+04  0.25500000920E-02 0. -1.
        2   -1    0    0  501    0  0.00000000000E+00  0.00000000000E+00 -0.18001455006E+04  0.18001455006E+04  0.25500000920E-02 0.  1.
    10030    2    1    2    0    0  0.00000000000E+00  0.00000000000E+00 -0.27600600377E+03  0.33242849974E+04  0.33128071827E+04 0.  0.
        2    1    3    3  502    0 -0.11010380425E+04  0.54468889115E+03  0.97701834926E+03  0.15695654220E+04  0.25500000920E-02 0. -1.
       -2    1    3    3    0  502  0.11010380425E+04 -0.54468889115E+03 -0.12530243530E+04  0.17547195754E+04  0.25500000920E-02 0.  1.
</event>
<event>
 5   0  0.1784626E-06  0.3298843E+04  0.7818609E-02  0.8163190E-01
        2   -1    0    0  501    0  0.00000000000E+00  0.00000000000E+00  0.15868215308E+04  0.15868215308E+04  0.25500000920E-02 0. -1.
       -2   -1    0    0    0  501  0.00000000000E+00  0.00000000000E+00 -0.17144906042E+04  0.17144906042E+04  0.25500000920E-02 0.  1.
    10030    2    1    2    0    0  0.00000000000E+00  0.00000000000E+00 -0.12766907336E+03  0.33013121350E+04  0.32988425880E+04 0.  0.
        2    1    3    3  502    0  0.10511319037E+04 -0.28760166963E+02 -0.13355671826E+04  0.16998367938E+04  0.25500000920E-02 0.  1.
       -2    1    3    3    0  502 -0.10511319037E+04  0.28760166963E+02  0.12078981093E+04  0.16014753412E+04  0.25500000920E-02 0. -1.
</event>
<event>
 5   0  0.1784626E-06  0.3293311E+04  0.7818609E-02  0.8164600E-01
       -2   -1    0    0    0  501  0.00000000000E+00  0.00000000000E+00  0.18430811390E+04  0.18430811390E+04  0.25500000920E-02 0. -1.
        2   -1    0    0  501    0  0.00000000000E+00  0.00000000000E+00 -0.14711635320E+04  0.14711635320E+04  0.25500000920E-02 0.  1.
    10030    2    1    2    0    0  0.00000000000E+00  0.00000000000E+00  0.37191760695E+03  0.33142446710E+04  0.32933106493E+04 0.  0.
        2    1    3    3  502    0 -0.72042887319E+03 -0.34108250790E+03 -0.12640744445E+04  0.14944026364E+04  0.25500000920E-02 0.  1.
       -2    1    3    3    0  502  0.72042887319E+03  0.34108250790E+03  0.16359920514E+04  0.18198420346E+04  0.25500000920E-02 0. -1.
</event>
<event>
 5   0  0.1832626E-06  0.2660537E+04  0.7818609E-02  0.8347924E-01
        2   -1    0    0  501    0  0.00000000000E+00  0.00000000000E+00  0.12310406652E+04  0.12310406652E+04  0.25500000920E-02 0. -1.
       -2   -1    0    0    0  501  0.00000000000E+00  0.00000000000E+00 -0.14374948481E+04  0.14374948481E+04  0.25500000920E-02 0.  1.
    10030    2    1    2    0    0  0.00000000000E+00  0.00000000000E+00 -0.20645418297E+03  0.26685355133E+04  0.26605372495E+04 0.  0.
        3    1    3    3  502    0  0.63591860259E+03 -0.74444266106E+03  0.80005077533E+03  0.12643846717E+04  0.10100000352E+00 0.  1.
       -3    1    3    3    0  502 -0.63591860259E+03  0.74444266106E+03 -0.10065049583E+04  0.14041508416E+04  0.10100000352E+00 0. -1.
</event>
<event>
 5   0  0.1696681E-06  0.3279488E+04  0.7818609E-02  0.8168134E-01
       -2   -1    0    0    0  501  0.00000000000E+00  0.00000000000E+00  0.22704583852E+04  0.22704583852E+04  0.25500000920E-02 0. -1.
        2   -1    0    0  501    0  0.00000000000E+00  0.00000000000E+00 -0.11842365229E+04  0.11842365229E+04  0.25500000920E-02 0.  1.
    10030    2    1    2    0    0  0.00000000000E+00  0.00000000000E+00  0.10862218623E+04  0.34546949080E+04  0.32794876084E+04 0.  0.
        4    1    3    3  502    0  0.10237344415E+04  0.90198898913E+03  0.15011730892E+04  0.20285804396E+04  0.12699999809E+01 0. -1.
       -4    1    3    3    0  502 -0.10237344415E+04 -0.90198898913E+03 -0.41495122694E+03  0.14261144684E+04  0.12699999809E+01 0.  1.
</event>
<event>
 5   0  0.1728937E-06  0.3291905E+04  0.7818609E-02  0.8164958E-01
        2   -1    0    0  501    0  0.00000000000E+00  0.00000000000E+00  0.21855426775E+04  0.21855426775E+04  0.25500000920E-02 0. -1.
       -2   -1    0    0    0  501  0.00000000000E+00  0.00000000000E+00 -0.12395822719E+04  0.12395822719E+04  0.25500000920E-02 0.  1.
    10030    2    1    2    0    0  0.00000000000E+00  0.00000000000E+00  0.94596040559E+03  0.34251249493E+04  0.32919051975E+04 0.  0.
        1    1    3    3  502    0  0.12993352976E+04 -0.44455188356E+03  0.14170366597E+04  0.19732945770E+04  0.50400001928E-02 0. -1.
       -1    1    3    3    0  502 -0.12993352976E+04  0.44455188356E+03 -0.47107625413E+03  0.14518303723E+04  0.50400001928E-02 0.  1.
</event>
<event>
 5   0  0.6085351E-07  0.3307896E+04  0.7818609E-02  0.8160889E-01
        1   -1    0    0  501    0  0.00000000000E+00  0.00000000000E+00  0.20221632103E+04  0.20221632103E+04  0.50400001928E-02 0.  1.
       -1   -1    0    0    0  501  0.00000000000E+00  0.00000000000E+00 -0.13527809973E+04  0.13527809973E+04  0.50400001928E-02 0. -1.
    10030    2    1    2    0    0  0.00000000000E+00  0.00000000000E+00  0.66938221302E+03  0.33749442076E+04  0.33078959865E+04 0.  0.
        1    1    3    3  502    0  0.14405970753E+04 -0.48299829965E+03  0.10013389576E+04  0.18196942048E+04  0.50400001928E-02 0. -1.
       -1    1    3    3    0  502 -0.14405970753E+04  0.48299829965E+03 -0.33195674460E+03  0.15552500028E+04  0.50400001928E-02 0.  1.
</event>
<event>
 5   0  0.5858859E-07  0.3285382E+04  0.7818609E-02  0.8166625E-01
       -1   -1    0    0    0  501  0.00000000000E+00  0.00000000000E+00  0.25399041859E+04  0.25399041859E+04  0.50400001928E-02 0.  1.
        1   -1    0    0  501    0  0.00000000000E+00  0.00000000000E+00 -0.10624153260E+04  0.10624153260E+04  0.50400001928E-02 0. -1.
    10030    2    1    2    0    0  0.00000000000E+00  0.00000000000E+00  0.14774888600E+04  0.36023195119E+04  0.32853816421E+04 0.  0.
        3    1    3    3  502    0 -0.10657361587E+04 -0.12035726012E+04  0.36844851808E+03  0.16492831434E+04  0.10100000352E+00 0.  1.
       -3    1    3    3    0  502  0.10657361587E+04  0.12035726012E+04  0.11090403419E+04  0.19530363685E+04  0.10100000352E+00 0. -1.
</event>
<event>
 5   0  0.6085351E-07  0.3284747E+04  0.7818609E-02  0.8166787E-01
       -1   -1    0    0    0  501  0.00000000000E+00  0.00000000000E+00  0.11712223723E+04  0.11712223723E+04  0.50400001928E-02 0. -1.
        1   -1    0    0  501    0  0.00000000000E+00  0.00000000000E+00 -0.23030555544E+04  0.23030555544E+04  0.50400001928E-02 0.  1.
    10030    2    1    2    0    0  0.00000000000E+00  0.00000000000E+00 -0.11318331821E+04  0.34742779267E+04  0.32847466813E+04 0.  0.
        1    1    3    3  502    0 -0.72746420983E+03  0.14723139949E+04 -0.54280362422E+03  0.17296093347E+04  0.50400001928E-02 0. -1.
       -1    1    3    3    0  502  0.72746420983E+03 -0.14723139949E+04 -0.58902955784E+03  0.17446685921E+04  0.50400001928E-02 0.  1.
</event>
<event>
 5   0  0.1696681E-06  0.3277496E+04  0.7818609E-02  0.8168645E-01
        2   -1    0    0  501    0  0.00000000000E+00  0.00000000000E+00  0.17272054812E+04  0.17272054812E+04  0.25500000920E-02 0. -1.
       -2   -1    0    0    0  501  0.00000000000E+00  0.00000000000E+00 -0.15548208427E+04  0.15548208427E+04  0.25500000920E-02 0.  1.
    10030    2    1    2    0    0  0.00000000000E+00  0.00000000000E+00  0.17238463852E+03  0.32820263240E+04  0.32774960454E+04 0.  0.
        4    1    3    3  502    0 -0.50155229425E+03 -0.98655988934E+03  0.12964315681E+04  0.17045795794E+04  0.12699999809E+01 0. -1.
       -4    1    3    3    0  502  0.50155229425E+03  0.98655988934E+03 -0.11240469295E+04  0.15774467445E+04  0.12699999809E+01 0.  1.
</event>
<event>
 5   0  0.1784626E-06  0.3329587E+04  0.7818609E-02  0.8155407E-01
        2   -1    0    0  501    0  0.00000000000E+00  0.00000000000E+00  0.27147332211E+04  0.27147332212E+04  0.25500000920E-02 0. -1.
       -2   -1    0    0    0  501  0.00000000000E+00  0.00000000000E+00 -0.10209245829E+04  0.10209245829E+04  0.25500000920E-02 0.  1.
    10030    2    1    2    0    0  0.00000000000E+00  0.00000000000E+00  0.16938086382E+04  0.37356578041E+04  0.33295872906E+04 0.  0.
        2    1    3    3  502    0  0.10380455102E+04  0.35834085845E+03  0.22507386911E+04  0.25043504762E+04  0.25500000920E-02 0. -1.
       -2    1    3    3    0  502 -0.10380455102E+04 -0.35834085845E+03 -0.55693005281E+03  0.12313073279E+04  0.25500000920E-02 0.  1.
</event>
<event>
 5   0  0.1784626E-06  0.3286803E+04  0.7818609E-02  0.8166262E-01
        2   -1    0    0  501    0  0.00000000000E+00  0.00000000000E+00  0.20291435618E+04  0.20291435618E+04  0.25500000920E-02 0. -1.
       -2   -1    0    0    0  501  0.00000000000E+00  0.00000000000E+00 -0.13309892588E+04  0.13309892588E+04  0.25500000920E-02 0.  1.
    10030    2    1    2    0    0  0.00000000000E+00  0.00000000000E+00  0.69815430300E+03  0.33601328205E+04  0.32868028753E+04 0.  0.
        2    1    3    3  502    0 -0.75725010591E+03  0.13867507331E+04 -0.11296075140E+03  0.15840661129E+04  0.25500000920E-02 0.  1.
       -2    1    3    3    0  502  0.75725010591E+03 -0.13867507331E+04  0.81111505440E+03  0.17760667077E+04  0.25500000920E-02 0. -1.
</event>
<event>
 5   0  0.1728937E-06  0.2827444E+04  0.7818609E-02  0.8294799E-01
       -2   -1    0    0    0  501  0.00000000000E+00  0.00000000000E+00  0.10319857433E+04  0.10319857433E+04  0.25500000920E-02 0. -1.
        2   -1    0    0  501    0  0.00000000000E+00  0.00000000000E+00 -0.19366637025E+04  0.19366637025E+04  0.25500000920E-02 0.  1.
    10030    2    1    2    0    0  0.00000000000E+00  0.00000000000E+00 -0.90467795922E+03  0.29686494458E+04  0.28274436020E+04 0.  0.
        1    1    3    3  502    0  0.80060045314E+03 -0.89027647178E+03  0.33690400448E+03  0.12438076982E+04  0.50400001928E-02 0. -1.
       -1    1    3    3    0  502 -0.80060045314E+03  0.89027647178E+03 -0.12415819637E+04  0.17248417476E+04  0.50400001928E-02 0.  1.
</event>
<event>
 5   0  0.1743810E-06  0.3235810E+04  0.7818609E-02  0.8179423E-01
       -2   -1    0    0    0  501  0.00000000000E+00  0.00000000000E+00  0.24035164429E+04  0.24035164429E+04  0.25500000920E-02 0. -1.
        2   -1    0    0  501    0  0.00000000000E+00  0.00000000000E+00 -0.10890779985E+04  0.10890779985E+04  0.25500000920E-02 0.  1.
    10030    2    1    2    0    0  0.00000000000E+00  0.00000000000E+00  0.13144384444E+04  0.34925944413E+04  0.32358101779E+04 0.  0.
        5    1    3    3  502    0  0.15502123311E+04  0.22041149701E+03  0.21764746353E+03  0.15808643230E+04  0.46999998093E+01 0.  1.
       -5    1    3    3    0  502 -0.15502123311E+04 -0.22041149701E+03  0.10967909809E+04  0.19117301183E+04  0.46999998093E+01 0. -1.
</event>
<event>
 5   0  0.5985183E-07  0.3306647E+04  0.7818609E-02  0.8161206E-01
       -1   -1    0    0    0  501  0.00000000000E+00  0.00000000000E+00  0.13073854835E+04  0.13073854835E+04  0.50400001928E-02 0.  1.
        1   -1    0    0  501    0  0.00000000000E+00  0.00000000000E+00 -0.20907977552E+04  0.20907977552E+04  0.50400001928E-02 0. -1.
    10030    2    1    2    0    0  0.00000000000E+00  0.00000000000E+00 -0.78341227170E+03  0.33981832387E+04  0.33066470232E+04 0.  0.
        2    1    3    3  502    0 -0.44901112733E+03 -0.51520848715E+03 -0.19388471727E+04  0.20557672866E+04  0.25500000920E-02 0. -1.
       -2    1    3    3    0  502  0.44901112733E+03  0.51520848715E+03  0.11554349010E+04  0.13424159520E+04  0.25500000920E-02 0.  1.
</event>
<event>
 5   0  0.5858859E-07  0.3102864E+04  0.7818609E-02  0.8214952E-01
        1   -1    0    0  501    0  0.00000000000E+00  0.00000000000E+00  0.17904624984E+04  0.17904624984E+04  0.50400001928E-02 0. -1.
       -1   -1    0    0    0  501  0.00000000000E+00  0.00000000000E+00 -0.13443129443E+04  0.13443129443E+04  0.50400001928E-02 0.  1.
    10030    2    1    2    0    0  0.00000000000E+00  0.00000000000E+00  0.44614955415E+03  0.31347754427E+04  0.31028644268E+04 0.  0.
        3    1    3    3  502    0  0.33451790302E+03 -0.12041722610E+04  0.11517722461E+04  0.16995624079E+04  0.10100000352E+00 0. -1.
       -3    1    3    3    0  502 -0.33451790302E+03  0.12041722610E+04 -0.70562269192E+03  0.14352130347E+04  0.10100000352E+00 0.  1.
</event>
<event>
 5   0  0.6085351E-07  0.3081555E+04  0.7818609E-02  0.8220818E-01
        1   -1    0    0  501    0  0.00000000000E+00  0.00000000000E+00  0.11651740586E+04  0.11651740586E+04  0.50400001928E-02 0. -1.
       -1   -1    0    0    0  501  0.00000000000E+00  0.00000000000E+00 -0.20374595605E+04  0.20374595605E+04  0.50400001928E-02 0.  1.
    10030    2    1    2    0    0  0.00000000000E+00  0.00000000000E+00 -0.87228550191E+03  0.32026336192E+04  0.30815548189E+04 0.  0.
        1    1    3    3  502    0  0.14393897381E+04 -0.54867753765E+03 -0.47069301020E+03  0.16107270931E+04  0.50400001928E-02 0.  1.
       -1    1    3    3    0  502 -0.14393897381E+04  0.54867753765E+03 -0.40159249171E+03  0.15919065261E+04  0.50400001928E-02 0. -1.
</event>
<event>
 5   0  0.5985183E-07  0.3573716E+04  0.7818609E-02  0.8096539E-01
        1   -1    0    0  501    0  0.00000000000E+00  0.00000000000E+00  0.23242258611E+04  0.23242258611E+04  0.50400001928E-02 0. -1.
       -1   -1    0    0    0  501  0.00000000000E+00  0.00000000000E+00 -0.13737313830E+04  0.13737313830E+04  0.50400001928E-02 0.  1.
    10030    2    1    2    0    0  0.00000000000E+00  0.00000000000E+00  0.95049447809E+03  0.36979572440E+04  0.35737162766E+04 0.  0.
        2    1    3    3  502    0  0.13410790168E+03  0.14683288411E+04  0.15197387885E+04  0.21174466936E+04  0.25500000920E-02 0. -1.
       -2    1    3    3    0  502 -0.13410790168E+03 -0.14683288411E+04 -0.56924431042E+03  0.15805105504E+04  0.25500000920E-02 0.  1.
</event>
<event>
 5   0  0.1832626E-06  0.3319465E+04  0.7818609E-02  0.8157960E-01
        2   -1    0    0  501    0  0.00000000000E+00  0.00000000000E+00  0.23902948136E+04  0.23902948136E+04  0.25500000920E-02 0.  1.
       -2   -1    0    0    0  501  0.00000000000E+00  0.00000000000E+00 -0.11524570757E+04  0.11524570757E+04  0.25500000920E-02 0. -1.
    10030    2    1    2    0    0  0.00000000000E+00  0.00000000000E+00  0.12378377380E+04  0.35427518893E+04  0.33194651201E+04 0.  0.
        3    1    3    3  502    0 -0.13413749460E+04  0.73417090908E+03 -0.69793102039E+02  0.15307399377E+04  0.10100000352E+00 0. -1.
       -3    1    3    3    0  502  0.13413749460E+04 -0.73417090908E+03  0.13076308400E+04  0.20120119516E+04  0.10100000352E+00 0.  1.
</event>
<event>
 5   0  0.5985183E-07  0.3307013E+04  0.7818609E-02  0.8161113E-01
       -1   -1    0    0    0  501  0.00000000000E+00  0.00000000000E+00  0.23475646586E+04  0.23475646586E+04  0.50400001928E-02 0.  1.
        1   -1    0    0  501    0  0.00000000000E+00  0.00000000000E+00 -0.11646470321E+04  0.11646470322E+04  0.50400001928E-02 0. -1.
    10030    2    1    2    0    0  0.00000000000E+00  0.00000000000E+00  0.11829176265E+04  0.35122116908E+04  0.33070132824E+04 0.  0.
        2    1    3    3  502    0 -0.15595808478E+03  0.93886555627E+03  0.20275023746E+04  0.22397672504E+04  0.25500000920E-02 0.  1.
       -2    1    3    3    0  502  0.15595808478E+03 -0.93886555627E+03 -0.84458474814E+03  0.12724444403E+04  0.25500000920E-02 0. -1.
</event>
<event>
 5   0  0.1743810E-06  0.3300797E+04  0.7818609E-02  0.8162693E-01
        2   -1    0    0  501    0  0.00000000000E+00  0.00000000000E+00  0.16540707297E+04  0.16540707297E+04  0.25500000920E-02 0. -1.
       -2   -1    0    0    0  501  0.00000000000E+00  0.00000000000E+00 -0.16467347928E+04  0.16467347928E+04  0.25500000920E-02 0.  1.
    10030    2    1    2    0    0  0.00000000000E+00  0.00000000000E+00  0.73359369093E+01  0.33008055225E+04  0.33007973706E+04 0.  0.
        5    1    3    3  502    0  0.15659881809E+04  0.16203061571E+02  0.52444963877E+03  0.16515601822E+04  0.46999998093E+01 0. -1.
       -5    1    3    3    0  502 -0.15659881809E+04 -0.16203061571E+02 -0.51711370186E+03  0.16492453403E+04  0.46999998093E+01 0.  1.
</event>
<event>
 5   0  0.1728937E-06  0.3377383E+04  0.7818609E-02  0.8143480E-01
        2   -1    0    0  501    0  0.00000000000E+00  0.00000000000E+00  0.19131633654E+04  0.19131633654E+04  0.25500000920E-02 0.  1.
       -2   -1    0    0    0  501  0.00000000000E+00  0.00000000000E+00 -0.14905569765E+04  0.14905569765E+04  0.25500000920E-02 0. -1.
    10030    2    1    2    0    0  0.00000000000E+00  0.00000000000E+00  0.42260638886E+03  0.34037203419E+04  0.33773830114E+04 0.  0.
        1    1    3    3  502    0  0.15345703200E+03 -0.18982957687E+03 -0.14726833834E+04  0.14927761643E+04  0.50400001928E-02 0. -1.
       -1    1    3    3    0  502 -0.15345703200E+03  0.18982957687E+03  0.18952897723E+04  0.19109441776E+04  0.50400001928E-02 0.  1.
</event>
<event>
 5   0  0.6023446E-07  0.3287904E+04  0.7818609E-02  0.8165980E-01
        1   -1    0    0  501    0  0.00000000000E+00  0.00000000000E+00  0.16173560613E+04  0.16173560613E+04  0.50400001928E-02 0.  1.
       -1   -1    0    0    0  501  0.00000000000E+00  0.00000000000E+00 -0.16709853117E+04  0.16709853117E+04  0.50400001928E-02 0. -1.
    10030    2    1    2    0    0  0.00000000000E+00  0.00000000000E+00 -0.53629250472E+02  0.32883413730E+04  0.32879040267E+04 0.  0.
        5    1    3    3  502    0  0.14110824612E+04 -0.16836625959E+03 -0.85339610956E+03  0.16576513263E+04  0.46999998093E+01 0.  1.
       -5    1    3    3    0  502 -0.14110824612E+04  0.16836625959E+03  0.79976685909E+03  0.16306900467E+04  0.46999998093E+01 0. -1.
</event>
<event>
 5   0  0.5858859E-07  0.3337048E+04  0.7818609E-02  0.8153532E-01
       -1   -1    0    0    0  501  0.00000000000E+00  0.00000000000E+00  0.12385399240E+04  0.12385399240E+04  0.50400001928E-02 0. -1.
        1   -1    0    0  501    0  0.00000000000E+00  0.00000000000E+00 -0.22477851915E+04  0.22477851915E+04  0.50400001928E-02 0.  1.
    10030    2    1    2    0    0  0.00000000000E+00  0.00000000000E+00 -0.10092452675E+04  0.34863251155E+04  0.33370476174E+04 0.  0.
        3    1    3    3  502    0 -0.79384242061E+03  0.16179843252E+03 -0.20285041566E+04  0.21843062159E+04  0.10100000352E+00 0.  1.
       -3    1    3    3    0  502  0.79384242061E+03 -0.16179843252E+03  0.10192588891E+04  0.13020188995E+04  0.10100000352E+00 0. -1.
</event>
<event>
 5   0  0.6085351E-07  0.3251507E+04  0.7818609E-02  0.8175345E-01
       -1   -1    0    0    0  501  0.00000000000E+00  0.00000000000E+00  0.26303030946E+04  0.26303030946E+04  0.50400001928E-02 0.  1.
        1   -1    0    0  501    0  0.00000000000E+00  0.00000000000E+00 -0.10048557427E+04  0.10048557428E+04  0.50400001928E-02 0. -1.
    10030    2    1    2    0    0  0.00000000000E+00  0.00000000000E+00  0.16254473518E+04  0.36351588374E+04  0.32515074472E+04 0.  0.
        1    1    3    3  502    0  0.13450037243E+04  0.65448682682E+02  0.18311133855E+04  0.22729484770E+04  0.50400001928E-02 0.  1.
       -1    1    3    3    0  502 -0.13450037243E+04 -0.65448682682E+02 -0.20566603362E+03  0.13622103604E+04  0.50400001928E-02 0. -1.
</event>
<event>
 5   0  0.6023446E-07  0.3302529E+04  0.7818609E-02  0.8162252E-01
        1   -1    0    0  501    0  0.00000000000E+00  0.00000000000E+00  0.19288736565E+04  0.19288736566E+04  0.50400001928E-02 0. -1.
       -1   -1    0    0    0  501  0.00000000000E+00  0.00000000000E+00 -0.14136099820E+04  0.14136099820E+04  0.50400001928E-02 0.  1.
    10030    2    1    2    0    0  0.00000000000E+00  0.00000000000E+00  0.51526367451E+03  0.33424836386E+04  0.33025293670E+04 0.  0.
        5    1    3    3  502    0 -0.38793573027E+03 -0.10962580734E+04 -0.92888949963E+03  0.14883325189E+04  0.46999998093E+01 0. -1.
       -5    1    3    3    0  502  0.38793573027E+03  0.10962580734E+04  0.14441531741E+04  0.18541511197E+04  0.46999998093E+01 0.  1.
</event>
<event>
 5   0  0.1784626E-06  0.3272193E+04  0.7818609E-02  0.8170007E-01
        2   -1    0    0  501    0  0.00000000000E+00  0.00000000000E+00  0.22995173107E+04  0.22995173107E+04  0.25500000920E-02 0.  1.
       -2   -1    0    0    0  501  0.00000000000E+00  0.00000000000E+00 -0.11640757255E+04  0.11640757255E+04  0.25500000920E-02 0. -1.
    10030    2    1    2    0    0  0.00000000000E+00  0.00000000000E+00  0.11354415852E+04  0.34635930361E+04  0.32721933205E+04 0.  0.
        2    1    3    3  502    0  0.84125629015E+03 -0.13858493082E+04  0.80088210637E+03  0.18082318986E+04  0.25500000920E-02 0.  1.
       -2    1    3    3    0  502 -0.84125629015E+03  0.13858493082E+04  0.33455947881E+03  0.16553611375E+04  0.25500000920E-02 0. -1.
</event>
<event>
 5   0  0.5985183E-07  0.3287086E+04  0.7818609E-02  0.8166189E-01
       -1   -1    0    0    0  501  0.00000000000E+00  0.00000000000E+00  0.11916108073E+04  0.11916108073E+04  0.50400001928E-02 0.  1.
        1   -1    0    0  501    0  0.00000000000E+00  0.00000000000E+00 -0.22668751257E+04  0.22668751257E+04  0.50400001928E-02 0. -1.
    10030    2    1    2    0    0  0.00000000000E+00  0.00000000000E+00 -0.10752643184E+04  0.34584859330E+04  0.32870855776E+04 0.  0.
        2    1    3    3  502    0 -0.42367697163E+03  0.23896816650E+03 -0.21894053840E+04  0.22427893117E+04  0.25500000920E-02 0. -1.
       -2    1    3    3    0  502  0.42367697163E+03 -0.23896816650E+03  0.11141410657E+04  0.12156966213E+04  0.25500000920E-02 0.  1.
</event>
<event>
 5   0  0.1743810E-06  0.3281920E+04  0.7818609E-02  0.8167511E-01
       -2   -1    0    0    0  501  0.00000000000E+00  0.00000000000E+00  0.94537873009E+03  0.94537873010E+03  0.25500000920E-02 0. -1.
        2   -1    0    0  501    0  0.00000000000E+00  0.00000000000E+00 -0.28483285836E+04  0.28483285836E+04  0.25500000920E-02 0.  1.
    10030    2    1    2    0    0  0.00000000000E+00  0.00000000000E+00 -0.19029498535E+04  0.37937073137E+04  0.32819197182E+04 0.  0.
        5    1    3    3  502    0  0.12279542398E+04  0.97803917934E+03 -0.39916354835E+03  0.16198104456E+04  0.46999998093E+01 0. -1.
       -5    1    3    3    0  502 -0.12279542398E+04 -0.97803917934E+03 -0.15037863051E+04  0.21738968681E+04  0.46999998093E+01 0.  1.
</event>
<event>
 5   0  0.6085351E-07  0.3286238E+04  0.7818609E-02  0.8166406E-01
       -1   -1    0    0    0  501  0.00000000000E+00  0.00000000000E+00  0.12770612265E+04  0.12770612265E+04  0.50400001928E-02 0. -1.
        1   -1    0    0  501    0  0.00000000000E+00  0.00000000000E+00 -0.21141038918E+04  0.21141038918E+04  0.50400001928E-02 0.  1.
    10030    2    1    2    0    0  0.00000000000E+00  0.00000000000E+00 -0.83704266530E+03  0.33911651183E+04  0.32862380370E+04 0.  0.
        1    1    3    3  502    0 -0.15697101105E+04  0.34154657137E+02  0.81388197631E+02  0.15721896865E+04  0.50400001928E-02 0. -1.
       -1    1    3    3    0  502  0.15697101105E+04 -0.34154657137E+02 -0.91843086293E+03  0.18189754318E+04  0.50400001928E-02 0.  1.
</event>
<event>
 5   0  0.1832626E-06  0.3310691E+04  0.7818609E-02  0.8160180E-01
        2   -1    0    0  501    0  0.00000000000E+00  0.00000000000E+00  0.11957816382E+04  0.11957816382E+04  0.25500000920E-02 0. -1.
       -2   -1    0    0    0  501  0.00000000000E+00  0.00000000000E+00 -0.22915289961E+04  0.22915289961E+04  0.25500000920E-02 0.  1.
    10030    2    1    2    0    0  0.00000000000E+00  0.00000000000E+00 -0.10957473578E+04  0.34873106343E+04  0.33106907418E+04 0.  0.
        3    1    3    3  502    0 -0.22954372867E+03  0.11660400246E+04  0.66591486204E+03  0.13622709995E+04  0.10100000352E+00 0. -1.
       -3    1    3    3    0  502  0.22954372867E+03 -0.11660400246E+04 -0.17616622199E+04  0.21250396348E+04  0.10100000352E+00 0.  1.
</event>
<event>
 5   0  0.1743810E-06  0.3218455E+04  0.7818609E-02  0.8183960E-01
       -2   -1    0    0    0  501  0.00000000000E+00  0.00000000000E+00  0.12264254753E+04  0.12264254753E+04  0.25500000920E-02 0. -1.
        2   -1    0    0  501    0  0.00000000000E+00  0.00000000000E+00 -0.21115132622E+04  0.21115132622E+04  0.25500000920E-02 0.  1.
    10030    2    1    2    0    0  0.00000000000E+00  0.00000000000E+00 -0.88508778688E+03  0.33379387375E+04  0.32184553166E+04 0.  0.
        5    1    3    3  502    0  0.14142679763E+04  0.44150125882E+03  0.20887784953E+03  0.14962383889E+04  0.46999998093E+01 0. -1.
       -5    1    3    3    0  502 -0.14142679763E+04 -0.44150125882E+03 -0.10939656364E+04  0.18417003486E+04  0.46999998093E+01 0.  1.
</event>
<event>
 5   0  0.1743810E-06  0.3347033E+04  0.7818609E-02  0.8151030E-01
       -2   -1    0    0    0  501  0.00000000000E+00  0.00000000000E+00  0.13237662094E+04  0.13237662094E+04  0.25500000920E-02 0. -1.
        2   -1    0    0  501    0  0.00000000000E+00  0.00000000000E+00 -0.21156737862E+04  0.21156737862E+04  0.25500000920E-02 0.  1.
    10030    2    1    2    0    0  0.00000000000E+00  0.00000000000E+00 -0.79190757676E+03  0.34394399956E+04  0.33470329956E+04 0.  0.
        5    1    3    3  502    0  0.11176839663E+04 -0.89358503623E+03  0.49571431427E+03  0.15144195049E+04  0.46999998093E+01 0. -1.
       -5    1    3    3    0  502 -0.11176839663E+04  0.89358503623E+03 -0.12876218910E+04  0.19250204907E+04  0.46999998093E+01 0.  1.
</event>
<event>
 5   0  0.1832626E-06  0.3247383E+04  0.7818609E-02  0.8176414E-01
        2   -1    0    0  501    0  0.00000000000E+00  0.00000000000E+00  0.22275947929E+04  0.22275947929E+04  0.25500000920E-02 0. -1.
       -2   -1    0    0    0  501  0.00000000000E+00  0.00000000000E+00 -0.11835067912E+04  0.11835067912E+04  0.25500000920E-02 0.  1.
    10030    2    1    2    0    0  0.00000000000E+00  0.00000000000E+00  0.10440880017E+04  0.34111015841E+04  0.32473826787E+04 0.  0.
        3    1    3    3  502    0 -0.34650945950E+02 -0.46409822356E+03 -0.11119469111E+04  0.12054102175E+04  0.10100000352E+00 0.  1.
       -3    1    3    3    0  502  0.34650945950E+02  0.46409822356E+03  0.21560349128E+04  0.22056913666E+04  0.10100000352E+00 0. -1.
</event>
<event>
 5   0  0.6085351E-07  0.3214514E+04  0.7818609E-02  0.8184995E-01
        1   -1    0    0  501    0  0.00000000000E+00  0.00000000000E+00  0.19528023334E+04  0.19528023334E+04  0.50400001928E-02 0. -1.
       -1   -1    0    0    0  501  0.00000000000E+00  0.00000000000E+00 -0.13228550825E+04  0.13228550825E+04  0.50400001928E-02 0.  1.
    10030    2    1    2    0    0  0.00000000000E+00  0.00000000000E+00  0.62994725090E+03  0.32756574158E+04  0.32145136439E+04 0.  0.
        1    1    3    3  502    0 -0.19679858104E+03  0.92297974093E+03  0.16407405981E+04  0.18927892101E+04  0.50400001928E-02 0. -1.
       -1    1    3    3    0  502  0.19679858104E+03 -0.92297974093E+03 -0.10107933472E+04  0.13828682057E+04  0.50400001928E-02 0.  1.
</event>
<event>
 5   0  0.5988516E-07  0.3090703E+04  0.7818609E-02  0.8218294E-01
        1   -1    0    0  501    0  0.00000000000E+00  0.00000000000E+00  0.16839050760E+04  0.16839050760E+04  0.50400001928E-02 0. -1.
       -1   -1    0    0    0  501  0.00000000000E+00  0.00000000000E+00 -0.14181981976E+04  0.14181981976E+04  0.50400001928E-02 0.  1.
    10030    2    1    2    0    0  0.00000000000E+00  0.00000000000E+00  0.26570687837E+03  0.31021032736E+04  0.30907029257E+04 0.  0.
        4    1    3    3  502    0  0.97851987188E+03  0.61177046391E+03  0.11644311243E+04  0.16394101672E+04  0.12699999809E+01 0. -1.
       -4    1    3    3    0  502 -0.97851987188E+03 -0.61177046391E+03 -0.89872424597E+03  0.14626931064E+04  0.12699999809E+01 0.  1.
</event>
<event>
 5   0  0.6023446E-07  0.3304476E+04  0.7818609E-02  0.8161757E-01
       -1   -1    0    0    0  501  0.00000000000E+00  0.00000000000E+00  0.16586008290E+04  0.16586008290E+04  0.50400001928E-02 0. -1.
        1   -1    0    0  501    0  0.00000000000E+00  0.00000000000E+00 -0.16459000007E+04  0.16459000007E+04  0.50400001928E-02 0.  1.
    10030    2    1    2    0    0  0.00000000000E+00  0.00000000000E+00  0.12700828258E+02  0.33045008297E+04  0.33044764218E+04 0.  0.
        5    1    3    3  502    0  0.91188980818E+03  0.37523102174E+03  0.13320780019E+04  0.16573458405E+04  0.46999998093E+01 0. -1.
       -5    1    3    3    0  502 -0.91188980818E+03 -0.37523102174E+03 -0.13193771736E+04  0.16471549891E+04  0.46999998093E+01 0.  1.
</event>
<event>
 5   0  0.1784626E-06  0.3353380E+04  0.7818609E-02  0.8149444E-01
        2   -1    0    0  501    0  0.00000000000E+00  0.00000000000E+00  0.25497630503E+04  0.25497630503E+04  0.25500000920E-02 0.  1.
       -2   -1    0    0    0  501  0.00000000000E+00  0.00000000000E+00 -0.11025685771E+04  0.11025685771E+04  0.25500000920E-02 0. -1.
    10030    2    1    2    0    0  0.00000000000E+00  0.00000000000E+00  0.14471944731E+04  0.36523316274E+04  0.33533795600E+04 0.  0.
        2    1    3    3  502    0  0.14247468560E+04  0.21973692645E+03  0.16561411840E+04  0.21956756459E+04  0.25500000920E-02 0.  1.
       -2    1    3    3    0  502 -0.14247468560E+04 -0.21973692645E+03 -0.20894671089E+03  0.14566559815E+04  0.25500000920E-02 0. -1.
</event>
<event>
 5   0  0.5858859E-07  0.3283225E+04  0.7818609E-02  0.8167177E-01
        1   -1    0    0  501    0  0.00000000000E+00  0.00000000000E+00  0.22694395062E+04  0.22694395062E+04  0.50400001928E-02 0. -1.
       -1   -1    0    0    0  501  0.00000000000E+00  0.00000000000E+00 -0.11874697867E+04  0.11874697867E+04  0.50400001928E-02 0.  1.
    10030    2    1    2    0    0  0.00000000000E+00  0.00000000000E+00  0.10819697195E+04  0.34569092930E+04  0.32832245409E+04 0.  0.
        3    1    3    3  502    0  0.10350891133E+04 -0.11650157565E+04 -0.22747952198E+01  0.15584211146E+04  0.10100000352E+00 0.  1.
       -3    1    3    3    0  502 -0.10350891133E+04  0.11650157565E+04  0.10842445147E+04  0.18984881784E+04  0.10100000352E+00 0. -1.
</event>
<event>
 5   0  0.5988516E-07  0.3323084E+04  0.7818609E-02  0.8157046E-01
        1   -1    0    0  501    0  0.00000000000E+00  0.00000000000E+00  0.21568670200E+04  0.21568670200E+04  0.50400001928E-02 0.  1.
       -1   -1    0    0    0  501  0.00000000000E+00  0.00000000000E+00 -0.12799682743E+04  0.12799682743E+04  0.50400001928E-02 0. -1.
    10030    2    1    2    0    0  0.00000000000E+00  0.00000000000E+00  0.87689874565E+03  0.34368352943E+04  0.33230837230E+04 0.  0.
        4    1    3    3  502    0 -0.94024859637E+03 -0.32983651986E+03  0.18135718938E+04  0.20692762454E+04  0.12699999809E+01 0.  1.
       -4    1    3    3    0  502  0.94024859637E+03  0.32983651986E+03 -0.93667314817E+03  0.13675590489E+04  0.12699999809E+01 0. -1.
</event>
<event>
 5   0  0.1696681E-06  0.3333481E+04  0.7818609E-02  0.8154428E-01
       -2   -1    0    0    0  501  0.00000000000E+00  0.00000000000E+00  0.12241572006E+04  0.12241572006E+04  0.25500000920E-02 0.  1.
        2   -1    0    0  501    0  0.00000000000E+00  0.00000000000E+00 -0.22693365654E+04  0.22693365654E+04  0.25500000920E-02 0. -1.
    10030    2    1    2    0    0  0.00000000000E+00  0.00000000000E+00 -0.10451793648E+04  0.34934937660E+04  0.33334814816E+04 0.  0.
        4    1    3    3  502    0 -0.21487890679E+03  0.39000834169E+03  0.11606664308E+04  0.12431522946E+04  0.12699999809E+01 0.  1.
       -4    1    3    3    0  502  0.21487890679E+03 -0.39000834169E+03 -0.22058457955E+04  0.22503414714E+04  0.12699999809E+01 0. -1.
</event>
<event>
 5   0  0.5988516E-07  0.3271226E+04  0.7818609E-02  0.8170256E-01
        1   -1    0    0  501    0  0.00000000000E+00  0.00000000000E+00  0.13352858687E+04  0.13352858687E+04  0.50400001928E-02 0. -1.
       -1   -1    0    0    0  501  0.00000000000E+00  0.00000000000E+00 -0.20034881112E+04  0.20034881112E+04  0.50400001928E-02 0.  1.
    10030    2    1    2    0    0  0.00000000000E+00  0.00000000000E+00 -0.66820224249E+03  0.33387739799E+04  0.32712256804E+04 0.  0.
        4    1    3    3  502    0  0.76171776492E+03 -0.87052387058E+03 -0.15143538685E+04  0.19055957112E+04  0.12699999809E+01 0.  1.
       -4    1    3    3    0  502 -0.76171776492E+03  0.87052387058E+03  0.84615162603E+03  0.14331782687E+04  0.12699999809E+01 0. -1.
</event>
<event>
 5   0  0.5988516E-07  0.3265677E+04  0.7818609E-02  0.8171684E-01
       -1   -1    0    0    0  501  0.00000000000E+00  0.00000000000E+00  0.16511630149E+04  0.16511630149E+04  0.50400001928E-02 0.  1.
        1   -1    0    0  501    0  0.00000000000E+00  0.00000000000E+00 -0.16147176528E+04  0.16147176528E+04  0.50400001928E-02 0. -1.
    10030    2    1    2    0    0  0.00000000000E+00  0.00000000000E+00  0.36445362142E+02  0.32658806678E+04  0.32656773067E+04 0.  0.
        4    1    3    3  502    0  0.78092847401E+03 -0.10700406412E+03 -0.14118528372E+04  0.16169815082E+04  0.12699999809E+01 0. -1.
       -4    1    3    3    0  502 -0.78092847401E+03  0.10700406412E+03  0.14482981993E+04  0.16488991595E+04  0.12699999809E+01 0.  1.
</event>
<event>
 5   0  0.6085351E-07  0.3275116E+04  0.7818609E-02  0.8169256E-01
        1   -1    0    0  501    0  0.00000000000E+00  0.00000000000E+00  0.20481850336E+04  0.20481850336E+04  0.50400001928E-02 0. -1.
       -1   -1    0    0    0  501  0.00000000000E+00  0.00000000000E+00 -0.13092545229E+04  0.13092545229E+04  0.50400001928E-02 0.  1.
    10030    2    1    2    0    0  0.00000000000E+00  0.00000000000E+00  0.73893051069E+03  0.33574395565E+04  0.32751155821E+04 0.  0.
        1    1    3    3  502    0  0.96905871324E+03  0.16168102651E+03  0.17125032253E+04  0.19743056604E+04  0.50400001928E-02 0. -1.
       -1    1    3    3    0  502 -0.96905871324E+03 -0.16168102651E+03 -0.97357271459E+03  0.13831338961E+04  0.50400001928E-02 0.  1.
</event>
<event>
 5   0  0.1728937E-06  0.3218917E+04  0.7818609E-02  0.8183839E-01
        2   -1    0    0  501    0  0.00000000000E+00  0.00000000000E+00  0.12811947419E+04  0.12811947419E+04  0.25500000920E-02 0.  1.
       -2   -1    0    0    0  501  0.00000000000E+00  0.00000000000E+00 -0.20218295054E+04  0.20218295054E+04  0.25500000920E-02 0. -1.
    10030    2    1    2    0    0  0.00000000000E+00  0.00000000000E+00 -0.74063476348E+03  0.33030242474E+04  0.32189174152E+04 0.  0.
        1    1    3    3  502    0 -0.12978185040E+01  0.55821271438E+03 -0.19193147132E+04  0.19988426869E+04  0.50400001928E-02 0. -1.
       -1    1    3    3    0  502  0.12978185040E+01 -0.55821271438E+03  0.11786799497E+04  0.13041815605E+04  0.50400001928E-02 0.  1.
</event>
<event>
 5   0  0.5858859E-07  0.3306677E+04  0.7818609E-02  0.8161198E-01
        1   -1    0    0  501    0  0.00000000000E+00  0.00000000000E+00  0.17143857059E+04  0.17143857059E+04  0.50400001928E-02 0. -1.
       -1   -1    0    0    0  501  0.00000000000E+00  0.00000000000E+00 -0.15944652426E+04  0.15944652426E+04  0.50400001928E-02 0.  1.
    10030    2    1    2    0    0  0.00000000000E+00  0.00000000000E+00  0.11992046331E+03  0.33088509484E+04  0.33066771360E+04 0.  0.
        3    1    3    3  502    0 -0.16467876421E+04  0.13741887363E+03  0.76293382100E+01  0.16525288808E+04  0.10100000352E+00 0. -1.
       -3    1    3    3    0  502  0.16467876421E+04 -0.13741887363E+03  0.11229112510E+03  0.16563220677E+04  0.10100000352E+00 0.  1.
</event>
<event>
 5   0  0.1784626E-06  0.3258054E+04  0.7818609E-02  0.8173651E-01
       -2   -1    0    0    0  501  0.00000000000E+00  0.00000000000E+00  0.20166714017E+04  0.20166714017E+04  0.25500000920E-02 0.  1.
        2   -1    0    0  501    0  0.00000000000E+00  0.00000000000E+00 -0.13158952110E+04  0.13158952110E+04  0.25500000920E-02 0. -1.
    10030    2    1    2    0    0  0.00000000000E+00  0.00000000000E+00  0.70077619074E+03  0.33325666127E+04  0.32580535537E+04 0.  0.
        2    1    3    3  502    0  0.35358614060E+03 -0.77700270142E+02  0.19750038028E+04  0.20079094880E+04  0.25500000920E-02 0.  1.
       -2    1    3    3    0  502 -0.35358614060E+03  0.77700270142E+02 -0.12742276121E+04  0.13246571248E+04  0.25500000920E-02 0. -1.
</event>
<event>
 5   0  0.1832626E-06  0.3274689E+04  0.7818609E-02  0.8169366E-01
        2   -1    0    0  501    0  0.00000000000E+00  0.00000000000E+00  0.19698398165E+04  0.19698398165E+04  0.25500000920E-02 0.  1.
       -2   -1    0    0    0  501  0.00000000000E+00  0.00000000000E+00 -0.13609717721E+04  0.13609717721E+04  0.25500000920E-02 0. -1.
    10030    2    1    2    0    0  0.00000000000E+00  0.00000000000E+00  0.60886804436E+03  0.33308115886E+04  0.32746886178E+04 0.  0.
        3    1    3    3  502    0 -0.68543766786E+03 -0.37660679521E+03 -0.11587042613E+04  0.13979460111E+04  0.10100000352E+00 0. -1.
       -3    1    3    3    0  502  0.68543766786E+03  0.37660679521E+03  0.17675723057E+04  0.19328655775E+04  0.10100000352E+00 0.  1.
</event>
<event>
 5   0  0.6023446E-07  0.3272542E+04  0.7818609E-02  0.8169917E-01
        1   -1    0    0  501    0  0.00000000000E+00  0.00000000000E+00  0.10244306897E+04  0.10244306897E+04  0.50400001928E-02 0.  1.
       -1   -1    0    0    0  501  0.00000000000E+00  0.00000000000E+00 -0.26135321756E+04  0.26135321756E+04  0.50400001928E-02 0. -1.
    10030    2    1    2    0    0  0.00000000000E+00  0.00000000000E+00 -0.15891014859E+04  0.36379628654E+04  0.32725418679E+04 0.  0.
        5    1    3    3  502    0 -0.50401060861E+03  0.66468044330E+03  0.77030310060E+03  0.11354363664E+04  0.46999998093E+01 0.  1.
       -5    1    3    3    0  502  0.50401060861E+03 -0.66468044330E+03 -0.23594045865E+04  0.25025264990E+04  0.46999998093E+01 0. -1.
</event>
<event>
 5   0  0.1696681E-06  0.3193678E+04  0.7818609E-02  0.8190489E-01
       -2   -1    0    0    0  501  0.00000000000E+00  0.00000000000E+00  0.11093850463E+04  0.11093850463E+04  0.25500000920E-02 0.  1.
        2   -1    0    0  501    0  0.00000000000E+00  0.00000000000E+00 -0.22984752238E+04  0.22984752238E+04  0.25500000920E-02 0. -1.
    10030    2    1    2    0    0  0.00000000000E+00  0.00000000000E+00 -0.11890901774E+04  0.34078602701E+04  0.31936775308E+04 0.  0.
        4    1    3    3  502    0 -0.43503719112E+02 -0.12360663281E+04 -0.16723014162E+04  0.20799870626E+04  0.12699999809E+01 0. -1.
       -4    1    3    3    0  502  0.43503719112E+02  0.12360663281E+04  0.48321123876E+03  0.13278732075E+04  0.12699999809E+01 0.  1.
</event>
<event>
 5   0  0.1696681E-06  0.3293776E+04  0.7818609E-02  0.8164481E-01
        2   -1    0    0  501    0  0.00000000000E+00  0.00000000000E+00  0.16928918533E+04  0.16928918533E+04  0.25500000920E-02 0.  1.
       -2   -1    0    0    0  501  0.00000000000E+00  0.00000000000E+00 -0.16021341230E+04  0.16021341230E+04  0.25500000920E-02 0. -1.
    10030    2    1    2    0    0  0.00000000000E+00  0.00000000000E+00  0.90757730265E+02  0.32950259763E+04  0.32937758301E+04 0.  0.
        4    1    3    3  502    0 -0.58354153560E+03 -0.15387538144E+04  0.10828489756E+03  0.16492456630E+04  0.12699999809E+01 0.  1.
       -4    1    3    3    0  502  0.58354153560E+03  0.15387538144E+04 -0.17527167300E+02  0.16457803133E+04  0.12699999809E+01 0. -1.
</event>
<event>
 5   0  0.1784626E-06  0.3279178E+04  0.7818609E-02  0.8168214E-01
        2   -1    0    0  501    0  0.00000000000E+00  0.00000000000E+00  0.28308821919E+04  0.28308821919E+04  0.25500000920E-02 0. -1.
       -2   -1    0    0    0  501  0.00000000000E+00  0.00000000000E+00 -0.94961659404E+03  0.94961659404E+03  0.25500000920E-02 0.  1.
    10030    2    1    2    0    0  0.00000000000E+00  0.00000000000E+00  0.18812655979E+04  0.37804987859E+04  0.32791783759E+04 0.  0.
        2    1    3    3  502    0  0.72321833349E+03  0.14173461028E+04  0.13964768577E+04  0.21170881765E+04  0.25500000920E-02 0. -1.
       -2    1    3    3    0  502 -0.72321833349E+03 -0.14173461028E+04  0.48478874015E+03  0.16634106094E+04  0.25500000920E-02 0.  1.
</event>
<event>
 5   0  0.6023446E-07  0.3178324E+04  0.7818609E-02  0.8194565E-01
       -1   -1    0    0    0  501  0.00000000000E+00  0.00000000000E+00  0.16236700940E+04  0.16236700940E+04  0.50400001928E-02 0. -1.
        1   -1    0    0  501    0  0.00000000000E+00  0.00000000000E+00 -0.15553874494E+04  0.15553874494E+04  0.50400001928E-02 0.  1.
    10030    2    1    2    0    0  0.00000000000E+00  0.00000000000E+00  0.68282644596E+02  0.31790575435E+04  0.31783241410E+04 0.  0.
        5    1    3    3  502    0  0.50298770746E+03  0.11048139514E+04  0.10599526896E+04  0.16115620668E+04  0.46999998093E+01 0. -1.
       -5    1    3    3    0  502 -0.50298770746E+03 -0.11048139514E+04 -0.99167004500E+03  0.15674954766E+04  0.46999998093E+01 0.  1.
</event>
<event>
 5   0  0.1832626E-06  0.3325550E+04  0.7818609E-02  0.8156425E-01
       -2   -1    0    0    0  501  0.00000000000E+00  0.00000000000E+00  0.13513944542E+04  0.13513944542E+04  0.25500000920E-02 0. -1.
        2   -1    0    0  501    0  0.00000000000E+00  0.00000000000E+00 -0.20459017842E+04  0.20459017842E+04  0.25500000920E-02 0.  1.
    10030    2    1    2    0    0  0.00000000000E+00  0.00000000000E+00 -0.69450732992E+03  0.33972962384E+04  0.33255497741E+04 0.  0.
        3    1    3    3  502    0  0.12482889958E+02 -0.66384237757E+03 -0.19046026799E+04  0.20170160890E+04  0.10100000352E+00 0.  1.
       -3    1    3    3    0  502 -0.12482889958E+02  0.66384237757E+03  0.12100953499E+04  0.13802801494E+04  0.10100000352E+00 0. -1.
</event>
<event>
 5   0  0.5685000E-07  0.3280976E+04  0.7818609E-02  0.8167753E-01
       -3   -1    0    0    0  501  0.00000000000E+00  0.00000000000E+00  0.21241784341E+04  0.21241784365E+04  0.10100000352E+00 0. -1.
        3   -1    0    0  501    0  0.00000000000E+00  0.00000000000E+00 -0.12669370873E+04  0.12669370913E+04  0.10100000352E+00 0.  1.
    10030    2    1    2    0    0  0.00000000000E+00  0.00000000000E+00  0.85724134679E+03  0.33911155278E+04  0.32809757384E+04 0.  0.
        3    1    3    3  502    0 -0.82443323866E+03 -0.13176460073E+04  0.97094348654E+03  0.18326517481E+04  0.10100000352E+00 0. -1.
       -3    1    3    3    0  502  0.82443323866E+03  0.13176460073E+04 -0.11370213975E+03  0.15584637796E+04  0.10100000352E+00 0.  1.
</event>
<event>
 5   0  0.5858859E-07  0.3231700E+04  0.7818609E-02  0.8180495E-01
        1   -1    0    0  501    0  0.00000000000E+00  0.00000000000E+00  0.13654914021E+04  0.13654914021E+04  0.50400001928E-02 0.  1.
       -1   -1    0    0    0  501  0.00000000000E+00  0.00000000000E+00 -0.19121110393E+04  0.19121110393E+04  0.50400001928E-02 0. -1.
    10030    2    1    2    0    0  0.00000000000E+00  0.00000000000E+00 -0.54661963722E+03  0.32776024414E+04  0.32316999761E+04 0.  0.
        3    1    3    3  502    0 -0.97109297307E+03 -0.12680022709E+04 -0.52198600162E+03  0.16802740007E+04  0.10100000352E+00 0. -1.
       -3    1    3    3    0  502  0.97109297307E+03  0.12680022709E+04 -0.24633635603E+02  0.15973284407E+04  0.10100000352E+00 0.  1.
</event>
<event>
 5   0  0.5685000E-07  0.3269926E+04  0.7818609E-02  0.8170590E-01
       -3   -1    0    0    0  501  0.00000000000E+00  0.00000000000E+00  0.18710412835E+04  0.18710412863E+04  0.10100000352E+00 0.  1.
        3   -1    0    0  501    0  0.00000000000E+00  0.00000000000E+00 -0.14286715175E+04  0.14286715211E+04  0.10100000352E+00 0. -1.
    10030    2    1    2    0    0  0.00000000000E+00  0.00000000000E+00  0.44236976606E+03  0.32997128073E+04  0.32699256262E+04 0.  0.
        5    1    3    3  502    0 -0.11918399771E+03 -0.57224752454E+03  0.17619893389E+04  0.18564214432E+04  0.46999998093E+01 0.  1.
       -5    1    3    3    0  502  0.11918399771E+03  0.57224752454E+03 -0.13196195728E+04  0.14432913641E+04  0.46999998093E+01 0. -1.
</event>
<event>
 5   0  0.1696681E-06  0.3309472E+04  0.7818609E-02  0.8160489E-01
       -2   -1    0    0    0  501  0.00000000000E+00  0.00000000000E+00  0.12155613186E+04  0.12155613186E+04  0.25500000920E-02 0.  1.
        2   -1    0    0  501    0  0.00000000000E+00  0.00000000000E+00 -0.22525814943E+04  0.22525814943E+04  0.25500000920E-02 0. -1.
    10030    2    1    2    0    0  0.00000000000E+00  0.00000000000E+00 -0.10370201757E+04  0.34681428129E+04  0.33094718198E+04 0.  0.
        4    1    3    3  502    0 -0.14232176691E+03 -0.66768413456E+03 -0.20981249666E+04  0.22063969673E+04  0.12699999809E+01 0. -1.
       -4    1    3    3    0  502  0.14232176691E+03  0.66768413456E+03  0.10611047909E+04  0.12617458456E+04  0.12699999809E+01 0.  1.
</event>
<event>
 5   0  0.5988516E-07  0.3430921E+04  0.7818609E-02  0.8130359E-01
        1   -1    0    0  501    0  0.00000000000E+00  0.00000000000E+00  0.20792019233E+04  0.20792019233E+04  0.50400001928E-02 0.  1.
       -1   -1    0    0    0  501  0.00000000000E+00  0.00000000000E+00 -0.14153532911E+04  0.14153532911E+04  0.50400001928E-02 0. -1.
    10030    2    1    2    0    0  0.00000000000E+00  0.00000000000E+00  0.66384863219E+03  0.34945552143E+04  0.34309213252E+04 0.  0.
        4    1    3    3  502    0 -0.16368568056E+04  0.50478087249E+03  0.23692197587E+03  0.17292303394E+04  0.12699999809E+01 0. -1.
       -4    1    3    3    0  502  0.16368568056E+04 -0.50478087249E+03  0.42692665633E+03  0.17653248749E+04  0.12699999809E+01 0.  1.
</event>
<event>
 5   0  0.5858859E-07  0.2839110E+04  0.7818609E-02  0.8291228E-01
        1   -1    0    0  501    0  0.00000000000E+00  0.00000000000E+00  0.19667174301E+04  0.19667174301E+04  0.50400001928E-02 0. -1.
       -1   -1    0    0    0  501  0.00000000000E+00  0.00000000000E+00 -0.10246194327E+04  0.10246194327E+04  0.50400001928E-02 0.  1.
    10030    2    1    2    0    0  0.00000000000E+00  0.00000000000E+00  0.94209799743E+03  0.29913368629E+04  0.28391103519E+04 0.  0.
        3    1    3    3  502    0 -0.68283421857E+03  0.24207812135E+03 -0.81517288243E+03  0.10905829750E+04  0.10100000352E+00 0.  1.
       -3    1    3    3    0  502  0.68283421857E+03 -0.24207812135E+03  0.17572708799E+04  0.19007538879E+04  0.10100000352E+00 0. -1.
</event>
<event>
 5   0  0.1784626E-06  0.3326387E+04  0.7818609E-02  0.8156213E-01
        2   -1    0    0  501    0  0.00000000000E+00  0.00000000000E+00  0.20534394061E+04  0.20534394061E+04  0.25500000920E-02 0. -1.
       -2   -1    0    0    0  501  0.00000000000E+00  0.00000000000E+00 -0.13471118757E+04  0.13471118757E+04  0.25500000920E-02 0.  1.
    10030    2    1    2    0    0  0.00000000000E+00  0.00000000000E+00  0.70632753031E+03  0.34005512818E+04  0.33263869949E+04 0.  0.
        2    1    3    3  502    0 -0.81312151648E+03 -0.10070261245E+04  0.14209341271E+04  0.19220619162E+04  0.25500000920E-02 0. -1.
       -2    1    3    3    0  502  0.81312151648E+03  0.10070261245E+04 -0.71460659680E+03  0.14784893656E+04  0.25500000920E-02 0.  1.
</event>
<event>
 5   0  0.5858859E-07  0.3305571E+04  0.7818609E-02  0.8161479E-01
        1   -1    0    0  501    0  0.00000000000E+00  0.00000000000E+00  0.16126553576E+04  0.16126553576E+04  0.50400001928E-02 0.  1.
       -1   -1    0    0    0  501  0.00000000000E+00  0.00000000000E+00 -0.16939138338E+04  0.16939138338E+04  0.50400001928E-02 0. -1.
    10030    2    1    2    0    0  0.00000000000E+00  0.00000000000E+00 -0.81258476148E+02  0.33065691914E+04  0.33055705828E+04 0.  0.
        3    1    3    3  502    0  0.34069560986E+03  0.63009799599E+03  0.14493180437E+04  0.16166693493E+04  0.10100000352E+00 0.  1.
       -3    1    3    3    0  502 -0.34069560986E+03 -0.63009799599E+03 -0.15305765198E+04  0.16898998421E+04  0.10100000352E+00 0. -1.
</event>
<event>
 5   0  0.1696681E-06  0.3289958E+04  0.7818609E-02  0.8165455E-01
        2   -1    0    0  501    0  0.00000000000E+00  0.00000000000E+00  0.19210280510E+04  0.19210280510E+04  0.25500000920E-02 0.  1.
       -2   -1    0    0    0  501  0.00000000000E+00  0.00000000000E+00 -0.14085975302E+04  0.14085975302E+04  0.25500000920E-02 0. -1.
    10030    2    1    2    0    0  0.00000000000E+00  0.00000000000E+00  0.51243052085E+03  0.33296255812E+04  0.32899576703E+04 0.  0.
        4    1    3    3  502    0  0.65853830455E+03 -0.11817332726E+03 -0.12646735221E+04  0.14307474845E+04  0.12699999809E+01 0. -1.
       -4    1    3    3    0  502 -0.65853830455E+03  0.11817332726E+03  0.17771040430E+04  0.18988780968E+04  0.12699999809E+01 0.  1.
</event>
<event>
 5   0  0.1728937E-06  0.3331391E+04  0.7818609E-02  0.8154953E-01
        2   -1    0    0  501    0  0.00000000000E+00  0.00000000000E+00  0.20778781556E+04  0.20778781556E+04  0.25500000920E-02 0.  1.
       -2   -1    0    0    0  501  0.00000000000E+00  0.00000000000E+00 -0.13352766364E+04  0.13352766364E+04  0.25500000920E-02 0. -1.
    10030    2    1    2    0    0  0.00000000000E+00  0.00000000000E+00  0.74260151925E+03  0.34131547920E+04  0.33313913936E+04 0.  0.
        1    1    3    3  502    0  0.12249120139E+04  0.81469439604E+03  0.11717607595E+04  0.18807338138E+04  0.50400001928E-02 0.  1.
       -1    1    3    3    0  502 -0.12249120139E+04 -0.81469439604E+03 -0.42915924027E+03  0.15324209782E+04  0.50400001928E-02 0. -1.
</event>
<event>
 5   0  0.1728937E-06  0.3302260E+04  0.7818609E-02  0.8162321E-01
        2   -1    0    0  501    0  0.00000000000E+00  0.00000000000E+00  0.16126909302E+04  0.16126909302E+04  0.25500000920E-02 0. -1.
       -2   -1    0    0    0  501  0.00000000000E+00  0.00000000000E+00 -0.16904853600E+04  0.16904853600E+04  0.25500000920E-02 0.  1.
    10030    2    1    2    0    0  0.00000000000E+00  0.00000000000E+00 -0.77794429843E+02  0.33031762902E+04  0.33022600792E+04 0.  0.
        1    1    3    3  502    0 -0.12145546373E+04  0.13200589460E+03 -0.11499087080E+04  0.16777540224E+04  0.50400001928E-02 0. -1.
       -1    1    3    3    0  502  0.12145546373E+04 -0.13200589460E+03  0.10721142781E+04  0.16254222677E+04  0.50400001928E-02 0.  1.
</event>
<event>
 5   0  0.1832626E-06  0.3249533E+04  0.7818609E-02  0.8175857E-01
        2   -1    0    0  501    0  0.00000000000E+00  0.00000000000E+00  0.21350520213E+04  0.21350520213E+04  0.25500000920E-02 0. -1.
       -2   -1    0    0    0  501  0.00000000000E+00  0.00000000000E+00 -0.12364411330E+04  0.12364411330E+04  0.25500000920E-02 0.  1.
    10030    2    1    2    0    0  0.00000000000E+00  0.00000000000E+00  0.89861088832E+03  0.33714931544E+04  0.32495329759E+04 0.  0.
        3    1    3    3  502    0  0.15743615038E+04  0.24894164499E+03  0.12239235356E+03  0.15986137701E+04  0.10100000352E+00 0. -1.
       -3    1    3    3    0  502 -0.15743615038E+04 -0.24894164499E+03  0.77621853476E+03  0.17728793843E+04  0.10100000352E+00 0.  1.
</event>
<event>
 5   0  0.1743810E-06  0.3297185E+04  0.7818609E-02  0.8163612E-01
        2   -1    0    0  501    0  0.00000000000E+00  0.00000000000E+00  0.92152263702E+03  0.92152263702E+03  0.25500000920E-02 0. -1.
       -2   -1    0    0    0  501  0.00000000000E+00  0.00000000000E+00 -0.29493110669E+04  0.29493110669E+04  0.25500000920E-02 0.  1.
    10030    2    1    2    0    0  0.00000000000E+00  0.00000000000E+00 -0.20277884299E+04  0.38708337039E+04  0.32971848063E+04 0.  0.
        5    1    3    3  502    0 -0.99975821614E+03 -0.12560827515E+04 -0.14540581180E+04  0.21660026477E+04  0.46999998093E+01 0.  1.
       -5    1    3    3    0  502  0.99975821614E+03  0.12560827515E+04 -0.57373031189E+03  0.17048310562E+04  0.46999998093E+01 0. -1.
</event>
<event>
 5   0  0.5858859E-07  0.3313738E+04  0.7818609E-02  0.8159408E-01
        1   -1    0    0  501    0  0.00000000000E+00  0.00000000000E+00  0.17615712346E+04  0.17615712346E+04  0.50400001928E-02 0.  1.
       -1   -1    0    0    0  501  0.00000000000E+00  0.00000000000E+00 -0.15583901040E+04  0.15583901040E+04  0.50400001928E-02 0. -1.
    10030    2    1    2    0    0  0.00000000000E+00  0.00000000000E+00  0.20318113061E+03  0.33199613385E+04  0.33137381788E+04 0.  0.
        3    1    3    3  502    0 -0.13447873803E+04  0.79655367365E+03 -0.44922762562E+03  0.16262706795E+04  0.10100000352E+00 0. -1.
       -3    1    3    3    0  502  0.13447873803E+04 -0.79655367365E+03  0.65240875623E+03  0.16936906590E+04  0.10100000352E+00 0.  1.
</event>
<event>
 5   0  0.5988516E-07  0.3405842E+04  0.7818609E-02  0.8136474E-01
        1   -1    0    0  501    0  0.00000000000E+00  0.00000000000E+00  0.21863740906E+04  0.21863740906E+04  0.50400001928E-02 0.  1.
       -1   -1    0    0    0  501  0.00000000000E+00  0.00000000000E+00 -0.13263696478E+04  0.13263696478E+04  0.50400001928E-02 0. -1.
    10030    2    1    2    0    0  0.00000000000E+00  0.00000000000E+00  0.86000444275E+03  0.35127437384E+04  0.34058421764E+04 0.  0.
        4    1    3    3  502    0  0.51922099405E+03 -0.15287340097E+04 -0.12858778589E+03  0.16196155546E+04  0.12699999809E+01 0.  1.
       -4    1    3    3    0  502 -0.51922099405E+03  0.15287340097E+04  0.98859222864E+03  0.18931281838E+04  0.12699999809E+01 0. -1.
</event>
<event>
 5   0  0.1696681E-06  0.3324442E+04  0.7818609E-02  0.8156704E-01
       -2   -1    0    0    0  501  0.00000000000E+00  0.00000000000E+00  0.15894245077E+04  0.15894245077E+04  0.25500000920E-02 0.  1.
        2   -1    0    0  501    0  0.00000000000E+00  0.00000000000E+00 -0.17383519552E+04  0.17383519552E+04  0.25500000920E-02 0. -1.
    10030    2    1    2    0    0  0.00000000000E+00  0.00000000000E+00 -0.14892744757E+03  0.33277764629E+04  0.33244423296E+04 0.  0.
        4    1    3    3  502    0 -0.79403816411E+03  0.64500295785E+03 -0.13859120850E+04  0.17225792701E+04  0.12699999809E+01 0. -1.
       -4    1    3    3    0  502  0.79403816411E+03 -0.64500295785E+03  0.12369846374E+04  0.16051971928E+04  0.12699999809E+01 0.  1.
</event>
<event>
 5   0  0.5858859E-07  0.3310289E+04  0.7818609E-02  0.8160282E-01
        1   -1    0    0  501    0  0.00000000000E+00  0.00000000000E+00  0.20178419881E+04  0.20178419881E+04  0.50400001928E-02 0. -1.
       -1   -1    0    0    0  501  0.00000000000E+00  0.00000000000E+00 -0.13576405112E+04  0.13576405112E+04  0.50400001928E-02 0.  1.
    10030    2    1    2    0    0  0.00000000000E+00  0.00000000000E+00  0.66020147696E+03  0.33754824993E+04  0.33102894304E+04 0.  0.
        3    1    3    3  502    0 -0.64015067099E+03 -0.12515532938E+04  0.12209921571E+04  0.18619882886E+04  0.10100000352E+00 0.  1.
       -3    1    3    3    0  502  0.64015067099E+03  0.12515532938E+04 -0.56079068018E+03  0.15134942108E+04  0.10100000352E+00 0. -1.
</event>
<event>
 5   0  0.5985183E-07  0.3314612E+04  0.7818609E-02  0.8159187E-01
       -1   -1    0    0    0  501  0.00000000000E+00  0.00000000000E+00  0.13797553405E+04  0.13797553405E+04  0.50400001928E-02 0.  1.
        1   -1    0    0  501    0  0.00000000000E+00  0.00000000000E+00 -0.19906883401E+04  0.19906883401E+04  0.50400001928E-02 0. -1.
    10030    2    1    2    0    0  0.00000000000E+00  0.00000000000E+00 -0.61093299962E+03  0.33704436806E+04  0.33146118135E+04 0.  0.
        2    1    3    3  502    0  0.46118066043E+03  0.20039128035E+03 -0.19112494069E+04  0.19762890888E+04  0.25500000920E-02 0. -1.
       -2    1    3    3    0  502 -0.46118066043E+03 -0.20039128035E+03  0.13003164073E+04  0.13941545918E+04  0.25500000920E-02 0.  1.
</event>
<event>
 5   0  0.5858859E-07  0.3294751E+04  0.7818609E-02  0.8164232E-01
       -1   -1    0    0    0  501  0.00000000000E+00  0.00000000000E+00  0.15497604066E+04  0.15497604067E+04  0.50400001928E-02 0.  1.
        1   -1    0    0  501    0  0.00000000000E+00  0.00000000000E+00 -0.17511391991E+04  0.17511391991E+04  0.50400001928E-02 0. -1.
    10030    2    1    2    0    0  0.00000000000E+00  0.00000000000E+00 -0.20137879246E+03  0.33008996058E+04  0.32947510967E+04 0.  0.
        3    1    3    3  502    0 -0.81750096825E+03  0.10392230173E+04 -0.10851491359E+04  0.17105089799E+04  0.10100000352E+00 0. -1.
       -3    1    3    3    0  502  0.81750096825E+03 -0.10392230173E+04  0.88377034343E+03  0.15903906259E+04  0.10100000352E+00 0.  1.
</event>
<event>
 5   0  0.5858859E-07  0.3294114E+04  0.7818609E-02  0.8164395E-01
       -1   -1    0    0    0  501  0.00000000000E+00  0.00000000000E+00  0.29957230002E+04  0.29957230002E+04  0.50400001928E-02 0.  1.
        1   -1    0    0  501    0  0.00000000000E+00  0.00000000000E+00 -0.90555656959E+03  0.90555656960E+03  0.50400001928E-02 0. -1.
    10030    2    1    2    0    0  0.00000000000E+00  0.00000000000E+00  0.20901664306E+04  0.39012795698E+04  0.32941139285E+04 0.  0.
        3    1    3    3  502    0  0.64265257376E+03  0.81202948515E+03  0.25619367867E+04  0.27633158207E+04  0.10100000352E+00 0.  1.
       -3    1    3    3    0  502 -0.64265257376E+03 -0.81202948515E+03 -0.47177035610E+03  0.11379637492E+04  0.10100000352E+00 0. -1.
</event>
<event>
 5   0  0.6023446E-07  0.3362341E+04  0.7818609E-02  0.8147211E-01
       -1   -1    0    0    0  501  0.00000000000E+00  0.00000000000E+00  0.96943244557E+03  0.96943244558E+03  0.50400001928E-02 0.  1.
        1   -1    0    0  501    0  0.00000000000E+00  0.00000000000E+00 -0.29154518976E+04  0.29154518976E+04  0.50400001928E-02 0. -1.
    10030    2    1    2    0    0  0.00000000000E+00  0.00000000000E+00 -0.19460194521E+04  0.38848843432E+04  0.33623406509E+04 0.  0.
        5    1    3    3  502    0  0.71845564395E+03 -0.12329515751E+04  0.53918020660E+02  0.14280326823E+04  0.46999998093E+01 0.  1.
       -5    1    3    3    0  502 -0.71845564395E+03  0.12329515751E+04 -0.19999374727E+04  0.24568516609E+04  0.46999998093E+01 0. -1.
</event>
<event>
 5   0  0.5985183E-07  0.3287848E+04  0.7818609E-02  0.8165994E-01
        1   -1    0    0  501    0  0.00000000000E+00  0.00000000000E+00  0.18183073648E+04  0.18183073648E+04  0.50400001928E-02 0. -1.
       -1   -1    0    0    0  501  0.00000000000E+00  0.00000000000E+00 -0.14862644102E+04  0.14862644103E+04  0.50400001928E-02 0.  1.
    10030    2    1    2    0    0  0.00000000000E+00  0.00000000000E+00  0.33204295455E+03  0.33045717751E+04  0.32878476383E+04 0.  0.
        2    1    3    3  502    0 -0.15346379319E+04 -0.36838888840E+03 -0.29638564007E+03  0.16058232788E+04  0.25500000920E-02 0.  1.
       -2    1    3    3    0  502  0.15346379319E+04  0.36838888840E+03  0.62842859461E+03  0.16987484963E+04  0.25500000920E-02 0. -1.
</event>
<event>
 5   0  0.5985183E-07  0.3273631E+04  0.7818609E-02  0.8169638E-01
       -1   -1    0    0    0  501  0.00000000000E+00  0.00000000000E+00  0.19917175875E+04  0.19917175875E+04  0.50400001928E-02 0.  1.
        1   -1    0    0  501    0  0.00000000000E+00  0.00000000000E+00 -0.13451528964E+04  0.13451528964E+04  0.50400001928E-02 0. -1.
    10030    2    1    2    0    0  0.00000000000E+00  0.00000000000E+00  0.64656469109E+03  0.33368704840E+04  0.32736308172E+04 0.  0.
        2    1    3    3  502    0 -0.20802306470E+03 -0.75978303618E+03  0.17857889328E+04  0.19518160697E+04  0.25500000920E-02 0.  1.
       -2    1    3    3    0  502  0.20802306470E+03  0.75978303618E+03 -0.11392242417E+04  0.13850544143E+04  0.25500000920E-02 0. -1.
</event>
<event>
 5   0  0.1743810E-06  0.3498976E+04  0.7818609E-02  0.8114033E-01
       -2   -1    0    0    0  501  0.00000000000E+00  0.00000000000E+00  0.13549571278E+04  0.13549571278E+04  0.25500000920E-02 0. -1.
        2   -1    0    0  501    0  0.00000000000E+00  0.00000000000E+00 -0.22588962315E+04  0.22588962315E+04  0.25500000920E-02 0.  1.
    10030    2    1    2    0    0  0.00000000000E+00  0.00000000000E+00 -0.90393910370E+03  0.36138533593E+04  0.34989755929E+04 0.  0.
        5    1    3    3  502    0  0.10661261475E+04 -0.12320019690E+04 -0.11102583868E+04  0.19715855521E+04  0.46999998093E+01 0. -1.
       -5    1    3    3    0  502 -0.10661261475E+04  0.12320019690E+04  0.20631928311E+03  0.16422678072E+04  0.46999998093E+01 0.  1.
</event>
<event>
 5   0  0.5858859E-07  0.3274568E+04  0.7818609E-02  0.8169397E-01
       -1   -1    0    0    0  501  0.00000000000E+00  0.00000000000E+00  0.14340924452E+04  0.14340924452E+04  0.50400001928E-02 0. -1.
        1   -1    0    0  501    0  0.00000000000E+00  0.00000000000E+00 -0.18692646069E+04  0.18692646069E+04  0.50400001928E-02 0.  1.
    10030    2    1    2    0    0  0.00000000000E+00  0.00000000000E+00 -0.43517216171E+03  0.33033570521E+04  0.32745676056E+04 0.  0.
        3    1    3    3  502    0  0.39951121034E+03  0.85276797406E+03 -0.15687179706E+04  0.18296716936E+04  0.10100000352E+00 0.  1.
       -3    1    3    3    0  502 -0.39951121034E+03 -0.85276797406E+03  0.11335458089E+04  0.14736853585E+04  0.10100000352E+00 0. -1.
</event>
<event>
 5   0  0.1743810E-06  0.2906951E+04  0.7818609E-02  0.8270812E-01
        2   -1    0    0  501    0  0.00000000000E+00  0.00000000000E+00  0.14415896836E+04  0.14415896836E+04  0.25500000920E-02 0.  1.
       -2   -1    0    0    0  501  0.00000000000E+00  0.00000000000E+00 -0.14654588946E+04  0.14654588946E+04  0.25500000920E-02 0. -1.
    10030    2    1    2    0    0  0.00000000000E+00  0.00000000000E+00 -0.23869211015E+02  0.29070485782E+04  0.29069505838E+04 0.  0.
        5    1    3    3  502    0  0.77538951004E+03  0.91086644958E+03 -0.83759053374E+03  0.14603035895E+04  0.46999998093E+01 0. -1.
       -5    1    3    3    0  502 -0.77538951004E+03 -0.91086644958E+03  0.81372132272E+03  0.14467449887E+04  0.46999998093E+01 0.  1.
</event>
<event>
 5   0  0.5858859E-07  0.3320758E+04  0.7818609E-02  0.8157633E-01
        1   -1    0    0  501    0  0.00000000000E+00  0.00000000000E+00  0.15137896734E+04  0.15137896734E+04  0.50400001928E-02 0. -1.
       -1   -1    0    0    0  501  0.00000000000E+00  0.00000000000E+00 -0.18211635596E+04  0.18211635596E+04  0.50400001928E-02 0.  1.
    10030    2    1    2    0    0  0.00000000000E+00  0.00000000000E+00 -0.30737388617E+03  0.33349532330E+04  0.33207581002E+04 0.  0.
        3    1    3    3  502    0  0.70990809903E+03  0.14885990288E+04  0.39389927473E+02  0.16496812281E+04  0.10100000352E+00 0. -1.
       -3    1    3    3    0  502 -0.70990809903E+03 -0.14885990288E+04 -0.34676381364E+03  0.16852720049E+04  0.10100000352E+00 0.  1.
</event>
<event>
 5   0  0.1696681E-06  0.3246431E+04  0.7818609E-02  0.8176661E-01
       -2   -1    0    0    0  501  0.00000000000E+00  0.00000000000E+00  0.14477779869E+04  0.14477779869E+04  0.25500000920E-02 0. -1.
        2   -1    0    0  501    0  0.00000000000E+00  0.00000000000E+00 -0.18199117433E+04  0.18199117433E+04  0.25500000920E-02 0.  1.
    10030    2    1    2    0    0  0.00000000000E+00  0.00000000000E+00 -0.37213375644E+03  0.32676897302E+04  0.32464307540E+04 0.  0.
        4    1    3    3  502    0  0.10670829439E+04 -0.40987678766E+03 -0.13460725753E+04  0.17659495976E+04  0.12699999809E+01 0.  1.
       -4    1    3    3    0  502 -0.10670829439E+04  0.40987678766E+03  0.97393881889E+03  0.15017401327E+04  0.12699999809E+01 0. -1.
</event>
<event>
 5   0  0.5988516E-07  0.3207357E+04  0.7818609E-02  0.8186877E-01
       -1   -1    0    0    0  501  0.00000000000E+00  0.00000000000E+00  0.14061315162E+04  0.14061315162E+04  0.50400001928E-02 0. -1.
        1   -1    0    0  501    0  0.00000000000E+00  0.00000000000E+00 -0.18289782695E+04  0.18289782695E+04  0.50400001928E-02 0.  1.
    10030    2    1    2    0    0  0.00000000000E+00  0.00000000000E+00 -0.42284675328E+03  0.32351097857E+04  0.32073565360E+04 0.  0.
        4    1    3    3  502    0  0.91454113978E+02  0.98975959811E+03 -0.14808020371E+04  0.17834697090E+04  0.12699999809E+01 0.  1.
       -4    1    3    3    0  502 -0.91454113978E+02 -0.98975959811E+03  0.10579552838E+04  0.14516400767E+04  0.12699999809E+01 0. -1.
</event>
<event>
 5   0  0.1696681E-06  0.3320426E+04  0.7818609E-02  0.8157717E-01
       -2   -1    0    0    0  501  0.00000000000E+00  0.00000000000E+00  0.10185502222E+04  0.10185502222E+04  0.25500000920E-02 0.  1.
        2   -1    0    0  501    0  0.00000000000E+00  0.00000000000E+00 -0.27061084730E+04  0.27061084730E+04  0.25500000920E-02 0. -1.
    10030    2    1    2    0    0  0.00000000000E+00  0.00000000000E+00 -0.16875582507E+04  0.37246586952E+04  0.33204261091E+04 0.  0.
        4    1    3    3  502    0 -0.14846805336E+04 -0.50599611277E+03 -0.14540696485E+04  0.21388381211E+04  0.12699999809E+01 0. -1.
       -4    1    3    3    0  502  0.14846805336E+04  0.50599611277E+03 -0.23348860224E+03  0.15858205741E+04  0.12699999809E+01 0.  1.
</event>
<event>
 5   0  0.1784626E-06  0.3302187E+04  0.7818609E-02  0.8162339E-01
       -2   -1    0    0    0  501  0.00000000000E+00  0.00000000000E+00  0.11246726091E+04  0.11246726091E+04  0.25500000920E-02 0. -1.
        2   -1    0    0  501    0  0.00000000000E+00  0.00000000000E+00 -0.24239143986E+04  0.24239143986E+04  0.25500000920E-02 0.  1.
    10030    2    1    2    0    0  0.00000000000E+00  0.00000000000E+00 -0.12992417895E+04  0.35485870077E+04  0.33021872333E+04 0.  0.
        2    1    3    3  502    0 -0.13307370173E+04 -0.14789738380E+03 -0.16878231292E+04  0.21544097941E+04  0.25500000920E-02 0.  1.
       -2    1    3    3    0  502  0.13307370173E+04  0.14789738380E+03  0.38858133973E+03  0.13941772136E+04  0.25500000920E-02 0. -1.
</event>
<event>
 5   0  0.6085351E-07  0.3343601E+04  0.7818609E-02  0.8151889E-01
        1   -1    0    0  501    0  0.00000000000E+00  0.00000000000E+00  0.15940709262E+04  0.15940709262E+04  0.50400001928E-02 0. -1.
       -1   -1    0    0    0  501  0.00000000000E+00  0.00000000000E+00 -0.17533203885E+04  0.17533203885E+04  0.50400001928E-02 0.  1.
    10030    2    1    2    0    0  0.00000000000E+00  0.00000000000E+00 -0.15924946231E+03  0.33473913147E+04  0.33436010860E+04 0.  0.
        1    1    3    3  502    0 -0.38138683043E+03 -0.15480580143E+03  0.15425503772E+04  0.15965219751E+04  0.50400001928E-02 0. -1.
       -1    1    3    3    0  502  0.38138683043E+03  0.15480580143E+03 -0.17017998395E+04  0.17508693396E+04  0.50400001928E-02 0.  1.
</event>
<event>
 5   0  0.6085351E-07  0.3326261E+04  0.7818609E-02  0.8156245E-01
        1   -1    0    0  501    0  0.00000000000E+00  0.00000000000E+00  0.20295726028E+04  0.20295726028E+04  0.50400001928E-02 0.  1.
       -1   -1    0    0    0  501  0.00000000000E+00  0.00000000000E+00 -0.13628497850E+04  0.13628497850E+04  0.50400001928E-02 0. -1.
    10030    2    1    2    0    0  0.00000000000E+00  0.00000000000E+00  0.66672281787E+03  0.33924223878E+04  0.33262607146E+04 0.  0.
        1    1    3    3  502    0  0.10921135317E+04 -0.12148653600E+04  0.65164702085E+03  0.17587648078E+04  0.50400001928E-02 0.  1.
       -1    1    3    3    0  502 -0.10921135317E+04  0.12148653600E+04  0.15075797023E+02  0.16336575801E+04  0.50400001928E-02 0. -1.
</event>
<event>
 5   0  0.1743810E-06  0.3310939E+04  0.7818609E-02  0.8160118E-01
        2   -1    0    0  501    0  0.00000000000E+00  0.00000000000E+00  0.22176306927E+04  0.22176306927E+04  0.25500000920E-02 0.  1.
       -2   -1    0    0    0  501  0.00000000000E+00  0.00000000000E+00 -0.12358139309E+04  0.12358139309E+04  0.25500000920E-02 0. -1.
    10030    2    1    2    0    0  0.00000000000E+00  0.00000000000E+00  0.98181676182E+03  0.34534446236E+04  0.33109387815E+04 0.  0.
        5    1    3    3  502    0  0.66677460201E+03  0.58826561851E+03  0.19474028919E+04  0.21408047368E+04  0.46999998093E+01 0.  1.
       -5    1    3    3    0  502 -0.66677460201E+03 -0.58826561851E+03 -0.96558613009E+03  0.13126398868E+04  0.46999998093E+01 0. -1.
</event>
<event>
 5   0  0.1832626E-06  0.3269480E+04  0.7818609E-02  0.8170705E-01
       -2   -1    0    0    0  501  0.00000000000E+00  0.00000000000E+00  0.16119710572E+04  0.16119710572E+04  0.25500000920E-02 0.  1.
        2   -1    0    0  501    0  0.00000000000E+00  0.00000000000E+00 -0.16578300780E+04  0.16578300780E+04  0.25500000920E-02 0. -1.
    10030    2    1    2    0    0  0.00000000000E+00  0.00000000000E+00 -0.45859020856E+02  0.32698011352E+04  0.32694795326E+04 0.  0.
        3    1    3    3  502    0 -0.70512104534E+03 -0.11537864349E+03 -0.14934027331E+04  0.16555239815E+04  0.10100000352E+00 0. -1.
       -3    1    3    3    0  502  0.70512104534E+03  0.11537864349E+03  0.14475437122E+04  0.16142771537E+04  0.10100000352E+00 0.  1.
</event>
<event>
 5   0  0.1743810E-06  0.3222325E+04  0.7818609E-02  0.8182946E-01
        2   -1    0    0  501    0  0.00000000000E+00  0.00000000000E+00  0.14805701940E+04  0.14805701940E+04  0.25500000920E-02 0.  1.
       -2   -1    0    0    0  501  0.00000000000E+00  0.00000000000E+00 -0.17532732864E+04  0.17532732864E+04  0.25500000920E-02 0. -1.
    10030    2    1    2    0    0  0.00000000000E+00  0.00000000000E+00 -0.27270309237E+03  0.32338434804E+04  0.32223247321E+04 0.  0.
        5    1    3    3  502    0  0.35793215235E+03 -0.15529917686E+04  0.10097470516E+03  0.15969085259E+04  0.46999998093E+01 0. -1.
       -5    1    3    3    0  502 -0.35793215235E+03  0.15529917686E+04 -0.37367779754E+03  0.16369349545E+04  0.46999998093E+01 0.  1.
</event>
<event>
 5   0  0.5985183E-07  0.3302075E+04  0.7818609E-02  0.8162368E-01
       -1   -1    0    0    0  501  0.00000000000E+00  0.00000000000E+00  0.21448372102E+04  0.21448372102E+04  0.50400001928E-02 0.  1.
        1   -1    0    0  501    0  0.00000000000E+00  0.00000000000E+00 -0.12709241258E+04  0.12709241258E+04  0.50400001928E-02 0. -1.
    10030    2    1    2    0    0  0.00000000000E+00  0.00000000000E+00  0.87391308438E+03  0.34157613360E+04  0.33020753209E+04 0.  0.
        2    1    3    3  502    0 -0.14962717585E+04 -0.52048896799E+03  0.91792406017E+03  0.18309348763E+04  0.25500000920E-02 0.  1.
       -2    1    3    3    0  502  0.14962717585E+04  0.52048896799E+03 -0.44010975782E+02  0.15848264596E+04  0.25500000920E-02 0. -1.
</event>
<event>
 5   0  0.1696681E-06  0.3308573E+04  0.7818609E-02  0.8160718E-01
       -2   -1    0    0    0  501  0.00000000000E+00  0.00000000000E+00  0.84242846027E+03  0.84242846027E+03  0.25500000920E-02 0. -1.
        2   -1    0    0  501    0  0.00000000000E+00  0.00000000000E+00 -0.32485406880E+04  0.32485406880E+04  0.25500000920E-02 0.  1.
    10030    2    1    2    0    0  0.00000000000E+00  0.00000000000E+00 -0.24061122277E+04  0.40909691483E+04  0.33085725804E+04 0.  0.
        4    1    3    3  502    0 -0.66440953439E+03  0.14740502808E+04 -0.77047118868E+03  0.17910588280E+04  0.12699999809E+01 0. -1.
       -4    1    3    3    0  502  0.66440953439E+03 -0.14740502808E+04 -0.16356410390E+04  0.22999103203E+04  0.12699999809E+01 0.  1.
</event>
<event>
 5   0  0.6085351E-07  0.3310986E+04  0.7818609E-02  0.8160106E-01
        1   -1    0    0  501    0  0.00000000000E+00  0.00000000000E+00  0.17551298559E+04  0.17551298559E+04  0.50400001928E-02 0. -1.
       -1   -1    0    0    0  501  0.00000000000E+00  0.00000000000E+00 -0.15615125272E+04  0.15615125272E+04  0.50400001928E-02 0.  1.
    10030    2    1    2    0    0  0.00000000000E+00  0.00000000000E+00  0.19361732868E+03  0.33166423831E+04  0.33109861110E+04 0.  0.
        1    1    3    3  502    0 -0.53806168646E+03  0.30036819514E+03 -0.14423466944E+04  0.15684691320E+04  0.50400001928E-02 0.  1.
       -1    1    3    3    0  502  0.53806168646E+03 -0.30036819514E+03  0.16359640231E+04  0.17481732511E+04  0.50400001928E-02 0. -1.
</event>
<event>
 5   0  0.1832626E-06  0.3352188E+04  0.7818609E-02  0.8149742E-01
        2   -1    0    0  501    0  0.00000000000E+00  0.00000000000E+00  0.23051263474E+04  0.23051263474E+04  0.25500000920E-02 0.  1.
       -2   -1    0    0    0  501  0.00000000000E+00  0.00000000000E+00 -0.12187149258E+04  0.12187149258E+04  0.25500000920E-02 0. -1.
    10030    2    1    2    0    0  0.00000000000E+00  0.00000000000E+00  0.10864114216E+04  0.35238412732E+04  0.33521884705E+04 0.  0.
        3    1    3    3  502    0 -0.63492804740E+03 -0.20362454882E+03  0.21597049456E+04  0.22602924688E+04  0.10100000352E+00 0.  1.
       -3    1    3    3    0  502  0.63492804740E+03  0.20362454882E+03 -0.10732935240E+04  0.12635488044E+04  0.10100000352E+00 0. -1.
</event>
<event>
 5   0  0.6085351E-07  0.2927657E+04  0.7818609E-02  0.8264696E-01
        1   -1    0    0  501    0  0.00000000000E+00  0.00000000000E+00  0.23483118896E+04  0.23483118896E+04  0.50400001928E-02 0.  1.
       -1   -1    0    0    0  501  0.00000000000E+00  0.00000000000E+00 -0.91248247099E+03  0.91248247100E+03  0.50400001928E-02 0. -1.
    10030    2    1    2    0    0  0.00000000000E+00  0.00000000000E+00  0.14358294186E+04  0.32607943606E+04  0.29276566982E+04 0.  0.
        1    1    3    3  502    0  0.85800274364E+03 -0.29104732346E+03  0.19984903065E+04  0.21942745402E+04  0.50400001928E-02 0.  1.
       -1    1    3    3    0  502 -0.85800274364E+03  0.29104732346E+03 -0.56266088787E+03  0.10665198204E+04  0.50400001928E-02 0. -1.
</event>
<event>
 5   0  0.1743810E-06  0.3285354E+04  0.7818609E-02  0.8166632E-01
        2   -1    0    0  501    0  0.00000000000E+00  0.00000000000E+00  0.14127484246E+04  0.14127484246E+04  0.25500000920E-02 0.  1.
       -2   -1    0    0    0  501  0.00000000000E+00  0.00000000000E+00 -0.19100267255E+04  0.19100267255E+04  0.25500000920E-02 0. -1.
    10030    2    1    2    0    0  0.00000000000E+00  0.00000000000E+00 -0.49727830082E+03  0.33227751501E+04  0.32853537084E+04 0.  0.
        5    1    3    3  502    0 -0.39145358466E+03  0.69003397816E+03  0.12061404885E+04  0.14436688567E+04  0.46999998093E+01 0.  1.
       -5    1    3    3    0  502  0.39145358466E+03 -0.69003397816E+03 -0.17034187893E+04  0.18791062933E+04  0.46999998093E+01 0. -1.
</event>
<event>
 5   0  0.5988516E-07  0.3302771E+04  0.7818609E-02  0.8162191E-01
        1   -1    0    0  501    0  0.00000000000E+00  0.00000000000E+00  0.11662892098E+04  0.11662892098E+04  0.50400001928E-02 0. -1.
       -1   -1    0    0    0  501  0.00000000000E+00  0.00000000000E+00 -0.23382482970E+04  0.23382482970E+04  0.50400001928E-02 0.  1.
    10030    2    1    2    0    0  0.00000000000E+00  0.00000000000E+00 -0.11719590872E+04  0.35045375068E+04  0.33027708117E+04 0.  0.
        4    1    3    3  502    0 -0.46003173190E+03 -0.15680168973E+04 -0.83879072171E+03  0.18368118228E+04  0.12699999809E+01 0. -1.
       -4    1    3    3    0  502  0.46003173190E+03  0.15680168973E+04 -0.33316836544E+03  0.16677256841E+04  0.12699999809E+01 0.  1.
</event>
<event>
 5   0  0.1784626E-06  0.3240079E+04  0.7818609E-02  0.8178312E-01
       -2   -1    0    0    0  501  0.00000000000E+00  0.00000000000E+00  0.21394065374E+04  0.21394065374E+04  0.25500000920E-02 0.  1.
        2   -1    0    0  501    0  0.00000000000E+00  0.00000000000E+00 -0.12267548804E+04  0.12267548804E+04  0.25500000920E-02 0. -1.
    10030    2    1    2    0    0  0.00000000000E+00  0.00000000000E+00  0.91265165697E+03  0.33661614178E+04  0.32400786477E+04 0.  0.
        2    1    3    3  502    0 -0.15216977833E+04 -0.19473014993E+03 -0.84551568450E+02  0.15364351411E+04  0.25500000920E-02 0. -1.
       -2    1    3    3    0  502  0.15216977833E+04  0.19473014993E+03  0.99720322542E+03  0.18297262767E+04  0.25500000920E-02 0.  1.
</event>
<event>
 5   0  0.1832626E-06  0.3190977E+04  0.7818609E-02  0.8191204E-01
       -2   -1    0    0    0  501  0.00000000000E+00  0.00000000000E+00  0.10228271331E+04  0.10228271331E+04  0.25500000920E-02 0. -1.
        2   -1    0    0  501    0  0.00000000000E+00  0.00000000000E+00 -0.24887721007E+04  0.24887721007E+04  0.25500000920E-02 0.  1.
    10030    2    1    2    0    0  0.00000000000E+00  0.00000000000E+00 -0.14659449676E+04  0.35115992339E+04  0.31909770497E+04 0.  0.
        3    1    3    3  502    0  0.12422937155E+04  0.75341258625E+03 -0.14585032175E+04  0.20586781794E+04  0.10100000352E+00 0.  1.
       -3    1    3    3    0  502 -0.12422937155E+04 -0.75341258625E+03 -0.74417501435E+01  0.14529210545E+04  0.10100000352E+00 0. -1.
</event>
<event>
 5   0  0.6023446E-07  0.3303632E+04  0.7818609E-02  0.8161972E-01
       -1   -1    0    0    0  501  0.00000000000E+00  0.00000000000E+00  0.30305729063E+04  0.30305729063E+04  0.50400001928E-02 0.  1.
        1   -1    0    0  501    0  0.00000000000E+00  0.00000000000E+00 -0.90032360971E+03  0.90032360972E+03  0.50400001928E-02 0. -1.
    10030    2    1    2    0    0  0.00000000000E+00  0.00000000000E+00  0.21302492966E+04  0.39308965160E+04  0.33036321457E+04 0.  0.
        5    1    3    3  502    0  0.72290676539E+03  0.82680204041E+03  0.25331953658E+04  0.27610318101E+04  0.46999998093E+01 0.  1.
       -5    1    3    3    0  502 -0.72290676539E+03 -0.82680204041E+03 -0.40294606916E+03  0.11698647059E+04  0.46999998093E+01 0. -1.
</event>
<event>
 5   0  0.5685000E-07  0.3183583E+04  0.7818609E-02  0.8193166E-01
        4   -1    0    0  501    0  0.00000000000E+00  0.00000000000E+00  0.14827795734E+04  0.14827801173E+04  0.12699999809E+01 0.  1.
       -4   -1    0    0    0  501  0.00000000000E+00  0.00000000000E+00 -0.17088172190E+04  0.17088176910E+04  0.12699999809E+01 0. -1.
    10030    2    1    2    0    0  0.00000000000E+00  0.00000000000E+00 -0.22603764564E+03  0.31915978082E+04  0.31835834452E+04 0.  0.
        1    1    3    3  502    0 -0.10418374307E+04  0.11004962912E+03  0.10884407695E+04  0.15107082649E+04  0.50400001928E-02 0. -1.
       -1    1    3    3    0  502  0.10418374307E+04 -0.11004962912E+03 -0.13144784152E+04  0.16808895433E+04  0.50400001928E-02 0.  1.
</event>
<event>
 5   0  0.1696681E-06  0.3326622E+04  0.7818609E-02  0.8156154E-01
        2   -1    0    0  501    0  0.00000000000E+00  0.00000000000E+00  0.23722253904E+04  0.23722253904E+04  0.25500000920E-02 0. -1.
       -2   -1    0    0    0  501  0.00000000000E+00  0.00000000000E+00 -0.11662484410E+04  0.11662484410E+04  0.25500000920E-02 0.  1.
    10030    2    1    2    0    0  0.00000000000E+00  0.00000000000E+00  0.12059769494E+04  0.35384738314E+04  0.33266224092E+04 0.  0.
        4    1    3    3  502    0  0.36597828308E+03 -0.50919574730E+03 -0.10356996791E+04  0.12107418597E+04  0.12699999809E+01 0.  1.
       -4    1    3    3    0  502 -0.36597828308E+03  0.50919574730E+03  0.22416766284E+04  0.23277319717E+04  0.12699999809E+01 0. -1.
</event>
<event>
 5   0  0.1784626E-06  0.3279908E+04  0.7818609E-02  0.8168027E-01
        2   -1    0    0  501    0  0.00000000000E+00  0.00000000000E+00  0.25321410100E+04  0.25321410100E+04  0.25500000920E-02 0. -1.
       -2   -1    0    0    0  501  0.00000000000E+00  0.00000000000E+00 -0.10621242603E+04  0.10621242603E+04  0.25500000920E-02 0.  1.
    10030    2    1    2    0    0  0.00000000000E+00  0.00000000000E+00  0.14700167498E+04  0.35942652703E+04  0.32799075579E+04 0.  0.
        2    1    3    3  502    0 -0.13914485981E+04 -0.55119074871E+03  0.29623886378E+00  0.14966430872E+04  0.25500000920E-02 0.  1.
       -2    1    3    3    0  502  0.13914485981E+04  0.55119074871E+03  0.14697205109E+04  0.20976221831E+04  0.25500000920E-02 0. -1.
</event>
<event>
 5   0  0.5985183E-07  0.3319863E+04  0.7818609E-02  0.8157860E-01
        1   -1    0    0  501    0  0.00000000000E+00  0.00000000000E+00  0.10766003665E+04  0.10766003665E+04  0.50400001928E-02 0. -1.
       -1   -1    0    0    0  501  0.00000000000E+00  0.00000000000E+00 -0.25593274396E+04  0.25593274396E+04  0.50400001928E-02 0.  1.
    10030    2    1    2    0    0  0.00000000000E+00  0.00000000000E+00 -0.14827270731E+04  0.36359278061E+04  0.33198631655E+04 0.  0.
        2    1    3    3  502    0 -0.39466697832E+03 -0.15043150969E+04 -0.10591205956E+03  0.15588275398E+04  0.25500000920E-02 0. -1.
       -2    1    3    3    0  502  0.39466697832E+03  0.15043150969E+04 -0.13768150136E+04  0.20771002663E+04  0.25500000920E-02 0.  1.
</event>
<event>
 5   0  0.1696681E-06  0.3302528E+04  0.7818609E-02  0.8162252E-01
       -2   -1    0    0    0  501  0.00000000000E+00  0.00000000000E+00  0.11193594337E+04  0.11193594337E+04  0.25500000920E-02 0. -1.
        2   -1    0    0  501    0  0.00000000000E+00  0.00000000000E+00 -0.24359229807E+04  0.24359229807E+04  0.25500000920E-02 0.  1.
    10030    2    1    2    0    0  0.00000000000E+00  0.00000000000E+00 -0.13165635470E+04  0.35552824144E+04  0.33025283455E+04 0.  0.
        4    1    3    3  502    0 -0.35203646428E+03 -0.12134604484E+04  0.48621857040E+03  0.13538190585E+04  0.12699999809E+01 0. -1.
       -4    1    3    3    0  502  0.35203646428E+03  0.12134604484E+04 -0.18027821174E+04  0.22014633560E+04  0.12699999809E+01 0.  1.
</event>
<event>
 5   0  0.1743810E-06  0.3131877E+04  0.7818609E-02  0.8207044E-01
        2   -1    0    0  501    0  0.00000000000E+00  0.00000000000E+00  0.20157683919E+04  0.20157683919E+04  0.25500000920E-02 0.  1.
       -2   -1    0    0    0  501  0.00000000000E+00  0.00000000000E+00 -0.12164908236E+04  0.12164908236E+04  0.25500000920E-02 0. -1.
    10030    2    1    2    0    0  0.00000000000E+00  0.00000000000E+00  0.79927756835E+03  0.32322592155E+04  0.31318772334E+04 0.  0.
        5    1    3    3  502    0 -0.32053868151E+03  0.13344254418E+04  0.11779353451E+04  0.18085878672E+04  0.46999998093E+01 0.  1.
       -5    1    3    3    0  502  0.32053868151E+03 -0.13344254418E+04 -0.37865777676E+03  0.14236713483E+04  0.46999998093E+01 0. -1.
</event>
<event>
 5   0  0.1696681E-06  0.3289789E+04  0.7818609E-02  0.8165499E-01
        2   -1    0    0  501    0  0.00000000000E+00  0.00000000000E+00  0.15334656022E+04  0.15334656022E+04  0.25500000920E-02 0.  1.
       -2   -1    0    0    0  501  0.00000000000E+00  0.00000000000E+00 -0.17644199456E+04  0.17644199456E+04  0.25500000920E-02 0. -1.
    10030    2    1    2    0    0  0.00000000000E+00  0.00000000000E+00 -0.23095434339E+03  0.32978855477E+04  0.32897886219E+04 0.  0.
        4    1    3    3  502    0  0.10551817264E+04 -0.24432540454E+02 -0.13801964413E+04  0.17375123753E+04  0.12699999809E+01 0. -1.
       -4    1    3    3    0  502 -0.10551817264E+04  0.24432540454E+02  0.11492420979E+04  0.15603731724E+04  0.12699999809E+01 0.  1.
</event>
<event>
 5   0  0.1784626E-06  0.3304035E+04  0.7818609E-02  0.8161869E-01
        2   -1    0    0  501    0  0.00000000000E+00  0.00000000000E+00  0.17594646750E+04  0.17594646750E+04  0.25500000920E-02 0.  1.
       -2   -1    0    0    0  501  0.00000000000E+00  0.00000000000E+00 -0.15511321088E+04  0.15511321088E+04  0.25500000920E-02 0. -1.
    10030    2    1    2    0    0  0.00000000000E+00  0.00000000000E+00  0.20833256619E+03  0.33105967838E+04  0.33040352006E+04 0.  0.
        2    1    3    3  502    0 -0.16122311527E+04  0.34816249637E+03  0.19738726590E+03  0.16611646957E+04  0.25500000920E-02 0.  1.
       -2    1    3    3    0  502  0.16122311527E+04 -0.34816249637E+03  0.10945300288E+02  0.16494320881E+04  0.25500000920E-02 0. -1.
</event>
<event>
 5   0  0.1743810E-06  0.3295978E+04  0.7818609E-02  0.8163919E-01
        2   -1    0    0  501    0  0.00000000000E+00  0.00000000000E+00  0.15519908239E+04  0.15519908239E+04  0.25500000920E-02 0. -1.
       -2   -1    0    0    0  501  0.00000000000E+00  0.00000000000E+00 -0.17499256497E+04  0.17499256497E+04  0.25500000920E-02 0.  1.
    10030    2    1    2    0    0  0.00000000000E+00  0.00000000000E+00 -0.19793482576E+03  0.33019164736E+04  0.32959784895E+04 0.  0.
        5    1    3    3  502    0 -0.45753698158E+03 -0.15049676452E+04  0.39342469881E+03  0.16214415765E+04  0.46999998093E+01 0. -1.
       -5    1    3    3    0  502  0.45753698158E+03  0.15049676452E+04 -0.59135952457E+03  0.16804748971E+04  0.46999998093E+01 0.  1.
</event>
<event>
 5   0  0.6085351E-07  0.3306468E+04  0.7818609E-02  0.8161252E-01
       -1   -1    0    0    0  501  0.00000000000E+00  0.00000000000E+00  0.13247157944E+04  0.13247157944E+04  0.50400001928E-02 0. -1.
        1   -1    0    0  501    0  0.00000000000E+00  0.00000000000E+00 -0.20632219826E+04  0.20632219826E+04  0.50400001928E-02 0.  1.
    10030    2    1    2    0    0  0.00000000000E+00  0.00000000000E+00 -0.73850618820E+03  0.33879377770E+04  0.33064680538E+04 0.  0.
        1    1    3    3  502    0 -0.37807347548E+03  0.15496263451E+04  0.76083789846E+02  0.15968938930E+04  0.50400001928E-02 0. -1.
       -1    1    3    3    0  502  0.37807347548E+03 -0.15496263451E+04 -0.81458997804E+03  0.17910438841E+04  0.50400001928E-02 0.  1.
</event>
<event>
 5   0  0.1832626E-06  0.3302671E+04  0.7818609E-02  0.8162216E-01
        2   -1    0    0  501    0  0.00000000000E+00  0.00000000000E+00  0.22164660555E+04  0.22164660555E+04  0.25500000920E-02 0. -1.
       -2   -1    0    0    0  501  0.00000000000E+00  0.00000000000E+00 -0.12302960808E+04  0.12302960808E+04  0.25500000920E-02 0.  1.
    10030    2    1    2    0    0  0.00000000000E+00  0.00000000000E+00  0.98616997477E+03  0.34467621363E+04  0.33026713438E+04 0.  0.
        3    1    3    3  502    0  0.10277501174E+04 -0.12341310263E+04  0.89397937841E+03  0.18380829234E+04  0.10100000352E+00 0. -1.
       -3    1    3    3    0  502 -0.10277501174E+04  0.12341310263E+04  0.92190596363E+02  0.16086792130E+04  0.10100000352E+00 0.  1.
</event>
<event>
 5   0  0.6085351E-07  0.3297220E+04  0.7818609E-02  0.8163603E-01
       -1   -1    0    0    0  501  0.00000000000E+00  0.00000000000E+00  0.14160492712E+04  0.14160492712E+04  0.50400001928E-02 0. -1.
        1   -1    0    0  501    0  0.00000000000E+00  0.00000000000E+00 -0.19193648737E+04  0.19193648738E+04  0.50400001928E-02 0.  1.
    10030    2    1    2    0    0  0.00000000000E+00  0.00000000000E+00 -0.50331560253E+03  0.33354141450E+04  0.32972201811E+04 0.  0.
        1    1    3    3  502    0  0.11586334256E+04  0.94987225612E+02 -0.14341559676E+04  0.18461466159E+04  0.50400001928E-02 0.  1.
       -1    1    3    3    0  502 -0.11586334256E+04 -0.94987225612E+02  0.93084036505E+03  0.14892675291E+04  0.50400001928E-02 0. -1.
</event>
<event>
 5   0  0.1784626E-06  0.3241306E+04  0.7818609E-02  0.8177993E-01
       -2   -1    0    0    0  501  0.00000000000E+00  0.00000000000E+00  0.16509990205E+04  0.16509990205E+04  0.25500000920E-02 0.  1.
        2   -1    0    0  501    0  0.00000000000E+00  0.00000000000E+00 -0.15908652065E+04  0.15908652065E+04  0.25500000920E-02 0. -1.
    10030    2    1    2    0    0  0.00000000000E+00  0.00000000000E+00  0.60133813987E+02  0.32418642270E+04  0.32413064635E+04 0.  0.
        2    1    3    3  502    0  0.15095763580E+04  0.58099741235E+03 -0.70638669945E+02  0.16190641110E+04  0.25500000920E-02 0. -1.
       -2    1    3    3    0  502 -0.15095763580E+04 -0.58099741235E+03  0.13077248393E+03  0.16228001160E+04  0.25500000920E-02 0.  1.
</event>
<event>
 5   0  0.1743810E-06  0.3228373E+04  0.7818609E-02  0.8181364E-01
        2   -1    0    0  501    0  0.00000000000E+00  0.00000000000E+00  0.86895085679E+03  0.86895085679E+03  0.25500000920E-02 0. -1.
       -2   -1    0    0    0  501  0.00000000000E+00  0.00000000000E+00 -0.29985562095E+04  0.29985562095E+04  0.25500000920E-02 0.  1.
    10030    2    1    2    0    0  0.00000000000E+00  0.00000000000E+00 -0.21296053527E+04  0.38675070663E+04  0.32283729570E+04 0.  0.
        5    1    3    3  502    0  0.16140434527E+04 -0.20902281618E+02 -0.10667801050E+04  0.19348423851E+04  0.46999998093E+01 0.  1.
       -5    1    3    3    0  502 -0.16140434527E+04  0.20902281618E+02 -0.10628252477E+04  0.19326646812E+04  0.46999998093E+01 0. -1.
</event>
<event>
 5   0  0.5858859E-07  0.3259571E+04  0.7818609E-02  0.8173259E-01
        1   -1    0    0  501    0  0.00000000000E+00  0.00000000000E+00  0.20230199595E+04  0.20230199595E+04  0.50400001928E-02 0. -1.
       -1   -1    0    0    0  501  0.00000000000E+00  0.00000000000E+00 -0.13129881803E+04  0.13129881803E+04  0.50400001928E-02 0.  1.
    10030    2    1    2    0    0  0.00000000000E+00  0.00000000000E+00  0.71003177913E+03  0.33360081398E+04  0.32595713187E+04 0.  0.
        3    1    3    3  502    0 -0.85768495110E+03  0.12097115005E+04  0.10470193655E+04  0.18152892199E+04  0.10100000352E+00 0. -1.
       -3    1    3    3    0  502  0.85768495110E+03 -0.12097115005E+04 -0.33698758638E+03  0.15207189199E+04  0.10100000352E+00 0.  1.
</event>
<event>
 5   0  0.6085351E-07  0.3259242E+04  0.7818609E-02  0.8173344E-01
        1   -1    0    0  501    0  0.00000000000E+00  0.00000000000E+00  0.15258239630E+04  0.15258239630E+04  0.50400001928E-02 0.  1.
       -1   -1    0    0    0  501  0.00000000000E+00  0.00000000000E+00 -0.17404792326E+04  0.17404792326E+04  0.50400001928E-02 0. -1.
    10030    2    1    2    0    0  0.00000000000E+00  0.00000000000E+00 -0.21465526958E+03  0.32663031957E+04  0.32592421943E+04 0.  0.
        1    1    3    3  502    0 -0.10239818451E+04 -0.66221454360E+03  0.97603145350E+03  0.15619552871E+04  0.50400001928E-02 0.  1.
       -1    1    3    3    0  502  0.10239818451E+04  0.66221454360E+03 -0.11906867231E+04  0.17043479085E+04  0.50400001928E-02 0. -1.
</event>
<event>
 5   0  0.6023446E-07  0.3301467E+04  0.7818609E-02  0.8162522E-01
        1   -1    0    0  501    0  0.00000000000E+00  0.00000000000E+00  0.19396732555E+04  0.19396732555E+04  0.50400001928E-02 0.  1.
       -1   -1    0    0    0  501  0.00000000000E+00  0.00000000000E+00 -0.14048353004E+04  0.14048353004E+04  0.50400001928E-02 0. -1.
    10030    2    1    2    0    0  0.00000000000E+00  0.00000000000E+00  0.53483795512E+03  0.33445085559E+04  0.33014672256E+04 0.  0.
        5    1    3    3  502    0 -0.42103781571E+03 -0.12535872029E+04 -0.73346245643E+03  0.15121980632E+04  0.46999998093E+01 0. -1.
       -5    1    3    3    0  502  0.42103781571E+03  0.12535872029E+04  0.12683004116E+04  0.18323104926E+04  0.46999998093E+01 0.  1.
</event>
<event>
 5   0  0.5685000E-07  0.3304455E+04  0.7818609E-02  0.8161763E-01
       -3   -1    0    0    0  501  0.00000000000E+00  0.00000000000E+00  0.11765437111E+04  0.11765437154E+04  0.10100000352E+00 0. -1.
        3   -1    0    0  501    0  0.00000000000E+00  0.00000000000E+00 -0.23202332487E+04  0.23202332509E+04  0.10100000352E+00 0.  1.
    10030    2    1    2    0    0  0.00000000000E+00  0.00000000000E+00 -0.11436895376E+04  0.34967769664E+04  0.33044550828E+04 0.  0.
        3    1    3    3  502    0 -0.15451168085E+04  0.19818694101E+03 -0.11545203551E+04  0.19389639698E+04  0.10100000352E+00 0. -1.
       -3    1    3    3    0  502  0.15451168085E+04 -0.19818694101E+03  0.10830817453E+02  0.15578129966E+04  0.10100000352E+00 0.  1.
</event>
<event>
 5   0  0.5858859E-07  0.3303127E+04  0.7818609E-02  0.8162100E-01
        1   -1    0    0  501    0  0.00000000000E+00  0.00000000000E+00  0.23582630160E+04  0.23582630160E+04  0.50400001928E-02 0.  1.
       -1   -1    0    0    0  501  0.00000000000E+00  0.00000000000E+00 -0.11566401431E+04  0.11566401431E+04  0.50400001928E-02 0. -1.
    10030    2    1    2    0    0  0.00000000000E+00  0.00000000000E+00  0.12016228729E+04  0.35149031591E+04  0.33031268049E+04 0.  0.
        3    1    3    3  502    0 -0.35633650145E+03 -0.11822636901E+04 -0.56629330915E+03  0.13584591482E+04  0.10100000352E+00 0. -1.
       -3    1    3    3    0  502  0.35633650145E+03  0.11822636901E+04  0.17679161821E+04  0.21564440109E+04  0.10100000352E+00 0.  1.
</event>
<event>
 5   0  0.1743810E-06  0.3315224E+04  0.7818609E-02  0.8159032E-01
       -2   -1    0    0    0  501  0.00000000000E+00  0.00000000000E+00  0.11537036187E+04  0.11537036187E+04  0.25500000920E-02 0. -1.
        2   -1    0    0  501    0  0.00000000000E+00  0.00000000000E+00 -0.23816147455E+04  0.23816147455E+04  0.25500000920E-02 0.  1.
    10030    2    1    2    0    0  0.00000000000E+00  0.00000000000E+00 -0.12279111268E+04  0.35353183642E+04  0.33152240046E+04 0.  0.
        5    1    3    3  502    0 -0.75266275274E+03  0.48457967015E+03  0.87377623670E+03  0.12509299253E+04  0.46999998093E+01 0. -1.
       -5    1    3    3    0  502  0.75266275274E+03 -0.48457967015E+03 -0.21016873635E+04  0.22843884389E+04  0.46999998093E+01 0.  1.
</event>
<event>
 5   0  0.5685000E-07  0.3390371E+04  0.7818609E-02  0.8140274E-01
        3   -1    0    0  501    0  0.00000000000E+00  0.00000000000E+00  0.14924462710E+04  0.14924462744E+04  0.10100000352E+00 0.  1.
       -3   -1    0    0    0  501  0.00000000000E+00  0.00000000000E+00 -0.19254660541E+04  0.19254660567E+04  0.10100000352E+00 0. -1.
    10030    2    1    2    0    0  0.00000000000E+00  0.00000000000E+00 -0.43301978315E+03  0.34179123311E+04  0.33903714502E+04 0.  0.
        3    1    3    3  502    0 -0.64928672527E+03 -0.93087204680E+03  0.10529085033E+04  0.15481318890E+04  0.10100000352E+00 0.  1.
       -3    1    3    3    0  502  0.64928672527E+03  0.93087204680E+03 -0.14859282865E+04  0.18697804421E+04  0.10100000352E+00 0. -1.
</event>
<event>
 5   0  0.1743810E-06  0.3288604E+04  0.7818609E-02  0.8165801E-01
        2   -1    0    0  501    0  0.00000000000E+00  0.00000000000E+00  0.22360041299E+04  0.22360041299E+04  0.25500000920E-02 0.  1.
       -2   -1    0    0    0  501  0.00000000000E+00  0.00000000000E+00 -0.12091792641E+04  0.12091792641E+04  0.25500000920E-02 0. -1.
    10030    2    1    2    0    0  0.00000000000E+00  0.00000000000E+00  0.10268248658E+04  0.34451833940E+04  0.32886044629E+04 0.  0.
        5    1    3    3  502    0 -0.10965733409E+04 -0.49332202240E+03  0.16883593411E+04  0.20727805152E+04  0.46999998093E+01 0.  1.
       -5    1    3    3    0  502  0.10965733409E+04  0.49332202240E+03 -0.66153447524E+03  0.13724028788E+04  0.46999998093E+01 0. -1.
</event>
<event>
 5   0  0.6085351E-07  0.3275015E+04  0.7818609E-02  0.8169282E-01
       -1   -1    0    0    0  501  0.00000000000E+00  0.00000000000E+00  0.20548511502E+04  0.20548511502E+04  0.50400001928E-02 0. -1.
        1   -1    0    0  501    0  0.00000000000E+00  0.00000000000E+00 -0.13049270420E+04  0.13049270420E+04  0.50400001928E-02 0.  1.
    10030    2    1    2    0    0  0.00000000000E+00  0.00000000000E+00  0.74992410820E+03  0.33597781922E+04  0.32750150126E+04 0.  0.
        1    1    3    3  502    0  0.46364111476E+03 -0.15701263159E+04  0.33985497668E+03  0.16720529706E+04  0.50400001928E-02 0. -1.
       -1    1    3    3    0  502 -0.46364111476E+03  0.15701263159E+04  0.41006913151E+03  0.16877252217E+04  0.50400001928E-02 0.  1.
</event>
<event>
 5   0  0.6023446E-07  0.3281141E+04  0.7818609E-02  0.8167711E-01
       -1   -1    0    0    0  501  0.00000000000E+00  0.00000000000E+00  0.10722195113E+04  0.10722195113E+04  0.50400001928E-02 0. -1.
        1   -1    0    0  501    0  0.00000000000E+00  0.00000000000E+00 -0.25101864141E+04  0.25101864141E+04  0.50400001928E-02 0.  1.
    10030    2    1    2    0    0  0.00000000000E+00  0.00000000000E+00 -0.14379669028E+04  0.35824059254E+04  0.32811405640E+04 0.  0.
        5    1    3    3  502    0  0.13774937981E+03 -0.24441929622E+03  0.10458246156E+04  0.10828143426E+04  0.46999998093E+01 0. -1.
       -5    1    3    3    0  502 -0.13774937981E+03  0.24441929622E+03 -0.24837915184E+04  0.24995915828E+04  0.46999998093E+01 0.  1.
</event>
<event>
 5   0  0.1832626E-06  0.3342027E+04  0.7818609E-02  0.8152283E-01
        2   -1    0    0  501    0  0.00000000000E+00  0.00000000000E+00  0.27547431372E+04  0.27547431372E+04  0.25500000920E-02 0.  1.
       -2   -1    0    0    0  501  0.00000000000E+00  0.00000000000E+00 -0.10136284692E+04  0.10136284692E+04  0.25500000920E-02 0. -1.
    10030    2    1    2    0    0  0.00000000000E+00  0.00000000000E+00  0.17411146680E+04  0.37683716064E+04  0.33420269713E+04 0.  0.
        3    1    3    3  502    0  0.52525238608E+03  0.15189440458E+04  0.13862961002E+04  0.21224744924E+04  0.10100000352E+00 0.  1.
       -3    1    3    3    0  502 -0.52525238608E+03 -0.15189440458E+04  0.35481856779E+03  0.16458971139E+04  0.10100000352E+00 0. -1.
</event>
<event>
 5   0  0.1743810E-06  0.3302202E+04  0.7818609E-02  0.8162335E-01
        2   -1    0    0  501    0  0.00000000000E+00  0.00000000000E+00  0.18812957121E+04  0.18812957121E+04  0.25500000920E-02 0.  1.
       -2   -1    0    0    0  501  0.00000000000E+00  0.00000000000E+00 -0.14490727514E+04  0.14490727514E+04  0.25500000920E-02 0. -1.
    10030    2    1    2    0    0  0.00000000000E+00  0.00000000000E+00  0.43222296068E+03  0.33303684634E+04  0.33022019040E+04 0.  0.
        5    1    3    3  502    0  0.98689573907E+03 -0.11695326362E+04  0.84135306352E+03  0.17463295378E+04  0.46999998093E+01 0.  1.
       -5    1    3    3    0  502 -0.98689573907E+03  0.11695326362E+04 -0.40913010284E+03  0.15840389257E+04  0.46999998093E+01 0. -1.
</event>
<event>
 5   0  0.5685000E-07  0.3300615E+04  0.7818609E-02  0.8162739E-01
       -3   -1    0    0    0  501  0.00000000000E+00  0.00000000000E+00  0.15205288687E+04  0.15205288721E+04  0.10100000352E+00 0.  1.
        3   -1    0    0  501    0  0.00000000000E+00  0.00000000000E+00 -0.17911628474E+04  0.17911628502E+04  0.10100000352E+00 0. -1.
    10030    2    1    2    0    0  0.00000000000E+00  0.00000000000E+00 -0.27063397864E+03  0.33116917223E+04  0.33006149901E+04 0.  0.
        5    1    3    3  502    0 -0.10411046461E+04 -0.59038712494E+03  0.10047342261E+04  0.15626800045E+04  0.46999998093E+01 0.  1.
       -5    1    3    3    0  502  0.10411046461E+04  0.59038712494E+03 -0.12753682047E+04  0.17490117178E+04  0.46999998093E+01 0. -1.
</event>
<event>
 5   0  0.1696681E-06  0.3095669E+04  0.7818609E-02  0.8216927E-01
       -2   -1    0    0    0  501  0.00000000000E+00  0.00000000000E+00  0.10475882739E+04  0.10475882739E+04  0.25500000920E-02 0. -1.
        2   -1    0    0  501    0  0.00000000000E+00  0.00000000000E+00 -0.22869598435E+04  0.22869598435E+04  0.25500000920E-02 0.  1.
    10030    2    1    2    0    0  0.00000000000E+00  0.00000000000E+00 -0.12393715696E+04  0.33345481174E+04  0.30956694364E+04 0.  0.
        4    1    3    3  502    0 -0.43629578660E+03 -0.21869123569E+03  0.96254185225E+03  0.10791979893E+04  0.12699999809E+01 0. -1.
       -4    1    3    3    0  502  0.43629578660E+03  0.21869123569E+03 -0.22019134218E+04  0.22553501280E+04  0.12699999809E+01 0.  1.
</event>
<event>
 5   0  0.5858859E-07  0.3295913E+04  0.7818609E-02  0.8163936E-01
       -1   -1    0    0    0  501  0.00000000000E+00  0.00000000000E+00  0.12852923103E+04  0.12852923103E+04  0.50400001928E-02 0. -1.
        1   -1    0    0  501    0  0.00000000000E+00  0.00000000000E+00 -0.21129515848E+04  0.21129515848E+04  0.50400001928E-02 0.  1.
    10030    2    1    2    0    0  0.00000000000E+00  0.00000000000E+00 -0.82765927447E+03  0.33982438952E+04  0.32959128775E+04 0.  0.
        3    1    3    3  502    0 -0.42308068091E+03 -0.92551088006E+03  0.92263778515E+03  0.13736186314E+04  0.10100000352E+00 0. -1.
       -3    1    3    3    0  502  0.42308068091E+03  0.92551088006E+03 -0.17502970596E+04  0.20246252638E+04  0.10100000352E+00 0.  1.
</event>
<event>
 5   0  0.5988516E-07  0.3385586E+04  0.7818609E-02  0.8141453E-01
        1   -1    0    0  501    0  0.00000000000E+00  0.00000000000E+00  0.16369360040E+04  0.16369360040E+04  0.50400001928E-02 0. -1.
       -1   -1    0    0    0  501  0.00000000000E+00  0.00000000000E+00 -0.17505564806E+04  0.17505564806E+04  0.50400001928E-02 0.  1.
    10030    2    1    2    0    0  0.00000000000E+00  0.00000000000E+00 -0.11362047658E+03  0.33874924846E+04  0.33855864663E+04 0.  0.
        4    1    3    3  502    0 -0.64832324255E+03  0.26562241693E+03 -0.15986739022E+04  0.17454621605E+04  0.12699999809E+01 0.  1.
       -4    1    3    3    0  502  0.64832324255E+03 -0.26562241693E+03  0.14850534257E+04  0.16420303241E+04  0.12699999809E+01 0. -1.
</event>
<event>
 5   0  0.5988516E-07  0.3268798E+04  0.7818609E-02  0.8170880E-01
       -1   -1    0    0    0  501  0.00000000000E+00  0.00000000000E+00  0.16244064516E+04  0.16244064516E+04  0.50400001928E-02 0.  1.
        1   -1    0    0  501    0  0.00000000000E+00  0.00000000000E+00 -0.16444530859E+04  0.16444530859E+04  0.50400001928E-02 0. -1.
    10030    2    1    2    0    0  0.00000000000E+00  0.00000000000E+00 -0.20046634271E+02  0.32688595375E+04  0.32687980678E+04 0.  0.
        4    1    3    3  502    0 -0.86275774051E+03 -0.33135839521E+03 -0.13580506263E+04  0.16426966918E+04  0.12699999809E+01 0. -1.
       -4    1    3    3    0  502  0.86275774051E+03  0.33135839521E+03  0.13380039920E+04  0.16261628456E+04  0.12699999809E+01 0.  1.
</event>
<event>
 5   0  0.5988516E-07  0.3395401E+04  0.7818609E-02  0.8139036E-01
       -1   -1    0    0    0  501  0.00000000000E+00  0.00000000000E+00  0.35080884902E+04  0.35080884902E+04  0.50400001928E-02 0.  1.
        1   -1    0    0  501    0  0.00000000000E+00  0.00000000000E+00 -0.82158334119E+03  0.82158334120E+03  0.50400001928E-02 0. -1.
    10030    2    1    2    0    0  0.00000000000E+00  0.00000000000E+00  0.26865051490E+04  0.43296718314E+04  0.33954010444E+04 0.  0.
        4    1    3    3  502    0  0.12986959263E+04 -0.41942938197E+03  0.26308798694E+04  0.29637919319E+04  0.12699999809E+01 0.  1.
       -4    1    3    3    0  502 -0.12986959263E+04  0.41942938197E+03  0.55625279645E+02  0.13658798996E+04  0.12699999809E+01 0. -1.
</event>
<event>
 5   0  0.6085351E-07  0.3287121E+04  0.7818609E-02  0.8166180E-01
        1   -1    0    0  501    0  0.00000000000E+00  0.00000000000E+00  0.19501972174E+04  0.19501972174E+04  0.50400001928E-02 0. -1.
       -1   -1    0    0    0  501  0.00000000000E+00  0.00000000000E+00 -0.13851371762E+04  0.13851371762E+04  0.50400001928E-02 0.  1.
    10030    2    1    2    0    0  0.00000000000E+00  0.00000000000E+00  0.56506004114E+03  0.33353343936E+04  0.32871207260E+04 0.  0.
        1    1    3    3  502    0  0.15696174549E+04  0.15443812163E+03  0.75163194811E+03  0.17471407138E+04  0.50400001928E-02 0. -1.
       -1    1    3    3    0  502 -0.15696174549E+04 -0.15443812163E+03 -0.18657190697E+03  0.15881936799E+04  0.50400001928E-02 0.  1.
</event>
<event>
 5   0  0.6023446E-07  0.3291488E+04  0.7818609E-02  0.8165065E-01
        1   -1    0    0  501    0  0.00000000000E+00  0.00000000000E+00  0.19299432108E+04  0.19299432108E+04  0.50400001928E-02 0.  1.
       -1   -1    0    0    0  501  0.00000000000E+00  0.00000000000E+00 -0.14033949630E+04  0.14033949630E+04  0.50400001928E-02 0. -1.
    10030    2    1    2    0    0  0.00000000000E+00  0.00000000000E+00  0.52654824785E+03  0.33333381738E+04  0.32914875548E+04 0.  0.
        5    1    3    3  502    0 -0.41262921300E+03 -0.12475169724E+04  0.12667764001E+04  0.18251865663E+04  0.46999998093E+01 0.  1.
       -5    1    3    3    0  502  0.41262921300E+03  0.12475169724E+04 -0.74022815225E+03  0.15081516075E+04  0.46999998093E+01 0. -1.
</event>
<event>
 5   0  0.1696681E-06  0.3271963E+04  0.7818609E-02  0.8170066E-01
        2   -1    0    0  501    0  0.00000000000E+00  0.00000000000E+00  0.20303938369E+04  0.20303938369E+04  0.25500000920E-02 0.  1.
       -2   -1    0    0    0  501  0.00000000000E+00  0.00000000000E+00 -0.13181850924E+04  0.13181850924E+04  0.25500000920E-02 0. -1.
    10030    2    1    2    0    0  0.00000000000E+00  0.00000000000E+00  0.71220874450E+03  0.33485789294E+04  0.32719626451E+04 0.  0.
        4    1    3    3  502    0 -0.36052399945E+03  0.12450259335E+02  0.19891828264E+04  0.20216286734E+04  0.12699999809E+01 0.  1.
       -4    1    3    3    0  502  0.36052399945E+03 -0.12450259335E+02 -0.12769740819E+04  0.13269502560E+04  0.12699999809E+01 0. -1.
</event>
<event>
 5   0  0.6023446E-07  0.3302173E+04  0.7818609E-02  0.8162343E-01
        1   -1    0    0  501    0  0.00000000000E+00  0.00000000000E+00  0.28837352448E+04  0.28837352448E+04  0.50400001928E-02 0.  1.
       -1   -1    0    0    0  501  0.00000000000E+00  0.00000000000E+00 -0.94533185079E+03  0.94533185081E+03  0.50400001928E-02 0. -1.
    10030    2    1    2    0    0  0.00000000000E+00  0.00000000000E+00  0.19384033940E+04  0.38290670956E+04  0.33021730883E+04 0.  0.
        5    1    3    3  502    0 -0.76774015729E+03 -0.36100431961E+03 -0.67325061828E+03  0.10830685818E+04  0.46999998093E+01 0. -1.
       -5    1    3    3    0  502  0.76774015729E+03  0.36100431961E+03  0.26116540123E+04  0.27459985138E+04  0.46999998093E+01 0.  1.
</event>
<event>
 5   0  0.1696681E-06  0.3497048E+04  0.7818609E-02  0.8114490E-01
       -2   -1    0    0    0  501  0.00000000000E+00  0.00000000000E+00  0.17241346234E+04  0.17241346234E+04  0.25500000920E-02 0. -1.
        2   -1    0    0  501    0  0.00000000000E+00  0.00000000000E+00 -0.17732578894E+04  0.17732578894E+04  0.25500000920E-02 0.  1.
    10030    2    1    2    0    0  0.00000000000E+00  0.00000000000E+00 -0.49123265972E+02  0.34973925129E+04  0.34970475109E+04 0.  0.
        4    1    3    3  502    0  0.12255132018E+04  0.52765535728E+03  0.11056077838E+04  0.17328222553E+04  0.12699999809E+01 0. -1.
       -4    1    3    3    0  502 -0.12255132018E+04 -0.52765535728E+03 -0.11547310497E+04  0.17645702576E+04  0.12699999809E+01 0.  1.
</event>
<event>
 5   0  0.6085351E-07  0.3268130E+04  0.7818609E-02  0.8171052E-01
        1   -1    0    0  501    0  0.00000000000E+00  0.00000000000E+00  0.22165090308E+04  0.22165090308E+04  0.50400001928E-02 0.  1.
       -1   -1    0    0    0  501  0.00000000000E+00  0.00000000000E+00 -0.12046731522E+04  0.12046731523E+04  0.50400001928E-02 0. -1.
    10030    2    1    2    0    0  0.00000000000E+00  0.00000000000E+00  0.10118358785E+04  0.34211821831E+04  0.32681303041E+04 0.  0.
        1    1    3    3  502    0 -0.92764012421E+03 -0.13281467888E+04  0.28218273929E+03  0.16444200166E+04  0.50400001928E-02 0. -1.
       -1    1    3    3    0  502  0.92764012421E+03  0.13281467888E+04  0.72965313925E+03  0.17767621665E+04  0.50400001928E-02 0.  1.
</event>
<event>
 5   0  0.1728937E-06  0.3261002E+04  0.7818609E-02  0.8172890E-01
       -2   -1    0    0    0  501  0.00000000000E+00  0.00000000000E+00  0.13959073681E+04  0.13959073681E+04  0.25500000920E-02 0.  1.
        2   -1    0    0  501    0  0.00000000000E+00  0.00000000000E+00 -0.19045199698E+04  0.19045199698E+04  0.25500000920E-02 0. -1.
    10030    2    1    2    0    0  0.00000000000E+00  0.00000000000E+00 -0.50861260174E+03  0.33004273379E+04  0.32610019678E+04 0.  0.
        1    1    3    3  502    0  0.15195109669E+04 -0.59039380219E+03 -0.28718035219E+03  0.16552797271E+04  0.50400001928E-02 0.  1.
       -1    1    3    3    0  502 -0.15195109669E+04  0.59039380219E+03 -0.22143224955E+03  0.16451476108E+04  0.50400001928E-02 0. -1.
</event>
<event>
 5   0  0.5858859E-07  0.3297917E+04  0.7818609E-02  0.8163426E-01
        1   -1    0    0  501    0  0.00000000000E+00  0.00000000000E+00  0.13735823418E+04  0.13735823418E+04  0.50400001928E-02 0. -1.
       -1   -1    0    0    0  501  0.00000000000E+00  0.00000000000E+00 -0.19795421405E+04  0.19795421405E+04  0.50400001928E-02 0.  1.
    10030    2    1    2    0    0  0.00000000000E+00  0.00000000000E+00 -0.60595979866E+03  0.33531244823E+04  0.32979169965E+04 0.  0.
        3    1    3    3  502    0 -0.26876122049E+03 -0.15852437080E+04 -0.67493716054E+03  0.17437804874E+04  0.10100000352E+00 0. -1.
       -3    1    3    3    0  502  0.26876122049E+03  0.15852437080E+04  0.68977361880E+02  0.16093439949E+04  0.10100000352E+00 0.  1.
</event>
<event>
 5   0  0.1784626E-06  0.3316641E+04  0.7818609E-02  0.8158674E-01
       -2   -1    0    0    0  501  0.00000000000E+00  0.00000000000E+00  0.19715263333E+04  0.19715263333E+04  0.25500000920E-02 0.  1.
        2   -1    0    0  501    0  0.00000000000E+00  0.00000000000E+00 -0.13948722568E+04  0.13948722568E+04  0.25500000920E-02 0. -1.
    10030    2    1    2    0    0  0.00000000000E+00  0.00000000000E+00  0.57665407656E+03  0.33663985901E+04  0.33166413046E+04 0.  0.
        2    1    3    3  502    0  0.12523474722E+04  0.10361140628E+04  0.62207739899E+03  0.17403697402E+04  0.25500000920E-02 0.  1.
       -2    1    3    3    0  502 -0.12523474722E+04 -0.10361140628E+04 -0.45423322428E+02  0.16260288499E+04  0.25500000920E-02 0. -1.
</event>
<event>
 5   0  0.6085351E-07  0.3264013E+04  0.7818609E-02  0.8172113E-01
        1   -1    0    0  501    0  0.00000000000E+00  0.00000000000E+00  0.25805074879E+04  0.25805074879E+04  0.50400001928E-02 0. -1.
       -1   -1    0    0    0  501  0.00000000000E+00  0.00000000000E+00 -0.10321400144E+04  0.10321400145E+04  0.50400001928E-02 0.  1.
    10030    2    1    2    0    0  0.00000000000E+00  0.00000000000E+00  0.15483674735E+04  0.36126475024E+04  0.32640128896E+04 0.  0.
        1    1    3    3  502    0  0.12248552401E+03 -0.40823042121E+03  0.25178214768E+04  0.25536404934E+04  0.50400001928E-02 0. -1.
       -1    1    3    3    0  502 -0.12248552401E+03  0.40823042121E+03 -0.96945400335E+03  0.10590070090E+04  0.50400001928E-02 0.  1.
</event>
<event>
 5   0  0.5858859E-07  0.3269583E+04  0.7818609E-02  0.8170678E-01
       -1   -1    0    0    0  501  0.00000000000E+00  0.00000000000E+00  0.10080726298E+04  0.10080726299E+04  0.50400001928E-02 0.  1.
        1   -1    0    0  501    0  0.00000000000E+00  0.00000000000E+00 -0.26511417178E+04  0.26511417178E+04  0.50400001928E-02 0. -1.
    10030    2    1    2    0    0  0.00000000000E+00  0.00000000000E+00 -0.16430690880E+04  0.36592143477E+04  0.32695830949E+04 0.  0.
        3    1    3    3  502    0  0.97359579836E+02 -0.40806234482E+03  0.94680464956E+03  0.10355833234E+04  0.10100000352E+00 0.  1.
       -3    1    3    3    0  502 -0.97359579836E+02  0.40806234482E+03 -0.25898737376E+04  0.26236310243E+04  0.10100000352E+00 0. -1.
</event>
<event>
 5   0  0.6085351E-07  0.3413203E+04  0.7818609E-02  0.8134673E-01
        1   -1    0    0  501    0  0.00000000000E+00  0.00000000000E+00  0.25171803644E+04  0.25171803644E+04  0.50400001928E-02 0.  1.
       -1   -1    0    0    0  501  0.00000000000E+00  0.00000000000E+00 -0.11570442052E+04  0.11570442052E+04  0.50400001928E-02 0. -1.
    10030    2    1    2    0    0  0.00000000000E+00  0.00000000000E+00  0.13601361592E+04  0.36742245696E+04  0.34132031607E+04 0.  0.
        1    1    3    3  502    0 -0.15056667311E+04 -0.45528811321E+03  0.13926332193E+04  0.21008919188E+04  0.50400001928E-02 0.  1.
       -1    1    3    3    0  502  0.15056667311E+04  0.45528811321E+03 -0.32497060019E+02  0.15733326508E+04  0.50400001928E-02 0. -1.
</event>
<event>
 5   0  0.1743810E-06  0.3285036E+04  0.7818609E-02  0.8166713E-01
        2   -1    0    0  501    0  0.00000000000E+00  0.00000000000E+00  0.21720208675E+04  0.21720208675E+04  0.25500000920E-02 0. -1.
       -2   -1    0    0    0  501  0.00000000000E+00  0.00000000000E+00 -0.12420992430E+04  0.12420992430E+04  0.25500000920E-02 0.  1.
    10030    2    1    2    0    0  0.00000000000E+00  0.00000000000E+00  0.92992162454E+03  0.34141201105E+04  0.32850360578E+04 0.  0.
        5    1    3    3  502    0 -0.20788365256E+03  0.13289278125E+04 -0.51472448385E+03  0.14402180835E+04  0.46999998093E+01 0.  1.
       -5    1    3    3    0  502  0.20788365256E+03 -0.13289278125E+04  0.14446461084E+04  0.19739020270E+04  0.46999998093E+01 0. -1.
</event>
<event>
 5   0  0.1832626E-06  0.3292557E+04  0.7818609E-02  0.8164792E-01
       -2   -1    0    0    0  501  0.00000000000E+00  0.00000000000E+00  0.15223516188E+04  0.15223516188E+04  0.25500000920E-02 0. -1.
        2   -1    0    0  501    0  0.00000000000E+00  0.00000000000E+00 -0.17802939834E+04  0.17802939834E+04  0.25500000920E-02 0.  1.
    10030    2    1    2    0    0  0.00000000000E+00  0.00000000000E+00 -0.25794236466E+03  0.33026456022E+04  0.32925573208E+04 0.  0.
        3    1    3    3  502    0 -0.40071937800E+03 -0.84588632259E+03  0.12294802852E+04  0.15452253792E+04  0.10100000352E+00 0. -1.
       -3    1    3    3    0  502  0.40071937800E+03  0.84588632259E+03 -0.14874226499E+04  0.17574202230E+04  0.10100000352E+00 0.  1.
</event>
<event>
 5   0  0.1728937E-06  0.3038684E+04  0.7818609E-02  0.8232770E-01
        2   -1    0    0  501    0  0.00000000000E+00  0.00000000000E+00  0.15093910599E+04  0.15093910599E+04  0.25500000920E-02 0. -1.
       -2   -1    0    0    0  501  0.00000000000E+00  0.00000000000E+00 -0.15293583060E+04  0.15293583060E+04  0.25500000920E-02 0.  1.
    10030    2    1    2    0    0  0.00000000000E+00  0.00000000000E+00 -0.19967246086E+02  0.30387493659E+04  0.30386837641E+04 0.  0.
        1    1    3    3  502    0 -0.13341100812E+04  0.18535547921E+02 -0.73677746322E+03  0.15241503554E+04  0.50400001928E-02 0.  1.
       -1    1    3    3    0  502  0.13341100812E+04 -0.18535547921E+02  0.71681021714E+03  0.15145990106E+04  0.50400001928E-02 0. -1.
</event>
<event>
 5   0  0.5985183E-07  0.3258398E+04  0.7818609E-02  0.8173562E-01
       -1   -1    0    0    0  501  0.00000000000E+00  0.00000000000E+00  0.19656464158E+04  0.19656464158E+04  0.50400001928E-02 0. -1.
        1   -1    0    0  501    0  0.00000000000E+00  0.00000000000E+00 -0.13503392314E+04  0.13503392315E+04  0.50400001928E-02 0.  1.
    10030    2    1    2    0    0  0.00000000000E+00  0.00000000000E+00  0.61530718436E+03  0.33159856473E+04  0.32583980545E+04 0.  0.
        2    1    3    3  502    0 -0.91526078470E+03 -0.16673990225E+03  0.16687458796E+04  0.19105541891E+04  0.25500000920E-02 0. -1.
       -2    1    3    3    0  502  0.91526078470E+03  0.16673990225E+03 -0.10534386952E+04  0.14054314582E+04  0.25500000920E-02 0.  1.
</event>
<event>
 5   0  0.6085351E-07  0.3271436E+04  0.7818609E-02  0.8170202E-01
       -1   -1    0    0    0  501  0.00000000000E+00  0.00000000000E+00  0.17159823347E+04  0.17159823347E+04  0.50400001928E-02 0. -1.
        1   -1    0    0  501    0  0.00000000000E+00  0.00000000000E+00 -0.15592082964E+04  0.15592082964E+04  0.50400001928E-02 0.  1.
    10030    2    1    2    0    0  0.00000000000E+00  0.00000000000E+00  0.15677403831E+03  0.32751906312E+04  0.32714363163E+04 0.  0.
        1    1    3    3  502    0  0.12948983086E+04  0.72426818382E+02 -0.91953500723E+03  0.15898276331E+04  0.50400001928E-02 0.  1.
       -1    1    3    3    0  502 -0.12948983086E+04 -0.72426818382E+02  0.10763090455E+04  0.16853629980E+04  0.50400001928E-02 0. -1.
</event>
<event>
 5   0  0.1743810E-06  0.3398997E+04  0.7818609E-02  0.8138153E-01
       -2   -1    0    0    0  501  0.00000000000E+00  0.00000000000E+00  0.15092592321E+04  0.15092592321E+04  0.25500000920E-02 0.  1.
        2   -1    0    0  501    0  0.00000000000E+00  0.00000000000E+00 -0.19137170876E+04  0.19137170876E+04  0.25500000920E-02 0. -1.
    10030    2    1    2    0    0  0.00000000000E+00  0.00000000000E+00 -0.40445785555E+03  0.34229763197E+04  0.33989970180E+04 0.  0.
        5    1    3    3  502    0 -0.64927002244E+03  0.11341911560E+04  0.89186647437E+03  0.15822101752E+04  0.46999998093E+01 0. -1.
       -5    1    3    3    0  502  0.64927002244E+03 -0.11341911560E+04 -0.12963243299E+04  0.18407661445E+04  0.46999998093E+01 0.  1.
</event>
<event>
 5   0  0.6023446E-07  0.2930109E+04  0.7818609E-02  0.8263975E-01
       -1   -1    0    0    0  501  0.00000000000E+00  0.00000000000E+00  0.10002070828E+04  0.10002070828E+04  0.50400001928E-02 0. -1.
        1   -1    0    0  501    0  0.00000000000E+00  0.00000000000E+00 -0.21459396459E+04  0.21459396459E+04  0.50400001928E-02 0.  1.
    10030    2    1    2    0    0  0.00000000000E+00  0.00000000000E+00 -0.11457325631E+04  0.31461467287E+04  0.29301085530E+04 0.  0.
        5    1    3    3  502    0 -0.84601710223E+03  0.59694702427E+03  0.54002372062E+03  0.11677921030E+04  0.46999998093E+01 0. -1.
       -5    1    3    3    0  502  0.84601710223E+03 -0.59694702427E+03 -0.16857562837E+04  0.19783546257E+04  0.46999998093E+01 0.  1.
</event>
<event>
 5   0  0.5988516E-07  0.3335930E+04  0.7818609E-02  0.8153813E-01
        1   -1    0    0  501    0  0.00000000000E+00  0.00000000000E+00  0.28462777951E+04  0.28462777951E+04  0.50400001928E-02 0. -1.
       -1   -1    0    0    0  501  0.00000000000E+00  0.00000000000E+00 -0.97745436108E+03  0.97745436110E+03  0.50400001928E-02 0.  1.
    10030    2    1    2    0    0  0.00000000000E+00  0.00000000000E+00  0.18688234340E+04  0.38237321562E+04  0.33359296418E+04 0.  0.
        4    1    3    3  502    0 -0.97943374139E+03 -0.58514137178E+03 -0.46023324339E+03  0.12302427118E+04  0.12699999809E+01 0.  1.
       -4    1    3    3    0  502  0.97943374139E+03  0.58514137178E+03  0.23290566774E+04  0.25934894444E+04  0.12699999809E+01 0. -1.
</event>
<event>
 5   0  0.1743810E-06  0.3206323E+04  0.7818609E-02  0.8187149E-01
        2   -1    0    0  501    0  0.00000000000E+00  0.00000000000E+00  0.84379872270E+03  0.84379872270E+03  0.25500000920E-02 0. -1.
       -2   -1    0    0    0  501  0.00000000000E+00  0.00000000000E+00 -0.30458998896E+04  0.30458998896E+04  0.25500000920E-02 0.  1.
    10030    2    1    2    0    0  0.00000000000E+00  0.00000000000E+00 -0.22021011669E+04  0.38896986123E+04  0.32063227762E+04 0.  0.
        5    1    3    3  502    0  0.40223735683E+03 -0.44875150737E+03  0.70115006882E+03  0.92455736199E+03  0.46999998093E+01 0. -1.
       -5    1    3    3    0  502 -0.40223735683E+03  0.44875150737E+03 -0.29032512357E+04  0.29651412503E+04  0.46999998093E+01 0.  1.
</event>
<event>
 5   0  0.5685000E-07  0.3351096E+04  0.7818609E-02  0.8150014E-01
       -3   -1    0    0    0  501  0.00000000000E+00  0.00000000000E+00  0.15286345268E+04  0.15286345301E+04  0.10100000352E+00 0. -1.
        3   -1    0    0  501    0  0.00000000000E+00  0.00000000000E+00 -0.18365808736E+04  0.18365808764E+04  0.10100000352E+00 0.  1.
    10030    2    1    2    0    0  0.00000000000E+00  0.00000000000E+00 -0.30794634682E+03  0.33652154065E+04  0.33510959072E+04 0.  0.
        4    1    3    3  502    0 -0.11243994731E+04  0.24269406599E+02 -0.14012192116E+04  0.17967415148E+04  0.12699999809E+01 0.  1.
       -4    1    3    3    0  502  0.11243994731E+04 -0.24269406599E+02  0.10932728648E+04  0.15684738917E+04  0.12699999809E+01 0. -1.
</event>
<event>
 5   0  0.1743810E-06  0.3291654E+04  0.7818609E-02  0.8165022E-01
        2   -1    0    0  501    0  0.00000000000E+00  0.00000000000E+00  0.12951615371E+04  0.12951615371E+04  0.25500000920E-02 0.  1.
       -2   -1    0    0    0  501  0.00000000000E+00  0.00000000000E+00 -0.20914349316E+04  0.20914349316E+04  0.25500000920E-02 0. -1.
    10030    2    1    2    0    0  0.00000000000E+00  0.00000000000E+00 -0.79627339451E+03  0.33865964686E+04  0.32916537367E+04 0.  0.
        5    1    3    3  502    0  0.37683495996E+03 -0.61024887110E+03  0.11259120723E+04  0.13349563125E+04  0.46999998093E+01 0.  1.
       -5    1    3    3    0  502 -0.37683495996E+03  0.61024887110E+03 -0.19221854668E+04  0.20516401562E+04  0.46999998093E+01 0. -1.
</event>
<event>
 5   0  0.1696681E-06  0.3304481E+04  0.7818609E-02  0.8161756E-01
        2   -1    0    0  501    0  0.00000000000E+00  0.00000000000E+00  0.12470447603E+04  0.12470447603E+04  0.25500000920E-02 0. -1.
       -2   -1    0    0    0  501  0.00000000000E+00  0.00000000000E+00 -0.21890938551E+04  0.21890938551E+04  0.25500000920E-02 0.  1.
    10030    2    1    2    0    0  0.00000000000E+00  0.00000000000E+00 -0.94204909477E+03  0.34361386154E+04  0.33044806078E+04 0.  0.
        4    1    3    3  502    0  0.37594902307E+03 -0.14974577405E+04 -0.10828363665E+04  0.18858031610E+04  0.12699999809E+01 0.  1.
       -4    1    3    3    0  502 -0.37594902307E+03  0.14974577405E+04  0.14078727178E+03  0.15503354544E+04  0.12699999809E+01 0. -1.
</event>
<event>
 5   0  0.1728937E-06  0.3322762E+04  0.7818609E-02  0.8157128E-01
        2   -1    0    0  501    0  0.00000000000E+00  0.00000000000E+00  0.17370462439E+04  0.17370462439E+04  0.25500000920E-02 0. -1.
       -2   -1    0    0    0  501  0.00000000000E+00  0.00000000000E+00 -0.15890116684E+04  0.15890116684E+04  0.25500000920E-02 0.  1.
    10030    2    1    2    0    0  0.00000000000E+00  0.00000000000E+00  0.14803457545E+03  0.33260579123E+04  0.33227619536E+04 0.  0.
        1    1    3    3  502    0 -0.40659635536E+03 -0.12045685299E+04  0.11446018213E+04  0.17106780143E+04  0.50400001928E-02 0. -1.
       -1    1    3    3    0  502  0.40659635536E+03  0.12045685299E+04 -0.99656724584E+03  0.16153798980E+04  0.50400001928E-02 0.  1.
</event>
<event>
 5   0  0.1728937E-06  0.3078010E+04  0.7818609E-02  0.8221799E-01
        2   -1    0    0  501    0  0.00000000000E+00  0.00000000000E+00  0.22342469340E+04  0.22342469340E+04  0.25500000920E-02 0. -1.
       -2   -1    0    0    0  501  0.00000000000E+00  0.00000000000E+00 -0.10601048312E+04  0.10601048312E+04  0.25500000920E-02 0.  1.
    10030    2    1    2    0    0  0.00000000000E+00  0.00000000000E+00  0.11741421028E+04  0.32943517652E+04  0.30780097264E+04 0.  0.
        1    1    3    3  502    0  0.89168598749E+03  0.55678117903E+03 -0.61595497490E+03  0.12184045768E+04  0.50400001928E-02 0.  1.
       -1    1    3    3    0  502 -0.89168598749E+03 -0.55678117903E+03  0.17900970777E+04  0.20759471885E+04  0.50400001928E-02 0. -1.
</event>
<event>
 5   0  0.5985183E-07  0.3266369E+04  0.7818609E-02  0.8171506E-01
       -1   -1    0    0    0  501  0.00000000000E+00  0.00000000000E+00  0.18696515076E+04  0.18696515076E+04  0.50400001928E-02 0.  1.
        1   -1    0    0  501    0  0.00000000000E+00  0.00000000000E+00 -0.14266252164E+04  0.14266252164E+04  0.50400001928E-02 0. -1.
    10030    2    1    2    0    0  0.00000000000E+00  0.00000000000E+00  0.44302629120E+03  0.32962767240E+04  0.32663692299E+04 0.  0.
        2    1    3    3  502    0 -0.15028014819E+04  0.15043273566E+03 -0.40566722443E+03  0.15638440455E+04  0.25500000920E-02 0. -1.
       -2    1    3    3    0  502  0.15028014819E+04 -0.15043273566E+03  0.84869351563E+03  0.17324326784E+04  0.25500000920E-02 0.  1.
</event>
<event>
 5   0  0.1728937E-06  0.3310504E+04  0.7818609E-02  0.8160228E-01
       -2   -1    0    0    0  501  0.00000000000E+00  0.00000000000E+00  0.12815390604E+04  0.12815390604E+04  0.25500000920E-02 0.  1.
        2   -1    0    0  501    0  0.00000000000E+00  0.00000000000E+00 -0.21379437139E+04  0.21379437139E+04  0.25500000920E-02 0. -1.
    10030    2    1    2    0    0  0.00000000000E+00  0.00000000000E+00 -0.85640465345E+03  0.34194827743E+04  0.33105035136E+04 0.  0.
        1    1    3    3  502    0  0.15396207899E+04 -0.48846363606E+03 -0.80181291121E+03  0.18033116328E+04  0.50400001928E-02 0. -1.
       -1    1    3    3    0  502 -0.15396207899E+04  0.48846363606E+03 -0.54591742246E+02  0.16161711415E+04  0.50400001928E-02 0.  1.
</event>
<event>
 5   0  0.6023446E-07  0.3280233E+04  0.7818609E-02  0.8167943E-01
        1   -1    0    0  501    0  0.00000000000E+00  0.00000000000E+00  0.95643126872E+03  0.95643126873E+03  0.50400001928E-02 0. -1.
       -1   -1    0    0    0  501  0.00000000000E+00  0.00000000000E+00 -0.28125197555E+04  0.28125197555E+04  0.50400001928E-02 0.  1.
    10030    2    1    2    0    0  0.00000000000E+00  0.00000000000E+00 -0.18560884868E+04  0.37689510242E+04  0.32802328198E+04 0.  0.
        5    1    3    3  502    0  0.27268704767E+03 -0.15140087414E+04 -0.15814331654E+04  0.22062487715E+04  0.46999998093E+01 0.  1.
       -5    1    3    3    0  502 -0.27268704767E+03  0.15140087414E+04 -0.27465532135E+03  0.15627022527E+04  0.46999998093E+01 0. -1.
</event>
<event>
 5   0  0.5858859E-07  0.2996657E+04  0.7818609E-02  0.8244686E-01
       -1   -1    0    0    0  501  0.00000000000E+00  0.00000000000E+00  0.10715892273E+04  0.10715892273E+04  0.50400001928E-02 0. -1.
        1   -1    0    0  501    0  0.00000000000E+00  0.00000000000E+00 -0.20950078732E+04  0.20950078732E+04  0.50400001928E-02 0.  1.
    10030    2    1    2    0    0  0.00000000000E+00  0.00000000000E+00 -0.10234186459E+04  0.31665971005E+04  0.29966567158E+04 0.  0.
        3    1    3    3  502    0  0.12083080374E+04  0.48742788784E+02 -0.14465266622E+04  0.18854239755E+04  0.10100000352E+00 0.  1.
       -3    1    3    3    0  502 -0.12083080374E+04 -0.48742788784E+02  0.42310801629E+03  0.12811731250E+04  0.10100000352E+00 0. -1.
</event>
<event>
 5   0  0.1696681E-06  0.3151218E+04  0.7818609E-02  0.8201820E-01
        2   -1    0    0  501    0  0.00000000000E+00  0.00000000000E+00  0.23105391003E+04  0.23105391003E+04  0.25500000920E-02 0. -1.
       -2   -1    0    0    0  501  0.00000000000E+00  0.00000000000E+00 -0.10744436099E+04  0.10744436099E+04  0.25500000920E-02 0.  1.
    10030    2    1    2    0    0  0.00000000000E+00  0.00000000000E+00  0.12360954904E+04  0.33849827103E+04  0.31512181593E+04 0.  0.
        4    1    3    3  502    0 -0.16462784463E+03  0.13514817915E+04 -0.23383840225E+03  0.13814077499E+04  0.12699999809E+01 0.  1.
       -4    1    3    3    0  502  0.16462784463E+03 -0.13514817915E+04  0.14699338927E+04  0.20035749604E+04  0.12699999809E+01 0. -1.
</event>
<event>
 5   0  0.6085351E-07  0.3310973E+04  0.7818609E-02  0.8160109E-01
       -1   -1    0    0    0  501  0.00000000000E+00  0.00000000000E+00  0.14833107878E+04  0.14833107878E+04  0.50400001928E-02 0. -1.
        1   -1    0    0  501    0  0.00000000000E+00  0.00000000000E+00 -0.18476470920E+04  0.18476470920E+04  0.50400001928E-02 0.  1.
    10030    2    1    2    0    0  0.00000000000E+00  0.00000000000E+00 -0.36433630427E+03  0.33309578798E+04  0.33109725844E+04 0.  0.
        1    1    3    3  502    0  0.14813999060E+04  0.36920720311E+03  0.46183264373E+03  0.15950388808E+04  0.50400001928E-02 0.  1.
       -1    1    3    3    0  502 -0.14813999060E+04 -0.36920720311E+03 -0.82616894799E+03  0.17359189990E+04  0.50400001928E-02 0. -1.
</event>
<event>
 5   0  0.1832626E-06  0.3184140E+04  0.7818609E-02  0.8193018E-01
       -2   -1    0    0    0  501  0.00000000000E+00  0.00000000000E+00  0.16801477620E+04  0.16801477620E+04  0.25500000920E-02 0.  1.
        2   -1    0    0  501    0  0.00000000000E+00  0.00000000000E+00 -0.15086095295E+04  0.15086095295E+04  0.25500000920E-02 0. -1.
    10030    2    1    2    0    0  0.00000000000E+00  0.00000000000E+00  0.17153823247E+03  0.31887572915E+04  0.31841400250E+04 0.  0.
        3    1    3    3  502    0 -0.23841523067E+03 -0.11992999207E+04  0.11068184648E+04  0.16493056861E+04  0.10100000352E+00 0.  1.
       -3    1    3    3    0  502  0.23841523067E+03  0.11992999207E+04 -0.93528023229E+03  0.15394516053E+04  0.10100000352E+00 0. -1.
</event>
<event>
 5   0  0.1832626E-06  0.3323933E+04  0.7818609E-02  0.8156832E-01
       -2   -1    0    0    0  501  0.00000000000E+00  0.00000000000E+00  0.20344550446E+04  0.20344550446E+04  0.25500000920E-02 0.  1.
        2   -1    0    0  501    0  0.00000000000E+00  0.00000000000E+00 -0.13576767241E+04  0.13576767241E+04  0.25500000920E-02 0. -1.
    10030    2    1    2    0    0  0.00000000000E+00  0.00000000000E+00  0.67677832048E+03  0.33921317687E+04  0.33239327673E+04 0.  0.
        3    1    3    3  502    0  0.99542232137E+03 -0.12002150705E+04 -0.24851974164E+03  0.15789692478E+04  0.10100000352E+00 0.  1.
       -3    1    3    3    0  502 -0.99542232137E+03  0.12002150705E+04  0.92529806212E+03  0.18131625209E+04  0.10100000352E+00 0. -1.
</event>
<event>
 5   0  0.1832626E-06  0.3293024E+04  0.7818609E-02  0.8164673E-01
       -2   -1    0    0    0  501  0.00000000000E+00  0.00000000000E+00  0.13294902925E+04  0.13294902925E+04  0.25500000920E-02 0.  1.
        2   -1    0    0  501    0  0.00000000000E+00  0.00000000000E+00 -0.20391286676E+04  0.20391286677E+04  0.25500000920E-02 0. -1.
    10030    2    1    2    0    0  0.00000000000E+00  0.00000000000E+00 -0.70963837510E+03  0.33686189602E+04  0.32930240017E+04 0.  0.
        3    1    3    3  502    0  0.15224554118E+04  0.49631874768E+03  0.37119838710E+02  0.16017430109E+04  0.10100000352E+00 0.  1.
       -3    1    3    3    0  502 -0.15224554118E+04 -0.49631874768E+03 -0.74675821381E+03  0.17668759493E+04  0.10100000352E+00 0. -1.
</event>
<event>
 5   0  0.5985183E-07  0.3354226E+04  0.7818609E-02  0.8149233E-01
       -1   -1    0    0    0  501  0.00000000000E+00  0.00000000000E+00  0.11982883601E+04  0.11982883601E+04  0.50400001928E-02 0.  1.
        1   -1    0    0  501    0  0.00000000000E+00  0.00000000000E+00 -0.23472714904E+04  0.23472714904E+04  0.50400001928E-02 0. -1.
    10030    2    1    2    0    0  0.00000000000E+00  0.00000000000E+00 -0.11489831303E+04  0.35455598506E+04  0.33542260538E+04 0.  0.
        2    1    3    3  502    0 -0.94785213798E+03 -0.90058743923E+03  0.53576889536E+03  0.14129861006E+04  0.25500000920E-02 0.  1.
       -2    1    3    3    0  502  0.94785213798E+03  0.90058743923E+03 -0.16847520257E+04  0.21325737500E+04  0.25500000920E-02 0. -1.
</event>
<event>
 5   0  0.1743810E-06  0.3291977E+04  0.7818609E-02  0.8164940E-01
       -2   -1    0    0    0  501  0.00000000000E+00  0.00000000000E+00  0.13065793018E+04  0.13065793018E+04  0.25500000920E-02 0.  1.
        2   -1    0    0  501    0  0.00000000000E+00  0.00000000000E+00 -0.20735652291E+04  0.20735652291E+04  0.25500000920E-02 0. -1.
    10030    2    1    2    0    0  0.00000000000E+00  0.00000000000E+00 -0.76698592723E+03  0.33801445309E+04  0.32919765548E+04 0.  0.
        5    1    3    3  502    0  0.14666018332E+03 -0.13491955907E+04  0.57280359711E+03  0.14730797677E+04  0.46999998093E+01 0.  1.
       -5    1    3    3    0  502 -0.14666018332E+03  0.13491955907E+04 -0.13397895243E+04  0.19070647631E+04  0.46999998093E+01 0. -1.
</event>
<event>
 5   0  0.1743810E-06  0.3206895E+04  0.7818609E-02  0.8186999E-01
        2   -1    0    0  501    0  0.00000000000E+00  0.00000000000E+00  0.17563969278E+04  0.17563969278E+04  0.25500000920E-02 0. -1.
       -2   -1    0    0    0  501  0.00000000000E+00  0.00000000000E+00 -0.14638171310E+04  0.14638171310E+04  0.25500000920E-02 0.  1.
    10030    2    1    2    0    0  0.00000000000E+00  0.00000000000E+00  0.29257979688E+03  0.32202140588E+04  0.32068950165E+04 0.  0.
        5    1    3    3  502    0 -0.10471842345E+04 -0.14471230397E+03 -0.10643230880E+04  0.15001140615E+04  0.46999998093E+01 0.  1.
       -5    1    3    3    0  502  0.10471842345E+04  0.14471230397E+03  0.13569028848E+04  0.17200999973E+04  0.46999998093E+01 0. -1.
</event>
<event>
 5   0  0.1696681E-06  0.3316583E+04  0.7818609E-02  0.8158689E-01
       -2   -1    0    0    0  501  0.00000000000E+00  0.00000000000E+00  0.12048114448E+04  0.12048114448E+04  0.25500000920E-02 0. -1.
        2   -1    0    0  501    0  0.00000000000E+00  0.00000000000E+00 -0.22824568154E+04  0.22824568154E+04  0.25500000920E-02 0.  1.
    10030    2    1    2    0    0  0.00000000000E+00  0.00000000000E+00 -0.10776453706E+04  0.34872682602E+04  0.33165826349E+04 0.  0.
        4    1    3    3  502    0 -0.34216981353E+03 -0.15708937547E+04 -0.96611210087E+03  0.18756762979E+04  0.12699999809E+01 0. -1.
       -4    1    3    3    0  502  0.34216981353E+03  0.15708937547E+04 -0.11153326969E+03  0.16115919624E+04  0.12699999809E+01 0.  1.
</event>
<event>
 5   0  0.1696681E-06  0.3274744E+04  0.7818609E-02  0.8169352E-01
        2   -1    0    0  501    0  0.00000000000E+00  0.00000000000E+00  0.11956224368E+04  0.11956224368E+04  0.25500000920E-02 0. -1.
       -2   -1    0    0    0  501  0.00000000000E+00  0.00000000000E+00 -0.22423355903E+04  0.22423355903E+04  0.25500000920E-02 0.  1.
    10030    2    1    2    0    0  0.00000000000E+00  0.00000000000E+00 -0.10467131535E+04  0.34379580272E+04  0.32747438023E+04 0.  0.
        4    1    3    3  502    0  0.14269759445E+04 -0.60958668382E+03 -0.10720212979E+04  0.18860242701E+04  0.12699999809E+01 0.  1.
       -4    1    3    3    0  502 -0.14269759445E+04  0.60958668382E+03  0.25308144420E+02  0.15519337571E+04  0.12699999809E+01 0. -1.
</event>
<event>
 5   0  0.5988516E-07  0.3570103E+04  0.7818609E-02  0.8097374E-01
        1   -1    0    0  501    0  0.00000000000E+00  0.00000000000E+00  0.22171175309E+04  0.22171175309E+04  0.50400001928E-02 0.  1.
       -1   -1    0    0    0  501  0.00000000000E+00  0.00000000000E+00 -0.14371853805E+04  0.14371853805E+04  0.50400001928E-02 0. -1.
    10030    2    1    2    0    0  0.00000000000E+00  0.00000000000E+00  0.77993215038E+03  0.36543029114E+04  0.35701030250E+04 0.  0.
        4    1    3    3  502    0 -0.67069237584E+03  0.11494688703E+03 -0.12992173820E+04  0.14666316745E+04  0.12699999809E+01 0. -1.
       -4    1    3    3    0  502  0.67069237584E+03 -0.11494688703E+03  0.20791495324E+04  0.21876712369E+04  0.12699999809E+01 0.  1.
</event>
<event>
 5   0  0.1832626E-06  0.3418991E+04  0.7818609E-02  0.8133261E-01
        2   -1    0    0  501    0  0.00000000000E+00  0.00000000000E+00  0.12063589295E+04  0.12063589295E+04  0.25500000920E-02 0.  1.
       -2   -1    0    0    0  501  0.00000000000E+00  0.00000000000E+00 -0.24224749228E+04  0.24224749228E+04  0.25500000920E-02 0. -1.
    10030    2    1    2    0    0  0.00000000000E+00  0.00000000000E+00 -0.12161159933E+04  0.36288338523E+04  0.34189906432E+04 0.  0.
        3    1    3    3  502    0 -0.90753328331E+03 -0.11387365931E+03 -0.21409250910E+04  0.23281202989E+04  0.10100000352E+00 0. -1.
       -3    1    3    3    0  502  0.90753328331E+03  0.11387365931E+03  0.92480909770E+03  0.13007135534E+04  0.10100000352E+00 0.  1.
</event>
<event>
 5   0  0.5988516E-07  0.3254415E+04  0.7818609E-02  0.8174592E-01
        1   -1    0    0  501    0  0.00000000000E+00  0.00000000000E+00  0.32922171690E+04  0.32922171690E+04  0.50400001928E-02 0.  1.
       -1   -1    0    0    0  501  0.00000000000E+00  0.00000000000E+00 -0.80426175072E+03  0.80426175073E+03  0.50400001928E-02 0. -1.
    10030    2    1    2    0    0  0.00000000000E+00  0.00000000000E+00  0.24879554183E+04  0.40964789198E+04  0.32544150591E+04 0.  0.
        4    1    3    3  502    0  0.11050238539E+04 -0.43328973312E+03  0.26450831238E+04  0.28991867920E+04  0.12699999809E+01 0.  1.
       -4    1    3    3    0  502 -0.11050238539E+04  0.43328973312E+03 -0.15712770545E+03  0.11972921278E+04  0.12699999809E+01 0. -1.
</event>
<event>
 5   0  0.1728937E-06  0.3308473E+04  0.7818609E-02  0.8160743E-01
        2   -1    0    0  501    0  0.00000000000E+00  0.00000000000E+00  0.16269050189E+04  0.16269050189E+04  0.25500000920E-02 0. -1.
       -2   -1    0    0    0  501  0.00000000000E+00  0.00000000000E+00 -0.16820276455E+04  0.16820276455E+04  0.25500000920E-02 0.  1.
    10030    2    1    2    0    0  0.00000000000E+00  0.00000000000E+00 -0.55122626568E+02  0.33089326644E+04  0.33084734959E+04 0.  0.
        1    1    3    3  502    0 -0.10576758559E+04 -0.30878153670E+03 -0.12616186820E+04  0.16750241647E+04  0.50400001928E-02 0.  1.
       -1    1    3    3    0  502  0.10576758559E+04  0.30878153670E+03  0.12064960554E+04  0.16339084997E+04  0.50400001928E-02 0. -1.
</event>
<event>
 5   0  0.1784626E-06  0.3262216E+04  0.7818609E-02  0.8172577E-01
       -2   -1    0    0    0  501  0.00000000000E+00  0.00000000000E+00  0.11277972816E+04  0.11277972816E+04  0.25500000920E-02 0.  1.
        2   -1    0    0  501    0  0.00000000000E+00  0.00000000000E+00 -0.23590343290E+04  0.23590343290E+04  0.25500000920E-02 0. -1.
    10030    2    1    2    0    0  0.00000000000E+00  0.00000000000E+00 -0.12312370474E+04  0.34868316105E+04  0.32622155069E+04 0.  0.
        2    1    3    3  502    0 -0.76211182193E+03  0.10032686265E+04  0.49163882025E+03  0.13524315493E+04  0.25500000920E-02 0.  1.
       -2    1    3    3    0  502  0.76211182193E+03 -0.10032686265E+04 -0.17228758676E+04  0.21344000612E+04  0.25500000920E-02 0. -1.
</event>
<event>
 5   0  0.5988516E-07  0.3291624E+04  0.7818609E-02  0.8165030E-01
        1   -1    0    0  501    0  0.00000000000E+00  0.00000000000E+00  0.14101411935E+04  0.14101411936E+04  0.50400001928E-02 0.  1.
       -1   -1    0    0    0  501  0.00000000000E+00  0.00000000000E+00 -0.19208698015E+04  0.19208698015E+04  0.50400001928E-02 0. -1.
    10030    2    1    2    0    0  0.00000000000E+00  0.00000000000E+00 -0.51072860792E+03  0.33310109950E+04  0.32916243009E+04 0.  0.
        4    1    3    3  502    0  0.68530426534E+03  0.11342780943E+04  0.73225789097E+03  0.15140779251E+04  0.12699999809E+01 0.  1.
       -4    1    3    3    0  502 -0.68530426534E+03 -0.11342780943E+04 -0.12429864989E+04  0.18169330700E+04  0.12699999809E+01 0. -1.
</event>
<event>
 5   0  0.5985183E-07  0.3298221E+04  0.7818609E-02  0.8163348E-01
       -1   -1    0    0    0  501  0.00000000000E+00  0.00000000000E+00  0.10255269112E+04  0.10255269112E+04  0.50400001928E-02 0.  1.
        1   -1    0    0  501    0  0.00000000000E+00  0.00000000000E+00 -0.26518721197E+04  0.26518721197E+04  0.50400001928E-02 0. -1.
    10030    2    1    2    0    0  0.00000000000E+00  0.00000000000E+00 -0.16263452085E+04  0.36773990308E+04  0.32982214745E+04 0.  0.
        2    1    3    3  502    0 -0.12037709475E+04  0.33975737656E+03 -0.20114695863E+04  0.23686514023E+04  0.25500000920E-02 0. -1.
       -2    1    3    3    0  502  0.12037709475E+04 -0.33975737656E+03  0.38512437778E+03  0.13087476286E+04  0.25500000920E-02 0.  1.
</event>
<event>
 5   0  0.1696681E-06  0.3319995E+04  0.7818609E-02  0.8157826E-01
        2   -1    0    0  501    0  0.00000000000E+00  0.00000000000E+00  0.14654372806E+04  0.14654372806E+04  0.25500000920E-02 0. -1.
       -2   -1    0    0    0  501  0.00000000000E+00  0.00000000000E+00 -0.18803883453E+04  0.18803883453E+04  0.25500000920E-02 0.  1.
    10030    2    1    2    0    0  0.00000000000E+00  0.00000000000E+00 -0.41495106469E+03  0.33458256260E+04  0.33199946888E+04 0.  0.
        4    1    3    3  502    0  0.88941912661E+03 -0.14005849206E+04 -0.26160626942E+03  0.16796261356E+04  0.12699999809E+01 0.  1.
       -4    1    3    3    0  502 -0.88941912661E+03  0.14005849206E+04 -0.15334479527E+03  0.16661994903E+04  0.12699999809E+01 0. -1.
</event>
<event>
 5   0  0.1696681E-06  0.3291595E+04  0.7818609E-02  0.8165037E-01
        2   -1    0    0  501    0  0.00000000000E+00  0.00000000000E+00  0.19378731237E+04  0.19378731237E+04  0.25500000920E-02 0.  1.
       -2   -1    0    0    0  501  0.00000000000E+00  0.00000000000E+00 -0.13977433459E+04  0.13977433459E+04  0.25500000920E-02 0. -1.
    10030    2    1    2    0    0  0.00000000000E+00  0.00000000000E+00  0.54012977780E+03  0.33356164696E+04  0.32915949106E+04 0.  0.
        4    1    3    3  502    0  0.98861360558E+03  0.35605505051E+03  0.15537003260E+04  0.18756647824E+04  0.12699999809E+01 0.  1.
       -4    1    3    3    0  502 -0.98861360558E+03 -0.35605505051E+03 -0.10135705481E+04  0.14599516872E+04  0.12699999809E+01 0. -1.
</event>
<event>
 5   0  0.5988516E-07  0.3156320E+04  0.7818609E-02  0.8200449E-01
       -1   -1    0    0    0  501  0.00000000000E+00  0.00000000000E+00  0.11655195245E+04  0.11655195245E+04  0.50400001928E-02 0. -1.
        1   -1    0    0  501    0  0.00000000000E+00  0.00000000000E+00 -0.21368922744E+04  0.21368922744E+04  0.50400001928E-02 0.  1.
    10030    2    1    2    0    0  0.00000000000E+00  0.00000000000E+00 -0.97137274993E+03  0.33024117989E+04  0.31563204321E+04 0.  0.
        4    1    3    3  502    0 -0.15465646354E+04 -0.46034693945E+02 -0.16048397500E+03  0.15555507332E+04  0.12699999809E+01 0. -1.
       -4    1    3    3    0  502  0.15465646354E+04  0.46034693945E+02 -0.81088877494E+03  0.17468610657E+04  0.12699999809E+01 0.  1.
</event>
<event>
 5   0  0.5985183E-07  0.3263345E+04  0.7818609E-02  0.8172285E-01
        1   -1    0    0  501    0  0.00000000000E+00  0.00000000000E+00  0.14271111648E+04  0.14271111649E+04  0.50400001928E-02 0. -1.
       -1   -1    0    0    0  501  0.00000000000E+00  0.00000000000E+00 -0.18655559950E+04  0.18655559950E+04  0.50400001928E-02 0.  1.
    10030    2    1    2    0    0  0.00000000000E+00  0.00000000000E+00 -0.43844483017E+03  0.32926671599E+04  0.32633453934E+04 0.  0.
        2    1    3    3  502    0 -0.11495090535E+04 -0.11569106758E+04 -0.16834701241E+03  0.16395591153E+04  0.25500000920E-02 0. -1.
       -2    1    3    3    0  502  0.11495090535E+04  0.11569106758E+04 -0.27009781776E+03  0.16531080446E+04  0.25500000920E-02 0.  1.
</event>
<event>
 5   0  0.1743810E-06  0.3315461E+04  0.7818609E-02  0.8158973E-01
        2   -1    0    0  501    0  0.00000000000E+00  0.00000000000E+00  0.19565653048E+04  0.19565653048E+04  0.25500000920E-02 0.  1.
       -2   -1    0    0    0  501  0.00000000000E+00  0.00000000000E+00 -0.14045376944E+04  0.14045376944E+04  0.25500000920E-02 0. -1.
    10030    2    1    2    0    0  0.00000000000E+00  0.00000000000E+00  0.55202761037E+03  0.33611029992E+04  0.33154605847E+04 0.  0.
        5    1    3    3  502    0 -0.12584636709E+03 -0.21914092464E+03 -0.13848896300E+04  0.14077646928E+04  0.46999998093E+01 0. -1.
       -5    1    3    3    0  502  0.12584636709E+03  0.21914092464E+03  0.19369172404E+04  0.19533383064E+04  0.46999998093E+01 0.  1.
</event>
<event>
 5   0  0.1743810E-06  0.3299348E+04  0.7818609E-02  0.8163061E-01
        2   -1    0    0  501    0  0.00000000000E+00  0.00000000000E+00  0.21489805457E+04  0.21489805457E+04  0.25500000920E-02 0. -1.
       -2   -1    0    0    0  501  0.00000000000E+00  0.00000000000E+00 -0.12663792120E+04  0.12663792120E+04  0.25500000920E-02 0.  1.
    10030    2    1    2    0    0  0.00000000000E+00  0.00000000000E+00  0.88260133370E+03  0.34153597577E+04  0.32993479901E+04 0.  0.
        5    1    3    3  502    0  0.20588016210E+03 -0.16364749973E+04  0.47345977117E+03  0.17159904728E+04  0.46999998093E+01 0.  1.
       -5    1    3    3    0  502 -0.20588016210E+03  0.16364749973E+04  0.40914156253E+03  0.16993692848E+04  0.46999998093E+01 0. -1.
</event>
<event>
 5   0  0.6023446E-07  0.3290780E+04  0.7818609E-02  0.8165245E-01
        1   -1    0    0  501    0  0.00000000000E+00  0.00000000000E+00  0.88201736553E+03  0.88201736554E+03  0.50400001928E-02 0.  1.
       -1   -1    0    0    0  501  0.00000000000E+00  0.00000000000E+00 -0.30694494935E+04  0.30694494935E+04  0.50400001928E-02 0. -1.
    10030    2    1    2    0    0  0.00000000000E+00  0.00000000000E+00 -0.21874321280E+04  0.39514668590E+04  0.32907796984E+04 0.  0.
        5    1    3    3  502    0 -0.94046668974E+03  0.38202755392E+03  0.46120493276E+03  0.11149684868E+04  0.46999998093E+01 0.  1.
       -5    1    3    3    0  502  0.94046668974E+03 -0.38202755392E+03 -0.26486370607E+04  0.28364983723E+04  0.46999998093E+01 0. -1.
</event>
<event>
 5   0  0.1784626E-06  0.3254583E+04  0.7818609E-02  0.8174549E-01
       -2   -1    0    0    0  501  0.00000000000E+00  0.00000000000E+00  0.13568721993E+04  0.13568721993E+04  0.25500000920E-02 0. -1.
        2   -1    0    0  501    0  0.00000000000E+00  0.00000000000E+00 -0.19516048772E+04  0.19516048772E+04  0.25500000920E-02 0.  1.
    10030    2    1    2    0    0  0.00000000000E+00  0.00000000000E+00 -0.59473267793E+03  0.33084770765E+04  0.32545834768E+04 0.  0.
        2    1    3    3  502    0 -0.19532512091E+03  0.31256443999E+03 -0.19086144113E+04  0.19438769001E+04  0.25500000920E-02 0.  1.
       -2    1    3    3    0  502  0.19532512091E+03 -0.31256443999E+03  0.13138817333E+04  0.13646001763E+04  0.25500000920E-02 0. -1.
</event>
<event>
 5   0  0.5988516E-07  0.3322235E+04  0.7818609E-02  0.8157261E-01
       -1   -1    0    0    0  501  0.00000000000E+00  0.00000000000E+00  0.11305440994E+04  0.11305440994E+04  0.50400001928E-02 0. -1.
        1   -1    0    0  501    0  0.00000000000E+00  0.00000000000E+00 -0.24406938350E+04  0.24406938350E+04  0.50400001928E-02 0.  1.
    10030    2    1    2    0    0  0.00000000000E+00  0.00000000000E+00 -0.13101497356E+04  0.35712379345E+04  0.33222354003E+04 0.  0.
        4    1    3    3  502    0 -0.12075169463E+04  0.52590937988E+03 -0.17431840082E+04  0.21848043278E+04  0.12699999809E+01 0.  1.
       -4    1    3    3    0  502  0.12075169463E+04 -0.52590937988E+03  0.43303427256E+03  0.13864336067E+04  0.12699999809E+01 0. -1.
</event>
<event>
 5   0  0.1832626E-06  0.3553650E+04  0.7818609E-02  0.8101192E-01
       -2   -1    0    0    0  501  0.00000000000E+00  0.00000000000E+00  0.23765161599E+04  0.23765161599E+04  0.25500000920E-02 0.  1.
        2   -1    0    0  501    0  0.00000000000E+00  0.00000000000E+00 -0.13284601497E+04  0.13284601497E+04  0.25500000920E-02 0. -1.
    10030    2    1    2    0    0  0.00000000000E+00  0.00000000000E+00  0.10480560102E+04  0.37049763096E+04  0.35536499622E+04 0.  0.
        3    1    3    3  502    0  0.96384295500E+03  0.11933011148E+04  0.14589562883E+04  0.21169587275E+04  0.10100000352E+00 0.  1.
       -3    1    3    3    0  502 -0.96384295500E+03 -0.11933011148E+04 -0.41090027805E+03  0.15880175821E+04  0.10100000352E+00 0. -1.
</event>
<event>
 5   0  0.1743810E-06  0.3309109E+04  0.7818609E-02  0.8160581E-01
        2   -1    0    0  501    0  0.00000000000E+00  0.00000000000E+00  0.15365585487E+04  0.15365585487E+04  0.25500000920E-02 0. -1.
       -2   -1    0    0    0  501  0.00000000000E+00  0.00000000000E+00 -0.17816117422E+04  0.17816117422E+04  0.25500000920E-02 0.  1.
    10030    2    1    2    0    0  0.00000000000E+00  0.00000000000E+00 -0.24505319346E+03  0.33181702909E+04  0.33091090964E+04 0.  0.
        5    1    3    3  502    0  0.30439330362E+02  0.43728665410E+03  0.14772675793E+04  0.15409372997E+04  0.46999998093E+01 0. -1.
       -5    1    3    3    0  502 -0.30439330362E+02 -0.43728665410E+03 -0.17223207728E+04  0.17772329912E+04  0.46999998093E+01 0.  1.
</event>
<event>
 5   0  0.1784626E-06  0.3299015E+04  0.7818609E-02  0.8163146E-01
       -2   -1    0    0    0  501  0.00000000000E+00  0.00000000000E+00  0.24161671065E+04  0.24161671066E+04  0.25500000920E-02 0. -1.
        2   -1    0    0  501    0  0.00000000000E+00  0.00000000000E+00 -0.11261122539E+04  0.11261122539E+04  0.25500000920E-02 0.  1.
    10030    2    1    2    0    0  0.00000000000E+00  0.00000000000E+00  0.12900548527E+04  0.35422793604E+04  0.32990152386E+04 0.  0.
        2    1    3    3  502    0 -0.15616472208E+04  0.18530502579E+03  0.11795242139E+04  0.19657968781E+04  0.25500000920E-02 0.  1.
       -2    1    3    3    0  502  0.15616472208E+04 -0.18530502579E+03  0.11053063878E+03  0.15764824823E+04  0.25500000920E-02 0. -1.
</event>
<event>
 5   0  0.5858859E-07  0.3433362E+04  0.7818609E-02  0.8129766E-01
       -1   -1    0    0    0  501  0.00000000000E+00  0.00000000000E+00  0.11567927402E+04  0.11567927402E+04  0.50400001928E-02 0. -1.
        1   -1    0    0  501    0  0.00000000000E+00  0.00000000000E+00 -0.25475556294E+04  0.25475556294E+04  0.50400001928E-02 0.  1.
    10030    2    1    2    0    0  0.00000000000E+00  0.00000000000E+00 -0.13907628892E+04  0.37043483697E+04  0.34333621175E+04 0.  0.
        3    1    3    3  502    0  0.53199291499E+03  0.14737811971E+04  0.61366222923E+02  0.15680603631E+04  0.10100000352E+00 0. -1.
       -3    1    3    3    0  502 -0.53199291499E+03 -0.14737811971E+04 -0.14521291122E+04  0.21362880066E+04  0.10100000352E+00 0.  1.
</event>
<event>
 5   0  0.1784626E-06  0.2938540E+04  0.7818609E-02  0.8261502E-01
        2   -1    0    0  501    0  0.00000000000E+00  0.00000000000E+00  0.20546735988E+04  0.20546735988E+04  0.25500000920E-02 0. -1.
       -2   -1    0    0    0  501  0.00000000000E+00  0.00000000000E+00 -0.10506558165E+04  0.10506558165E+04  0.25500000920E-02 0.  1.
    10030    2    1    2    0    0  0.00000000000E+00  0.00000000000E+00  0.10040177823E+04  0.31053294154E+04  0.29385402959E+04 0.  0.
        2    1    3    3  502    0 -0.13362984554E+04  0.53837184890E+03  0.19716187752E+03  0.14541013086E+04  0.25500000920E-02 0.  1.
       -2    1    3    3    0  502  0.13362984554E+04 -0.53837184890E+03  0.80685590477E+03  0.16512281068E+04  0.25500000920E-02 0. -1.
</event>
<event>
 5   0  0.6023446E-07  0.3303411E+04  0.7818609E-02  0.8162028E-01
       -1   -1    0    0    0  501  0.00000000000E+00  0.00000000000E+00  0.10366379267E+04  0.10366379267E+04  0.50400001928E-02 0.  1.
        1   -1    0    0  501    0  0.00000000000E+00  0.00000000000E+00 -0.26317102560E+04  0.26317102560E+04  0.50400001928E-02 0. -1.
    10030    2    1    2    0    0  0.00000000000E+00  0.00000000000E+00 -0.15950723293E+04  0.36683481828E+04  0.33034107608E+04 0.  0.
        5    1    3    3  502    0 -0.24635321760E+02 -0.16254721515E+04 -0.11219424618E+04  0.19752325412E+04  0.46999998093E+01 0. -1.
       -5    1    3    3    0  502  0.24635321760E+02  0.16254721515E+04 -0.47312986753E+03  0.16931156416E+04  0.46999998093E+01 0.  1.
</event>
<event>
 5   0  0.5988516E-07  0.3292626E+04  0.7818609E-02  0.8164774E-01
       -1   -1    0    0    0  501  0.00000000000E+00  0.00000000000E+00  0.14290069803E+04  0.14290069803E+04  0.50400001928E-02 0. -1.
        1   -1    0    0  501    0  0.00000000000E+00  0.00000000000E+00 -0.18966637664E+04  0.18966637664E+04  0.50400001928E-02 0.  1.
    10030    2    1    2    0    0  0.00000000000E+00  0.00000000000E+00 -0.46765678614E+03  0.33256707467E+04  0.32926255551E+04 0.  0.
        4    1    3    3  502    0 -0.16445518120E+04  0.76109020203E+02 -0.23286835311E+03  0.16627003723E+04  0.12699999809E+01 0. -1.
       -4    1    3    3    0  502  0.16445518120E+04 -0.76109020203E+02 -0.23478843303E+03  0.16629703745E+04  0.12699999809E+01 0.  1.
</event>
<event>
 5   0  0.1832626E-06  0.3257303E+04  0.7818609E-02  0.8173846E-01
       -2   -1    0    0    0  501  0.00000000000E+00  0.00000000000E+00  0.95721818945E+03  0.95721818945E+03  0.25500000920E-02 0.  1.
        2   -1    0    0  501    0  0.00000000000E+00  0.00000000000E+00 -0.27710556761E+04  0.27710556761E+04  0.25500000920E-02 0. -1.
    10030    2    1    2    0    0  0.00000000000E+00  0.00000000000E+00 -0.18138374867E+04  0.37282738656E+04  0.32573025019E+04 0.  0.
        3    1    3    3  502    0  0.49643953472E+03  0.15500309462E+04 -0.97421379771E+03  0.18968765589E+04  0.10100000352E+00 0. -1.
       -3    1    3    3    0  502 -0.49643953472E+03 -0.15500309462E+04 -0.83962368897E+03  0.18313973067E+04  0.10100000352E+00 0.  1.
</event>
<event>
 5   0  0.5858859E-07  0.3266308E+04  0.7818609E-02  0.8171522E-01
       -1   -1    0    0    0  501  0.00000000000E+00  0.00000000000E+00  0.15448021799E+04  0.15448021799E+04  0.50400001928E-02 0. -1.
        1   -1    0    0  501    0  0.00000000000E+00  0.00000000000E+00 -0.17265591002E+04  0.17265591002E+04  0.50400001928E-02 0.  1.
    10030    2    1    2    0    0  0.00000000000E+00  0.00000000000E+00 -0.18175692030E+03  0.32713612802E+04  0.32663081678E+04 0.  0.
        3    1    3    3  502    0 -0.12553924655E+04 -0.35410758051E+03 -0.10751448747E+04  0.16903665084E+04  0.10100000352E+00 0.  1.
       -3    1    3    3    0  502  0.12553924655E+04  0.35410758051E+03  0.89338795439E+03  0.15809947717E+04  0.10100000352E+00 0. -1.
</event>
<event>
 5   0  0.5985183E-07  0.3276677E+04  0.7818609E-02  0.8168855E-01
        1   -1    0    0  501    0  0.00000000000E+00  0.00000000000E+00  0.13773022515E+04  0.13773022515E+04  0.50400001928E-02 0.  1.
       -1   -1    0    0    0  501  0.00000000000E+00  0.00000000000E+00 -0.19488484095E+04  0.19488484095E+04  0.50400001928E-02 0. -1.
    10030    2    1    2    0    0  0.00000000000E+00  0.00000000000E+00 -0.57154615801E+03  0.33261506611E+04  0.32766771598E+04 0.  0.
        2    1    3    3  502    0  0.63972765827E+03  0.11035770077E+04  0.75786468638E+03  0.14837427579E+04  0.25500000920E-02 0.  1.
       -2    1    3    3    0  502 -0.63972765827E+03 -0.11035770077E+04 -0.13294108444E+04  0.18424079032E+04  0.25500000920E-02 0. -1.
</event>
<event>
 5   0  0.5985183E-07  0.3314181E+04  0.7818609E-02  0.8159296E-01
        1   -1    0    0  501    0  0.00000000000E+00  0.00000000000E+00  0.16702634353E+04  0.16702634353E+04  0.50400001928E-02 0. -1.
       -1   -1    0    0    0  501  0.00000000000E+00  0.00000000000E+00 -0.16440215459E+04  0.16440215459E+04  0.50400001928E-02 0.  1.
    10030    2    1    2    0    0  0.00000000000E+00  0.00000000000E+00  0.26241889319E+02  0.33142849812E+04  0.33141810904E+04 0.  0.
        2    1    3    3  502    0 -0.37066728022E+03  0.10768486913E+04  0.12168827904E+04  0.16666736520E+04  0.25500000920E-02 0. -1.
       -2    1    3    3    0  502  0.37066728022E+03 -0.10768486913E+04 -0.11906409011E+04  0.16476113292E+04  0.25500000920E-02 0.  1.
</event>
<event>
 5   0  0.1696681E-06  0.3291851E+04  0.7818609E-02  0.8164972E-01
       -2   -1    0    0    0  501  0.00000000000E+00  0.00000000000E+00  0.17349574505E+04  0.17349574505E+04  0.25500000920E-02 0. -1.
        2   -1    0    0  501    0  0.00000000000E+00  0.00000000000E+00 -0.15614620928E+04  0.15614620928E+04  0.25500000920E-02 0.  1.
    10030    2    1    2    0    0  0.00000000000E+00  0.00000000000E+00  0.17349535772E+03  0.32964195433E+04  0.32918507205E+04 0.  0.
        4    1    3    3  502    0 -0.13259618853E+04 -0.36106153860E+03 -0.82033972452E+03  0.16004684416E+04  0.12699999809E+01 0.  1.
       -4    1    3    3    0  502  0.13259618853E+04  0.36106153860E+03  0.99383508224E+03  0.16959511017E+04  0.12699999809E+01 0. -1.
</event>
<event>
 5   0  0.6085351E-07  0.3291965E+04  0.7818609E-02  0.8164943E-01
        1   -1    0    0  501    0  0.00000000000E+00  0.00000000000E+00  0.24404720978E+04  0.24404720978E+04  0.50400001928E-02 0.  1.
       -1   -1    0    0    0  501  0.00000000000E+00  0.00000000000E+00 -0.11101372525E+04  0.11101372525E+04  0.50400001928E-02 0. -1.
    10030    2    1    2    0    0  0.00000000000E+00  0.00000000000E+00  0.13303348454E+04  0.35506093503E+04  0.32919653640E+04 0.  0.
        1    1    3    3  502    0 -0.11914455565E+04 -0.10946203358E+04  0.33887102883E+03  0.16530486284E+04  0.50400001928E-02 0. -1.
       -1    1    3    3    0  502  0.11914455565E+04  0.10946203358E+04  0.99146381654E+03  0.18975607219E+04  0.50400001928E-02 0.  1.
</event>
<event>
 5   0  0.6085351E-07  0.3299445E+04  0.7818609E-02  0.8163037E-01
       -1   -1    0    0    0  501  0.00000000000E+00  0.00000000000E+00  0.18772221433E+04  0.18772221433E+04  0.50400001928E-02 0. -1.
        1   -1    0    0  501    0  0.00000000000E+00  0.00000000000E+00 -0.14497932943E+04  0.14497932943E+04  0.50400001928E-02 0.  1.
    10030    2    1    2    0    0  0.00000000000E+00  0.00000000000E+00  0.42742884898E+03  0.33270154376E+04  0.32994448474E+04 0.  0.
        1    1    3    3  502    0 -0.12485207292E+04  0.99090176123E+03 -0.21515564686E+03  0.16084098558E+04  0.50400001928E-02 0. -1.
       -1    1    3    3    0  502  0.12485207292E+04 -0.99090176123E+03  0.64258449583E+03  0.17186055819E+04  0.50400001928E-02 0.  1.
</event>
<event>
 5   0  0.1743810E-06  0.3302239E+04  0.7818609E-02  0.8162326E-01
       -2   -1    0    0    0  501  0.00000000000E+00  0.00000000000E+00  0.16495479798E+04  0.16495479798E+04  0.25500000920E-02 0. -1.
        2   -1    0    0  501    0  0.00000000000E+00  0.00000000000E+00 -0.16526926139E+04  0.16526926139E+04  0.25500000920E-02 0.  1.
    10030    2    1    2    0    0  0.00000000000E+00  0.00000000000E+00 -0.31446341645E+01  0.33022405937E+04  0.33022390964E+04 0.  0.
        5    1    3    3  502    0  0.80431094731E+03  0.64290769226E+03 -0.12922809529E+04  0.16523494037E+04  0.46999998093E+01 0.  1.
       -5    1    3    3    0  502 -0.80431094731E+03 -0.64290769226E+03  0.12891363187E+04  0.16498911900E+04  0.46999998093E+01 0. -1.
</event>
<event>
 5   0  0.1728937E-06  0.3231241E+04  0.7818609E-02  0.8180615E-01
        2   -1    0    0  501    0  0.00000000000E+00  0.00000000000E+00  0.71622730328E+03  0.71622730328E+03  0.25500000920E-02 0. -1.
       -2   -1    0    0    0  501  0.00000000000E+00  0.00000000000E+00 -0.36444153542E+04  0.36444153542E+04  0.25500000920E-02 0.  1.
    10030    2    1    2    0    0  0.00000000000E+00  0.00000000000E+00 -0.29281880509E+04  0.43606426575E+04  0.32312411121E+04 0.  0.
        1    1    3    3  502    0 -0.12185421064E+04  0.10331164579E+04 -0.11389303147E+04  0.19619726661E+04  0.50400001928E-02 0. -1.
       -1    1    3    3    0  502  0.12185421064E+04 -0.10331164579E+04 -0.17892577362E+04  0.23986699914E+04  0.50400001928E-02 0.  1.
</event>
<event>
 5   0  0.1728937E-06  0.3327375E+04  0.7818609E-02  0.8155964E-01
       -2   -1    0    0    0  501  0.00000000000E+00  0.00000000000E+00  0.17088267274E+04  0.17088267274E+04  0.25500000920E-02 0.  1.
        2   -1    0    0  501    0  0.00000000000E+00  0.00000000000E+00 -0.16197408876E+04  0.16197408876E+04  0.25500000920E-02 0. -1.
    10030    2    1    2    0    0  0.00000000000E+00  0.00000000000E+00  0.89085839823E+02  0.33285676150E+04  0.33273752540E+04 0.  0.
        1    1    3    3  502    0  0.31437158182E+03  0.14666808772E+03 -0.15831589290E+04  0.16207199677E+04  0.50400001928E-02 0. -1.
       -1    1    3    3    0  502 -0.31437158182E+03 -0.14666808772E+03  0.16722447688E+04  0.17078476473E+04  0.50400001928E-02 0.  1.
</event>
<event>
 5   0  0.5858859E-07  0.3293753E+04  0.7818609E-02  0.8164487E-01
       -1   -1    0    0    0  501  0.00000000000E+00  0.00000000000E+00  0.12861359701E+04  0.12861359701E+04  0.50400001928E-02 0. -1.
        1   -1    0    0  501    0  0.00000000000E+00  0.00000000000E+00 -0.21087984582E+04  0.21087984582E+04  0.50400001928E-02 0.  1.
    10030    2    1    2    0    0  0.00000000000E+00  0.00000000000E+00 -0.82266248809E+03  0.33949344283E+04  0.32937526020E+04 0.  0.
        3    1    3    3  502    0 -0.16411259425E+04  0.12847590483E+03 -0.46183778739E+03  0.17097059892E+04  0.10100000352E+00 0.  1.
       -3    1    3    3    0  502  0.16411259425E+04 -0.12847590483E+03 -0.36082470070E+03  0.16852284392E+04  0.10100000352E+00 0. -1.
</event>
<event>
 5   0  0.1743810E-06  0.3296221E+04  0.7818609E-02  0.8163858E-01
       -2   -1    0    0    0  501  0.00000000000E+00  0.00000000000E+00  0.25938767412E+04  0.25938767412E+04  0.25500000920E-02 0. -1.
        2   -1    0    0  501    0  0.00000000000E+00  0.00000000000E+00 -0.10471850047E+04  0.10471850047E+04  0.25500000920E-02 0.  1.
    10030    2    1    2    0    0  0.00000000000E+00  0.00000000000E+00  0.15466917364E+04  0.36410617459E+04  0.32962213685E+04 0.  0.
        5    1    3    3  502    0  0.35905162310E+03  0.11862802089E+04 -0.42660973598E+03  0.13108000454E+04  0.46999998093E+01 0.  1.
       -5    1    3    3    0  502 -0.35905162310E+03 -0.11862802089E+04  0.19733014724E+04  0.23302617006E+04  0.46999998093E+01 0. -1.
</event>
<event>
 5   0  0.1784626E-06  0.3308779E+04  0.7818609E-02  0.8160665E-01
       -2   -1    0    0    0  501  0.00000000000E+00  0.00000000000E+00  0.19242472636E+04  0.19242472636E+04  0.25500000920E-02 0.  1.
        2   -1    0    0  501    0  0.00000000000E+00  0.00000000000E+00 -0.14223769038E+04  0.14223769038E+04  0.25500000920E-02 0. -1.
    10030    2    1    2    0    0  0.00000000000E+00  0.00000000000E+00  0.50187035987E+03  0.33466241674E+04  0.33087791494E+04 0.  0.
        2    1    3    3  502    0 -0.13309365620E+04 -0.93425103337E+02 -0.73845801425E+03  0.15249395466E+04  0.25500000920E-02 0. -1.
       -2    1    3    3    0  502  0.13309365620E+04  0.93425103337E+02  0.12403283741E+04  0.18216846208E+04  0.25500000920E-02 0.  1.
</event>
<event>
 5   0  0.6023446E-07  0.3306662E+04  0.7818609E-02  0.8161202E-01
        1   -1    0    0  501    0  0.00000000000E+00  0.00000000000E+00  0.16606573545E+04  0.16606573545E+04  0.50400001928E-02 0.  1.
       -1   -1    0    0    0  501  0.00000000000E+00  0.00000000000E+00 -0.16460366628E+04  0.16460366628E+04  0.50400001928E-02 0. -1.
    10030    2    1    2    0    0  0.00000000000E+00  0.00000000000E+00  0.14620691704E+02  0.33066940174E+04  0.33066616942E+04 0.  0.
        5    1    3    3  502    0 -0.28340973834E+03 -0.11091970105E+04 -0.11855306030E+04  0.16480728105E+04  0.46999998093E+01 0. -1.
       -5    1    3    3    0  502  0.28340973834E+03  0.11091970105E+04  0.12001512947E+04  0.16586212069E+04  0.46999998093E+01 0.  1.
</event>
<event>
 5   0  0.1728937E-06  0.3316180E+04  0.7818609E-02  0.8158791E-01
       -2   -1    0    0    0  501  0.00000000000E+00  0.00000000000E+00  0.17713717945E+04  0.17713717945E+04  0.25500000920E-02 0. -1.
        2   -1    0    0  501    0  0.00000000000E+00  0.00000000000E+00 -0.15520522798E+04  0.15520522798E+04  0.25500000920E-02 0.  1.
    10030    2    1    2    0    0  0.00000000000E+00  0.00000000000E+00  0.21931951474E+03  0.33234240743E+04  0.33161795078E+04 0.  0.
        1    1    3    3  502    0  0.16116678126E+03  0.13259610175E+03 -0.15388365032E+04  0.15529244158E+04  0.50400001928E-02 0.  1.
       -1    1    3    3    0  502 -0.16116678126E+03 -0.13259610175E+03  0.17581560179E+04  0.17704996585E+04  0.50400001928E-02 0. -1.
</event>
<event>
 5   0  0.1696681E-06  0.3347542E+04  0.7818609E-02  0.8150903E-01
        2   -1    0    0  501    0  0.00000000000E+00  0.00000000000E+00  0.16209672043E+04  0.16209672043E+04  0.25500000920E-02 0.  1.
       -2   -1    0    0    0  501  0.00000000000E+00  0.00000000000E+00 -0.17282944804E+04  0.17282944804E+04  0.25500000920E-02 0. -1.
    10030    2    1    2    0    0  0.00000000000E+00  0.00000000000E+00 -0.10732727614E+03  0.33492616847E+04  0.33475415887E+04 0.  0.
        4    1    3    3  502    0 -0.14962317532E+04  0.32683862645E+03 -0.72926916414E+03  0.16962806588E+04  0.12699999809E+01 0.  1.
       -4    1    3    3    0  502  0.14962317532E+04 -0.32683862645E+03  0.62194188800E+03  0.16529810259E+04  0.12699999809E+01 0. -1.
</event>
<event>
 5   0  0.1728937E-06  0.3277237E+04  0.7818609E-02  0.8168712E-01
        2   -1    0    0  501    0  0.00000000000E+00  0.00000000000E+00  0.20227683888E+04  0.20227683888E+04  0.25500000920E-02 0.  1.
       -2   -1    0    0    0  501  0.00000000000E+00  0.00000000000E+00 -0.13274234560E+04  0.13274234560E+04  0.25500000920E-02 0. -1.
    10030    2    1    2    0    0  0.00000000000E+00  0.00000000000E+00  0.69534493278E+03  0.33501918448E+04  0.32772367661E+04 0.  0.
        1    1    3    3  502    0  0.10750170076E+04 -0.31911292364E+03  0.15690823050E+04  0.19286041337E+04  0.50400001928E-02 0. -1.
       -1    1    3    3    0  502 -0.10750170076E+04  0.31911292364E+03 -0.87373737223E+03  0.14215877111E+04  0.50400001928E-02 0.  1.
</event>
<event>
 5   0  0.1784626E-06  0.3106334E+04  0.7818609E-02  0.8214002E-01
       -2   -1    0    0    0  501  0.00000000000E+00  0.00000000000E+00  0.10081914927E+04  0.10081914927E+04  0.25500000920E-02 0.  1.
        2   -1    0    0  501    0  0.00000000000E+00  0.00000000000E+00 -0.23927280351E+04  0.23927280351E+04  0.25500000920E-02 0. -1.
    10030    2    1    2    0    0  0.00000000000E+00  0.00000000000E+00 -0.13845365424E+04  0.34009195278E+04  0.31063342056E+04 0.  0.
        2    1    3    3  502    0  0.56535281556E+03  0.10219629642E+04  0.42869176421E+03  0.12441096154E+04  0.25500000920E-02 0.  1.
       -2    1    3    3    0  502 -0.56535281556E+03 -0.10219629642E+04 -0.18132283066E+04  0.21568099124E+04  0.25500000920E-02 0. -1.
</event>
<event>
 5   0  0.5985183E-07  0.3188296E+04  0.7818609E-02  0.8191915E-01
       -1   -1    0    0    0  501  0.00000000000E+00  0.00000000000E+00  0.11869094745E+04  0.11869094745E+04  0.50400001928E-02 0. -1.
        1   -1    0    0  501    0  0.00000000000E+00  0.00000000000E+00 -0.21411140192E+04  0.21411140192E+04  0.50400001928E-02 0.  1.
    10030    2    1    2    0    0  0.00000000000E+00  0.00000000000E+00 -0.95420454470E+03  0.33280234937E+04  0.31882964199E+04 0.  0.
        2    1    3    3  502    0 -0.10108842855E+04  0.21357156219E+03 -0.17443112605E+04  0.20273434895E+04  0.25500000920E-02 0.  1.
       -2    1    3    3    0  502  0.10108842855E+04 -0.21357156219E+03  0.79010671583E+03  0.13006800042E+04  0.25500000920E-02 0. -1.
</event>
<event>
 5   0  0.5985183E-07  0.3321307E+04  0.7818609E-02  0.8157495E-01
       -1   -1    0    0    0  501  0.00000000000E+00  0.00000000000E+00  0.20817534573E+04  0.20817534573E+04  0.50400001928E-02 0.  1.
        1   -1    0    0  501    0  0.00000000000E+00  0.00000000000E+00 -0.13247345034E+04  0.13247345034E+04  0.50400001928E-02 0. -1.
    10030    2    1    2    0    0  0.00000000000E+00  0.00000000000E+00  0.75701895388E+03  0.34064879607E+04  0.33213073525E+04 0.  0.
        2    1    3    3  502    0 -0.72592237316E+03 -0.14933917621E+04  0.40338824162E+03  0.17087727527E+04  0.25500000920E-02 0.  1.
       -2    1    3    3    0  502  0.72592237316E+03  0.14933917621E+04  0.35363071226E+03  0.16977152080E+04  0.25500000920E-02 0. -1.
</event>
<event>
 5   0  0.1728937E-06  0.3291894E+04  0.7818609E-02  0.8164961E-01
        2   -1    0    0  501    0  0.00000000000E+00  0.00000000000E+00  0.32411207966E+04  0.32411207966E+04  0.25500000920E-02 0.  1.
       -2   -1    0    0    0  501  0.00000000000E+00  0.00000000000E+00 -0.83586556156E+03  0.83586556156E+03  0.25500000920E-02 0. -1.
    10030    2    1    2    0    0  0.00000000000E+00  0.00000000000E+00  0.24052552350E+04  0.40769863582E+04  0.32918938347E+04 0.  0.
        1    1    3    3  502    0  0.10987908517E+04  0.10315984332E+04  0.38334380732E+03  0.15551492332E+04  0.50400001928E-02 0. -1.
       -1    1    3    3    0  502 -0.10987908517E+04 -0.10315984332E+04  0.20219114277E+04  0.25218371249E+04  0.50400001928E-02 0.  1.
</event>
<event>
 5   0  0.6085351E-07  0.3292969E+04  0.7818609E-02  0.8164687E-01
        1   -1    0    0  501    0  0.00000000000E+00  0.00000000000E+00  0.22764458197E+04  0.22764458197E+04  0.50400001928E-02 0.  1.
       -1   -1    0    0    0  501  0.00000000000E+00  0.00000000000E+00 -0.11908527881E+04  0.11908527881E+04  0.50400001928E-02 0. -1.
    10030    2    1    2    0    0  0.00000000000E+00  0.00000000000E+00  0.10855930316E+04  0.34672986079E+04  0.32929693903E+04 0.  0.
        1    1    3    3  502    0 -0.12958104444E+04  0.11115838579E+03  0.16059169365E+04  0.20665067388E+04  0.50400001928E-02 0.  1.
       -1    1    3    3    0  502  0.12958104444E+04 -0.11115838579E+03 -0.52032390482E+03  0.14007918691E+04  0.50400001928E-02 0. -1.
</event>
<event>
 5   0  0.6023446E-07  0.3290126E+04  0.7818609E-02  0.8165412E-01
       -1   -1    0    0    0  501  0.00000000000E+00  0.00000000000E+00  0.18892440218E+04  0.18892440218E+04  0.50400001928E-02 0.  1.
        1   -1    0    0  501    0  0.00000000000E+00  0.00000000000E+00 -0.14324417499E+04  0.14324417500E+04  0.50400001928E-02 0. -1.
    10030    2    1    2    0    0  0.00000000000E+00  0.00000000000E+00  0.45680227189E+03  0.33216857718E+04  0.32901258412E+04 0.  0.
        5    1    3    3  502    0  0.12818005404E+04 -0.62469578945E+03 -0.59980459642E+03  0.15469470251E+04  0.46999998093E+01 0. -1.
       -5    1    3    3    0  502 -0.12818005404E+04  0.62469578945E+03  0.10566068683E+04  0.17747387466E+04  0.46999998093E+01 0.  1.
</event>
<event>
 5   0  0.1728937E-06  0.3404400E+04  0.7818609E-02  0.8136827E-01
        2   -1    0    0  501    0  0.00000000000E+00  0.00000000000E+00  0.32628447639E+04  0.32628447639E+04  0.25500000920E-02 0. -1.
       -2   -1    0    0    0  501  0.00000000000E+00  0.00000000000E+00 -0.88802410188E+03  0.88802410188E+03  0.25500000920E-02 0.  1.
    10030    2    1    2    0    0  0.00000000000E+00  0.00000000000E+00  0.23748206620E+04  0.41508688657E+04  0.34043999712E+04 0.  0.
        1    1    3    3  502    0 -0.84142402118E+03 -0.39880087888E+03  0.29247886577E+04  0.30694340222E+04  0.50400001928E-02 0. -1.
       -1    1    3    3    0  502  0.84142402118E+03  0.39880087888E+03 -0.54996799574E+03  0.10814348435E+04  0.50400001928E-02 0.  1.
</event>
<event>
 5   0  0.5988516E-07  0.3280113E+04  0.7818609E-02  0.8167974E-01
       -1   -1    0    0    0  501  0.00000000000E+00  0.00000000000E+00  0.10605627235E+04  0.10605627235E+04  0.50400001928E-02 0. -1.
        1   -1    0    0  501    0  0.00000000000E+00  0.00000000000E+00 -0.25361866161E+04  0.25361866161E+04  0.50400001928E-02 0.  1.
    10030    2    1    2    0    0  0.00000000000E+00  0.00000000000E+00 -0.14756238926E+04  0.35967493396E+04  0.32801127937E+04 0.  0.
        4    1    3    3  502    0 -0.51680496686E+02  0.11138889469E+04  0.58093110138E+03  0.12573392610E+04  0.12699999809E+01 0. -1.
       -4    1    3    3    0  502  0.51680496686E+02 -0.11138889469E+04 -0.20565549940E+04  0.23394100786E+04  0.12699999809E+01 0.  1.
</event>
<event>
 5   0  0.1784626E-06  0.3316285E+04  0.7818609E-02  0.8158764E-01
        2   -1    0    0  501    0  0.00000000000E+00  0.00000000000E+00  0.26967124056E+04  0.26967124056E+04  0.25500000920E-02 0.  1.
       -2   -1    0    0    0  501  0.00000000000E+00  0.00000000000E+00 -0.10195515283E+04  0.10195515283E+04  0.25500000920E-02 0. -1.
    10030    2    1    2    0    0  0.00000000000E+00  0.00000000000E+00  0.16771608773E+04  0.37162639340E+04  0.33162854247E+04 0.  0.
        2    1    3    3  502    0 -0.87968427499E+03  0.13027566674E+04  0.14298740987E+04  0.21249845402E+04  0.25500000920E-02 0.  1.
       -2    1    3    3    0  502  0.87968427499E+03 -0.13027566674E+04  0.24728677865E+03  0.15912793937E+04  0.25500000920E-02 0. -1.
</event>
<event>
 5   0  0.5988516E-07  0.3323837E+04  0.7818609E-02  0.8156856E-01
        1   -1    0    0  501    0  0.00000000000E+00  0.00000000000E+00  0.21091511555E+04  0.21091511555E+04  0.50400001928E-02 0. -1.
       -1   -1    0    0    0  501  0.00000000000E+00  0.00000000000E+00 -0.13095188669E+04  0.13095188669E+04  0.50400001928E-02 0.  1.
    10030    2    1    2    0    0  0.00000000000E+00  0.00000000000E+00  0.79963228855E+03  0.34186700224E+04  0.33238370786E+04 0.  0.
        4    1    3    3  502    0 -0.16330472511E+03  0.11670007206E+04 -0.80554712705E+03  0.14273986486E+04  0.12699999809E+01 0.  1.
       -4    1    3    3    0  502  0.16330472511E+03 -0.11670007206E+04  0.16051794156E+04  0.19912713739E+04  0.12699999809E+01 0. -1.
</event>
<event>
 5   0  0.6085351E-07  0.3310482E+04  0.7818609E-02  0.8160233E-01
       -1   -1    0    0    0  501  0.00000000000E+00  0.00000000000E+00  0.15281357531E+04  0.15281357531E+04  0.50400001928E-02 0.  1.
        1   -1    0    0  501    0  0.00000000000E+00  0.00000000000E+00 -0.17929182985E+04  0.17929182985E+04  0.50400001928E-02 0. -1.
    10030    2    1    2    0    0  0.00000000000E+00  0.00000000000E+00 -0.26478254537E+03  0.33210540516E+04  0.33104818708E+04 0.  0.
        1    1    3    3  502    0  0.92909606216E+02  0.86839964588E+03 -0.15429657397E+04  0.17729899644E+04  0.50400001928E-02 0. -1.
       -1    1    3    3    0  502 -0.92909606216E+02 -0.86839964588E+03  0.12781831943E+04  0.15480640872E+04  0.50400001928E-02 0.  1.
</event>
<event>
 5   0  0.1743810E-06  0.3232346E+04  0.7818609E-02  0.8180326E-01
        2   -1    0    0  501    0  0.00000000000E+00  0.00000000000E+00  0.19229954542E+04  0.19229954542E+04  0.25500000920E-02 0. -1.
       -2   -1    0    0    0  501  0.00000000000E+00  0.00000000000E+00 -0.13583057569E+04  0.13583057569E+04  0.25500000920E-02 0.  1.
    10030    2    1    2    0    0  0.00000000000E+00  0.00000000000E+00  0.56468969731E+03  0.32813012111E+04  0.32323463898E+04 0.  0.
        5    1    3    3  502    0 -0.11760425001E+04  0.97807763590E+03  0.81205412143E+03  0.17318099810E+04  0.46999998093E+01 0.  1.
       -5    1    3    3    0  502  0.11760425001E+04 -0.97807763590E+03 -0.24736442412E+03  0.15494912301E+04  0.46999998093E+01 0. -1.
</event>
<event>
 5   0  0.5858859E-07  0.3094953E+04  0.7818609E-02  0.8217124E-01
        1   -1    0    0  501    0  0.00000000000E+00  0.00000000000E+00  0.15051031965E+04  0.15051031965E+04  0.50400001928E-02 0.  1.
       -1   -1    0    0    0  501  0.00000000000E+00  0.00000000000E+00 -0.15910429374E+04  0.15910429374E+04  0.50400001928E-02 0. -1.
    10030    2    1    2    0    0  0.00000000000E+00  0.00000000000E+00 -0.85939740932E+02  0.30961461339E+04  0.30949531892E+04 0.  0.
        3    1    3    3  502    0 -0.98985193706E+02  0.27496748599E+03  0.14772469470E+04  0.15058764025E+04  0.10100000352E+00 0.  1.
       -3    1    3    3    0  502  0.98985193706E+02 -0.27496748599E+03 -0.15631866880E+04  0.15902697314E+04  0.10100000352E+00 0. -1.
</event>
<event>
 5   0  0.5858859E-07  0.3289282E+04  0.7818609E-02  0.8165628E-01
       -1   -1    0    0    0  501  0.00000000000E+00  0.00000000000E+00  0.11473465851E+04  0.11473465851E+04  0.50400001928E-02 0. -1.
        1   -1    0    0  501    0  0.00000000000E+00  0.00000000000E+00 -0.23574778800E+04  0.23574778800E+04  0.50400001928E-02 0.  1.
    10030    2    1    2    0    0  0.00000000000E+00  0.00000000000E+00 -0.12101312950E+04  0.35048244651E+04  0.32892821071E+04 0.  0.
        3    1    3    3  502    0  0.47727261814E+03  0.67988466908E+03 -0.21175204299E+04  0.22746263641E+04  0.10100000352E+00 0.  1.
       -3    1    3    3    0  502 -0.47727261814E+03 -0.67988466908E+03  0.90738913490E+03  0.12301981010E+04  0.10100000352E+00 0. -1.
</event>
<event>
 5   0  0.1784626E-06  0.3096065E+04  0.7818609E-02  0.8216819E-01
       -2   -1    0    0    0  501  0.00000000000E+00  0.00000000000E+00  0.11502126984E+04  0.11502126984E+04  0.25500000920E-02 0. -1.
        2   -1    0    0  501    0  0.00000000000E+00  0.00000000000E+00 -0.20834448307E+04  0.20834448307E+04  0.25500000920E-02 0.  1.
    10030    2    1    2    0    0  0.00000000000E+00  0.00000000000E+00 -0.93323213225E+03  0.32336575291E+04  0.30960650515E+04 0.  0.
        2    1    3    3  502    0 -0.66332808398E+03  0.91109133715E+03  0.64182732639E+03  0.12969324919E+04  0.25500000920E-02 0. -1.
       -2    1    3    3    0  502  0.66332808398E+03 -0.91109133715E+03 -0.15750594586E+04  0.19367250372E+04  0.25500000920E-02 0.  1.
</event>
<event>
 5   0  0.1696681E-06  0.3286486E+04  0.7818609E-02  0.8166343E-01
        2   -1    0    0  501    0  0.00000000000E+00  0.00000000000E+00  0.27445459072E+04  0.27445459072E+04  0.25500000920E-02 0.  1.
       -2   -1    0    0    0  501  0.00000000000E+00  0.00000000000E+00 -0.98385932752E+03  0.98385932752E+03  0.25500000920E-02 0. -1.
    10030    2    1    2    0    0  0.00000000000E+00  0.00000000000E+00  0.17606865797E+04  0.37284052347E+04  0.32864857161E+04 0.  0.
        4    1    3    3  502    0  0.16702237119E+03  0.38734228390E+03 -0.92139213649E+03  0.10133585740E+04  0.12699999809E+01 0. -1.
       -4    1    3    3    0  502 -0.16702237119E+03 -0.38734228390E+03  0.26820787161E+04  0.27150466607E+04  0.12699999809E+01 0.  1.
</event>
<event>
 5   0  0.5858859E-07  0.3313696E+04  0.7818609E-02  0.8159419E-01
        1   -1    0    0  501    0  0.00000000000E+00  0.00000000000E+00  0.23450297926E+04  0.23450297926E+04  0.50400001928E-02 0. -1.
       -1   -1    0    0    0  501  0.00000000000E+00  0.00000000000E+00 -0.11706229274E+04  0.11706229274E+04  0.50400001928E-02 0.  1.
    10030    2    1    2    0    0  0.00000000000E+00  0.00000000000E+00  0.11744068651E+04  0.35156527200E+04  0.33136962086E+04 0.  0.
        3    1    3    3  502    0  0.57916384489E+03 -0.59688160028E+03  0.21075235790E+04  0.22656906342E+04  0.10100000352E+00 0. -1.
       -3    1    3    3    0  502 -0.57916384489E+03  0.59688160028E+03 -0.93311671383E+03  0.12499620857E+04  0.10100000352E+00 0.  1.
</event>
<event>
 5   0  0.1784626E-06  0.3318225E+04  0.7818609E-02  0.8158274E-01
       -2   -1    0    0    0  501  0.00000000000E+00  0.00000000000E+00  0.13076413584E+04  0.13076413584E+04  0.25500000920E-02 0.  1.
        2   -1    0    0  501    0  0.00000000000E+00  0.00000000000E+00 -0.21050523810E+04  0.21050523810E+04  0.25500000920E-02 0. -1.
    10030    2    1    2    0    0  0.00000000000E+00  0.00000000000E+00 -0.79741102256E+03  0.34126937394E+04  0.33182245584E+04 0.  0.
        2    1    3    3  502    0  0.13471550606E+04  0.55906760763E+03 -0.12119580181E+04  0.18963716896E+04  0.25500000920E-02 0.  1.
       -2    1    3    3    0  502 -0.13471550606E+04 -0.55906760763E+03  0.41454699557E+03  0.15163220498E+04  0.25500000920E-02 0. -1.
</event>
<event>
 5   0  0.1696681E-06  0.3154231E+04  0.7818609E-02  0.8201010E-01
        2   -1    0    0  501    0  0.00000000000E+00  0.00000000000E+00  0.85843415567E+03  0.85843415568E+03  0.25500000920E-02 0.  1.
       -2   -1    0    0    0  501  0.00000000000E+00  0.00000000000E+00 -0.28974778107E+04  0.28974778107E+04  0.25500000920E-02 0. -1.
    10030    2    1    2    0    0  0.00000000000E+00  0.00000000000E+00 -0.20390436550E+04  0.37559119664E+04  0.31542313917E+04 0.  0.
        4    1    3    3  502    0  0.79494294490E+03 -0.58512685461E+02  0.60092446220E+03  0.99823336058E+03  0.12699999809E+01 0.  1.
       -4    1    3    3    0  502 -0.79494294490E+03  0.58512685461E+02 -0.26399681172E+04  0.27576786058E+04  0.12699999809E+01 0. -1.
</event>
<event>
 5   0  0.1832626E-06  0.3333465E+04  0.7818609E-02  0.8154432E-01
       -2   -1    0    0    0  501  0.00000000000E+00  0.00000000000E+00  0.15362160572E+04  0.15362160572E+04  0.25500000920E-02 0. -1.
        2   -1    0    0  501    0  0.00000000000E+00  0.00000000000E+00 -0.18083374528E+04  0.18083374528E+04  0.25500000920E-02 0.  1.
    10030    2    1    2    0    0  0.00000000000E+00  0.00000000000E+00 -0.27212139561E+03  0.33445535100E+04  0.33334648832E+04 0.  0.
        3    1    3    3  502    0 -0.10203046531E+04  0.12860444433E+04 -0.42522962851E+03  0.16958042760E+04  0.10100000352E+00 0.  1.
       -3    1    3    3    0  502  0.10203046531E+04 -0.12860444433E+04  0.15310823291E+03  0.16487492340E+04  0.10100000352E+00 0. -1.
</event>
<event>
 5   0  0.6023446E-07  0.3303833E+04  0.7818609E-02  0.8161921E-01
       -1   -1    0    0    0  501  0.00000000000E+00  0.00000000000E+00  0.19507818274E+04  0.19507818274E+04  0.50400001928E-02 0.  1.
        1   -1    0    0  501    0  0.00000000000E+00  0.00000000000E+00 -0.13988382532E+04  0.13988382532E+04  0.50400001928E-02 0. -1.
    10030    2    1    2    0    0  0.00000000000E+00  0.00000000000E+00  0.55194357420E+03  0.33496200805E+04  0.33038330731E+04 0.  0.
        5    1    3    3  502    0 -0.11062084746E+04  0.28031588276E+03 -0.93495590128E+03  0.14752758423E+04  0.46999998093E+01 0. -1.
       -5    1    3    3    0  502  0.11062084746E+04 -0.28031588276E+03  0.14868994755E+04  0.18743442383E+04  0.46999998093E+01 0.  1.
</event>
<event>
 5   0  0.1784626E-06  0.3375733E+04  0.7818609E-02  0.8143888E-01
       -2   -1    0    0    0  501  0.00000000000E+00  0.00000000000E+00  0.15338931510E+04  0.15338931510E+04  0.25500000920E-02 0. -1.
        2   -1    0    0  501    0  0.00000000000E+00  0.00000000000E+00 -0.18572953674E+04  0.18572953674E+04  0.25500000920E-02 0.  1.
    10030    2    1    2    0    0  0.00000000000E+00  0.00000000000E+00 -0.32340221640E+03  0.33911885183E+04  0.33757325980E+04 0.  0.
        2    1    3    3  502    0 -0.17595176278E+03  0.75473247739E+03 -0.16680037366E+04  0.18392434860E+04  0.25500000920E-02 0.  1.
       -2    1    3    3    0  502  0.17595176278E+03 -0.75473247739E+03  0.13446015202E+04  0.15519450324E+04  0.25500000920E-02 0. -1.
</event>
<event>
 5   0  0.5685000E-07  0.3288736E+04  0.7818609E-02  0.8165768E-01
       -3   -1    0    0    0  501  0.00000000000E+00  0.00000000000E+00  0.13106904735E+04  0.13106904774E+04  0.10100000352E+00 0.  1.
        3   -1    0    0  501    0  0.00000000000E+00  0.00000000000E+00 -0.20629932077E+04  0.20629932101E+04  0.10100000352E+00 0. -1.
    10030    2    1    2    0    0  0.00000000000E+00  0.00000000000E+00 -0.75230273421E+03  0.33736836875E+04  0.32887356567E+04 0.  0.
        1    1    3    3  502    0 -0.10389763735E+04 -0.12185596770E+04  0.71110806098E+01  0.16013775815E+04  0.50400001928E-02 0.  1.
       -1    1    3    3    0  502  0.10389763735E+04  0.12185596770E+04 -0.75941381482E+03  0.17723061060E+04  0.50400001928E-02 0. -1.
</event>
<event>
 5   0  0.5988516E-07  0.3322027E+04  0.7818609E-02  0.8157313E-01
        1   -1    0    0  501    0  0.00000000000E+00  0.00000000000E+00  0.11492047642E+04  0.11492047642E+04  0.50400001928E-02 0.  1.
       -1   -1    0    0    0  501  0.00000000000E+00  0.00000000000E+00 -0.24007606542E+04  0.24007606542E+04  0.50400001928E-02 0. -1.
    10030    2    1    2    0    0  0.00000000000E+00  0.00000000000E+00 -0.12515558900E+04  0.35499654184E+04  0.33220268401E+04 0.  0.
        4    1    3    3  502    0  0.12357001301E+04  0.24029605005E+03 -0.17837668737E+04  0.21832367888E+04  0.12699999809E+01 0. -1.
       -4    1    3    3    0  502 -0.12357001301E+04 -0.24029605005E+03  0.53221098370E+03  0.13667286297E+04  0.12699999809E+01 0.  1.
</event>
<event>
 5   0  0.1784626E-06  0.3296913E+04  0.7818609E-02  0.8163681E-01
        2   -1    0    0  501    0  0.00000000000E+00  0.00000000000E+00  0.29474796802E+04  0.29474796802E+04  0.25500000920E-02 0.  1.
       -2   -1    0    0    0  501  0.00000000000E+00  0.00000000000E+00 -0.92194319195E+03  0.92194319195E+03  0.25500000920E-02 0. -1.
    10030    2    1    2    0    0  0.00000000000E+00  0.00000000000E+00  0.20255364883E+04  0.38694228722E+04  0.32969129953E+04 0.  0.
        2    1    3    3  502    0 -0.99002339890E+03  0.50263240072E+03  0.24428037623E+04  0.26832957126E+04  0.25500000920E-02 0.  1.
       -2    1    3    3    0  502  0.99002339890E+03 -0.50263240072E+03 -0.41726727398E+03  0.11861271595E+04  0.25500000920E-02 0. -1.
</event>
<event>
 5   0  0.6023446E-07  0.3206499E+04  0.7818609E-02  0.8187103E-01
        1   -1    0    0  501    0  0.00000000000E+00  0.00000000000E+00  0.15241163142E+04  0.15241163142E+04  0.50400001928E-02 0. -1.
       -1   -1    0    0    0  501  0.00000000000E+00  0.00000000000E+00 -0.16864918049E+04  0.16864918049E+04  0.50400001928E-02 0.  1.
    10030    2    1    2    0    0  0.00000000000E+00  0.00000000000E+00 -0.16237549064E+03  0.32106081191E+04  0.32064994456E+04 0.  0.
        5    1    3    3  502    0 -0.12625222665E+04  0.93673985260E+03  0.23376826015E+03  0.15893752591E+04  0.46999998093E+01 0. -1.
       -5    1    3    3    0  502  0.12625222665E+04 -0.93673985260E+03 -0.39614375079E+03  0.16212328600E+04  0.46999998093E+01 0.  1.
</event>
<event>
 5   0  0.6023446E-07  0.3303302E+04  0.7818609E-02  0.8162056E-01
       -1   -1    0    0    0  501  0.00000000000E+00  0.00000000000E+00  0.16483855234E+04  0.16483855234E+04  0.50400001928E-02 0. -1.
        1   -1    0    0  501    0  0.00000000000E+00  0.00000000000E+00 -0.16549225813E+04  0.16549225813E+04  0.50400001928E-02 0.  1.
    10030    2    1    2    0    0  0.00000000000E+00  0.00000000000E+00 -0.65370578602E+01  0.33033081047E+04  0.33033016364E+04 0.  0.
        5    1    3    3  502    0 -0.16078745092E+04 -0.21529551673E+03  0.30707984913E+03  0.16510398906E+04  0.46999998093E+01 0. -1.
       -5    1    3    3    0  502  0.16078745092E+04  0.21529551673E+03 -0.31361690699E+03  0.16522682140E+04  0.46999998093E+01 0.  1.
</event>
<event>
 5   0  0.5858859E-07  0.3294624E+04  0.7818609E-02  0.8164265E-01
       -1   -1    0    0    0  501  0.00000000000E+00  0.00000000000E+00  0.14219079240E+04  0.14219079240E+04  0.50400001928E-02 0. -1.
        1   -1    0    0  501    0  0.00000000000E+00  0.00000000000E+00 -0.19084473183E+04  0.19084473183E+04  0.50400001928E-02 0.  1.
    10030    2    1    2    0    0  0.00000000000E+00  0.00000000000E+00 -0.48653939434E+03  0.33303552423E+04  0.32946237202E+04 0.  0.
        3    1    3    3  502    0  0.27954646317E+03 -0.92993717296E+03 -0.15883805925E+04  0.18616880210E+04  0.10100000352E+00 0.  1.
       -3    1    3    3    0  502 -0.27954646317E+03  0.92993717296E+03  0.11018411981E+04  0.14686672213E+04  0.10100000352E+00 0. -1.
</event>
<event>
 5   0  0.5985183E-07  0.3256006E+04  0.7818609E-02  0.8174181E-01
       -1   -1    0    0    0  501  0.00000000000E+00  0.00000000000E+00  0.10492788761E+04  0.10492788761E+04  0.50400001928E-02 0. -1.
        1   -1    0    0  501    0  0.00000000000E+00  0.00000000000E+00 -0.25259198383E+04  0.25259198383E+04  0.50400001928E-02 0.  1.
    10030    2    1    2    0    0  0.00000000000E+00  0.00000000000E+00 -0.14766409621E+04  0.35751987144E+04  0.32560063447E+04 0.  0.
        2    1    3    3  502    0 -0.52401835103E+02  0.10200353554E+04 -0.21303443946E+04  0.23625378977E+04  0.25500000920E-02 0.  1.
       -2    1    3    3    0  502  0.52401835103E+02 -0.10200353554E+04  0.65370343246E+03  0.12126608167E+04  0.25500000920E-02 0. -1.
</event>
<event>
 5   0  0.1743810E-06  0.3297870E+04  0.7818609E-02  0.8163438E-01
        2   -1    0    0  501    0  0.00000000000E+00  0.00000000000E+00  0.18970183181E+04  0.18970183181E+04  0.25500000920E-02 0. -1.
       -2   -1    0    0    0  501  0.00000000000E+00  0.00000000000E+00 -0.14332944944E+04  0.14332944944E+04  0.25500000920E-02 0.  1.
    10030    2    1    2    0    0  0.00000000000E+00  0.00000000000E+00  0.46372382374E+03  0.33303128124E+04  0.32978695614E+04 0.  0.
        5    1    3    3  502    0  0.15315028560E+04 -0.24238455242E+03 -0.33464939999E+03  0.15862734885E+04  0.46999998093E+01 0.  1.
       -5    1    3    3    0  502 -0.15315028560E+04  0.24238455242E+03  0.79837322373E+03  0.17440393240E+04  0.46999998093E+01 0. -1.
</event>
<event>
 5   0  0.5988516E-07  0.3310939E+04  0.7818609E-02  0.8160117E-01
        1   -1    0    0  501    0  0.00000000000E+00  0.00000000000E+00  0.20661593989E+04  0.20661593990E+04  0.50400001928E-02 0. -1.
       -1   -1    0    0    0  501  0.00000000000E+00  0.00000000000E+00 -0.13264126819E+04  0.13264126819E+04  0.50400001928E-02 0.  1.
    10030    2    1    2    0    0  0.00000000000E+00  0.00000000000E+00  0.73974671702E+03  0.33925720809E+04  0.33109394616E+04 0.  0.
        4    1    3    3  502    0  0.34143375408E+03 -0.15660856230E+04  0.79405747553E+03  0.17887789339E+04  0.12699999809E+01 0. -1.
       -4    1    3    3    0  502 -0.34143375408E+03  0.15660856230E+04 -0.54310758502E+02  0.16037931470E+04  0.12699999809E+01 0.  1.
</event>
<event>
 5   0  0.6023446E-07  0.3300083E+04  0.7818609E-02  0.8162874E-01
        1   -1    0    0  501    0  0.00000000000E+00  0.00000000000E+00  0.20033991376E+04  0.20033991377E+04  0.50400001928E-02 0.  1.
       -1   -1    0    0    0  501  0.00000000000E+00  0.00000000000E+00 -0.13590090953E+04  0.13590090953E+04  0.50400001928E-02 0. -1.
    10030    2    1    2    0    0  0.00000000000E+00  0.00000000000E+00  0.64439004236E+03  0.33624082329E+04  0.33000834229E+04 0.  0.
        5    1    3    3  502    0 -0.17084427556E+03 -0.13134211429E+04  0.13248287366E+04  0.18733542475E+04  0.46999998093E+01 0.  1.
       -5    1    3    3    0  502  0.17084427556E+03  0.13134211429E+04 -0.68043869427E+03  0.14890539855E+04  0.46999998093E+01 0. -1.
</event>
<event>
 5   0  0.1784626E-06  0.3308703E+04  0.7818609E-02  0.8160684E-01
        2   -1    0    0  501    0  0.00000000000E+00  0.00000000000E+00  0.20863550978E+04  0.20863550978E+04  0.25500000920E-02 0. -1.
       -2   -1    0    0    0  501  0.00000000000E+00  0.00000000000E+00 -0.13117994050E+04  0.13117994050E+04  0.25500000920E-02 0.  1.
    10030    2    1    2    0    0  0.00000000000E+00  0.00000000000E+00  0.77455569274E+03  0.33981545028E+04  0.33087032965E+04 0.  0.
        2    1    3    3  502    0  0.40292019947E+03 -0.19948384801E+03 -0.12478513816E+04  0.13263753478E+04  0.25500000920E-02 0.  1.
       -2    1    3    3    0  502 -0.40292019947E+03  0.19948384801E+03  0.20224070743E+04  0.20717791550E+04  0.25500000920E-02 0. -1.
</event>
<event>
 5   0  0.5985183E-07  0.3309166E+04  0.7818609E-02  0.8160567E-01
        1   -1    0    0  501    0  0.00000000000E+00  0.00000000000E+00  0.22047793414E+04  0.22047793414E+04  0.50400001928E-02 0. -1.
       -1   -1    0    0    0  501  0.00000000000E+00  0.00000000000E+00 -0.12416863337E+04  0.12416863337E+04  0.50400001928E-02 0.  1.
    10030    2    1    2    0    0  0.00000000000E+00  0.00000000000E+00  0.96309300764E+03  0.34464656751E+04  0.33091656816E+04 0.  0.
        2    1    3    3  502    0 -0.59508742574E+03 -0.14830287986E+04  0.34625676119E+02  0.15983436424E+04  0.25500000920E-02 0.  1.
       -2    1    3    3    0  502  0.59508742574E+03  0.14830287986E+04  0.92846733152E+03  0.18481220327E+04  0.25500000920E-02 0. -1.
</event>
<event>
 5   0  0.1743810E-06  0.3267500E+04  0.7818609E-02  0.8171215E-01
        2   -1    0    0  501    0  0.00000000000E+00  0.00000000000E+00  0.18766999653E+04  0.18766999653E+04  0.25500000920E-02 0. -1.
       -2   -1    0    0    0  501  0.00000000000E+00  0.00000000000E+00 -0.14222515065E+04  0.14222515065E+04  0.25500000920E-02 0.  1.
    10030    2    1    2    0    0  0.00000000000E+00  0.00000000000E+00  0.45444845880E+03  0.32989514718E+04  0.32675001778E+04 0.  0.
        5    1    3    3  502    0  0.13469493875E+04 -0.47604328778E+03  0.10274614433E+04  0.17597127526E+04  0.46999998093E+01 0. -1.
       -5    1    3    3    0  502 -0.13469493875E+04  0.47604328778E+03 -0.57301298448E+03  0.15392387192E+04  0.46999998093E+01 0.  1.
</event>
<event>
 5   0  0.6085351E-07  0.3258113E+04  0.7818609E-02  0.8173636E-01
        1   -1    0    0  501    0  0.00000000000E+00  0.00000000000E+00  0.25940279000E+04  0.25940279001E+04  0.50400001928E-02 0. -1.
       -1   -1    0    0    0  501  0.00000000000E+00  0.00000000000E+00 -0.10230517955E+04  0.10230517955E+04  0.50400001928E-02 0.  1.
    10030    2    1    2    0    0  0.00000000000E+00  0.00000000000E+00  0.15709761045E+04  0.36170796956E+04  0.32581128899E+04 0.  0.
        1    1    3    3  502    0  0.15323535056E+03  0.82141709664E+03 -0.76702027538E+03  0.11342518337E+04  0.50400001928E-02 0.  1.
       -1    1    3    3    0  502 -0.15323535056E+03 -0.82141709664E+03  0.23379963799E+04  0.24828278619E+04  0.50400001928E-02 0. -1.
</event>
<event>
 5   0  0.1832626E-06  0.3153711E+04  0.7818609E-02  0.8201150E-01
        2   -1    0    0  501    0  0.00000000000E+00  0.00000000000E+00  0.21832976653E+04  0.21832976653E+04  0.25500000920E-02 0.  1.
       -2   -1    0    0    0  501  0.00000000000E+00  0.00000000000E+00 -0.11388613505E+04  0.11388613505E+04  0.25500000920E-02 0. -1.
    10030    2    1    2    0    0  0.00000000000E+00  0.00000000000E+00  0.10444363148E+04  0.33221590158E+04  0.31537110379E+04 0.  0.
        3    1    3    3  502    0 -0.15377540431E+04  0.29214851556E+03  0.32114305732E+03  0.15978645517E+04  0.10100000352E+00 0.  1.
       -3    1    3    3    0  502  0.15377540431E+04 -0.29214851556E+03  0.72329325747E+03  0.17242944641E+04  0.10100000352E+00 0. -1.
</event>
<event>
 5   0  0.1743810E-06  0.3304268E+04  0.7818609E-02  0.8161810E-01
       -2   -1    0    0    0  501  0.00000000000E+00  0.00000000000E+00  0.15833894874E+04  0.15833894874E+04  0.25500000920E-02 0. -1.
        2   -1    0    0  501    0  0.00000000000E+00  0.00000000000E+00 -0.17238627193E+04  0.17238627193E+04  0.25500000920E-02 0.  1.
    10030    2    1    2    0    0  0.00000000000E+00  0.00000000000E+00 -0.14047323199E+03  0.33072522067E+04  0.33042676087E+04 0.  0.
        5    1    3    3  502    0 -0.43753850198E+03  0.49814848959E+03  0.14443824170E+04  0.15892937158E+04  0.46999998093E+01 0. -1.
       -5    1    3    3    0  502  0.43753850198E+03 -0.49814848959E+03 -0.15848556490E+04  0.17179584909E+04  0.46999998093E+01 0.  1.
</event>
<event>
 5   0  0.6085351E-07  0.3146790E+04  0.7818609E-02  0.8203013E-01
       -1   -1    0    0    0  501  0.00000000000E+00  0.00000000000E+00  0.13088829405E+04  0.13088829406E+04  0.50400001928E-02 0. -1.
        1   -1    0    0  501    0  0.00000000000E+00  0.00000000000E+00 -0.18913621011E+04  0.18913621011E+04  0.50400001928E-02 0.  1.
    10030    2    1    2    0    0  0.00000000000E+00  0.00000000000E+00 -0.58247916056E+03  0.32002450417E+04  0.31467898491E+04 0.  0.
        1    1    3    3  502    0 -0.28797298693E+03 -0.74156741418E+03 -0.16717677590E+04  0.18513935592E+04  0.50400001928E-02 0.  1.
       -1    1    3    3    0  502  0.28797298693E+03  0.74156741418E+03  0.10892885985E+04  0.13488514825E+04  0.50400001928E-02 0. -1.
</event>
<event>
 5   0  0.1784626E-06  0.3330654E+04  0.7818609E-02  0.8155139E-01
       -2   -1    0    0    0  501  0.00000000000E+00  0.00000000000E+00  0.19467381659E+04  0.19467381659E+04  0.25500000920E-02 0.  1.
        2   -1    0    0  501    0  0.00000000000E+00  0.00000000000E+00 -0.14245951360E+04  0.14245951360E+04  0.25500000920E-02 0. -1.
    10030    2    1    2    0    0  0.00000000000E+00  0.00000000000E+00  0.52214302992E+03  0.33713333019E+04  0.33306538231E+04 0.  0.
        2    1    3    3  502    0  0.10285846118E+04 -0.12095647983E+04  0.76948137532E+03  0.17644078021E+04  0.25500000920E-02 0.  1.
       -2    1    3    3    0  502 -0.10285846118E+04  0.12095647983E+04 -0.24733834540E+03  0.16069254999E+04  0.25500000920E-02 0. -1.
</event>
<event>
 5   0  0.1743810E-06  0.3270616E+04  0.7818609E-02  0.8170413E-01
        2   -1    0    0  501    0  0.00000000000E+00  0.00000000000E+00  0.20638153891E+04  0.20638153891E+04  0.25500000920E-02 0. -1.
       -2   -1    0    0    0  501  0.00000000000E+00  0.00000000000E+00 -0.12957707477E+04  0.12957707477E+04  0.25500000920E-02 0.  1.
    10030    2    1    2    0    0  0.00000000000E+00  0.00000000000E+00  0.76804464146E+03  0.33595861368E+04  0.32706156055E+04 0.  0.
        5    1    3    3  502    0  0.11219588281E+04 -0.83618120035E+03 -0.48529666962E+03  0.14810555558E+04  0.46999998093E+01 0.  1.
       -5    1    3    3    0  502 -0.11219588281E+04  0.83618120035E+03  0.12533413111E+04  0.18785305810E+04  0.46999998093E+01 0. -1.
</event>
<event>
 5   0  0.5985183E-07  0.3302436E+04  0.7818609E-02  0.8162276E-01
        1   -1    0    0  501    0  0.00000000000E+00  0.00000000000E+00  0.16242853994E+04  0.16242853994E+04  0.50400001928E-02 0. -1.
       -1   -1    0    0    0  501  0.00000000000E+00  0.00000000000E+00 -0.16785968536E+04  0.16785968536E+04  0.50400001928E-02 0.  1.
    10030    2    1    2    0    0  0.00000000000E+00  0.00000000000E+00 -0.54311454186E+02  0.33028822530E+04  0.33024356834E+04 0.  0.
        2    1    3    3  502    0 -0.12366960703E+04  0.77462901607E+03  0.74564085744E+03  0.16387335266E+04  0.25500000920E-02 0. -1.
       -2    1    3    3    0  502  0.12366960703E+04 -0.77462901607E+03 -0.79995231162E+03  0.16641487264E+04  0.25500000920E-02 0.  1.
</event>
<event>
 5   0  0.1743810E-06  0.3167285E+04  0.7818609E-02  0.8197511E-01
       -2   -1    0    0    0  501  0.00000000000E+00  0.00000000000E+00  0.11123546302E+04  0.11123546302E+04  0.25500000920E-02 0.  1.
        2   -1    0    0  501    0  0.00000000000E+00  0.00000000000E+00 -0.22546079872E+04  0.22546079872E+04  0.25500000920E-02 0. -1.
    10030    2    1    2    0    0  0.00000000000E+00  0.00000000000E+00 -0.11422533571E+04  0.33669626174E+04  0.31672850417E+04 0.  0.
        5    1    3    3  502    0  0.22369916458E+03  0.59077017995E+03 -0.21148663839E+04  0.22072001798E+04  0.46999998093E+01 0. -1.
       -5    1    3    3    0  502 -0.22369916458E+03 -0.59077017995E+03  0.97261302687E+03  0.11597624377E+04  0.46999998093E+01 0.  1.
</event>
<event>
 5   0  0.5988516E-07  0.3309464E+04  0.7818609E-02  0.8160491E-01
        1   -1    0    0  501    0  0.00000000000E+00  0.00000000000E+00  0.24592589740E+04  0.24592589740E+04  0.50400001928E-02 0.  1.
       -1   -1    0    0    0  501  0.00000000000E+00  0.00000000000E+00 -0.11133995122E+04  0.11133995122E+04  0.50400001928E-02 0. -1.
    10030    2    1    2    0    0  0.00000000000E+00  0.00000000000E+00  0.13458594618E+04  0.35726584862E+04  0.33094638491E+04 0.  0.
        4    1    3    3  502    0  0.45155790169E+03 -0.77611167006E+03 -0.82752946686E+03  0.12210898797E+04  0.12699999809E+01 0. -1.
       -4    1    3    3    0  502 -0.45155790169E+03  0.77611167006E+03  0.21733889286E+04  0.23515686065E+04  0.12699999809E+01 0.  1.
</event>
<event>
 5   0  0.6023446E-07  0.3295472E+04  0.7818609E-02  0.8164049E-01
       -1   -1    0    0    0  501  0.00000000000E+00  0.00000000000E+00  0.25411542597E+04  0.25411542597E+04  0.50400001928E-02 0. -1.
        1   -1    0    0  501    0  0.00000000000E+00  0.00000000000E+00 -0.10684251565E+04  0.10684251566E+04  0.50400001928E-02 0.  1.
    10030    2    1    2    0    0  0.00000000000E+00  0.00000000000E+00  0.14727291031E+04  0.36095794162E+04  0.32954715218E+04 0.  0.
        5    1    3    3  502    0 -0.72436642249E+03 -0.10033513401E+04 -0.45526086936E+03  0.13185997023E+04  0.46999998093E+01 0.  1.
       -5    1    3    3    0  502  0.72436642249E+03  0.10033513401E+04  0.19279899725E+04  0.22909797139E+04  0.46999998093E+01 0. -1.
</event>
<event>
 5   0  0.6023446E-07  0.3294680E+04  0.7818609E-02  0.8164250E-01
        1   -1    0    0  501    0  0.00000000000E+00  0.00000000000E+00  0.23509852317E+04  0.23509852317E+04  0.50400001928E-02 0. -1.
       -1   -1    0    0    0  501  0.00000000000E+00  0.00000000000E+00 -0.11542946200E+04  0.11542946200E+04  0.50400001928E-02 0.  1.
    10030    2    1    2    0    0  0.00000000000E+00  0.00000000000E+00  0.11966906117E+04  0.35052798517E+04  0.32946803212E+04 0.  0.
        5    1    3    3  502    0  0.30773280948E+03  0.45577770059E+02 -0.11227523997E+04  0.11650630267E+04  0.46999998093E+01 0.  1.
       -5    1    3    3    0  502 -0.30773280948E+03 -0.45577770059E+02  0.23194430114E+04  0.23402168250E+04  0.46999998093E+01 0. -1.
</event>
<event>
 5   0  0.5685000E-07  0.3242967E+04  0.7818609E-02  0.8177561E-01
       -3   -1    0    0    0  501  0.00000000000E+00  0.00000000000E+00  0.13667715495E+04  0.13667715533E+04  0.10100000352E+00 0.  1.
        3   -1    0    0  501    0  0.00000000000E+00  0.00000000000E+00 -0.19236635869E+04  0.19236635895E+04  0.10100000352E+00 0. -1.
    10030    2    1    2    0    0  0.00000000000E+00  0.00000000000E+00 -0.55689203735E+03  0.32904351428E+04  0.32429669575E+04 0.  0.
        3    1    3    3  502    0  0.34614561580E+03  0.22059802708E+03  0.13131859395E+04  0.13758406880E+04  0.10100000352E+00 0.  1.
       -3    1    3    3    0  502 -0.34614561580E+03 -0.22059802708E+03 -0.18700779768E+04  0.19145944548E+04  0.10100000352E+00 0. -1.
</event>
<event>
 5   0  0.1832626E-06  0.3022502E+04  0.7818609E-02  0.8237334E-01
       -2   -1    0    0    0  501  0.00000000000E+00  0.00000000000E+00  0.87138264670E+03  0.87138264670E+03  0.25500000920E-02 0.  1.
        2   -1    0    0  501    0  0.00000000000E+00  0.00000000000E+00 -0.26209840548E+04  0.26209840548E+04  0.25500000920E-02 0. -1.
    10030    2    1    2    0    0  0.00000000000E+00  0.00000000000E+00 -0.17496014081E+04  0.34923667015E+04  0.30225022896E+04 0.  0.
        3    1    3    3  502    0 -0.26628782587E+03  0.43396465921E+03 -0.25188986790E+04  0.25698414537E+04  0.10100000352E+00 0. -1.
       -3    1    3    3    0  502  0.26628782587E+03 -0.43396465921E+03  0.76929727091E+03  0.92252524783E+03  0.10100000352E+00 0.  1.
</event>
<event>
 5   0  0.6023446E-07  0.3310427E+04  0.7818609E-02  0.8160247E-01
       -1   -1    0    0    0  501  0.00000000000E+00  0.00000000000E+00  0.14846629286E+04  0.14846629286E+04  0.50400001928E-02 0.  1.
        1   -1    0    0  501    0  0.00000000000E+00  0.00000000000E+00 -0.18453565902E+04  0.18453565902E+04  0.50400001928E-02 0. -1.
    10030    2    1    2    0    0  0.00000000000E+00  0.00000000000E+00 -0.36069366163E+03  0.33300195188E+04  0.33104274767E+04 0.  0.
        5    1    3    3  502    0 -0.15798800559E+04  0.35975434502E+03  0.15968665544E+03  0.16281787671E+04  0.46999998093E+01 0.  1.
       -5    1    3    3    0  502  0.15798800559E+04 -0.35975434502E+03 -0.52038031707E+03  0.17018407517E+04  0.46999998093E+01 0. -1.
</event>
<event>
 5   0  0.6023446E-07  0.3317512E+04  0.7818609E-02  0.8158454E-01
        1   -1    0    0  501    0  0.00000000000E+00  0.00000000000E+00  0.20004172286E+04  0.20004172286E+04  0.50400001928E-02 0. -1.
       -1   -1    0    0    0  501  0.00000000000E+00  0.00000000000E+00 -0.13754484576E+04  0.13754484576E+04  0.50400001928E-02 0.  1.
    10030    2    1    2    0    0  0.00000000000E+00  0.00000000000E+00  0.62496877102E+03  0.33758656863E+04  0.33175115926E+04 0.  0.
        5    1    3    3  502    0 -0.40364508648E+03 -0.14148700479E+04 -0.46692696109E+03  0.15436416311E+04  0.46999998093E+01 0.  1.
       -5    1    3    3    0  502  0.40364508648E+03  0.14148700479E+04  0.10918957321E+04  0.18322240551E+04  0.46999998093E+01 0. -1.
</event>
<event>
 5   0  0.1832626E-06  0.3282076E+04  0.7818609E-02  0.8167471E-01
       -2   -1    0    0    0  501  0.00000000000E+00  0.00000000000E+00  0.14133377445E+04  0.14133377445E+04  0.25500000920E-02 0.  1.
        2   -1    0    0  501    0  0.00000000000E+00  0.00000000000E+00 -0.19054229496E+04  0.19054229497E+04  0.25500000920E-02 0. -1.
    10030    2    1    2    0    0  0.00000000000E+00  0.00000000000E+00 -0.49208520513E+03  0.33187606942E+04  0.32820762782E+04 0.  0.
        3    1    3    3  502    0 -0.12316315713E+04  0.98581410717E+03  0.21096069943E+03  0.15916187384E+04  0.10100000352E+00 0.  1.
       -3    1    3    3    0  502  0.12316315713E+04 -0.98581410717E+03 -0.70304590456E+03  0.17271419558E+04  0.10100000352E+00 0. -1.
</event>
<event>
 5   0  0.1728937E-06  0.3128420E+04  0.7818609E-02  0.8207981E-01
       -2   -1    0    0    0  501  0.00000000000E+00  0.00000000000E+00  0.13153646021E+04  0.13153646021E+04  0.25500000920E-02 0. -1.
        2   -1    0    0  501    0  0.00000000000E+00  0.00000000000E+00 -0.18601331657E+04  0.18601331657E+04  0.25500000920E-02 0.  1.
    10030    2    1    2    0    0  0.00000000000E+00  0.00000000000E+00 -0.54476856361E+03  0.31754977677E+04  0.31284202539E+04 0.  0.
        1    1    3    3  502    0  0.61652340496E+03  0.96467126547E+03 -0.13542856147E+04  0.17733531192E+04  0.50400001928E-02 0.  1.
       -1    1    3    3    0  502 -0.61652340496E+03 -0.96467126547E+03  0.80951705107E+03  0.14021446485E+04  0.50400001928E-02 0. -1.
</event>
<event>
 5   0  0.1696681E-06  0.3289948E+04  0.7818609E-02  0.8165458E-01
       -2   -1    0    0    0  501  0.00000000000E+00  0.00000000000E+00  0.15995003745E+04  0.15995003745E+04  0.25500000920E-02 0. -1.
        2   -1    0    0  501    0  0.00000000000E+00  0.00000000000E+00 -0.16917405704E+04  0.16917405704E+04  0.25500000920E-02 0.  1.
    10030    2    1    2    0    0  0.00000000000E+00  0.00000000000E+00 -0.92240195851E+02  0.32912409449E+04  0.32899481308E+04 0.  0.
        4    1    3    3  502    0  0.39624749129E+03  0.13738585157E+04  0.76748834962E+03  0.16228183125E+04  0.12699999809E+01 0. -1.
       -4    1    3    3    0  502 -0.39624749129E+03 -0.13738585157E+04 -0.85972854547E+03  0.16684226324E+04  0.12699999809E+01 0.  1.
</event>
<event>
 5   0  0.5985183E-07  0.3325410E+04  0.7818609E-02  0.8156460E-01
       -1   -1    0    0    0  501  0.00000000000E+00  0.00000000000E+00  0.10452706133E+04  0.10452706133E+04  0.50400001928E-02 0. -1.
        1   -1    0    0  501    0  0.00000000000E+00  0.00000000000E+00 -0.26448532412E+04  0.26448532412E+04  0.50400001928E-02 0.  1.
    10030    2    1    2    0    0  0.00000000000E+00  0.00000000000E+00 -0.15995826279E+04  0.36901238545E+04  0.33254096707E+04 0.  0.
        2    1    3    3  502    0 -0.52050450348E+03  0.54272702942E+03 -0.24453722400E+04  0.25583828796E+04  0.25500000920E-02 0.  1.
       -2    1    3    3    0  502  0.52050450348E+03 -0.54272702942E+03  0.84578961201E+03  0.11317409750E+04  0.25500000920E-02 0. -1.
</event>
<event>
 5   0  0.1743810E-06  0.3312484E+04  0.7818609E-02  0.8159726E-01
       -2   -1    0    0    0  501  0.00000000000E+00  0.00000000000E+00  0.11839763964E+04  0.11839763964E+04  0.25500000920E-02 0.  1.
        2   -1    0    0  501    0  0.00000000000E+00  0.00000000000E+00 -0.23168850890E+04  0.23168850890E+04  0.25500000920E-02 0. -1.
    10030    2    1    2    0    0  0.00000000000E+00  0.00000000000E+00 -0.11329086927E+04  0.35008614854E+04  0.33124838164E+04 0.  0.
        5    1    3    3  502    0 -0.15102209486E+03  0.63536987903E+03  0.10421449372E+04  0.12298742685E+04  0.46999998093E+01 0.  1.
       -5    1    3    3    0  502  0.15102209486E+03 -0.63536987903E+03 -0.21750536299E+04  0.22709872169E+04  0.46999998093E+01 0. -1.
</event>
<event>
 5   0  0.5988516E-07  0.3244805E+04  0.7818609E-02  0.8177084E-01
       -1   -1    0    0    0  501  0.00000000000E+00  0.00000000000E+00  0.15275851068E+04  0.15275851068E+04  0.50400001928E-02 0.  1.
        1   -1    0    0  501    0  0.00000000000E+00  0.00000000000E+00 -0.17231047200E+04  0.17231047200E+04  0.50400001928E-02 0. -1.
    10030    2    1    2    0    0  0.00000000000E+00  0.00000000000E+00 -0.19551961321E+03  0.32506898268E+04  0.32448045289E+04 0.  0.
        4    1    3    3  502    0  0.45197219830E+03 -0.81820593122E+03  0.12307100919E+04  0.15454412823E+04  0.12699999809E+01 0.  1.
       -4    1    3    3    0  502 -0.45197219830E+03  0.81820593122E+03 -0.14262297051E+04  0.17052485445E+04  0.12699999809E+01 0. -1.
</event>
<event>
 5   0  0.1728937E-06  0.3314174E+04  0.7818609E-02  0.8159298E-01
        2   -1    0    0  501    0  0.00000000000E+00  0.00000000000E+00  0.26173083669E+04  0.26173083669E+04  0.25500000920E-02 0.  1.
       -2   -1    0    0    0  501  0.00000000000E+00  0.00000000000E+00 -0.10491454636E+04  0.10491454636E+04  0.25500000920E-02 0. -1.
    10030    2    1    2    0    0  0.00000000000E+00  0.00000000000E+00  0.15681629033E+04  0.36664538306E+04  0.33141739243E+04 0.  0.
        1    1    3    3  502    0  0.70308021702E+03  0.13026734813E+04 -0.39835153695E+02  0.14808331540E+04  0.50400001928E-02 0.  1.
       -1    1    3    3    0  502 -0.70308021702E+03 -0.13026734813E+04  0.16079980570E+04  0.21856206765E+04  0.50400001928E-02 0. -1.
</event>
<event>
 5   0  0.1743810E-06  0.3301312E+04  0.7818609E-02  0.8162562E-01
       -2   -1    0    0    0  501  0.00000000000E+00  0.00000000000E+00  0.14414689259E+04  0.14414689259E+04  0.25500000920E-02 0.  1.
        2   -1    0    0  501    0  0.00000000000E+00  0.00000000000E+00 -0.18902003187E+04  0.18902003187E+04  0.25500000920E-02 0. -1.
    10030    2    1    2    0    0  0.00000000000E+00  0.00000000000E+00 -0.44873139278E+03  0.33316692446E+04  0.33013118745E+04 0.  0.
        5    1    3    3  502    0  0.44723176890E+03  0.14780971878E+04 -0.81269760234E+03  0.17450750799E+04  0.46999998093E+01 0. -1.
       -5    1    3    3    0  502 -0.44723176890E+03 -0.14780971878E+04  0.36396620956E+03  0.15865941647E+04  0.46999998093E+01 0.  1.
</event>
<event>
 5   0  0.1784626E-06  0.3317778E+04  0.7818609E-02  0.8158387E-01
        2   -1    0    0  501    0  0.00000000000E+00  0.00000000000E+00  0.24101965871E+04  0.24101965871E+04  0.25500000920E-02 0.  1.
       -2   -1    0    0    0  501  0.00000000000E+00  0.00000000000E+00 -0.11417791340E+04  0.11417791340E+04  0.25500000920E-02 0. -1.
    10030    2    1    2    0    0  0.00000000000E+00  0.00000000000E+00  0.12684174531E+04  0.35519757212E+04  0.33177776732E+04 0.  0.
        2    1    3    3  502    0 -0.33381622439E+03 -0.15730941635E+04  0.10702074615E+04  0.19316838586E+04  0.25500000920E-02 0.  1.
       -2    1    3    3    0  502  0.33381622439E+03  0.15730941635E+04  0.19820999160E+03  0.16202918625E+04  0.25500000920E-02 0. -1.
</event>
<event>
 5   0  0.6085351E-07  0.3200431E+04  0.7818609E-02  0.8188703E-01
       -1   -1    0    0    0  501  0.00000000000E+00  0.00000000000E+00  0.11097954517E+04  0.11097954518E+04  0.50400001928E-02 0. -1.
        1   -1    0    0  501    0  0.00000000000E+00  0.00000000000E+00 -0.23073530742E+04  0.23073530742E+04  0.50400001928E-02 0.  1.
    10030    2    1    2    0    0  0.00000000000E+00  0.00000000000E+00 -0.11975576225E+04  0.34171485260E+04  0.32004311881E+04 0.  0.
        1    1    3    3  502    0  0.71044629924E+03  0.11195998852E+04 -0.15552346461E+04  0.20437692265E+04  0.50400001928E-02 0.  1.
       -1    1    3    3    0  502 -0.71044629924E+03 -0.11195998852E+04  0.35767702360E+03  0.13733792995E+04  0.50400001928E-02 0. -1.
</event>
<event>
 5   0  0.5988516E-07  0.3308048E+04  0.7818609E-02  0.8160851E-01
        1   -1    0    0  501    0  0.00000000000E+00  0.00000000000E+00  0.16290278555E+04  0.16290278555E+04  0.50400001928E-02 0.  1.
       -1   -1    0    0    0  501  0.00000000000E+00  0.00000000000E+00 -0.16794038516E+04  0.16794038516E+04  0.50400001928E-02 0. -1.
    10030    2    1    2    0    0  0.00000000000E+00  0.00000000000E+00 -0.50375996118E+02  0.33084317071E+04  0.33080481586E+04 0.  0.
        4    1    3    3  502    0  0.14845812118E+04  0.54531375761E+03 -0.50943993833E+03  0.16615893393E+04  0.12699999809E+01 0. -1.
       -4    1    3    3    0  502 -0.14845812118E+04 -0.54531375761E+03  0.45906394221E+03  0.16468423679E+04  0.12699999809E+01 0.  1.
</event>
<event>
 5   0  0.1784626E-06  0.3151030E+04  0.7818609E-02  0.8201871E-01
        2   -1    0    0  501    0  0.00000000000E+00  0.00000000000E+00  0.22885192519E+04  0.22885192519E+04  0.25500000920E-02 0. -1.
       -2   -1    0    0    0  501  0.00000000000E+00  0.00000000000E+00 -0.10846518886E+04  0.10846518886E+04  0.25500000920E-02 0.  1.
    10030    2    1    2    0    0  0.00000000000E+00  0.00000000000E+00  0.12038673633E+04  0.33731711404E+04  0.31510295007E+04 0.  0.
        2    1    3    3  502    0  0.14884332551E+04  0.16140870254E+03  0.11271986519E+04  0.18740499260E+04  0.25500000920E-02 0. -1.
       -2    1    3    3    0  502 -0.14884332551E+04 -0.16140870254E+03  0.76668711401E+02  0.14991212144E+04  0.25500000920E-02 0.  1.
</event>
<event>
 5   0  0.1743810E-06  0.3269247E+04  0.7818609E-02  0.8170765E-01
        2   -1    0    0  501    0  0.00000000000E+00  0.00000000000E+00  0.15463691279E+04  0.15463691279E+04  0.25500000920E-02 0.  1.
       -2   -1    0    0    0  501  0.00000000000E+00  0.00000000000E+00 -0.17279149514E+04  0.17279149514E+04  0.25500000920E-02 0. -1.
    10030    2    1    2    0    0  0.00000000000E+00  0.00000000000E+00 -0.18154582353E+03  0.32742840793E+04  0.32692472140E+04 0.  0.
        5    1    3    3  502    0  0.85924225955E+03 -0.43212970877E+03 -0.14145274195E+04  0.17105388789E+04  0.46999998093E+01 0. -1.
       -5    1    3    3    0  502 -0.85924225955E+03  0.43212970877E+03  0.12329815959E+04  0.15637452004E+04  0.46999998093E+01 0.  1.
</event>
<event>
 5   0  0.5988516E-07  0.3276384E+04  0.7818609E-02  0.8168931E-01
        1   -1    0    0  501    0  0.00000000000E+00  0.00000000000E+00  0.13672471172E+04  0.13672471172E+04  0.50400001928E-02 0.  1.
       -1   -1    0    0    0  501  0.00000000000E+00  0.00000000000E+00 -0.19628299293E+04  0.19628299293E+04  0.50400001928E-02 0. -1.
    10030    2    1    2    0    0  0.00000000000E+00  0.00000000000E+00 -0.59558281208E+03  0.33300770465E+04  0.32763843257E+04 0.  0.
        4    1    3    3  502    0 -0.38102652442E+03 -0.15557564551E+04 -0.64709860632E+03  0.17275119621E+04  0.12699999809E+01 0. -1.
       -4    1    3    3    0  502  0.38102652442E+03  0.15557564551E+04  0.51515794250E+02  0.16025650844E+04  0.12699999809E+01 0.  1.
</event>
<event>
 5   0  0.5985183E-07  0.3403731E+04  0.7818609E-02  0.8136991E-01
       -1   -1    0    0    0  501  0.00000000000E+00  0.00000000000E+00  0.13263371258E+04  0.13263371258E+04  0.50400001928E-02 0.  1.
        1   -1    0    0  501    0  0.00000000000E+00  0.00000000000E+00 -0.21837182103E+04  0.21837182103E+04  0.50400001928E-02 0. -1.
    10030    2    1    2    0    0  0.00000000000E+00  0.00000000000E+00 -0.85738108452E+03  0.35100553361E+04  0.34037312083E+04 0.  0.
        2    1    3    3  502    0  0.44837863097E+03  0.14024469913E+04 -0.13088416929E+04  0.19700171414E+04  0.25500000920E-02 0. -1.
       -2    1    3    3    0  502 -0.44837863097E+03 -0.14024469913E+04  0.45146060836E+03  0.15400381947E+04  0.25500000920E-02 0.  1.
</event>
<event>
 5   0  0.1696681E-06  0.3326981E+04  0.7818609E-02  0.8156064E-01
       -2   -1    0    0    0  501  0.00000000000E+00  0.00000000000E+00  0.10795209150E+04  0.10795209150E+04  0.25500000920E-02 0. -1.
        2   -1    0    0  501    0  0.00000000000E+00  0.00000000000E+00 -0.25633603440E+04  0.25633603440E+04  0.25500000920E-02 0.  1.
    10030    2    1    2    0    0  0.00000000000E+00  0.00000000000E+00 -0.14838394289E+04  0.36428812590E+04  0.33269812768E+04 0.  0.
        4    1    3    3  502    0 -0.11067817767E+04  0.72988265955E+03 -0.18420620383E+04  0.22695569532E+04  0.12699999809E+01 0.  1.
       -4    1    3    3    0  502  0.11067817767E+04 -0.72988265955E+03  0.35822260940E+03  0.13733243058E+04  0.12699999809E+01 0. -1.
</event>
<event>
 5   0  0.5685000E-07  0.3299702E+04  0.7818609E-02  0.8162971E-01
       -3   -1    0    0    0  501  0.00000000000E+00  0.00000000000E+00  0.18295325948E+04  0.18295325976E+04  0.10100000352E+00 0. -1.
        3   -1    0    0  501    0  0.00000000000E+00  0.00000000000E+00 -0.14878164534E+04  0.14878164568E+04  0.10100000352E+00 0.  1.
    10030    2    1    2    0    0  0.00000000000E+00  0.00000000000E+00  0.34171614142E+03  0.33173490544E+04  0.32997022332E+04 0.  0.
        4    1    3    3  502    0  0.15087711762E+04 -0.66560264688E+03  0.11969634385E+03  0.16534044192E+04  0.12699999809E+01 0.  1.
       -4    1    3    3    0  502 -0.15087711762E+04  0.66560264688E+03  0.22201979757E+03  0.16639446352E+04  0.12699999809E+01 0. -1.
</event>
<event>
 5   0  0.1696681E-06  0.3250901E+04  0.7818609E-02  0.8175502E-01
       -2   -1    0    0    0  501  0.00000000000E+00  0.00000000000E+00  0.12847783548E+04  0.12847783548E+04  0.25500000920E-02 0.  1.
        2   -1    0    0  501    0  0.00000000000E+00  0.00000000000E+00 -0.20564548144E+04  0.20564548144E+04  0.25500000920E-02 0. -1.
    10030    2    1    2    0    0  0.00000000000E+00  0.00000000000E+00 -0.77167645966E+03  0.33412331692E+04  0.32509005726E+04 0.  0.
        4    1    3    3  502    0 -0.13027872186E+04 -0.73613289216E+03  0.26657648150E+03  0.15199377636E+04  0.12699999809E+01 0.  1.
       -4    1    3    3    0  502  0.13027872186E+04  0.73613289216E+03 -0.10382529412E+04  0.18212954056E+04  0.12699999809E+01 0. -1.
</event>
<event>
 5   0  0.1696681E-06  0.3252939E+04  0.7818609E-02  0.8174974E-01
       -2   -1    0    0    0  501  0.00000000000E+00  0.00000000000E+00  0.12388535323E+04  0.12388535323E+04  0.25500000920E-02 0.  1.
        2   -1    0    0  501    0  0.00000000000E+00  0.00000000000E+00 -0.21353639643E+04  0.21353639643E+04  0.25500000920E-02 0. -1.
    10030    2    1    2    0    0  0.00000000000E+00  0.00000000000E+00 -0.89651043195E+03  0.33742174966E+04  0.32529390956E+04 0.  0.
        4    1    3    3  502    0  0.95212630525E+03 -0.12793228087E+04 -0.77984551989E+03  0.17752104095E+04  0.12699999809E+01 0.  1.
       -4    1    3    3    0  502 -0.95212630525E+03  0.12793228087E+04 -0.11666491205E+03  0.15990070871E+04  0.12699999809E+01 0. -1.
</event>
<event>
 5   0  0.1832626E-06  0.3270629E+04  0.7818609E-02  0.8170409E-01
        2   -1    0    0  501    0  0.00000000000E+00  0.00000000000E+00  0.22494474540E+04  0.22494474540E+04  0.25500000920E-02 0. -1.
       -2   -1    0    0    0  501  0.00000000000E+00  0.00000000000E+00 -0.11888491649E+04  0.11888491649E+04  0.25500000920E-02 0.  1.
    10030    2    1    2    0    0  0.00000000000E+00  0.00000000000E+00  0.10605982891E+04  0.34382966189E+04  0.32706291304E+04 0.  0.
        3    1    3    3  502    0 -0.90554348903E+02  0.12358059325E+04  0.16521700514E+04  0.20652075639E+04  0.10100000352E+00 0. -1.
       -3    1    3    3    0  502  0.90554348903E+02 -0.12358059325E+04 -0.59157176233E+03  0.13730890551E+04  0.10100000352E+00 0.  1.
</event>
<event>
 5   0  0.5985183E-07  0.3254411E+04  0.7818609E-02  0.8174593E-01
        1   -1    0    0  501    0  0.00000000000E+00  0.00000000000E+00  0.18238611864E+04  0.18238611865E+04  0.50400001928E-02 0.  1.
       -1   -1    0    0    0  501  0.00000000000E+00  0.00000000000E+00 -0.14517541883E+04  0.14517541883E+04  0.50400001928E-02 0. -1.
    10030    2    1    2    0    0  0.00000000000E+00  0.00000000000E+00  0.37210699815E+03  0.32756153748E+04  0.32544112317E+04 0.  0.
        2    1    3    3  502    0 -0.34251129503E+03 -0.15618370323E+04  0.48992987193E+03  0.16723277735E+04  0.25500000920E-02 0. -1.
       -2    1    3    3    0  502  0.34251129503E+03  0.15618370323E+04 -0.11782287379E+03  0.16032876012E+04  0.25500000920E-02 0.  1.
</event>
<event>
 5   0  0.6085351E-07  0.3307263E+04  0.7818609E-02  0.8161050E-01
        1   -1    0    0  501    0  0.00000000000E+00  0.00000000000E+00  0.16258136315E+04  0.16258136315E+04  0.50400001928E-02 0.  1.
       -1   -1    0    0    0  501  0.00000000000E+00  0.00000000000E+00 -0.16819248968E+04  0.16819248968E+04  0.50400001928E-02 0. -1.
    10030    2    1    2    0    0  0.00000000000E+00  0.00000000000E+00 -0.56111265344E+02  0.33077385283E+04  0.33072625686E+04 0.  0.
        1    1    3    3  502    0  0.34998090457E+03  0.13841207188E+04 -0.86257347662E+03  0.16680257193E+04  0.50400001928E-02 0. -1.
       -1    1    3    3    0  502 -0.34998090457E+03 -0.13841207188E+04  0.80646221128E+03  0.16397128090E+04  0.50400001928E-02 0.  1.
</event>
<event>
 5   0  0.6023446E-07  0.3316767E+04  0.7818609E-02  0.8158642E-01
        1   -1    0    0  501    0  0.00000000000E+00  0.00000000000E+00  0.11789508739E+04  0.11789508739E+04  0.50400001928E-02 0. -1.
       -1   -1    0    0    0  501  0.00000000000E+00  0.00000000000E+00 -0.23327820354E+04  0.23327820354E+04  0.50400001928E-02 0.  1.
    10030    2    1    2    0    0  0.00000000000E+00  0.00000000000E+00 -0.11538311615E+04  0.35117329093E+04  0.33167667505E+04 0.  0.
        5    1    3    3  502    0  0.50487713537E+03 -0.10412044344E+04  0.68085581126E+03  0.13426072850E+04  0.46999998093E+01 0. -1.
       -5    1    3    3    0  502 -0.50487713537E+03  0.10412044344E+04 -0.18346869727E+04  0.21691256243E+04  0.46999998093E+01 0.  1.
</event>
<event>
 5   0  0.1728937E-06  0.3305398E+04  0.7818609E-02  0.8161523E-01
        2   -1    0    0  501    0  0.00000000000E+00  0.00000000000E+00  0.22529083305E+04  0.22529083305E+04  0.25500000920E-02 0.  1.
       -2   -1    0    0    0  501  0.00000000000E+00  0.00000000000E+00 -0.12123946295E+04  0.12123946295E+04  0.25500000920E-02 0. -1.
    10030    2    1    2    0    0  0.00000000000E+00  0.00000000000E+00  0.10405137010E+04  0.34653029601E+04  0.33053979856E+04 0.  0.
        1    1    3    3  502    0 -0.37953332455E+03 -0.16084354145E+04  0.50197976598E+03  0.17271634875E+04  0.50400001928E-02 0.  1.
       -1    1    3    3    0  502  0.37953332455E+03  0.16084354145E+04  0.53853393503E+03  0.17381394726E+04  0.50400001928E-02 0. -1.
</event>
<event>
 5   0  0.1743810E-06  0.3282766E+04  0.7818609E-02  0.8167295E-01
       -2   -1    0    0    0  501  0.00000000000E+00  0.00000000000E+00  0.20601745370E+04  0.20601745370E+04  0.25500000920E-02 0. -1.
        2   -1    0    0  501    0  0.00000000000E+00  0.00000000000E+00 -0.13077230949E+04  0.13077230949E+04  0.25500000920E-02 0.  1.
    10030    2    1    2    0    0  0.00000000000E+00  0.00000000000E+00  0.75245144212E+03  0.33678976319E+04  0.32827657983E+04 0.  0.
        5    1    3    3  502    0  0.16096174990E+04 -0.13606402333E+03  0.77586134432E+02  0.16172271361E+04  0.46999998093E+01 0.  1.
       -5    1    3    3    0  502 -0.16096174990E+04  0.13606402333E+03  0.67486530769E+03  0.17506704958E+04  0.46999998093E+01 0. -1.
</event>
<event>
 5   0  0.1696681E-06  0.3315962E+04  0.7818609E-02  0.8158846E-01
        2   -1    0    0  501    0  0.00000000000E+00  0.00000000000E+00  0.24201477488E+04  0.24201477488E+04  0.25500000920E-02 0.  1.
       -2   -1    0    0    0  501  0.00000000000E+00  0.00000000000E+00 -0.11358402027E+04  0.11358402027E+04  0.25500000920E-02 0. -1.
    10030    2    1    2    0    0  0.00000000000E+00  0.00000000000E+00  0.12843075461E+04  0.35559879515E+04  0.33159620683E+04 0.  0.
        4    1    3    3  502    0  0.12774005962E+04  0.21058971137E+02  0.17753880727E+04  0.21872814599E+04  0.12699999809E+01 0. -1.
       -4    1    3    3    0  502 -0.12774005962E+04 -0.21058971137E+02 -0.49108052659E+03  0.13687064916E+04  0.12699999809E+01 0.  1.
</event>
<event>
 5   0  0.6023446E-07  0.3294425E+04  0.7818609E-02  0.8164315E-01
        1   -1    0    0  501    0  0.00000000000E+00  0.00000000000E+00  0.13959886653E+04  0.13959886653E+04  0.50400001928E-02 0. -1.
       -1   -1    0    0    0  501  0.00000000000E+00  0.00000000000E+00 -0.19436471305E+04  0.19436471305E+04  0.50400001928E-02 0.  1.
    10030    2    1    2    0    0  0.00000000000E+00  0.00000000000E+00 -0.54765846519E+03  0.33396357957E+04  0.32944252084E+04 0.  0.
        5    1    3    3  502    0 -0.63678405124E+03 -0.72293624398E+03  0.10806040173E+04  0.14477077996E+04  0.46999998093E+01 0. -1.
       -5    1    3    3    0  502  0.63678405124E+03  0.72293624398E+03 -0.16282624825E+04  0.18919279962E+04  0.46999998093E+01 0.  1.
</event>
<event>
 5   0  0.5858859E-07  0.3311687E+04  0.7818609E-02  0.8159928E-01
       -1   -1    0    0    0  501  0.00000000000E+00  0.00000000000E+00  0.19912056519E+04  0.19912056519E+04  0.50400001928E-02 0. -1.
        1   -1    0    0  501    0  0.00000000000E+00  0.00000000000E+00 -0.13769638142E+04  0.13769638142E+04  0.50400001928E-02 0.  1.
    10030    2    1    2    0    0  0.00000000000E+00  0.00000000000E+00  0.61424183770E+03  0.33681694660E+04  0.33116872613E+04 0.  0.
        3    1    3    3  502    0  0.18108335671E+02 -0.16517697515E+04  0.19050543523E+03  0.16628179560E+04  0.10100000352E+00 0.  1.
       -3    1    3    3    0  502 -0.18108335671E+02  0.16517697515E+04  0.42373640248E+03  0.17053515100E+04  0.10100000352E+00 0. -1.
</event>
<event>
 5   0  0.5985183E-07  0.3535937E+04  0.7818609E-02  0.8105326E-01
       -1   -1    0    0    0  501  0.00000000000E+00  0.00000000000E+00  0.16453105035E+04  0.16453105035E+04  0.50400001928E-02 0.  1.
        1   -1    0    0  501    0  0.00000000000E+00  0.00000000000E+00 -0.18997711436E+04  0.18997711436E+04  0.50400001928E-02 0. -1.
    10030    2    1    2    0    0  0.00000000000E+00  0.00000000000E+00 -0.25446064013E+03  0.35450816471E+04  0.35359374524E+04 0.  0.
        2    1    3    3  502    0  0.24788538013E+03 -0.13652062156E+04 -0.12257271671E+04  0.18513892786E+04  0.25500000920E-02 0. -1.
       -2    1    3    3    0  502 -0.24788538013E+03  0.13652062156E+04  0.97126652698E+03  0.16936923685E+04  0.25500000920E-02 0.  1.
</event>
<event>
 5   0  0.5985183E-07  0.3245337E+04  0.7818609E-02  0.8176945E-01
        1   -1    0    0  501    0  0.00000000000E+00  0.00000000000E+00  0.25157710695E+04  0.25157710695E+04  0.50400001928E-02 0.  1.
       -1   -1    0    0    0  501  0.00000000000E+00  0.00000000000E+00 -0.10466186415E+04  0.10466186415E+04  0.50400001928E-02 0. -1.
    10030    2    1    2    0    0  0.00000000000E+00  0.00000000000E+00  0.14691524279E+04  0.35623897110E+04  0.32453369003E+04 0.  0.
        2    1    3    3  502    0 -0.11669614270E+04 -0.40050027451E+02  0.19714450156E+04  0.22912875041E+04  0.25500000920E-02 0.  1.
       -2    1    3    3    0  502  0.11669614270E+04  0.40050027451E+02 -0.50229258764E+03  0.12711022069E+04  0.25500000920E-02 0. -1.
</event>
<event>
 5   0  0.6023446E-07  0.3288269E+04  0.7818609E-02  0.8165887E-01
       -1   -1    0    0    0  501  0.00000000000E+00  0.00000000000E+00  0.12954040765E+04  0.12954040765E+04  0.50400001928E-02 0. -1.
        1   -1    0    0  501    0  0.00000000000E+00  0.00000000000E+00 -0.20867452432E+04  0.20867452432E+04  0.50400001928E-02 0.  1.
    10030    2    1    2    0    0  0.00000000000E+00  0.00000000000E+00 -0.79134116675E+03  0.33821493197E+04  0.32882690246E+04 0.  0.
        5    1    3    3  502    0  0.10433423013E+04  0.58744888011E+03  0.76321684479E+03  0.14199230214E+04  0.46999998093E+01 0. -1.
       -5    1    3    3    0  502 -0.10433423013E+04 -0.58744888011E+03 -0.15545580115E+04  0.19622262983E+04  0.46999998093E+01 0.  1.
</event>
<event>
 5   0  0.1728937E-06  0.3334696E+04  0.7818609E-02  0.8154123E-01
       -2   -1    0    0    0  501  0.00000000000E+00  0.00000000000E+00  0.16285721441E+04  0.16285721441E+04  0.25500000920E-02 0.  1.
        2   -1    0    0  501    0  0.00000000000E+00  0.00000000000E+00 -0.17070469382E+04  0.17070469383E+04  0.25500000920E-02 0. -1.
    10030    2    1    2    0    0  0.00000000000E+00  0.00000000000E+00 -0.78474794182E+02  0.33356190823E+04  0.33346958436E+04 0.  0.
        1    1    3    3  502    0  0.15355210160E+04 -0.54596189660E+03  0.31320928350E+03  0.16595177728E+04  0.50400001928E-02 0.  1.
       -1    1    3    3    0  502 -0.15355210160E+04  0.54596189660E+03 -0.39168407768E+03  0.16761013095E+04  0.50400001928E-02 0. -1.
</event>
<event>
 5   0  0.5988516E-07  0.3290009E+04  0.7818609E-02  0.8165442E-01
        1   -1    0    0  501    0  0.00000000000E+00  0.00000000000E+00  0.92249366460E+03  0.92249366461E+03  0.50400001928E-02 0.  1.
       -1   -1    0    0    0  501  0.00000000000E+00  0.00000000000E+00 -0.29333975101E+04  0.29333975101E+04  0.50400001928E-02 0. -1.
    10030    2    1    2    0    0  0.00000000000E+00  0.00000000000E+00 -0.20109038455E+04  0.38558911747E+04  0.32900094947E+04 0.  0.
        4    1    3    3  502    0 -0.76800802432E+03 -0.12823346944E+04 -0.18104891793E+04  0.23477843332E+04  0.12699999809E+01 0. -1.
       -4    1    3    3    0  502  0.76800802432E+03  0.12823346944E+04 -0.20041466614E+03  0.15081068415E+04  0.12699999809E+01 0.  1.
</event>
<event>
 5   0  0.6085351E-07  0.3313605E+04  0.7818609E-02  0.8159442E-01
        1   -1    0    0  501    0  0.00000000000E+00  0.00000000000E+00  0.17385930897E+04  0.17385930897E+04  0.50400001928E-02 0.  1.
       -1   -1    0    0    0  501  0.00000000000E+00  0.00000000000E+00 -0.15788600305E+04  0.15788600305E+04  0.50400001928E-02 0. -1.
    10030    2    1    2    0    0  0.00000000000E+00  0.00000000000E+00  0.15973305920E+03  0.33174531201E+04  0.33136053709E+04 0.  0.
        1    1    3    3  502    0 -0.26007144453E+02 -0.11110401842E+04 -0.11503436618E+04  0.15994927954E+04  0.50400001928E-02 0. -1.
       -1    1    3    3    0  502  0.26007144453E+02  0.11110401842E+04  0.13100767209E+04  0.17179603247E+04  0.50400001928E-02 0.  1.
</event>
<event>
 5   0  0.1696681E-06  0.3298507E+04  0.7818609E-02  0.8163275E-01
        2   -1    0    0  501    0  0.00000000000E+00  0.00000000000E+00  0.18699472258E+04  0.18699472258E+04  0.25500000920E-02 0. -1.
       -2   -1    0    0    0  501  0.00000000000E+00  0.00000000000E+00 -0.14546060886E+04  0.14546060886E+04  0.25500000920E-02 0.  1.
    10030    2    1    2    0    0  0.00000000000E+00  0.00000000000E+00  0.41534113713E+03  0.33245533144E+04  0.32985067046E+04 0.  0.
        4    1    3    3  502    0  0.23364469919E+02  0.13126791212E+04  0.12137323396E+04  0.17879653740E+04  0.12699999809E+01 0. -1.
       -4    1    3    3    0  502 -0.23364469919E+02 -0.13126791212E+04 -0.79839120246E+03  0.15365879404E+04  0.12699999809E+01 0.  1.
</event>
<event>
 5   0  0.6023446E-07  0.3447794E+04  0.7818609E-02  0.8126275E-01
        1   -1    0    0  501    0  0.00000000000E+00  0.00000000000E+00  0.16352148043E+04  0.16352148044E+04  0.50400001928E-02 0.  1.
       -1   -1    0    0    0  501  0.00000000000E+00  0.00000000000E+00 -0.18173881777E+04  0.18173881777E+04  0.50400001928E-02 0. -1.
    10030    2    1    2    0    0  0.00000000000E+00  0.00000000000E+00 -0.18217337331E+03  0.34526029820E+04  0.34477935283E+04 0.  0.
        5    1    3    3  502    0 -0.53315126792E+03 -0.16392224034E+04 -0.68748593239E+02  0.17251228424E+04  0.46999998093E+01 0. -1.
       -5    1    3    3    0  502  0.53315126792E+03  0.16392224034E+04 -0.11342478007E+03  0.17274801397E+04  0.46999998093E+01 0.  1.
</event>
<event>
 5   0  0.6023446E-07  0.3269467E+04  0.7818609E-02  0.8170708E-01
        1   -1    0    0  501    0  0.00000000000E+00  0.00000000000E+00  0.17994169461E+04  0.17994169461E+04  0.50400001928E-02 0. -1.
       -1   -1    0    0    0  501  0.00000000000E+00  0.00000000000E+00 -0.14851218507E+04  0.14851218507E+04  0.50400001928E-02 0.  1.
    10030    2    1    2    0    0  0.00000000000E+00  0.00000000000E+00  0.31429509540E+03  0.32845387969E+04  0.32694668833E+04 0.  0.
        5    1    3    3  502    0  0.28434335007E+03 -0.14971949141E+04  0.75138732448E+03  0.16991317645E+04  0.46999998093E+01 0. -1.
       -5    1    3    3    0  502 -0.28434335007E+03  0.14971949141E+04 -0.43709222908E+03  0.15854070324E+04  0.46999998093E+01 0.  1.
</event>
<event>
 5   0  0.5985183E-07  0.3115512E+04  0.7818609E-02  0.8211494E-01
       -1   -1    0    0    0  501  0.00000000000E+00  0.00000000000E+00  0.13345583522E+04  0.13345583522E+04  0.50400001928E-02 0.  1.
        1   -1    0    0  501    0  0.00000000000E+00  0.00000000000E+00 -0.18182822553E+04  0.18182822553E+04  0.50400001928E-02 0. -1.
    10030    2    1    2    0    0  0.00000000000E+00  0.00000000000E+00 -0.48372390311E+03  0.31528406075E+04  0.31155120096E+04 0.  0.
        2    1    3    3  502    0 -0.12033767948E+04  0.95646870862E+03 -0.49718565267E+03  0.16155932886E+04  0.25500000920E-02 0. -1.
       -2    1    3    3    0  502  0.12033767948E+04 -0.95646870862E+03  0.13461749564E+02  0.15372473189E+04  0.25500000920E-02 0.  1.
</event>
<event>
 5   0  0.1728937E-06  0.3238532E+04  0.7818609E-02  0.8178714E-01
        2   -1    0    0  501    0  0.00000000000E+00  0.00000000000E+00  0.75523168672E+03  0.75523168672E+03  0.25500000920E-02 0. -1.
       -2   -1    0    0    0  501  0.00000000000E+00  0.00000000000E+00 -0.34718121081E+04  0.34718121081E+04  0.25500000920E-02 0.  1.
    10030    2    1    2    0    0  0.00000000000E+00  0.00000000000E+00 -0.27165804213E+04  0.42270437948E+04  0.32385320837E+04 0.  0.
        1    1    3    3  502    0 -0.33212620722E+03  0.14763308399E+03  0.70130165478E+03  0.78989072411E+03  0.50400001928E-02 0. -1.
       -1    1    3    3    0  502  0.33212620722E+03 -0.14763308399E+03 -0.34178820761E+04  0.34371530707E+04  0.50400001928E-02 0.  1.
</event>
<event>
 5   0  0.5988516E-07  0.3298150E+04  0.7818609E-02  0.8163366E-01
        1   -1    0    0  501    0  0.00000000000E+00  0.00000000000E+00  0.21899824215E+04  0.21899824215E+04  0.50400001928E-02 0.  1.
       -1   -1    0    0    0  501  0.00000000000E+00  0.00000000000E+00 -0.12417671480E+04  0.12417671480E+04  0.50400001928E-02 0. -1.
    10030    2    1    2    0    0  0.00000000000E+00  0.00000000000E+00  0.94821527354E+03  0.34317495695E+04  0.32981499212E+04 0.  0.
        4    1    3    3  502    0  0.69635518102E+03 -0.34920257049E+03 -0.10382453860E+04  0.12980015670E+04  0.12699999809E+01 0. -1.
       -4    1    3    3    0  502 -0.69635518102E+03  0.34920257049E+03  0.19864606596E+04  0.21337480025E+04  0.12699999809E+01 0.  1.
</event>
<event>
 5   0  0.1728937E-06  0.3385288E+04  0.7818609E-02  0.8141527E-01
        2   -1    0    0  501    0  0.00000000000E+00  0.00000000000E+00  0.16379798767E+04  0.16379798767E+04  0.25500000920E-02 0.  1.
       -2   -1    0    0    0  501  0.00000000000E+00  0.00000000000E+00 -0.17491324190E+04  0.17491324190E+04  0.25500000920E-02 0. -1.
    10030    2    1    2    0    0  0.00000000000E+00  0.00000000000E+00 -0.11115254232E+03  0.33871122957E+04  0.33852879960E+04 0.  0.
        1    1    3    3  502    0  0.16667189543E+04 -0.16680554064E+03 -0.29915672519E+03  0.17015495606E+04  0.50400001928E-02 0. -1.
       -1    1    3    3    0  502 -0.16667189543E+04  0.16680554064E+03  0.18800418286E+03  0.16855627350E+04  0.50400001928E-02 0.  1.
</event>
<event>
 5   0  0.1832626E-06  0.3324121E+04  0.7818609E-02  0.8156785E-01
       -2   -1    0    0    0  501  0.00000000000E+00  0.00000000000E+00  0.98144361926E+03  0.98144361927E+03  0.25500000920E-02 0.  1.
        2   -1    0    0  501    0  0.00000000000E+00  0.00000000000E+00 -0.28146752481E+04  0.28146752481E+04  0.25500000920E-02 0. -1.
    10030    2    1    2    0    0  0.00000000000E+00  0.00000000000E+00 -0.18332316288E+04  0.37961188673E+04  0.33241209740E+04 0.  0.
        3    1    3    3  502    0  0.60201562357E+02 -0.85612018767E+03  0.70881967903E+03  0.11130998839E+04  0.10100000352E+00 0.  1.
       -3    1    3    3    0  502 -0.60201562357E+02  0.85612018767E+03 -0.25420513078E+04  0.26830189835E+04  0.10100000352E+00 0. -1.
</event>
<event>
 5   0  0.1832626E-06  0.3315163E+04  0.7818609E-02  0.8159048E-01
        2   -1    0    0  501    0  0.00000000000E+00  0.00000000000E+00  0.12385001733E+04  0.12385001733E+04  0.25500000920E-02 0. -1.
       -2   -1    0    0    0  501  0.00000000000E+00  0.00000000000E+00 -0.22184707394E+04  0.22184707394E+04  0.25500000920E-02 0.  1.
    10030    2    1    2    0    0  0.00000000000E+00  0.00000000000E+00 -0.97997056610E+03  0.34569709128E+04  0.33151629796E+04 0.  0.
        3    1    3    3  502    0  0.80082800197E+03  0.16113049080E+03 -0.19940016379E+04  0.21548389884E+04  0.10100000352E+00 0.  1.
       -3    1    3    3    0  502 -0.80082800197E+03 -0.16113049080E+03  0.10140310718E+04  0.13021319244E+04  0.10100000352E+00 0. -1.
</event>
<event>
 5   0  0.6085351E-07  0.3268403E+04  0.7818609E-02  0.8170982E-01
       -1   -1    0    0    0  501  0.00000000000E+00  0.00000000000E+00  0.23784290223E+04  0.23784290223E+04  0.50400001928E-02 0. -1.
        1   -1    0    0  501    0  0.00000000000E+00  0.00000000000E+00 -0.11228479931E+04  0.11228479931E+04  0.50400001928E-02 0.  1.
    10030    2    1    2    0    0  0.00000000000E+00  0.00000000000E+00  0.12555810292E+04  0.35012770154E+04  0.32684028237E+04 0.  0.
        1    1    3    3  502    0  0.12033405903E+03  0.15789762198E+04  0.19533429118E+03  0.15955568539E+04  0.50400001928E-02 0. -1.
       -1    1    3    3    0  502 -0.12033405903E+03 -0.15789762198E+04  0.10602467380E+04  0.19057201615E+04  0.50400001928E-02 0.  1.
</event>
<event>
 5   0  0.6023446E-07  0.3352446E+04  0.7818609E-02  0.8149677E-01
        1   -1    0    0  501    0  0.00000000000E+00  0.00000000000E+00  0.16490266930E+04  0.16490266930E+04  0.50400001928E-02 0. -1.
       -1   -1    0    0    0  501  0.00000000000E+00  0.00000000000E+00 -0.17038676130E+04  0.17038676130E+04  0.50400001928E-02 0.  1.
    10030    2    1    2    0    0  0.00000000000E+00  0.00000000000E+00 -0.54840920014E+02  0.33528943060E+04  0.33524457790E+04 0.  0.
        5    1    3    3  502    0 -0.67454816275E+03 -0.48505536270E+03 -0.14834336157E+04  0.17002621301E+04  0.46999998093E+01 0.  1.
       -5    1    3    3    0  502  0.67454816275E+03  0.48505536270E+03  0.14285926957E+04  0.16526321760E+04  0.46999998093E+01 0. -1.
</event>
<event>
 5   0  0.1832626E-06  0.3345970E+04  0.7818609E-02  0.8151296E-01
       -2   -1    0    0    0  501  0.00000000000E+00  0.00000000000E+00  0.98289643398E+03  0.98289643398E+03  0.25500000920E-02 0. -1.
        2   -1    0    0  501    0  0.00000000000E+00  0.00000000000E+00 -0.28475821412E+04  0.28475821412E+04  0.25500000920E-02 0.  1.
    10030    2    1    2    0    0  0.00000000000E+00  0.00000000000E+00 -0.18646857072E+04  0.38304785751E+04  0.33459697142E+04 0.  0.
        3    1    3    3  502    0 -0.78104458892E+03 -0.13706937865E+04 -0.15697900998E+04  0.22255500609E+04  0.10100000352E+00 0. -1.
       -3    1    3    3    0  502  0.78104458892E+03  0.13706937865E+04 -0.29489560741E+03  0.16049285142E+04  0.10100000352E+00 0.  1.
</event>
<event>
 5   0  0.6023446E-07  0.3389940E+04  0.7818609E-02  0.8140380E-01
        1   -1    0    0  501    0  0.00000000000E+00  0.00000000000E+00  0.25151166913E+04  0.25151166913E+04  0.50400001928E-02 0. -1.
       -1   -1    0    0    0  501  0.00000000000E+00  0.00000000000E+00 -0.11422622573E+04  0.11422622573E+04  0.50400001928E-02 0.  1.
    10030    2    1    2    0    0  0.00000000000E+00  0.00000000000E+00  0.13728544340E+04  0.36573789486E+04  0.33899397453E+04 0.  0.
        5    1    3    3  502    0  0.10853386752E+04  0.70166689648E+03  0.18695759940E+04  0.22728028865E+04  0.46999998093E+01 0. -1.
       -5    1    3    3    0  502 -0.10853386752E+04 -0.70166689648E+03 -0.49672156003E+03  0.13845760621E+04  0.46999998093E+01 0.  1.
</event>
<event>
 5   0  0.1784626E-06  0.3256686E+04  0.7818609E-02  0.8174005E-01
        2   -1    0    0  501    0  0.00000000000E+00  0.00000000000E+00  0.17895468281E+04  0.17895468281E+04  0.25500000920E-02 0.  1.
       -2   -1    0    0    0  501  0.00000000000E+00  0.00000000000E+00 -0.14816601416E+04  0.14816601416E+04  0.25500000920E-02 0. -1.
    10030    2    1    2    0    0  0.00000000000E+00  0.00000000000E+00  0.30788668647E+03  0.32712069697E+04  0.32566855585E+04 0.  0.
        2    1    3    3  502    0  0.10977959506E+04 -0.10964825388E+04 -0.34229424999E+03  0.15888974984E+04  0.25500000920E-02 0. -1.
       -2    1    3    3    0  502 -0.10977959506E+04  0.10964825388E+04  0.65018093646E+03  0.16823094712E+04  0.25500000920E-02 0.  1.
</event>
<event>
 5   0  0.5858859E-07  0.3089095E+04  0.7818609E-02  0.8218737E-01
       -1   -1    0    0    0  501  0.00000000000E+00  0.00000000000E+00  0.13484734592E+04  0.13484734592E+04  0.50400001928E-02 0.  1.
        1   -1    0    0  501    0  0.00000000000E+00  0.00000000000E+00 -0.17691320309E+04  0.17691320309E+04  0.50400001928E-02 0. -1.
    10030    2    1    2    0    0  0.00000000000E+00  0.00000000000E+00 -0.42065857173E+03  0.31176054901E+04  0.30890953947E+04 0.  0.
        3    1    3    3  502    0  0.69195365522E+03  0.32721903345E+03  0.11436018726E+04  0.13761167865E+04  0.10100000352E+00 0.  1.
       -3    1    3    3    0  502 -0.69195365522E+03 -0.32721903345E+03 -0.15642604443E+04  0.17414887036E+04  0.10100000352E+00 0. -1.
</event>
<event>
 5   0  0.6085351E-07  0.3195576E+04  0.7818609E-02  0.8189987E-01
       -1   -1    0    0    0  501  0.00000000000E+00  0.00000000000E+00  0.14423695547E+04  0.14423695547E+04  0.50400001928E-02 0.  1.
        1   -1    0    0  501    0  0.00000000000E+00  0.00000000000E+00 -0.17699529532E+04  0.17699529532E+04  0.50400001928E-02 0. -1.
    10030    2    1    2    0    0  0.00000000000E+00  0.00000000000E+00 -0.32758339848E+03  0.32123225079E+04  0.31955758498E+04 0.  0.
        1    1    3    3  502    0 -0.51909447825E+03 -0.14467340766E+04  0.27487539400E+03  0.15614272471E+04  0.50400001928E-02 0. -1.
       -1    1    3    3    0  502  0.51909447825E+03  0.14467340766E+04 -0.60245879249E+03  0.16508952608E+04  0.50400001928E-02 0.  1.
</event>
<event>
 5   0  0.5988516E-07  0.3314116E+04  0.7818609E-02  0.8159313E-01
       -1   -1    0    0    0  501  0.00000000000E+00  0.00000000000E+00  0.14064321223E+04  0.14064321223E+04  0.50400001928E-02 0. -1.
        1   -1    0    0  501    0  0.00000000000E+00  0.00000000000E+00 -0.19523452444E+04  0.19523452445E+04  0.50400001928E-02 0.  1.
    10030    2    1    2    0    0  0.00000000000E+00  0.00000000000E+00 -0.54591312215E+03  0.33587773668E+04  0.33141159096E+04 0.  0.
        4    1    3    3  502    0 -0.97437363273E+03 -0.19070363863E+03 -0.16175104044E+04  0.18979234377E+04  0.12699999809E+01 0.  1.
       -4    1    3    3    0  502  0.97437363273E+03  0.19070363863E+03  0.10715972823E+04  0.14608539291E+04  0.12699999809E+01 0. -1.
</event>
<event>
 5   0  0.1696681E-06  0.3286947E+04  0.7818609E-02  0.8166225E-01
        2   -1    0    0  501    0  0.00000000000E+00  0.00000000000E+00  0.12240736175E+04  0.12240736175E+04  0.25500000920E-02 0. -1.
       -2   -1    0    0    0  501  0.00000000000E+00  0.00000000000E+00 -0.22065703747E+04  0.22065703747E+04  0.25500000920E-02 0.  1.
    10030    2    1    2    0    0  0.00000000000E+00  0.00000000000E+00 -0.98249675712E+03  0.34306439922E+04  0.32869466566E+04 0.  0.
        4    1    3    3  502    0 -0.80286131475E+03  0.40271230597E+03  0.94523444672E+03  0.13039299307E+04  0.12699999809E+01 0. -1.
       -4    1    3    3    0  502  0.80286131475E+03 -0.40271230597E+03 -0.19277312038E+04  0.21267140615E+04  0.12699999809E+01 0.  1.
</event>
<event>
 5   0  0.5858859E-07  0.3282503E+04  0.7818609E-02  0.8167362E-01
        1   -1    0    0  501    0  0.00000000000E+00  0.00000000000E+00  0.16847810453E+04  0.16847810453E+04  0.50400001928E-02 0. -1.
       -1   -1    0    0    0  501  0.00000000000E+00  0.00000000000E+00 -0.15988469863E+04  0.15988469863E+04  0.50400001928E-02 0.  1.
    10030    2    1    2    0    0  0.00000000000E+00  0.00000000000E+00  0.85934059001E+02  0.32836280316E+04  0.32825033720E+04 0.  0.
        3    1    3    3  502    0  0.12634981064E+04 -0.23915151945E+03  0.10631626032E+04  0.16685130042E+04  0.10100000352E+00 0. -1.
       -3    1    3    3    0  502 -0.12634981064E+04  0.23915151945E+03 -0.97722854416E+03  0.16151150274E+04  0.10100000352E+00 0.  1.
</event>
<event>
 5   0  0.6023446E-07  0.3209613E+04  0.7818609E-02  0.8186283E-01
        1   -1    0    0  501    0  0.00000000000E+00  0.00000000000E+00  0.17550167630E+04  0.17550167630E+04  0.50400001928E-02 0.  1.
       -1   -1    0    0    0  501  0.00000000000E+00  0.00000000000E+00 -0.14674529122E+04  0.14674529122E+04  0.50400001928E-02 0. -1.
    10030    2    1    2    0    0  0.00000000000E+00  0.00000000000E+00  0.28756385078E+03  0.32224696751E+04  0.32096133473E+04 0.  0.
        5    1    3    3  502    0 -0.15005756682E+04 -0.43108453149E+03 -0.22894783750E+03  0.15779735142E+04  0.46999998093E+01 0. -1.
       -5    1    3    3    0  502  0.15005756682E+04  0.43108453149E+03  0.51651168827E+03  0.16444961609E+04  0.46999998093E+01 0.  1.
</event>
<event>
 5   0  0.5988516E-07  0.3309748E+04  0.7818609E-02  0.8160419E-01
       -1   -1    0    0    0  501  0.00000000000E+00  0.00000000000E+00  0.11978578487E+04  0.11978578488E+04  0.50400001928E-02 0.  1.
        1   -1    0    0  501    0  0.00000000000E+00  0.00000000000E+00 -0.22862543310E+04  0.22862543310E+04  0.50400001928E-02 0. -1.
    10030    2    1    2    0    0  0.00000000000E+00  0.00000000000E+00 -0.10883964823E+04  0.34841121798E+04  0.33097478422E+04 0.  0.
        4    1    3    3  502    0 -0.83038250208E+03  0.56630693320E+02  0.96149186469E+03  0.12716958575E+04  0.12699999809E+01 0.  1.
       -4    1    3    3    0  502  0.83038250208E+03 -0.56630693320E+02 -0.20498883470E+04  0.22124163223E+04  0.12699999809E+01 0. -1.
</event>
<event>
 5   0  0.1784626E-06  0.3298080E+04  0.7818609E-02  0.8163384E-01
       -2   -1    0    0    0  501  0.00000000000E+00  0.00000000000E+00  0.12590351631E+04  0.12590351631E+04  0.25500000920E-02 0. -1.
        2   -1    0    0  501    0  0.00000000000E+00  0.00000000000E+00 -0.21598550839E+04  0.21598550839E+04  0.25500000920E-02 0.  1.
    10030    2    1    2    0    0  0.00000000000E+00  0.00000000000E+00 -0.90081992079E+03  0.34188902470E+04  0.32980803495E+04 0.  0.
        2    1    3    3  502    0 -0.22134454100E+03 -0.16042341249E+04 -0.77288859808E+03  0.17944128060E+04  0.25500000920E-02 0.  1.
       -2    1    3    3    0  502  0.22134454100E+03  0.16042341249E+04 -0.12793132271E+03  0.16244774411E+04  0.25500000920E-02 0. -1.
</event>
<event>
 5   0  0.1696681E-06  0.3346699E+04  0.7818609E-02  0.8151114E-01
        2   -1    0    0  501    0  0.00000000000E+00  0.00000000000E+00  0.14308744171E+04  0.14308744172E+04  0.25500000920E-02 0. -1.
       -2   -1    0    0    0  501  0.00000000000E+00  0.00000000000E+00 -0.19569136763E+04  0.19569136763E+04  0.25500000920E-02 0.  1.
    10030    2    1    2    0    0  0.00000000000E+00  0.00000000000E+00 -0.52603925911E+03  0.33877880934E+04  0.33466985021E+04 0.  0.
        4    1    3    3  502    0 -0.80498583137E+03 -0.12709166036E+04  0.47868698800E+03  0.15787254503E+04  0.12699999809E+01 0. -1.
       -4    1    3    3    0  502  0.80498583137E+03  0.12709166036E+04 -0.10047262471E+04  0.18090626431E+04  0.12699999809E+01 0.  1.
</event>
<event>
 5   0  0.1696681E-06  0.3302150E+04  0.7818609E-02  0.8162348E-01
        2   -1    0    0  501    0  0.00000000000E+00  0.00000000000E+00  0.16221063992E+04  0.16221063992E+04  0.25500000920E-02 0. -1.
       -2   -1    0    0    0  501  0.00000000000E+00  0.00000000000E+00 -0.16805611409E+04  0.16805611409E+04  0.25500000920E-02 0.  1.
    10030    2    1    2    0    0  0.00000000000E+00  0.00000000000E+00 -0.58454741687E+02  0.33026675401E+04  0.33021501970E+04 0.  0.
        4    1    3    3  502    0  0.15661510591E+04  0.59262498817E+02  0.49018643310E+03  0.16421405348E+04  0.12699999809E+01 0.  1.
       -4    1    3    3    0  502 -0.15661510591E+04 -0.59262498817E+02 -0.54864117479E+03  0.16605270053E+04  0.12699999809E+01 0. -1.
</event>
<event>
 5   0  0.5988516E-07  0.3214653E+04  0.7818609E-02  0.8184958E-01
        1   -1    0    0  501    0  0.00000000000E+00  0.00000000000E+00  0.18609374927E+04  0.18609374927E+04  0.50400001928E-02 0. -1.
       -1   -1    0    0    0  501  0.00000000000E+00  0.00000000000E+00 -0.13882781072E+04  0.13882781072E+04  0.50400001928E-02 0.  1.
    10030    2    1    2    0    0  0.00000000000E+00  0.00000000000E+00  0.47265938552E+03  0.32492155998E+04  0.32146531881E+04 0.  0.
        4    1    3    3  502    0 -0.75915732425E+03 -0.13771473244E+04  0.57253574930E+03  0.16735152803E+04  0.12699999809E+01 0.  1.
       -4    1    3    3    0  502  0.75915732425E+03  0.13771473244E+04 -0.99876363781E+02  0.15757003196E+04  0.12699999809E+01 0. -1.
</event>
<event>
 5   0  0.1784626E-06  0.3307894E+04  0.7818609E-02  0.8160890E-01
       -2   -1    0    0    0  501  0.00000000000E+00  0.00000000000E+00  0.11279110835E+04  0.11279110835E+04  0.25500000920E-02 0. -1.
        2   -1    0    0  501    0  0.00000000000E+00  0.00000000000E+00 -0.24253153257E+04  0.24253153257E+04  0.25500000920E-02 0.  1.
    10030    2    1    2    0    0  0.00000000000E+00  0.00000000000E+00 -0.12974042422E+04  0.35532264093E+04  0.33078936119E+04 0.  0.
        2    1    3    3  502    0 -0.15796853035E+04 -0.45182173194E+03 -0.44491753613E+03  0.17022044970E+04  0.25500000920E-02 0.  1.
       -2    1    3    3    0  502  0.15796853035E+04  0.45182173194E+03 -0.85248670605E+03  0.18510219123E+04  0.25500000920E-02 0. -1.
</event>
<event>
 5   0  0.1696681E-06  0.3269783E+04  0.7818609E-02  0.8170627E-01
       -2   -1    0    0    0  501  0.00000000000E+00  0.00000000000E+00  0.12252825524E+04  0.12252825524E+04  0.25500000920E-02 0. -1.
        2   -1    0    0  501    0  0.00000000000E+00  0.00000000000E+00 -0.21814315372E+04  0.21814315372E+04  0.25500000920E-02 0.  1.
    10030    2    1    2    0    0  0.00000000000E+00  0.00000000000E+00 -0.95614898480E+03  0.34067140895E+04  0.32697828684E+04 0.  0.
        4    1    3    3  502    0  0.12054561555E+04  0.76630392768E+03 -0.13066930150E+04  0.19359221319E+04  0.12699999809E+01 0.  1.
       -4    1    3    3    0  502 -0.12054561555E+04 -0.76630392768E+03  0.35054403021E+03  0.14707919576E+04  0.12699999809E+01 0. -1.
</event>
<event>
 5   0  0.1743810E-06  0.3301056E+04  0.7818609E-02  0.8162627E-01
       -2   -1    0    0    0  501  0.00000000000E+00  0.00000000000E+00  0.11258581827E+04  0.11258581827E+04  0.25500000920E-02 0.  1.
        2   -1    0    0  501    0  0.00000000000E+00  0.00000000000E+00 -0.24197029045E+04  0.24197029045E+04  0.25500000920E-02 0. -1.
    10030    2    1    2    0    0  0.00000000000E+00  0.00000000000E+00 -0.12938447218E+04  0.35455610871E+04  0.33010557794E+04 0.  0.
        5    1    3    3  502    0  0.65818041306E+03 -0.86131716763E+03 -0.19837612047E+04  0.22606192352E+04  0.46999998093E+01 0. -1.
       -5    1    3    3    0  502 -0.65818041306E+03  0.86131716763E+03  0.68991648292E+03  0.12849418519E+04  0.46999998093E+01 0.  1.
</event>
<event>
 5   0  0.5985183E-07  0.3301605E+04  0.7818609E-02  0.8162487E-01
        1   -1    0    0  501    0  0.00000000000E+00  0.00000000000E+00  0.20856609497E+04  0.20856609497E+04  0.50400001928E-02 0.  1.
       -1   -1    0    0    0  501  0.00000000000E+00  0.00000000000E+00 -0.13066113736E+04  0.13066113737E+04  0.50400001928E-02 0. -1.
    10030    2    1    2    0    0  0.00000000000E+00  0.00000000000E+00  0.77904957602E+03  0.33922723233E+04  0.33016046513E+04 0.  0.
        2    1    3    3  502    0  0.15029200230E+04 -0.81891586005E+02  0.10861358569E+04  0.18561158172E+04  0.25500000920E-02 0. -1.
       -2    1    3    3    0  502 -0.15029200230E+04  0.81891586005E+02 -0.30708628086E+03  0.15361565061E+04  0.25500000920E-02 0.  1.
</event>
<event>
 5   0  0.1743810E-06  0.3272514E+04  0.7818609E-02  0.8169925E-01
       -2   -1    0    0    0  501  0.00000000000E+00  0.00000000000E+00  0.16935654968E+04  0.16935654968E+04  0.25500000920E-02 0.  1.
        2   -1    0    0  501    0  0.00000000000E+00  0.00000000000E+00 -0.15808877406E+04  0.15808877406E+04  0.25500000920E-02 0. -1.
    10030    2    1    2    0    0  0.00000000000E+00  0.00000000000E+00  0.11267775621E+03  0.32744532375E+04  0.32725139767E+04 0.  0.
        5    1    3    3  502    0 -0.71745494823E+03 -0.92086165819E+03  0.12035727387E+04  0.16767042744E+04  0.46999998093E+01 0.  1.
       -5    1    3    3    0  502  0.71745494823E+03  0.92086165819E+03 -0.10908949825E+04  0.15977489631E+04  0.46999998093E+01 0. -1.
</event>
<event>
 5   0  0.6023446E-07  0.3084579E+04  0.7818609E-02  0.8219983E-01
       -1   -1    0    0    0  501  0.00000000000E+00  0.00000000000E+00  0.14990307483E+04  0.14990307483E+04  0.50400001928E-02 0. -1.
        1   -1    0    0  501    0  0.00000000000E+00  0.00000000000E+00 -0.15867963675E+04  0.15867963676E+04  0.50400001928E-02 0.  1.
    10030    2    1    2    0    0  0.00000000000E+00  0.00000000000E+00 -0.87765619259E+02  0.30858271159E+04  0.30845787695E+04 0.  0.
        5    1    3    3  502    0 -0.48399333617E+03  0.14643001061E+04 -0.29381908448E+02  0.15425011302E+04  0.46999998093E+01 0.  1.
       -5    1    3    3    0  502  0.48399333617E+03 -0.14643001061E+04 -0.58383710811E+02  0.15433259856E+04  0.46999998093E+01 0. -1.
</event>
<event>
 5   0  0.5985183E-07  0.3270016E+04  0.7818609E-02  0.8170567E-01
       -1   -1    0    0    0  501  0.00000000000E+00  0.00000000000E+00  0.11242489112E+04  0.11242489112E+04  0.50400001928E-02 0. -1.
        1   -1    0    0  501    0  0.00000000000E+00  0.00000000000E+00 -0.23778110962E+04  0.23778110962E+04  0.50400001928E-02 0.  1.
    10030    2    1    2    0    0  0.00000000000E+00  0.00000000000E+00 -0.12535621851E+04  0.35020600074E+04  0.32700162299E+04 0.  0.
        2    1    3    3  502    0 -0.96758627741E+03  0.10766475300E+04  0.18733136628E+03  0.14596184943E+04  0.25500000920E-02 0.  1.
       -2    1    3    3    0  502  0.96758627741E+03 -0.10766475300E+04 -0.14408935514E+04  0.20424415131E+04  0.25500000920E-02 0. -1.
</event>
<event>
 5   0  0.1728937E-06  0.3362936E+04  0.7818609E-02  0.8147063E-01
       -2   -1    0    0    0  501  0.00000000000E+00  0.00000000000E+00  0.17201689705E+04  0.17201689705E+04  0.25500000920E-02 0.  1.
        2   -1    0    0  501    0  0.00000000000E+00  0.00000000000E+00 -0.16436374718E+04  0.16436374718E+04  0.25500000920E-02 0. -1.
    10030    2    1    2    0    0  0.00000000000E+00  0.00000000000E+00  0.76531498688E+02  0.33638064422E+04  0.33629357280E+04 0.  0.
        1    1    3    3  502    0  0.71127988687E+03 -0.39493870276E+03  0.15101896587E+04  0.17153916351E+04  0.50400001928E-02 0.  1.
       -1    1    3    3    0  502 -0.71127988687E+03  0.39493870276E+03 -0.14336581600E+04  0.16484148071E+04  0.50400001928E-02 0. -1.
</event>
<event>
 5   0  0.5988516E-07  0.3299364E+04  0.7818609E-02  0.8163057E-01
       -1   -1    0    0    0  501  0.00000000000E+00  0.00000000000E+00  0.13990918330E+04  0.13990918330E+04  0.50400001928E-02 0.  1.
        1   -1    0    0  501    0  0.00000000000E+00  0.00000000000E+00 -0.19451547963E+04  0.19451547963E+04  0.50400001928E-02 0. -1.
    10030    2    1    2    0    0  0.00000000000E+00  0.00000000000E+00 -0.54606296333E+03  0.33442466293E+04  0.32993636898E+04 0.  0.
        4    1    3    3  502    0 -0.55791023651E+03 -0.13482546876E+04 -0.10531731026E+04  0.17995081916E+04  0.12699999809E+01 0. -1.
       -4    1    3    3    0  502  0.55791023651E+03  0.13482546876E+04  0.50711013928E+03  0.15447384377E+04  0.12699999809E+01 0.  1.
</event>
<event>
 5   0  0.1832626E-06  0.3313348E+04  0.7818609E-02  0.8159507E-01
       -2   -1    0    0    0  501  0.00000000000E+00  0.00000000000E+00  0.17342935933E+04  0.17342935933E+04  0.25500000920E-02 0.  1.
        2   -1    0    0  501    0  0.00000000000E+00  0.00000000000E+00 -0.15825283584E+04  0.15825283584E+04  0.25500000920E-02 0. -1.
    10030    2    1    2    0    0  0.00000000000E+00  0.00000000000E+00  0.15176523490E+03  0.33168219517E+04  0.33133480308E+04 0.  0.
        3    1    3    3  502    0  0.10261846864E+04 -0.23474872285E+03 -0.12046797709E+04  0.15998172815E+04  0.10100000352E+00 0. -1.
       -3    1    3    3    0  502 -0.10261846864E+04  0.23474872285E+03  0.13564450058E+04  0.17170046702E+04  0.10100000352E+00 0.  1.
</event>
<event>
 5   0  0.6023446E-07  0.3283142E+04  0.7818609E-02  0.8167198E-01
       -1   -1    0    0    0  501  0.00000000000E+00  0.00000000000E+00  0.18289258254E+04  0.18289258254E+04  0.50400001928E-02 0.  1.
        1   -1    0    0  501    0  0.00000000000E+00  0.00000000000E+00 -0.14734087242E+04  0.14734087242E+04  0.50400001928E-02 0. -1.
    10030    2    1    2    0    0  0.00000000000E+00  0.00000000000E+00  0.35551710120E+03  0.33023345495E+04  0.32831419506E+04 0.  0.
        5    1    3    3  502    0  0.10431646962E+04 -0.10707476645E+04 -0.50446894805E+03  0.15777211902E+04  0.46999998093E+01 0. -1.
       -5    1    3    3    0  502 -0.10431646962E+04  0.10707476645E+04  0.85998604925E+03  0.17246133594E+04  0.46999998093E+01 0.  1.
</event>
<event>
 5   0  0.5858859E-07  0.3268842E+04  0.7818609E-02  0.8170869E-01
        1   -1    0    0  501    0  0.00000000000E+00  0.00000000000E+00  0.21290956602E+04  0.21290956602E+04  0.50400001928E-02 0. -1.
       -1   -1    0    0    0  501  0.00000000000E+00  0.00000000000E+00 -0.12546789156E+04  0.12546789156E+04  0.50400001928E-02 0.  1.
    10030    2    1    2    0    0  0.00000000000E+00  0.00000000000E+00  0.87441674463E+03  0.33837745759E+04  0.32688416506E+04 0.  0.
        3    1    3    3  502    0  0.65983571812E+03 -0.13136568081E+04 -0.30222792594E+03  0.15008061546E+04  0.10100000352E+00 0. -1.
       -3    1    3    3    0  502 -0.65983571812E+03  0.13136568081E+04  0.11766446706E+04  0.18829684212E+04  0.10100000352E+00 0.  1.
</event>
<event>
 5   0  0.5685000E-07  0.3306754E+04  0.7818609E-02  0.8161179E-01
        3   -1    0    0  501    0  0.00000000000E+00  0.00000000000E+00  0.12499048360E+04  0.12499048401E+04  0.10100000352E+00 0. -1.
       -3   -1    0    0    0  501  0.00000000000E+00  0.00000000000E+00 -0.21870909400E+04  0.21870909424E+04  0.10100000352E+00 0.  1.
    10030    2    1    2    0    0  0.00000000000E+00  0.00000000000E+00 -0.93718610403E+03  0.34369957824E+04  0.33067540300E+04 0.  0.
        5    1    3    3  502    0 -0.79830264997E+03 -0.72850704559E+03 -0.17691243819E+04  0.20731215124E+04  0.46999998093E+01 0.  1.
       -5    1    3    3    0  502  0.79830264997E+03  0.72850704559E+03  0.83193827786E+03  0.13638742701E+04  0.46999998093E+01 0. -1.
</event>
<event>
 5   0  0.1784626E-06  0.3299480E+04  0.7818609E-02  0.8163028E-01
       -2   -1    0    0    0  501  0.00000000000E+00  0.00000000000E+00  0.13799515289E+04  0.13799515289E+04  0.25500000920E-02 0.  1.
        2   -1    0    0  501    0  0.00000000000E+00  0.00000000000E+00 -0.19722735418E+04  0.19722735418E+04  0.25500000920E-02 0. -1.
    10030    2    1    2    0    0  0.00000000000E+00  0.00000000000E+00 -0.59232201297E+03  0.33522250707E+04  0.32994798920E+04 0.  0.
        2    1    3    3  502    0 -0.84434405148E+03  0.35618589814E+03  0.10975763773E+04  0.14298458572E+04  0.25500000920E-02 0.  1.
       -2    1    3    3    0  502  0.84434405148E+03 -0.35618589814E+03 -0.16898983902E+04  0.19223792135E+04  0.25500000920E-02 0. -1.
</event>
<event>
 5   0  0.1743810E-06  0.3279618E+04  0.7818609E-02  0.8168101E-01
        2   -1    0    0  501    0  0.00000000000E+00  0.00000000000E+00  0.21400289077E+04  0.21400289077E+04  0.25500000920E-02 0.  1.
       -2   -1    0    0    0  501  0.00000000000E+00  0.00000000000E+00 -0.12565129173E+04  0.12565129173E+04  0.25500000920E-02 0. -1.
    10030    2    1    2    0    0  0.00000000000E+00  0.00000000000E+00  0.88351599042E+03  0.33965418249E+04  0.32796182496E+04 0.  0.
        5    1    3    3  502    0  0.65363304635E+03  0.95762604304E+03 -0.75918175524E+03  0.13858798018E+04  0.46999998093E+01 0. -1.
       -5    1    3    3    0  502 -0.65363304635E+03 -0.95762604304E+03  0.16426977457E+04  0.20106620231E+04  0.46999998093E+01 0.  1.
</event>
<event>
 5   0  0.5988516E-07  0.3317998E+04  0.7818609E-02  0.8158331E-01
       -1   -1    0    0    0  501  0.00000000000E+00  0.00000000000E+00  0.14961838568E+04  0.14961838568E+04  0.50400001928E-02 0. -1.
        1   -1    0    0  501    0  0.00000000000E+00  0.00000000000E+00 -0.18395315763E+04  0.18395315763E+04  0.50400001928E-02 0.  1.
    10030    2    1    2    0    0  0.00000000000E+00  0.00000000000E+00 -0.34334771950E+03  0.33357154331E+04  0.33179978593E+04 0.  0.
        4    1    3    3  502    0  0.38872132191E+03 -0.28912497030E+03 -0.17668343633E+04  0.18320487970E+04  0.12699999809E+01 0.  1.
       -4    1    3    3    0  502 -0.38872132191E+03  0.28912497030E+03  0.14234866438E+04  0.15036666361E+04  0.12699999809E+01 0. -1.
</event>
<event>
 5   0  0.1696681E-06  0.3291069E+04  0.7818609E-02  0.8165172E-01
       -2   -1    0    0    0  501  0.00000000000E+00  0.00000000000E+00  0.13201079689E+04  0.13201079689E+04  0.25500000920E-02 0. -1.
        2   -1    0    0  501    0  0.00000000000E+00  0.00000000000E+00 -0.20511837411E+04  0.20511837411E+04  0.25500000920E-02 0.  1.
    10030    2    1    2    0    0  0.00000000000E+00  0.00000000000E+00 -0.73107577229E+03  0.33712917100E+04  0.32910691286E+04 0.  0.
        4    1    3    3  502    0  0.36495363782E+03  0.11230618410E+03  0.12740967081E+04  0.13300856631E+04  0.12699999809E+01 0. -1.
       -4    1    3    3    0  502 -0.36495363782E+03 -0.11230618410E+03 -0.20051724804E+04  0.20412060469E+04  0.12699999809E+01 0.  1.
</event>
<event>
 5   0  0.6023446E-07  0.3297154E+04  0.7818609E-02  0.8163620E-01
       -1   -1    0    0    0  501  0.00000000000E+00  0.00000000000E+00  0.15627485016E+04  0.15627485016E+04  0.50400001928E-02 0.  1.
        1   -1    0    0  501    0  0.00000000000E+00  0.00000000000E+00 -0.17391192317E+04  0.17391192317E+04  0.50400001928E-02 0. -1.
    10030    2    1    2    0    0  0.00000000000E+00  0.00000000000E+00 -0.17637073007E+03  0.33018677333E+04  0.32971539081E+04 0.  0.
        5    1    3    3  502    0  0.13239314622E+03  0.69578868632E+03  0.14026114789E+04  0.15713022917E+04  0.46999998093E+01 0.  1.
       -5    1    3    3    0  502 -0.13239314622E+03 -0.69578868632E+03 -0.15789822090E+04  0.17305654416E+04  0.46999998093E+01 0. -1.
</event>
<event>
 5   0  0.1784626E-06  0.3255622E+04  0.7818609E-02  0.8174280E-01
        2   -1    0    0  501    0  0.00000000000E+00  0.00000000000E+00  0.12674111943E+04  0.12674111943E+04  0.25500000920E-02 0. -1.
       -2   -1    0    0    0  501  0.00000000000E+00  0.00000000000E+00 -0.20906935491E+04  0.20906935491E+04  0.25500000920E-02 0.  1.
    10030    2    1    2    0    0  0.00000000000E+00  0.00000000000E+00 -0.82328235485E+03  0.33581047434E+04  0.32556218503E+04 0.  0.
        2    1    3    3  502    0  0.15395753057E+04  0.65832691716E+02  0.12941081289E+03  0.15464065519E+04  0.25500000920E-02 0. -1.
       -2    1    3    3    0  502 -0.15395753057E+04 -0.65832691716E+02 -0.95269316773E+03  0.18116981915E+04  0.25500000920E-02 0.  1.
</event>
<event>
 5   0  0.1832626E-06  0.2898111E+04  0.7818609E-02  0.8273440E-01
       -2   -1    0    0    0  501  0.00000000000E+00  0.00000000000E+00  0.85641180945E+03  0.85641180946E+03  0.25500000920E-02 0. -1.
        2   -1    0    0  501    0  0.00000000000E+00  0.00000000000E+00 -0.24518135041E+04  0.24518135041E+04  0.25500000920E-02 0.  1.
    10030    2    1    2    0    0  0.00000000000E+00  0.00000000000E+00 -0.15954016946E+04  0.33082253135E+04  0.28981111362E+04 0.  0.
        3    1    3    3  502    0  0.67795180067E+03  0.48327397403E+02  0.66316897773E+03  0.94960375135E+03  0.10100000352E+00 0. -1.
       -3    1    3    3    0  502 -0.67795180067E+03 -0.48327397403E+02 -0.22585706723E+04  0.23586215622E+04  0.10100000352E+00 0.  1.
</event>
<event>
 5   0  0.5985183E-07  0.3293695E+04  0.7818609E-02  0.8164502E-01
       -1   -1    0    0    0  501  0.00000000000E+00  0.00000000000E+00  0.14229586956E+04  0.14229586956E+04  0.50400001928E-02 0. -1.
        1   -1    0    0  501    0  0.00000000000E+00  0.00000000000E+00 -0.19059626032E+04  0.19059626032E+04  0.50400001928E-02 0.  1.
    10030    2    1    2    0    0  0.00000000000E+00  0.00000000000E+00 -0.48300390754E+03  0.33289212988E+04  0.32936946184E+04 0.  0.
        2    1    3    3  502    0  0.81900266016E+03  0.95048319001E+03  0.83664143085E+03  0.15080293550E+04  0.25500000920E-02 0. -1.
       -2    1    3    3    0  502 -0.81900266016E+03 -0.95048319001E+03 -0.13196453384E+04  0.18208919438E+04  0.25500000920E-02 0.  1.
</event>
<event>
 5   0  0.6023446E-07  0.3292661E+04  0.7818609E-02  0.8164765E-01
        1   -1    0    0  501    0  0.00000000000E+00  0.00000000000E+00  0.26713346304E+04  0.26713346304E+04  0.50400001928E-02 0. -1.
       -1   -1    0    0    0  501  0.00000000000E+00  0.00000000000E+00 -0.10146251817E+04  0.10146251817E+04  0.50400001928E-02 0.  1.
    10030    2    1    2    0    0  0.00000000000E+00  0.00000000000E+00  0.16567094488E+04  0.36859598121E+04  0.32926605563E+04 0.  0.
        5    1    3    3  502    0 -0.22823963231E+02  0.25077629212E+02  0.26709361581E+04  0.26711555311E+04  0.46999998093E+01 0. -1.
       -5    1    3    3    0  502  0.22823963231E+02 -0.25077629212E+02 -0.10142267093E+04  0.10148042810E+04  0.46999998093E+01 0.  1.
</event>
<event>
 5   0  0.1832626E-06  0.3309859E+04  0.7818609E-02  0.8160391E-01
       -2   -1    0    0    0  501  0.00000000000E+00  0.00000000000E+00  0.15139034019E+04  0.15139034019E+04  0.25500000920E-02 0. -1.
        2   -1    0    0  501    0  0.00000000000E+00  0.00000000000E+00 -0.18090922620E+04  0.18090922620E+04  0.25500000920E-02 0.  1.
    10030    2    1    2    0    0  0.00000000000E+00  0.00000000000E+00 -0.29518886010E+03  0.33229956639E+04  0.33098585648E+04 0.  0.
        3    1    3    3  502    0 -0.17336202435E+03  0.49945005705E+03  0.14268410645E+04  0.15216373368E+04  0.10100000352E+00 0. -1.
       -3    1    3    3    0  502  0.17336202435E+03 -0.49945005705E+03 -0.17220299247E+04  0.18013583271E+04  0.10100000352E+00 0.  1.
</event>
<event>
 5   0  0.1832626E-06  0.3130057E+04  0.7818609E-02  0.8207537E-01
       -2   -1    0    0    0  501  0.00000000000E+00  0.00000000000E+00  0.10738173328E+04  0.10738173328E+04  0.25500000920E-02 0. -1.
        2   -1    0    0  501    0  0.00000000000E+00  0.00000000000E+00 -0.22809412443E+04  0.22809412443E+04  0.25500000920E-02 0.  1.
    10030    2    1    2    0    0  0.00000000000E+00  0.00000000000E+00 -0.12071239114E+04  0.33547585771E+04  0.31300570239E+04 0.  0.
        3    1    3    3  502    0 -0.60053516151E+03 -0.13746030855E+04 -0.12527755908E+03  0.15052809040E+04  0.10100000352E+00 0. -1.
       -3    1    3    3    0  502  0.60053516151E+03  0.13746030855E+04 -0.10818463524E+04  0.18494776731E+04  0.10100000352E+00 0.  1.
</event>
<event>
 5   0  0.1784626E-06  0.3301962E+04  0.7818609E-02  0.8162396E-01
       -2   -1    0    0    0  501  0.00000000000E+00  0.00000000000E+00  0.13849885369E+04  0.13849885369E+04  0.25500000920E-02 0.  1.
        2   -1    0    0  501    0  0.00000000000E+00  0.00000000000E+00 -0.19680585931E+04  0.19680585931E+04  0.25500000920E-02 0. -1.
    10030    2    1    2    0    0  0.00000000000E+00  0.00000000000E+00 -0.58307005612E+03  0.33530471300E+04  0.33019621993E+04 0.  0.
        2    1    3    3  502    0  0.24164929333E+03 -0.11874824827E+04  0.84707460333E+03  0.14785277851E+04  0.25500000920E-02 0.  1.
       -2    1    3    3    0  502 -0.24164929333E+03  0.11874824827E+04 -0.14301446594E+04  0.18745193449E+04  0.25500000920E-02 0. -1.
</event>
<event>
 5   0  0.6085351E-07  0.3294197E+04  0.7818609E-02  0.8164374E-01
        1   -1    0    0  501    0  0.00000000000E+00  0.00000000000E+00  0.20536428390E+04  0.20536428390E+04  0.50400001928E-02 0.  1.
       -1   -1    0    0    0  501  0.00000000000E+00  0.00000000000E+00 -0.13210345758E+04  0.13210345758E+04  0.50400001928E-02 0. -1.
    10030    2    1    2    0    0  0.00000000000E+00  0.00000000000E+00  0.73260826321E+03  0.33746774148E+04  0.32941968348E+04 0.  0.
        1    1    3    3  502    0 -0.72715739950E+03 -0.70153524286E+03  0.16988615444E+04  0.19766234158E+04  0.50400001928E-02 0.  1.
       -1    1    3    3    0  502  0.72715739950E+03  0.70153524286E+03 -0.96625328122E+03  0.13980539990E+04  0.50400001928E-02 0. -1.
</event>
<event>
 5   0  0.1696681E-06  0.3320937E+04  0.7818609E-02  0.8157588E-01
       -2   -1    0    0    0  501  0.00000000000E+00  0.00000000000E+00  0.30468031064E+04  0.30468031064E+04  0.25500000920E-02 0.  1.
        2   -1    0    0  501    0  0.00000000000E+00  0.00000000000E+00 -0.90493403553E+03  0.90493403554E+03  0.25500000920E-02 0. -1.
    10030    2    1    2    0    0  0.00000000000E+00  0.00000000000E+00  0.21418690708E+04  0.39517371419E+04  0.33209371151E+04 0.  0.
        4    1    3    3  502    0  0.99280477378E+03 -0.66384099871E+03 -0.30179539465E+03  0.12318393822E+04  0.12699999809E+01 0. -1.
       -4    1    3    3    0  502 -0.99280477378E+03  0.66384099871E+03  0.24436644655E+04  0.27198977597E+04  0.12699999809E+01 0.  1.
</event>
<event>
 5   0  0.1832626E-06  0.2696817E+04  0.7818609E-02  0.8336038E-01
       -2   -1    0    0    0  501  0.00000000000E+00  0.00000000000E+00  0.12189867402E+04  0.12189867402E+04  0.25500000920E-02 0. -1.
        2   -1    0    0  501    0  0.00000000000E+00  0.00000000000E+00 -0.14915711421E+04  0.14915711421E+04  0.25500000920E-02 0.  1.
    10030    2    1    2    0    0  0.00000000000E+00  0.00000000000E+00 -0.27258440189E+03  0.27105578822E+04  0.26968169713E+04 0.  0.
        3    1    3    3  502    0  0.37125776865E+03 -0.37948719684E+03 -0.13821086832E+04  0.14805631651E+04  0.10100000352E+00 0.  1.
       -3    1    3    3    0  502 -0.37125776865E+03  0.37948719684E+03  0.11095242813E+04  0.12299947172E+04  0.10100000352E+00 0. -1.
</event>
<event>
 5   0  0.5985183E-07  0.3293689E+04  0.7818609E-02  0.8164503E-01
       -1   -1    0    0    0  501  0.00000000000E+00  0.00000000000E+00  0.25381159492E+04  0.25381159492E+04  0.50400001928E-02 0.  1.
        1   -1    0    0  501    0  0.00000000000E+00  0.00000000000E+00 -0.10685472569E+04  0.10685472569E+04  0.50400001928E-02 0. -1.
    10030    2    1    2    0    0  0.00000000000E+00  0.00000000000E+00  0.14695686923E+04  0.36066632061E+04  0.32936890171E+04 0.  0.
        2    1    3    3  502    0  0.79215377006E+02 -0.16169786641E+04  0.40409164807E+03  0.16685877670E+04  0.25500000920E-02 0. -1.
       -2    1    3    3    0  502 -0.79215377006E+02  0.16169786641E+04  0.10654770443E+04  0.19380754392E+04  0.25500000920E-02 0.  1.
</event>
<event>
 5   0  0.6085351E-07  0.3314187E+04  0.7818609E-02  0.8159295E-01
       -1   -1    0    0    0  501  0.00000000000E+00  0.00000000000E+00  0.12066867123E+04  0.12066867123E+04  0.50400001928E-02 0. -1.
        1   -1    0    0  501    0  0.00000000000E+00  0.00000000000E+00 -0.22756182417E+04  0.22756182417E+04  0.50400001928E-02 0.  1.
    10030    2    1    2    0    0  0.00000000000E+00  0.00000000000E+00 -0.10689315294E+04  0.34823049541E+04  0.33141866541E+04 0.  0.
        1    1    3    3  502    0  0.80796802885E+03  0.65171438067E+03 -0.18916593290E+04  0.21577578610E+04  0.50400001928E-02 0.  1.
       -1    1    3    3    0  502 -0.80796802885E+03 -0.65171438067E+03  0.82272779955E+03  0.13245470931E+04  0.50400001928E-02 0. -1.
</event>
<event>
 5   0  0.1728937E-06  0.3311598E+04  0.7818609E-02  0.8159950E-01
       -2   -1    0    0    0  501  0.00000000000E+00  0.00000000000E+00  0.16287894364E+04  0.16287894364E+04  0.25500000920E-02 0.  1.
        2   -1    0    0  501    0  0.00000000000E+00  0.00000000000E+00 -0.16832567974E+04  0.16832567975E+04  0.25500000920E-02 0. -1.
    10030    2    1    2    0    0  0.00000000000E+00  0.00000000000E+00 -0.54467361033E+02  0.33120462339E+04  0.33115983395E+04 0.  0.
        1    1    3    3  502    0 -0.14539597921E+04  0.79208347148E+03 -0.10630602996E+02  0.16557500755E+04  0.50400001928E-02 0.  1.
       -1    1    3    3    0  502  0.14539597921E+04 -0.79208347148E+03 -0.43836758037E+02  0.16562961584E+04  0.50400001928E-02 0. -1.
</event>
<event>
 5   0  0.6023446E-07  0.3307450E+04  0.7818609E-02  0.8161002E-01
        1   -1    0    0  501    0  0.00000000000E+00  0.00000000000E+00  0.20813902892E+04  0.20813902892E+04  0.50400001928E-02 0.  1.
       -1   -1    0    0    0  501  0.00000000000E+00  0.00000000000E+00 -0.13139326587E+04  0.13139326587E+04  0.50400001928E-02 0. -1.
    10030    2    1    2    0    0  0.00000000000E+00  0.00000000000E+00  0.76745763044E+03  0.33953229479E+04  0.33074501820E+04 0.  0.
        5    1    3    3  502    0  0.97888775829E+03  0.10506932322E+04  0.12256442916E+04  0.18879627992E+04  0.46999998093E+01 0.  1.
       -5    1    3    3    0  502 -0.97888775829E+03 -0.10506932322E+04 -0.45818666117E+03  0.15073601487E+04  0.46999998093E+01 0. -1.
</event>
<event>
 5   0  0.6085351E-07  0.3287434E+04  0.7818609E-02  0.8166100E-01
        1   -1    0    0  501    0  0.00000000000E+00  0.00000000000E+00  0.14575985498E+04  0.14575985498E+04  0.50400001928E-02 0.  1.
       -1   -1    0    0    0  501  0.00000000000E+00  0.00000000000E+00 -0.18536007260E+04  0.18536007260E+04  0.50400001928E-02 0. -1.
    10030    2    1    2    0    0  0.00000000000E+00  0.00000000000E+00 -0.39600217627E+03  0.33111992758E+04  0.32874340937E+04 0.  0.
        1    1    3    3  502    0 -0.68542520585E+03  0.78804258084E+03  0.10804210101E+04  0.15027070178E+04  0.50400001928E-02 0.  1.
       -1    1    3    3    0  502  0.68542520585E+03 -0.78804258084E+03 -0.14764231864E+04  0.18084922580E+04  0.50400001928E-02 0. -1.
</event>
<event>
 5   0  0.1832626E-06  0.3146036E+04  0.7818609E-02  0.8203216E-01
        2   -1    0    0  501    0  0.00000000000E+00  0.00000000000E+00  0.13650645884E+04  0.13650645884E+04  0.25500000920E-02 0.  1.
       -2   -1    0    0    0  501  0.00000000000E+00  0.00000000000E+00 -0.18126504712E+04  0.18126504712E+04  0.25500000920E-02 0. -1.
    10030    2    1    2    0    0  0.00000000000E+00  0.00000000000E+00 -0.44758588286E+03  0.31777150596E+04  0.31460355811E+04 0.  0.
        3    1    3    3  502    0  0.11422049856E+04  0.24937204757E+03  0.83921422128E+03  0.14391313931E+04  0.10100000352E+00 0.  1.
       -3    1    3    3    0  502 -0.11422049856E+04 -0.24937204757E+03 -0.12868001041E+04  0.17385836665E+04  0.10100000352E+00 0. -1.
</event>
<event>
 5   0  0.6085351E-07  0.3269826E+04  0.7818609E-02  0.8170616E-01
        1   -1    0    0  501    0  0.00000000000E+00  0.00000000000E+00  0.17039806973E+04  0.17039806973E+04  0.50400001928E-02 0. -1.
       -1   -1    0    0    0  501  0.00000000000E+00  0.00000000000E+00 -0.15686444648E+04  0.15686444648E+04  0.50400001928E-02 0.  1.
    10030    2    1    2    0    0  0.00000000000E+00  0.00000000000E+00  0.13533623255E+03  0.32726251621E+04  0.32698256155E+04 0.  0.
        1    1    3    3  502    0 -0.55227880165E+03 -0.15280718699E+04 -0.11393798726E+03  0.16288024372E+04  0.50400001928E-02 0.  1.
       -1    1    3    3    0  502  0.55227880165E+03  0.15280718699E+04  0.24927421981E+03  0.16438227250E+04  0.50400001928E-02 0. -1.
</event>
<event>
 5   0  0.6085351E-07  0.3276143E+04  0.7818609E-02  0.8168993E-01
        1   -1    0    0  501    0  0.00000000000E+00  0.00000000000E+00  0.23186567892E+04  0.23186567892E+04  0.50400001928E-02 0. -1.
       -1   -1    0    0    0  501  0.00000000000E+00  0.00000000000E+00 -0.11572551290E+04  0.11572551290E+04  0.50400001928E-02 0.  1.
    10030    2    1    2    0    0  0.00000000000E+00  0.00000000000E+00  0.11614016602E+04  0.34759119182E+04  0.32761425255E+04 0.  0.
        1    1    3    3  502    0 -0.49618054392E+03  0.13393286836E+04 -0.27025367133E+03  0.14536277040E+04  0.50400001928E-02 0.  1.
       -1    1    3    3    0  502  0.49618054392E+03 -0.13393286836E+04  0.14316553315E+04  0.20222842143E+04  0.50400001928E-02 0. -1.
</event>
<event>
 5   0  0.5985183E-07  0.3300756E+04  0.7818609E-02  0.8162703E-01
        1   -1    0    0  501    0  0.00000000000E+00  0.00000000000E+00  0.93722497343E+03  0.93722497344E+03  0.50400001928E-02 0. -1.
       -1   -1    0    0    0  501  0.00000000000E+00  0.00000000000E+00 -0.29061828261E+04  0.29061828261E+04  0.50400001928E-02 0.  1.
    10030    2    1    2    0    0  0.00000000000E+00  0.00000000000E+00 -0.19689578527E+04  0.38434077996E+04  0.33007557450E+04 0.  0.
        2    1    3    3  502    0  0.24634706077E+03  0.16034417658E+04 -0.13377263485E+04  0.21026707194E+04  0.25500000920E-02 0. -1.
       -2    1    3    3    0  502 -0.24634706077E+03 -0.16034417658E+04 -0.63123150418E+03  0.17407370802E+04  0.25500000920E-02 0.  1.
</event>
<event>
 5   0  0.1728937E-06  0.3314359E+04  0.7818609E-02  0.8159251E-01
       -2   -1    0    0    0  501  0.00000000000E+00  0.00000000000E+00  0.12793782413E+04  0.12793782413E+04  0.25500000920E-02 0. -1.
        2   -1    0    0  501    0  0.00000000000E+00  0.00000000000E+00 -0.21465462389E+04  0.21465462389E+04  0.25500000920E-02 0.  1.
    10030    2    1    2    0    0  0.00000000000E+00  0.00000000000E+00 -0.86716799761E+03  0.34259244802E+04  0.33143593963E+04 0.  0.
        1    1    3    3  502    0  0.13257736246E+04  0.39232573038E+03  0.51075999023E+03  0.14739304428E+04  0.50400001928E-02 0.  1.
       -1    1    3    3    0  502 -0.13257736246E+04 -0.39232573038E+03 -0.13779279878E+04  0.19519940374E+04  0.50400001928E-02 0. -1.
</event>
<event>
 5   0  0.5685000E-07  0.3285812E+04  0.7818609E-02  0.8166515E-01
       -3   -1    0    0    0  501  0.00000000000E+00  0.00000000000E+00  0.15103128125E+04  0.15103128159E+04  0.10100000352E+00 0.  1.
        3   -1    0    0  501    0  0.00000000000E+00  0.00000000000E+00 -0.17871396950E+04  0.17871396979E+04  0.10100000352E+00 0. -1.
    10030    2    1    2    0    0  0.00000000000E+00  0.00000000000E+00 -0.27682688252E+03  0.32974525138E+04  0.32858119176E+04 0.  0.
        3    1    3    3  502    0  0.86840199941E+03  0.98924182435E+03  0.84813514932E+03  0.15659037842E+04  0.10100000352E+00 0. -1.
       -3    1    3    3    0  502 -0.86840199941E+03 -0.98924182435E+03 -0.11249620318E+04  0.17315487296E+04  0.10100000352E+00 0.  1.
</event>
<event>
 5   0  0.1832626E-06  0.3304065E+04  0.7818609E-02  0.8161862E-01
        2   -1    0    0  501    0  0.00000000000E+00  0.00000000000E+00  0.22964442077E+04  0.22964442077E+04  0.25500000920E-02 0. -1.
       -2   -1    0    0    0  501  0.00000000000E+00  0.00000000000E+00 -0.11884507401E+04  0.11884507401E+04  0.25500000920E-02 0.  1.
    10030    2    1    2    0    0  0.00000000000E+00  0.00000000000E+00  0.11079934677E+04  0.34848949478E+04  0.33040646593E+04 0.  0.
        3    1    3    3  502    0  0.43640419574E+03  0.13324200746E+04  0.14755546110E+04  0.20354491636E+04  0.10100000352E+00 0. -1.
       -3    1    3    3    0  502 -0.43640419574E+03 -0.13324200746E+04 -0.36756114331E+03  0.14494457843E+04  0.10100000352E+00 0.  1.
</event>
<event>
 5   0  0.1784626E-06  0.3244654E+04  0.7818609E-02  0.8177123E-01
       -2   -1    0    0    0  501  0.00000000000E+00  0.00000000000E+00  0.15514849721E+04  0.15514849721E+04  0.25500000920E-02 0. -1.
        2   -1    0    0  501    0  0.00000000000E+00  0.00000000000E+00 -0.16964037977E+04  0.16964037977E+04  0.25500000920E-02 0.  1.
    10030    2    1    2    0    0  0.00000000000E+00  0.00000000000E+00 -0.14491882556E+03  0.32478887698E+04  0.32446540640E+04 0.  0.
        2    1    3    3  502    0  0.97648999679E+03  0.12681853362E+04  0.19260305955E+03  0.16121174583E+04  0.25500000920E-02 0.  1.
       -2    1    3    3    0  502 -0.97648999679E+03 -0.12681853362E+04 -0.33752188511E+03  0.16357713115E+04  0.25500000920E-02 0. -1.
</event>
<event>
 5   0  0.1696681E-06  0.3082096E+04  0.7818609E-02  0.8220669E-01
        2   -1    0    0  501    0  0.00000000000E+00  0.00000000000E+00  0.17875065773E+04  0.17875065773E+04  0.25500000920E-02 0. -1.
       -2   -1    0    0    0  501  0.00000000000E+00  0.00000000000E+00 -0.13285704986E+04  0.13285704986E+04  0.25500000920E-02 0.  1.
    10030    2    1    2    0    0  0.00000000000E+00  0.00000000000E+00  0.45893607877E+03  0.31160770759E+04  0.30820957186E+04 0.  0.
        4    1    3    3  502    0  0.85433035321E+03 -0.12825490948E+04  0.22563696924E+03  0.15574742976E+04  0.12699999809E+01 0.  1.
       -4    1    3    3    0  502 -0.85433035321E+03  0.12825490948E+04  0.23329910953E+03  0.15586027783E+04  0.12699999809E+01 0. -1.
</event>
<event>
 5   0  0.1832626E-06  0.3328794E+04  0.7818609E-02  0.8155607E-01
       -2   -1    0    0    0  501  0.00000000000E+00  0.00000000000E+00  0.22188080160E+04  0.22188080160E+04  0.25500000920E-02 0. -1.
        2   -1    0    0  501    0  0.00000000000E+00  0.00000000000E+00 -0.12485159008E+04  0.12485159008E+04  0.25500000920E-02 0.  1.
    10030    2    1    2    0    0  0.00000000000E+00  0.00000000000E+00  0.97029211517E+03  0.34673239168E+04  0.33287938288E+04 0.  0.
        3    1    3    3  502    0  0.68795406378E+03 -0.28256063395E+03  0.20361030123E+04  0.21676800485E+04  0.10100000352E+00 0. -1.
       -3    1    3    3    0  502 -0.68795406378E+03  0.28256063395E+03 -0.10658108971E+04  0.12996438683E+04  0.10100000352E+00 0.  1.
</event>
<event>
 5   0  0.6085351E-07  0.3282734E+04  0.7818609E-02  0.8167303E-01
       -1   -1    0    0    0  501  0.00000000000E+00  0.00000000000E+00  0.15753355849E+04  0.15753355849E+04  0.50400001928E-02 0.  1.
        1   -1    0    0  501    0  0.00000000000E+00  0.00000000000E+00 -0.17101663416E+04  0.17101663416E+04  0.50400001928E-02 0. -1.
    10030    2    1    2    0    0  0.00000000000E+00  0.00000000000E+00 -0.13483075666E+03  0.32855019265E+04  0.32827341616E+04 0.  0.
        1    1    3    3  502    0 -0.91020934861E+03  0.13395689567E+04 -0.33439831800E+03  0.16537074358E+04  0.50400001928E-02 0.  1.
       -1    1    3    3    0  502  0.91020934861E+03 -0.13395689567E+04  0.19956756134E+03  0.16317944907E+04  0.50400001928E-02 0. -1.
</event>
<event>
 5   0  0.5685000E-07  0.3323086E+04  0.7818609E-02  0.8157046E-01
        3   -1    0    0  501    0  0.00000000000E+00  0.00000000000E+00  0.27057160190E+04  0.27057160209E+04  0.10100000352E+00 0. -1.
       -3   -1    0    0    0  501  0.00000000000E+00  0.00000000000E+00 -0.10203304251E+04  0.10203304301E+04  0.10100000352E+00 0.  1.
    10030    2    1    2    0    0  0.00000000000E+00  0.00000000000E+00  0.16853855939E+04  0.37260464510E+04  0.33230855473E+04 0.  0.
        1    1    3    3  502    0  0.12321115159E+04  0.11045964528E+04  0.67453250262E+03  0.17869600467E+04  0.50400001928E-02 0.  1.
       -1    1    3    3    0  502 -0.12321115159E+04 -0.11045964528E+04  0.10108530913E+04  0.19390864043E+04  0.50400001928E-02 0. -1.
</event>
<event>
 5   0  0.1696681E-06  0.3282404E+04  0.7818609E-02  0.8167387E-01
       -2   -1    0    0    0  501  0.00000000000E+00  0.00000000000E+00  0.17027059018E+04  0.17027059018E+04  0.25500000920E-02 0. -1.
        2   -1    0    0  501    0  0.00000000000E+00  0.00000000000E+00 -0.15819201208E+04  0.15819201208E+04  0.25500000920E-02 0.  1.
    10030    2    1    2    0    0  0.00000000000E+00  0.00000000000E+00  0.12078578097E+03  0.32846260226E+04  0.32824044394E+04 0.  0.
        4    1    3    3  502    0  0.14618377649E+04 -0.27432952735E+03 -0.63384663485E+03  0.16167836930E+04  0.12699999809E+01 0.  1.
       -4    1    3    3    0  502 -0.14618377649E+04  0.27432952735E+03  0.75463241582E+03  0.16678423296E+04  0.12699999809E+01 0. -1.
</event>
<event>
 5   0  0.1784626E-06  0.3305943E+04  0.7818609E-02  0.8161385E-01
       -2   -1    0    0    0  501  0.00000000000E+00  0.00000000000E+00  0.15971468685E+04  0.15971468685E+04  0.25500000920E-02 0. -1.
        2   -1    0    0  501    0  0.00000000000E+00  0.00000000000E+00 -0.17107473770E+04  0.17107473770E+04  0.25500000920E-02 0.  1.
    10030    2    1    2    0    0  0.00000000000E+00  0.00000000000E+00 -0.11360050852E+03  0.33078942455E+04  0.33059430219E+04 0.  0.
        2    1    3    3  502    0  0.12693499418E+04 -0.10539353533E+04 -0.15827910731E+03  0.16574321342E+04  0.25500000920E-02 0.  1.
       -2    1    3    3    0  502 -0.12693499418E+04  0.10539353533E+04  0.44678598784E+02  0.16504621113E+04  0.25500000920E-02 0. -1.
</event>
<event>
 5   0  0.5985183E-07  0.3379347E+04  0.7818609E-02  0.8142994E-01
        1   -1    0    0  501    0  0.00000000000E+00  0.00000000000E+00  0.25329263949E+04  0.25329263949E+04  0.50400001928E-02 0. -1.
       -1   -1    0    0    0  501  0.00000000000E+00  0.00000000000E+00 -0.11271535215E+04  0.11271535215E+04  0.50400001928E-02 0.  1.
    10030    2    1    2    0    0  0.00000000000E+00  0.00000000000E+00  0.14057728734E+04  0.36600799164E+04  0.33793472184E+04 0.  0.
        2    1    3    3  502    0 -0.15151280550E+03 -0.15807446476E+04  0.13281556222E+04  0.20701949492E+04  0.25500000920E-02 0. -1.
       -2    1    3    3    0  502  0.15151280550E+03  0.15807446476E+04  0.77617251209E+02  0.15898849671E+04  0.25500000920E-02 0.  1.
</event>
<event>
 5   0  0.5985183E-07  0.3332710E+04  0.7818609E-02  0.8154622E-01
        1   -1    0    0  501    0  0.00000000000E+00  0.00000000000E+00  0.97975398568E+03  0.97975398569E+03  0.50400001928E-02 0. -1.
       -1   -1    0    0    0  501  0.00000000000E+00  0.00000000000E+00 -0.28341183741E+04  0.28341183741E+04  0.50400001928E-02 0.  1.
    10030    2    1    2    0    0  0.00000000000E+00  0.00000000000E+00 -0.18543643884E+04  0.38138723598E+04  0.33327098721E+04 0.  0.
        2    1    3    3  502    0  0.77707746968E+03 -0.10526868278E+04  0.25365600796E+03  0.13327941783E+04  0.25500000920E-02 0. -1.
       -2    1    3    3    0  502 -0.77707746968E+03  0.10526868278E+04 -0.21080203964E+04  0.24810781815E+04  0.25500000920E-02 0.  1.
</event>
<event>
 5   0  0.1728937E-06  0.3226006E+04  0.7818609E-02  0.8181983E-01
       -2   -1    0    0    0  501  0.00000000000E+00  0.00000000000E+00  0.14487050252E+04  0.14487050252E+04  0.25500000920E-02 0. -1.
        2   -1    0    0  501    0  0.00000000000E+00  0.00000000000E+00 -0.17959341462E+04  0.17959341462E+04  0.25500000920E-02 0.  1.
    10030    2    1    2    0    0  0.00000000000E+00  0.00000000000E+00 -0.34722912107E+03  0.32446391714E+04  0.32260060896E+04 0.  0.
        1    1    3    3  502    0  0.14131636645E+04 -0.77234030940E+03 -0.82328407822E+02  0.16125504839E+04  0.50400001928E-02 0.  1.
       -1    1    3    3    0  502 -0.14131636645E+04  0.77234030940E+03 -0.26490071324E+03  0.16320886876E+04  0.50400001928E-02 0. -1.
</event>
<event>
 5   0  0.6085351E-07  0.3307969E+04  0.7818609E-02  0.8160871E-01
       -1   -1    0    0    0  501  0.00000000000E+00  0.00000000000E+00  0.12782586708E+04  0.12782586708E+04  0.50400001928E-02 0. -1.
        1   -1    0    0  501    0  0.00000000000E+00  0.00000000000E+00 -0.21401498542E+04  0.21401498542E+04  0.50400001928E-02 0.  1.
    10030    2    1    2    0    0  0.00000000000E+00  0.00000000000E+00 -0.86189118344E+03  0.34184085250E+04  0.33079692308E+04 0.  0.
        1    1    3    3  502    0 -0.39961099259E+03 -0.45446324436E+03  0.11597434798E+04  0.13081401778E+04  0.50400001928E-02 0. -1.
       -1    1    3    3    0  502  0.39961099259E+03  0.45446324436E+03 -0.20216346632E+04  0.21102683472E+04  0.50400001928E-02 0.  1.
</event>
<event>
 5   0  0.6023446E-07  0.3293265E+04  0.7818609E-02  0.8164611E-01
        1   -1    0    0  501    0  0.00000000000E+00  0.00000000000E+00  0.17971518874E+04  0.17971518874E+04  0.50400001928E-02 0. -1.
       -1   -1    0    0    0  501  0.00000000000E+00  0.00000000000E+00 -0.15087198637E+04  0.15087198638E+04  0.50400001928E-02 0.  1.
    10030    2    1    2    0    0  0.00000000000E+00  0.00000000000E+00  0.28843202367E+03  0.33058717512E+04  0.32932650976E+04 0.  0.
        5    1    3    3  502    0 -0.12730259272E+04  0.47551930948E+03  0.10776481651E+04  0.17343763383E+04  0.46999998093E+01 0. -1.
       -5    1    3    3    0  502  0.12730259272E+04 -0.47551930948E+03 -0.78921614138E+03  0.15714954129E+04  0.46999998093E+01 0.  1.
</event>
<event>
 5   0  0.6085351E-07  0.3309437E+04  0.7818609E-02  0.8160498E-01
       -1   -1    0    0    0  501  0.00000000000E+00  0.00000000000E+00  0.11806469014E+04  0.11806469015E+04  0.50400001928E-02 0. -1.
        1   -1    0    0  501    0  0.00000000000E+00  0.00000000000E+00 -0.23191468745E+04  0.23191468745E+04  0.50400001928E-02 0.  1.
    10030    2    1    2    0    0  0.00000000000E+00  0.00000000000E+00 -0.11384999731E+04  0.34997937760E+04  0.33094371554E+04 0.  0.
        1    1    3    3  502    0 -0.12643607755E+04  0.35196403898E+03  0.49648960063E+03  0.14032066059E+04  0.50400001928E-02 0. -1.
       -1    1    3    3    0  502  0.12643607755E+04 -0.35196403898E+03 -0.16349895737E+04  0.20965871700E+04  0.50400001928E-02 0.  1.
</event>
<event>
 5   0  0.5858859E-07  0.3537196E+04  0.7818609E-02  0.8105031E-01
       -1   -1    0    0    0  501  0.00000000000E+00  0.00000000000E+00  0.13245340081E+04  0.13245340081E+04  0.50400001928E-02 0.  1.
        1   -1    0    0  501    0  0.00000000000E+00  0.00000000000E+00 -0.23615391526E+04  0.23615391526E+04  0.50400001928E-02 0. -1.
    10030    2    1    2    0    0  0.00000000000E+00  0.00000000000E+00 -0.10370051445E+04  0.36860731607E+04  0.35371960190E+04 0.  0.
        3    1    3    3  502    0 -0.55432722744E+03  0.48363809989E+03 -0.21945350242E+04  0.23145557823E+04  0.10100000352E+00 0. -1.
       -3    1    3    3    0  502  0.55432722744E+03 -0.48363809989E+03  0.11575298797E+04  0.13715173784E+04  0.10100000352E+00 0.  1.
</event>
<event>
 5   0  0.1728937E-06  0.3319444E+04  0.7818609E-02  0.8157966E-01
       -2   -1    0    0    0  501  0.00000000000E+00  0.00000000000E+00  0.14461118450E+04  0.14461118450E+04  0.25500000920E-02 0.  1.
        2   -1    0    0  501    0  0.00000000000E+00  0.00000000000E+00 -0.19048848698E+04  0.19048848698E+04  0.25500000920E-02 0. -1.
    10030    2    1    2    0    0  0.00000000000E+00  0.00000000000E+00 -0.45877302478E+03  0.33509967148E+04  0.33194436724E+04 0.  0.
        1    1    3    3  502    0  0.15910642772E+04  0.33091497335E+03 -0.56976554731E+03  0.17220984387E+04  0.50400001928E-02 0. -1.
       -1    1    3    3    0  502 -0.15910642772E+04 -0.33091497335E+03  0.11099252253E+03  0.16288982761E+04  0.50400001928E-02 0.  1.
</event>
<event>
 5   0  0.1728937E-06  0.3316504E+04  0.7818609E-02  0.8158709E-01
       -2   -1    0    0    0  501  0.00000000000E+00  0.00000000000E+00  0.11518004031E+04  0.11518004031E+04  0.25500000920E-02 0.  1.
        2   -1    0    0  501    0  0.00000000000E+00  0.00000000000E+00 -0.23873922756E+04  0.23873922756E+04  0.25500000920E-02 0. -1.
    10030    2    1    2    0    0  0.00000000000E+00  0.00000000000E+00 -0.12355918725E+04  0.35391926787E+04  0.33165038130E+04 0.  0.
        1    1    3    3  502    0 -0.50854733845E+03 -0.15421252376E+04 -0.25902425807E+03  0.16443430938E+04  0.50400001928E-02 0. -1.
       -1    1    3    3    0  502  0.50854733845E+03  0.15421252376E+04 -0.97656761440E+03  0.18948495849E+04  0.50400001928E-02 0.  1.
</event>
<event>
 5   0  0.5685000E-07  0.3306499E+04  0.7818609E-02  0.8161244E-01
        3   -1    0    0  501    0  0.00000000000E+00  0.00000000000E+00  0.12530635159E+04  0.12530635199E+04  0.10100000352E+00 0. -1.
       -3   -1    0    0    0  501  0.00000000000E+00  0.00000000000E+00 -0.21812409296E+04  0.21812409319E+04  0.10100000352E+00 0.  1.
    10030    2    1    2    0    0  0.00000000000E+00  0.00000000000E+00 -0.92817741369E+03  0.34343044518E+04  0.33064987156E+04 0.  0.
        5    1    3    3  502    0 -0.15403110691E+04  0.18233561713E+03 -0.10584004842E+04  0.18777747846E+04  0.46999998093E+01 0.  1.
       -5    1    3    3    0  502  0.15403110691E+04 -0.18233561713E+03  0.13022307055E+03  0.15565296672E+04  0.46999998093E+01 0. -1.
</event>
<event>
 5   0  0.1696681E-06  0.3258193E+04  0.7818609E-02  0.8173615E-01
       -2   -1    0    0    0  501  0.00000000000E+00  0.00000000000E+00  0.17516300572E+04  0.17516300572E+04  0.25500000920E-02 0. -1.
        2   -1    0    0  501    0  0.00000000000E+00  0.00000000000E+00 -0.15151344807E+04  0.15151344807E+04  0.25500000920E-02 0.  1.
    10030    2    1    2    0    0  0.00000000000E+00  0.00000000000E+00  0.23649557652E+03  0.32667645378E+04  0.32581928101E+04 0.  0.
        4    1    3    3  502    0 -0.25076290885E+03 -0.22436564069E+03  0.17164084561E+04  0.17490802092E+04  0.12699999809E+01 0. -1.
       -4    1    3    3    0  502  0.25076290885E+03  0.22436564069E+03 -0.14799128796E+04  0.15176843286E+04  0.12699999809E+01 0.  1.
</event>
<event>
 5   0  0.5985183E-07  0.3303709E+04  0.7818609E-02  0.8161952E-01
       -1   -1    0    0    0  501  0.00000000000E+00  0.00000000000E+00  0.15249725193E+04  0.15249725193E+04  0.50400001928E-02 0.  1.
        1   -1    0    0  501    0  0.00000000000E+00  0.00000000000E+00 -0.17892936097E+04  0.17892936097E+04  0.50400001928E-02 0. -1.
    10030    2    1    2    0    0  0.00000000000E+00  0.00000000000E+00 -0.26432109040E+03  0.33142661290E+04  0.33037091783E+04 0.  0.
        2    1    3    3  502    0 -0.94959499223E+02 -0.10417742959E+04  0.11503269293E+04  0.15548514509E+04  0.25500000920E-02 0.  1.
       -2    1    3    3    0  502  0.94959499223E+02  0.10417742959E+04 -0.14146480197E+04  0.17594146781E+04  0.25500000920E-02 0. -1.
</event>
<event>
 5   0  0.1743810E-06  0.3295167E+04  0.7818609E-02  0.8164126E-01
       -2   -1    0    0    0  501  0.00000000000E+00  0.00000000000E+00  0.12636002082E+04  0.12636002082E+04  0.25500000920E-02 0.  1.
        2   -1    0    0  501    0  0.00000000000E+00  0.00000000000E+00 -0.21482514313E+04  0.21482514313E+04  0.25500000920E-02 0. -1.
    10030    2    1    2    0    0  0.00000000000E+00  0.00000000000E+00 -0.88465122316E+03  0.34118516395E+04  0.32951667368E+04 0.  0.
        5    1    3    3  502    0  0.32973173642E+03  0.11007321311E+04 -0.16648888419E+04  0.20229214489E+04  0.46999998093E+01 0. -1.
       -5    1    3    3    0  502 -0.32973173642E+03 -0.11007321311E+04  0.78023761877E+03  0.13889301906E+04  0.46999998093E+01 0.  1.
</event>
<event>
 5   0  0.1743810E-06  0.3266651E+04  0.7818609E-02  0.8171433E-01
        2   -1    0    0  501    0  0.00000000000E+00  0.00000000000E+00  0.13549675676E+04  0.13549675676E+04  0.25500000920E-02 0.  1.
       -2   -1    0    0    0  501  0.00000000000E+00  0.00000000000E+00 -0.19688677431E+04  0.19688677431E+04  0.25500000920E-02 0. -1.
    10030    2    1    2    0    0  0.00000000000E+00  0.00000000000E+00 -0.61390017545E+03  0.33238353107E+04  0.32666508456E+04 0.  0.
        5    1    3    3  502    0 -0.14443657875E+04 -0.44396803758E+03 -0.93782788907E+03  0.17784384684E+04  0.46999998093E+01 0. -1.
       -5    1    3    3    0  502  0.14443657875E+04  0.44396803758E+03  0.32392771362E+03  0.15453968423E+04  0.46999998093E+01 0.  1.
</event>
<event>
 5   0  0.1832626E-06  0.3299794E+04  0.7818609E-02  0.8162948E-01
        2   -1    0    0  501    0  0.00000000000E+00  0.00000000000E+00  0.89675991837E+03  0.89675991837E+03  0.25500000920E-02 0. -1.
       -2   -1    0    0    0  501  0.00000000000E+00  0.00000000000E+00 -0.30355496861E+04  0.30355496861E+04  0.25500000920E-02 0.  1.
    10030    2    1    2    0    0  0.00000000000E+00  0.00000000000E+00 -0.21387897677E+04  0.39323096044E+04  0.32997935018E+04 0.  0.
        3    1    3    3  502    0 -0.13249357631E+04 -0.97992599980E+03 -0.97369195964E+03  0.19141018217E+04  0.10100000352E+00 0. -1.
       -3    1    3    3    0  502  0.13249357631E+04  0.97992599980E+03 -0.11650978081E+04  0.20182077827E+04  0.10100000352E+00 0.  1.
</event>
<event>
 5   0  0.1743810E-06  0.3306911E+04  0.7818609E-02  0.8161139E-01
        2   -1    0    0  501    0  0.00000000000E+00  0.00000000000E+00  0.18574900979E+04  0.18574900979E+04  0.25500000920E-02 0.  1.
       -2   -1    0    0    0  501  0.00000000000E+00  0.00000000000E+00 -0.14718333361E+04  0.14718333361E+04  0.25500000920E-02 0. -1.
    10030    2    1    2    0    0  0.00000000000E+00  0.00000000000E+00  0.38565676183E+03  0.33293234340E+04  0.33069114579E+04 0.  0.
        5    1    3    3  502    0  0.63365533507E+03  0.11883427828E+04 -0.77295190367E+03  0.15527892286E+04  0.46999998093E+01 0. -1.
       -5    1    3    3    0  502 -0.63365533507E+03 -0.11883427828E+04  0.11586086655E+04  0.17765342054E+04  0.46999998093E+01 0.  1.
</event>
<event>
 5   0  0.1784626E-06  0.3395142E+04  0.7818609E-02  0.8139100E-01
       -2   -1    0    0    0  501  0.00000000000E+00  0.00000000000E+00  0.28116519229E+04  0.28116519229E+04  0.25500000920E-02 0.  1.
        2   -1    0    0  501    0  0.00000000000E+00  0.00000000000E+00 -0.10249300292E+04  0.10249300292E+04  0.25500000920E-02 0. -1.
    10030    2    1    2    0    0  0.00000000000E+00  0.00000000000E+00  0.17867218937E+04  0.38365819521E+04  0.33951415214E+04 0.  0.
        2    1    3    3  502    0 -0.74341402000E+03 -0.11478053794E+04 -0.24320947928E+03  0.13889825215E+04  0.25500000920E-02 0. -1.
       -2    1    3    3    0  502  0.74341402000E+03  0.11478053794E+04  0.20299313729E+04  0.24475994307E+04  0.25500000920E-02 0.  1.
</event>
<event>
 5   0  0.1743810E-06  0.3273743E+04  0.7818609E-02  0.8169609E-01
        2   -1    0    0  501    0  0.00000000000E+00  0.00000000000E+00  0.14513858170E+04  0.14513858170E+04  0.25500000920E-02 0. -1.
       -2   -1    0    0    0  501  0.00000000000E+00  0.00000000000E+00 -0.18460617627E+04  0.18460617627E+04  0.25500000920E-02 0.  1.
    10030    2    1    2    0    0  0.00000000000E+00  0.00000000000E+00 -0.39467594564E+03  0.32974475797E+04  0.32737427264E+04 0.  0.
        5    1    3    3  502    0 -0.84947093170E+03 -0.66542483199E+03 -0.14370771059E+04  0.17971098378E+04  0.46999998093E+01 0.  1.
       -5    1    3    3    0  502  0.84947093170E+03  0.66542483199E+03  0.10424011603E+04  0.15003377419E+04  0.46999998093E+01 0. -1.
</event>
<event>
 5   0  0.1784626E-06  0.2961623E+04  0.7818609E-02  0.8254775E-01
       -2   -1    0    0    0  501  0.00000000000E+00  0.00000000000E+00  0.90545177488E+03  0.90545177489E+03  0.25500000920E-02 0. -1.
        2   -1    0    0  501    0  0.00000000000E+00  0.00000000000E+00 -0.24217781601E+04  0.24217781601E+04  0.25500000920E-02 0.  1.
    10030    2    1    2    0    0  0.00000000000E+00  0.00000000000E+00 -0.15163263852E+04  0.33272299349E+04  0.29616234287E+04 0.  0.
        2    1    3    3  502    0  0.11620735838E+04 -0.91156091541E+03 -0.87835121600E+03  0.17183885403E+04  0.25500000920E-02 0.  1.
       -2    1    3    3    0  502 -0.11620735838E+04  0.91156091541E+03 -0.63797516917E+03  0.16088413947E+04  0.25500000920E-02 0. -1.
</event>
<event>
 5   0  0.1696681E-06  0.3328614E+04  0.7818609E-02  0.8155652E-01
       -2   -1    0    0    0  501  0.00000000000E+00  0.00000000000E+00  0.14729834580E+04  0.14729834580E+04  0.25500000920E-02 0. -1.
        2   -1    0    0  501    0  0.00000000000E+00  0.00000000000E+00 -0.18804814048E+04  0.18804814048E+04  0.25500000920E-02 0.  1.
    10030    2    1    2    0    0  0.00000000000E+00  0.00000000000E+00 -0.40749794680E+03  0.33534648628E+04  0.33286141275E+04 0.  0.
        4    1    3    3  502    0 -0.13189545185E+04 -0.68166015367E+03  0.55393951925E+03  0.15846615383E+04  0.12699999809E+01 0.  1.
       -4    1    3    3    0  502  0.13189545185E+04  0.68166015367E+03 -0.96143746605E+03  0.17688033246E+04  0.12699999809E+01 0. -1.
</event>
<event>
 5   0  0.1728937E-06  0.3290616E+04  0.7818609E-02  0.8165287E-01
        2   -1    0    0  501    0  0.00000000000E+00  0.00000000000E+00  0.21414913016E+04  0.21414913016E+04  0.25500000920E-02 0.  1.
       -2   -1    0    0    0  501  0.00000000000E+00  0.00000000000E+00 -0.12640901581E+04  0.12640901581E+04  0.25500000920E-02 0. -1.
    10030    2    1    2    0    0  0.00000000000E+00  0.00000000000E+00  0.87740114347E+03  0.34055814597E+04  0.32906157953E+04 0.  0.
        1    1    3    3  502    0 -0.87848270239E+03 -0.70374854485E+02 -0.99921216191E+03  0.13323323246E+04  0.50400001928E-02 0. -1.
       -1    1    3    3    0  502  0.87848270239E+03  0.70374854485E+02  0.18766133054E+04  0.20732491352E+04  0.50400001928E-02 0.  1.
</event>
<event>
 5   0  0.6085351E-07  0.3473999E+04  0.7818609E-02  0.8119980E-01
        1   -1    0    0  501    0  0.00000000000E+00  0.00000000000E+00  0.20537919702E+04  0.20537919702E+04  0.50400001928E-02 0.  1.
       -1   -1    0    0    0  501  0.00000000000E+00  0.00000000000E+00 -0.14690717730E+04  0.14690717730E+04  0.50400001928E-02 0. -1.
    10030    2    1    2    0    0  0.00000000000E+00  0.00000000000E+00  0.58472019725E+03  0.35228637432E+04  0.34739993155E+04 0.  0.
        1    1    3    3  502    0  0.15228829129E+03 -0.41949092616E+03  0.19946631501E+04  0.20439778480E+04  0.50400001928E-02 0.  1.
       -1    1    3    3    0  502 -0.15228829129E+03  0.41949092616E+03 -0.14099429528E+04  0.14788858952E+04  0.50400001928E-02 0. -1.
</event>
<event>
 5   0  0.6023446E-07  0.3319969E+04  0.7818609E-02  0.8157833E-01
       -1   -1    0    0    0  501  0.00000000000E+00  0.00000000000E+00  0.14942472185E+04  0.14942472185E+04  0.50400001928E-02 0.  1.
        1   -1    0    0  501    0  0.00000000000E+00  0.00000000000E+00 -0.18441043040E+04  0.18441043040E+04  0.50400001928E-02 0. -1.
    10030    2    1    2    0    0  0.00000000000E+00  0.00000000000E+00 -0.34985708551E+03  0.33383515224E+04  0.33199685099E+04 0.  0.
        5    1    3    3  502    0  0.81766786255E+03  0.14225354160E+04 -0.42799227501E+03  0.16956966771E+04  0.46999998093E+01 0. -1.
       -5    1    3    3    0  502 -0.81766786255E+03 -0.14225354160E+04  0.78135189500E+02  0.16426548454E+04  0.46999998093E+01 0.  1.
</event>
<event>
 5   0  0.5985183E-07  0.3272394E+04  0.7818609E-02  0.8169956E-01
        1   -1    0    0  501    0  0.00000000000E+00  0.00000000000E+00  0.23750206150E+04  0.23750206150E+04  0.50400001928E-02 0. -1.
       -1   -1    0    0    0  501  0.00000000000E+00  0.00000000000E+00 -0.11272070875E+04  0.11272070875E+04  0.50400001928E-02 0.  1.
    10030    2    1    2    0    0  0.00000000000E+00  0.00000000000E+00  0.12478135275E+04  0.35022277025E+04  0.32723936622E+04 0.  0.
        2    1    3    3  502    0  0.69396337934E+03  0.10862091094E+04 -0.45469856241E+03  0.13668160753E+04  0.25500000920E-02 0.  1.
       -2    1    3    3    0  502 -0.69396337934E+03 -0.10862091094E+04  0.17025120899E+04  0.21354116272E+04  0.25500000920E-02 0. -1.
</event>
<event>
 5   0  0.6023446E-07  0.3305155E+04  0.7818609E-02  0.8161585E-01
       -1   -1    0    0    0  501  0.00000000000E+00  0.00000000000E+00  0.12071229642E+04  0.12071229642E+04  0.50400001928E-02 0. -1.
        1   -1    0    0  501    0  0.00000000000E+00  0.00000000000E+00 -0.22624138581E+04  0.22624138582E+04  0.50400001928E-02 0.  1.
    10030    2    1    2    0    0  0.00000000000E+00  0.00000000000E+00 -0.10552908940E+04  0.34695368223E+04  0.33051545941E+04 0.  0.
        5    1    3    3  502    0 -0.59883677614E+03  0.67727868844E+03 -0.19798042913E+04  0.21764556114E+04  0.46999998093E+01 0.  1.
       -5    1    3    3    0  502  0.59883677614E+03 -0.67727868844E+03  0.92451339735E+03  0.12930812110E+04  0.46999998093E+01 0. -1.
</event>
<event>
 5   0  0.1728937E-06  0.3294432E+04  0.7818609E-02  0.8164314E-01
        2   -1    0    0  501    0  0.00000000000E+00  0.00000000000E+00  0.26990144224E+04  0.26990144224E+04  0.25500000920E-02 0. -1.
       -2   -1    0    0    0  501  0.00000000000E+00  0.00000000000E+00 -0.10053002335E+04  0.10053002335E+04  0.25500000920E-02 0.  1.
    10030    2    1    2    0    0  0.00000000000E+00  0.00000000000E+00  0.16937141889E+04  0.37043146559E+04  0.32944315619E+04 0.  0.
        1    1    3    3  502    0 -0.10873688264E+03 -0.98488344197E+03  0.23264380027E+04  0.25286622717E+04  0.50400001928E-02 0. -1.
       -1    1    3    3    0  502  0.10873688264E+03  0.98488344197E+03 -0.63272381375E+03  0.11756523842E+04  0.50400001928E-02 0.  1.
</event>
<event>
 5   0  0.1696681E-06  0.3345356E+04  0.7818609E-02  0.8151449E-01
       -2   -1    0    0    0  501  0.00000000000E+00  0.00000000000E+00  0.31163698859E+04  0.31163698859E+04  0.25500000920E-02 0.  1.
        2   -1    0    0  501    0  0.00000000000E+00  0.00000000000E+00 -0.89779209038E+03  0.89779209038E+03  0.25500000920E-02 0. -1.
    10030    2    1    2    0    0  0.00000000000E+00  0.00000000000E+00  0.22185777955E+04  0.40141619762E+04  0.33453563244E+04 0.  0.
        4    1    3    3  502    0  0.35934470398E+03 -0.11986002733E+04  0.24411896266E+04  0.27432060873E+04  0.12699999809E+01 0.  1.
       -4    1    3    3    0  502 -0.35934470398E+03  0.11986002733E+04 -0.22261183106E+03  0.12709558890E+04  0.12699999809E+01 0. -1.
</event>
<event>
 5   0  0.5988516E-07  0.3357918E+04  0.7818609E-02  0.8148312E-01
        1   -1    0    0  501    0  0.00000000000E+00  0.00000000000E+00  0.16210352934E+04  0.16210352934E+04  0.50400001928E-02 0.  1.
       -1   -1    0    0    0  501  0.00000000000E+00  0.00000000000E+00 -0.17389529457E+04  0.17389529457E+04  0.50400001928E-02 0. -1.
    10030    2    1    2    0    0  0.00000000000E+00  0.00000000000E+00 -0.11791765222E+03  0.33599882391E+04  0.33579184615E+04 0.  0.
        4    1    3    3  502    0  0.15513954528E+03 -0.16029143667E+04 -0.53411965791E+03  0.16966697284E+04  0.12699999809E+01 0. -1.
       -4    1    3    3    0  502 -0.15513954528E+03  0.16029143667E+04  0.41620200570E+03  0.16633185107E+04  0.12699999809E+01 0.  1.
</event>
<event>
 5   0  0.5985183E-07  0.3289782E+04  0.7818609E-02  0.8165500E-01
        1   -1    0    0  501    0  0.00000000000E+00  0.00000000000E+00  0.17298950289E+04  0.17298950289E+04  0.50400001928E-02 0.  1.
       -1   -1    0    0    0  501  0.00000000000E+00  0.00000000000E+00 -0.15640641026E+04  0.15640641026E+04  0.50400001928E-02 0. -1.
    10030    2    1    2    0    0  0.00000000000E+00  0.00000000000E+00  0.16583092630E+03  0.32939591316E+04  0.32897821910E+04 0.  0.
        2    1    3    3  502    0  0.31866451155E+03  0.15026490608E+04  0.67202074724E+03  0.16766374550E+04  0.25500000920E-02 0.  1.
       -2    1    3    3    0  502 -0.31866451155E+03 -0.15026490608E+04 -0.50618982094E+03  0.16173216766E+04  0.25500000920E-02 0. -1.
</event>
<event>
 5   0  0.5985183E-07  0.3268008E+04  0.7818609E-02  0.8171084E-01
       -1   -1    0    0    0  501  0.00000000000E+00  0.00000000000E+00  0.16477614906E+04  0.16477614906E+04  0.50400001928E-02 0. -1.
        1   -1    0    0  501    0  0.00000000000E+00  0.00000000000E+00 -0.16203618006E+04  0.16203618006E+04  0.50400001928E-02 0.  1.
    10030    2    1    2    0    0  0.00000000000E+00  0.00000000000E+00  0.27399690064E+02  0.32681232912E+04  0.32680084308E+04 0.  0.
        2    1    3    3  502    0  0.92090299136E+02  0.64265326849E+02  0.16438979679E+04  0.16477290992E+04  0.25500000920E-02 0. -1.
       -2    1    3    3    0  502 -0.92090299136E+02 -0.64265326849E+02 -0.16164982778E+04  0.16203941920E+04  0.25500000920E-02 0.  1.
</event>
<event>
 5   0  0.1784626E-06  0.3265227E+04  0.7818609E-02  0.8171800E-01
       -2   -1    0    0    0  501  0.00000000000E+00  0.00000000000E+00  0.15407360156E+04  0.15407360156E+04  0.25500000920E-02 0. -1.
        2   -1    0    0  501    0  0.00000000000E+00  0.00000000000E+00 -0.17299693546E+04  0.17299693546E+04  0.25500000920E-02 0.  1.
    10030    2    1    2    0    0  0.00000000000E+00  0.00000000000E+00 -0.18923333899E+03  0.32707053702E+04  0.32652265407E+04 0.  0.
        2    1    3    3  502    0 -0.17739630252E+03 -0.15127727586E+04  0.49414097510E+03  0.16012889092E+04  0.25500000920E-02 0. -1.
       -2    1    3    3    0  502  0.17739630252E+03  0.15127727586E+04 -0.68337431409E+03  0.16694164611E+04  0.25500000920E-02 0.  1.
</event>
<event>
 5   0  0.6085351E-07  0.3299706E+04  0.7818609E-02  0.8162970E-01
        1   -1    0    0  501    0  0.00000000000E+00  0.00000000000E+00  0.16956880910E+04  0.16956880910E+04  0.50400001928E-02 0.  1.
       -1   -1    0    0    0  501  0.00000000000E+00  0.00000000000E+00 -0.16052566542E+04  0.16052566543E+04  0.50400001928E-02 0. -1.
    10030    2    1    2    0    0  0.00000000000E+00  0.00000000000E+00  0.90431436786E+02  0.33009447453E+04  0.32997058000E+04 0.  0.
        1    1    3    3  502    0 -0.18087860315E+03 -0.52040084582E+03  0.16009460819E+04  0.16930925747E+04  0.50400001928E-02 0.  1.
       -1    1    3    3    0  502  0.18087860315E+03  0.52040084582E+03 -0.15105146451E+04  0.16078521706E+04  0.50400001928E-02 0. -1.
</event>
<event>
 5   0  0.5988516E-07  0.2986407E+04  0.7818609E-02  0.8247623E-01
       -1   -1    0    0    0  501  0.00000000000E+00  0.00000000000E+00  0.12264441074E+04  0.12264441074E+04  0.50400001928E-02 0.  1.
        1   -1    0    0  501    0  0.00000000000E+00  0.00000000000E+00 -0.18179852890E+04  0.18179852890E+04  0.50400001928E-02 0. -1.
    10030    2    1    2    0    0  0.00000000000E+00  0.00000000000E+00 -0.59154118166E+03  0.30444293964E+04  0.29864074370E+04 0.  0.
        4    1    3    3  502    0 -0.35694159064E+03 -0.12717482337E+04 -0.10056508810E+04  0.16601464322E+04  0.12699999809E+01 0. -1.
       -4    1    3    3    0  502  0.35694159064E+03  0.12717482337E+04  0.41410969934E+03  0.13842829642E+04  0.12699999809E+01 0.  1.
</event>
<event>
 5   0  0.5858859E-07  0.3315581E+04  0.7818609E-02  0.8158942E-01
        1   -1    0    0  501    0  0.00000000000E+00  0.00000000000E+00  0.14051861194E+04  0.14051861195E+04  0.50400001928E-02 0. -1.
       -1   -1    0    0    0  501  0.00000000000E+00  0.00000000000E+00 -0.19558045072E+04  0.19558045072E+04  0.50400001928E-02 0.  1.
    10030    2    1    2    0    0  0.00000000000E+00  0.00000000000E+00 -0.55061838778E+03  0.33609906267E+04  0.33155810024E+04 0.  0.
        3    1    3    3  502    0  0.30107075142E+03  0.24596332484E+02 -0.19276709416E+04  0.19511954915E+04  0.10100000352E+00 0.  1.
       -3    1    3    3    0  502 -0.30107075142E+03 -0.24596332484E+02  0.13770525538E+04  0.14097951351E+04  0.10100000352E+00 0. -1.
</event>
<event>
 5   0  0.5988516E-07  0.3327334E+04  0.7818609E-02  0.8155975E-01
        1   -1    0    0  501    0  0.00000000000E+00  0.00000000000E+00  0.12271195850E+04  0.12271195850E+04  0.50400001928E-02 0. -1.
       -1   -1    0    0    0  501  0.00000000000E+00  0.00000000000E+00 -0.22555163550E+04  0.22555163550E+04  0.50400001928E-02 0.  1.
    10030    2    1    2    0    0  0.00000000000E+00  0.00000000000E+00 -0.10283967700E+04  0.34826359400E+04  0.33273342445E+04 0.  0.
        4    1    3    3  502    0  0.12402074954E+04 -0.43540220558E+03 -0.15816508957E+04  0.20565288428E+04  0.12699999809E+01 0.  1.
       -4    1    3    3    0  502 -0.12402074954E+04  0.43540220558E+03  0.55325412577E+03  0.14261070973E+04  0.12699999809E+01 0. -1.
</event>
<event>
 5   0  0.1696681E-06  0.3273915E+04  0.7818609E-02  0.8169565E-01
       -2   -1    0    0    0  501  0.00000000000E+00  0.00000000000E+00  0.18969567036E+04  0.18969567036E+04  0.25500000920E-02 0.  1.
        2   -1    0    0  501    0  0.00000000000E+00  0.00000000000E+00 -0.14125941759E+04  0.14125941759E+04  0.25500000920E-02 0. -1.
    10030    2    1    2    0    0  0.00000000000E+00  0.00000000000E+00  0.48436252765E+03  0.33095508795E+04  0.32739150823E+04 0.  0.
        4    1    3    3  502    0 -0.10256394516E+04  0.11244070540E+04  0.85157029588E+03  0.17439613211E+04  0.12699999809E+01 0.  1.
       -4    1    3    3    0  502  0.10256394516E+04 -0.11244070540E+04 -0.36720776823E+03  0.15655895585E+04  0.12699999809E+01 0. -1.
</event>
<event>
 5   0  0.1784626E-06  0.3279382E+04  0.7818609E-02  0.8168162E-01
       -2   -1    0    0    0  501  0.00000000000E+00  0.00000000000E+00  0.18908625612E+04  0.18908625612E+04  0.25500000920E-02 0. -1.
        2   -1    0    0  501    0  0.00000000000E+00  0.00000000000E+00 -0.14218834400E+04  0.14218834400E+04  0.25500000920E-02 0.  1.
    10030    2    1    2    0    0  0.00000000000E+00  0.00000000000E+00  0.46897912117E+03  0.33127460012E+04  0.32793817485E+04 0.  0.
        2    1    3    3  502    0  0.55868422196E+03  0.67461058713E+03  0.16347228039E+04  0.18546013452E+04  0.25500000920E-02 0. -1.
       -2    1    3    3    0  502 -0.55868422196E+03 -0.67461058713E+03 -0.11657436827E+04  0.14581446560E+04  0.25500000920E-02 0.  1.
</event>
<event>
 5   0  0.1743810E-06  0.3212739E+04  0.7818609E-02  0.8185461E-01
        2   -1    0    0  501    0  0.00000000000E+00  0.00000000000E+00  0.23596395781E+04  0.23596395781E+04  0.25500000920E-02 0. -1.
       -2   -1    0    0    0  501  0.00000000000E+00  0.00000000000E+00 -0.10935662553E+04  0.10935662553E+04  0.25500000920E-02 0.  1.
    10030    2    1    2    0    0  0.00000000000E+00  0.00000000000E+00  0.12660733228E+04  0.34532058335E+04  0.32127385312E+04 0.  0.
        5    1    3    3  502    0 -0.18235998648E+03 -0.19436076119E+03 -0.10696288370E+04  0.11023426006E+04  0.46999998093E+01 0.  1.
       -5    1    3    3    0  502  0.18235998648E+03  0.19436076119E+03  0.23357021598E+04  0.23508632328E+04  0.46999998093E+01 0. -1.
</event>
<event>
 5   0  0.1832626E-06  0.3334276E+04  0.7818609E-02  0.8154228E-01
        2   -1    0    0  501    0  0.00000000000E+00  0.00000000000E+00  0.23683035402E+04  0.23683035402E+04  0.25500000920E-02 0.  1.
       -2   -1    0    0    0  501  0.00000000000E+00  0.00000000000E+00 -0.11735611049E+04  0.11735611049E+04  0.25500000920E-02 0. -1.
    10030    2    1    2    0    0  0.00000000000E+00  0.00000000000E+00  0.11947424353E+04  0.35418646451E+04  0.33342758851E+04 0.  0.
        3    1    3    3  502    0  0.15547468857E+04 -0.24093339198E+03  0.11622162807E+02  0.15733473434E+04  0.10100000352E+00 0. -1.
       -3    1    3    3    0  502 -0.15547468857E+04  0.24093339198E+03  0.11831202725E+04  0.19685173018E+04  0.10100000352E+00 0.  1.
</event>
<event>
 5   0  0.1728937E-06  0.3294856E+04  0.7818609E-02  0.8164206E-01
        2   -1    0    0  501    0  0.00000000000E+00  0.00000000000E+00  0.13324557964E+04  0.13324557964E+04  0.25500000920E-02 0. -1.
       -2   -1    0    0    0  501  0.00000000000E+00  0.00000000000E+00 -0.20368542333E+04  0.20368542333E+04  0.25500000920E-02 0.  1.
    10030    2    1    2    0    0  0.00000000000E+00  0.00000000000E+00 -0.70439843689E+03  0.33693100296E+04  0.32948555231E+04 0.  0.
        1    1    3    3  502    0 -0.11111584956E+04 -0.81339119999E+03  0.57252485155E+03  0.14913293239E+04  0.50400001928E-02 0. -1.
       -1    1    3    3    0  502  0.11111584956E+04  0.81339119999E+03 -0.12769232884E+04  0.18779807058E+04  0.50400001928E-02 0.  1.
</event>
<event>
 5   0  0.5858859E-07  0.3386245E+04  0.7818609E-02  0.8141290E-01
       -1   -1    0    0    0  501  0.00000000000E+00  0.00000000000E+00  0.17470812559E+04  0.17470812559E+04  0.50400001928E-02 0. -1.
        1   -1    0    0  501    0  0.00000000000E+00  0.00000000000E+00 -0.16408306073E+04  0.16408306073E+04  0.50400001928E-02 0.  1.
    10030    2    1    2    0    0  0.00000000000E+00  0.00000000000E+00  0.10625064857E+03  0.33879118632E+04  0.33862453532E+04 0.  0.
        3    1    3    3  502    0 -0.68363253680E+03  0.92991676132E+02  0.16000633180E+04  0.17424705246E+04  0.10100000352E+00 0. -1.
       -3    1    3    3    0  502  0.68363253680E+03 -0.92991676132E+02 -0.14938126694E+04  0.16454413386E+04  0.10100000352E+00 0.  1.
</event>
<event>
 5   0  0.5858859E-07  0.3426981E+04  0.7818609E-02  0.8131316E-01
       -1   -1    0    0    0  501  0.00000000000E+00  0.00000000000E+00  0.13141189792E+04  0.13141189792E+04  0.50400001928E-02 0.  1.
        1   -1    0    0  501    0  0.00000000000E+00  0.00000000000E+00 -0.22342340854E+04  0.22342340854E+04  0.50400001928E-02 0. -1.
    10030    2    1    2    0    0  0.00000000000E+00  0.00000000000E+00 -0.92011510626E+03  0.35483530646E+04  0.34269808378E+04 0.  0.
        3    1    3    3  502    0  0.16461246626E+04 -0.18090556619E+03 -0.91563638660E+03  0.18923116105E+04  0.10100000352E+00 0. -1.
       -3    1    3    3    0  502 -0.16461246626E+04  0.18090556619E+03 -0.44787196560E+01  0.16560414541E+04  0.10100000352E+00 0.  1.
</event>
<event>
 5   0  0.1743810E-06  0.3093765E+04  0.7818609E-02  0.8217451E-01
        2   -1    0    0  501    0  0.00000000000E+00  0.00000000000E+00  0.19404739362E+04  0.19404739362E+04  0.25500000920E-02 0.  1.
       -2   -1    0    0    0  501  0.00000000000E+00  0.00000000000E+00 -0.12331238530E+04  0.12331238530E+04  0.25500000920E-02 0. -1.
    10030    2    1    2    0    0  0.00000000000E+00  0.00000000000E+00  0.70735008324E+03  0.31735977892E+04  0.30937645010E+04 0.  0.
        5    1    3    3  502    0  0.81011966507E+03 -0.11628641166E+04  0.98957111068E+03  0.17285311390E+04  0.46999998093E+01 0.  1.
       -5    1    3    3    0  502 -0.81011966507E+03  0.11628641166E+04 -0.28222102744E+03  0.14450666503E+04  0.46999998093E+01 0. -1.
</event>
<event>
 5   0  0.5988516E-07  0.3304648E+04  0.7818609E-02  0.8161714E-01
       -1   -1    0    0    0  501  0.00000000000E+00  0.00000000000E+00  0.11864265765E+04  0.11864265765E+04  0.50400001928E-02 0.  1.
        1   -1    0    0  501    0  0.00000000000E+00  0.00000000000E+00 -0.23011748010E+04  0.23011748010E+04  0.50400001928E-02 0. -1.
    10030    2    1    2    0    0  0.00000000000E+00  0.00000000000E+00 -0.11147482246E+04  0.34876013775E+04  0.33046482058E+04 0.  0.
        4    1    3    3  502    0  0.11210599884E+04  0.50875894801E+03  0.60571095694E+03  0.13720417417E+04  0.12699999809E+01 0.  1.
       -4    1    3    3    0  502 -0.11210599884E+04 -0.50875894801E+03 -0.17204591815E+04  0.21155596358E+04  0.12699999809E+01 0. -1.
</event>
<event>
 5   0  0.1728937E-06  0.3325455E+04  0.7818609E-02  0.8156448E-01
        2   -1    0    0  501    0  0.00000000000E+00  0.00000000000E+00  0.23096263189E+04  0.23096263189E+04  0.25500000920E-02 0. -1.
       -2   -1    0    0    0  501  0.00000000000E+00  0.00000000000E+00 -0.11970175210E+04  0.11970175210E+04  0.25500000920E-02 0.  1.
    10030    2    1    2    0    0  0.00000000000E+00  0.00000000000E+00  0.11126087979E+04  0.35066438399E+04  0.33254552595E+04 0.  0.
        1    1    3    3  502    0  0.86302834804E+03  0.50702972433E+03  0.19563361780E+04  0.21975323234E+04  0.50400001928E-02 0. -1.
       -1    1    3    3    0  502 -0.86302834804E+03 -0.50702972433E+03 -0.84372738010E+03  0.13091115166E+04  0.50400001928E-02 0.  1.
</event>
<event>
 5   0  0.1832626E-06  0.3302610E+04  0.7818609E-02  0.8162232E-01
        2   -1    0    0  501    0  0.00000000000E+00  0.00000000000E+00  0.30305826362E+04  0.30305826362E+04  0.25500000920E-02 0. -1.
       -2   -1    0    0    0  501  0.00000000000E+00  0.00000000000E+00 -0.89976385376E+03  0.89976385376E+03  0.25500000920E-02 0.  1.
    10030    2    1    2    0    0  0.00000000000E+00  0.00000000000E+00  0.21308187825E+04  0.39303464900E+04  0.33026103082E+04 0.  0.
        3    1    3    3  502    0 -0.12399333011E+04 -0.90592134014E+03  0.34280820462E+03  0.15734184253E+04  0.10100000352E+00 0. -1.
       -3    1    3    3    0  502  0.12399333011E+04  0.90592134014E+03  0.17880105778E+04  0.23569280647E+04  0.10100000352E+00 0.  1.
</event>
<event>
 5   0  0.5858859E-07  0.3310533E+04  0.7818609E-02  0.8160220E-01
       -1   -1    0    0    0  501  0.00000000000E+00  0.00000000000E+00  0.11931999351E+04  0.11931999352E+04  0.50400001928E-02 0.  1.
        1   -1    0    0  501    0  0.00000000000E+00  0.00000000000E+00 -0.22962685400E+04  0.22962685400E+04  0.50400001928E-02 0. -1.
    10030    2    1    2    0    0  0.00000000000E+00  0.00000000000E+00 -0.11030686049E+04  0.34894684752E+04  0.33105331734E+04 0.  0.
        3    1    3    3  502    0 -0.27170612562E+03  0.17079222280E+03 -0.22631618090E+04  0.22858030505E+04  0.10100000352E+00 0. -1.
       -3    1    3    3    0  502  0.27170612562E+03 -0.17079222280E+03  0.11600932041E+04  0.12036654246E+04  0.10100000352E+00 0.  1.
</event>
<event>
 5   0  0.1832626E-06  0.3335762E+04  0.7818609E-02  0.8153855E-01
        2   -1    0    0  501    0  0.00000000000E+00  0.00000000000E+00  0.16850315506E+04  0.16850315506E+04  0.25500000920E-02 0. -1.
       -2   -1    0    0    0  501  0.00000000000E+00  0.00000000000E+00 -0.16509050482E+04  0.16509050482E+04  0.25500000920E-02 0.  1.
    10030    2    1    2    0    0  0.00000000000E+00  0.00000000000E+00  0.34126502420E+02  0.33359365988E+04  0.33357620378E+04 0.  0.
        3    1    3    3  502    0  0.16466042980E+04  0.25812407335E+03  0.79463082202E+02  0.16686066472E+04  0.10100000352E+00 0.  1.
       -3    1    3    3    0  502 -0.16466042980E+04 -0.25812407335E+03 -0.45336579782E+02  0.16673299515E+04  0.10100000352E+00 0. -1.
</event>
<event>
 5   0  0.1728937E-06  0.3285072E+04  0.7818609E-02  0.8166704E-01
       -2   -1    0    0    0  501  0.00000000000E+00  0.00000000000E+00  0.13316810231E+04  0.13316810231E+04  0.25500000920E-02 0.  1.
        2   -1    0    0  501    0  0.00000000000E+00  0.00000000000E+00 -0.20259541242E+04  0.20259541242E+04  0.25500000920E-02 0. -1.
    10030    2    1    2    0    0  0.00000000000E+00  0.00000000000E+00 -0.69427310108E+03  0.33576351474E+04  0.32850720911E+04 0.  0.
        1    1    3    3  502    0 -0.80228117152E+03  0.63032139617E+03  0.96852808847E+03  0.14067717650E+04  0.50400001928E-02 0.  1.
       -1    1    3    3    0  502  0.80228117152E+03 -0.63032139617E+03 -0.16628011895E+04  0.19508633824E+04  0.50400001928E-02 0. -1.
</event>
<event>
 5   0  0.5985183E-07  0.3302480E+04  0.7818609E-02  0.8162265E-01
       -1   -1    0    0    0  501  0.00000000000E+00  0.00000000000E+00  0.23332254570E+04  0.23332254570E+04  0.50400001928E-02 0.  1.
        1   -1    0    0  501    0  0.00000000000E+00  0.00000000000E+00 -0.11685943368E+04  0.11685943368E+04  0.50400001928E-02 0. -1.
    10030    2    1    2    0    0  0.00000000000E+00  0.00000000000E+00  0.11646311202E+04  0.35018197938E+04  0.33024803137E+04 0.  0.
        2    1    3    3  502    0 -0.46258178499E+03  0.12251571120E+04  0.16488096131E+04  0.21056032383E+04  0.25500000920E-02 0.  1.
       -2    1    3    3    0  502  0.46258178499E+03 -0.12251571120E+04 -0.48417849295E+03  0.13962165555E+04  0.25500000920E-02 0. -1.
</event>
<event>
 5   0  0.1696681E-06  0.3213595E+04  0.7818609E-02  0.8185236E-01
       -2   -1    0    0    0  501  0.00000000000E+00  0.00000000000E+00  0.11984092655E+04  0.11984092656E+04  0.25500000920E-02 0.  1.
        2   -1    0    0  501    0  0.00000000000E+00  0.00000000000E+00 -0.21543541523E+04  0.21543541523E+04  0.25500000920E-02 0. -1.
    10030    2    1    2    0    0  0.00000000000E+00  0.00000000000E+00 -0.95594488670E+03  0.33527634178E+04  0.32135948577E+04 0.  0.
        4    1    3    3  502    0 -0.13414046925E+04 -0.78044720114E+02  0.44128560683E+03  0.14142814879E+04  0.12699999809E+01 0.  1.
       -4    1    3    3    0  502  0.13414046925E+04  0.78044720114E+02 -0.13972304935E+04  0.19384819299E+04  0.12699999809E+01 0. -1.
</event>
<event>
 5   0  0.1784626E-06  0.3350714E+04  0.7818609E-02  0.8150110E-01
        2   -1    0    0  501    0  0.00000000000E+00  0.00000000000E+00  0.25495796087E+04  0.25495796087E+04  0.25500000920E-02 0. -1.
       -2   -1    0    0    0  501  0.00000000000E+00  0.00000000000E+00 -0.11008958622E+04  0.11008958622E+04  0.25500000920E-02 0.  1.
    10030    2    1    2    0    0  0.00000000000E+00  0.00000000000E+00  0.14486837465E+04  0.36504754709E+04  0.33507143368E+04 0.  0.
        2    1    3    3  502    0  0.48848805169E+03 -0.15433148111E+04  0.25400154378E+03  0.16385841349E+04  0.25500000920E-02 0.  1.
       -2    1    3    3    0  502 -0.48848805169E+03  0.15433148111E+04  0.11946822027E+04  0.20118913361E+04  0.25500000920E-02 0. -1.
</event>
<event>
 5   0  0.5858859E-07  0.3293084E+04  0.7818609E-02  0.8164657E-01
       -1   -1    0    0    0  501  0.00000000000E+00  0.00000000000E+00  0.10943606648E+04  0.10943606648E+04  0.50400001928E-02 0. -1.
        1   -1    0    0  501    0  0.00000000000E+00  0.00000000000E+00 -0.24773369840E+04  0.24773369840E+04  0.50400001928E-02 0.  1.
    10030    2    1    2    0    0  0.00000000000E+00  0.00000000000E+00 -0.13829763192E+04  0.35716976488E+04  0.32930837516E+04 0.  0.
        3    1    3    3  502    0 -0.14844261387E+04  0.57316747142E+03 -0.23253427316E+03  0.16081399535E+04  0.10100000352E+00 0. -1.
       -3    1    3    3    0  502  0.14844261387E+04 -0.57316747142E+03 -0.11504420460E+04  0.19635576954E+04  0.10100000352E+00 0.  1.
</event>
<event>
 5   0  0.5988516E-07  0.2754891E+04  0.7818609E-02  0.8317411E-01
        1   -1    0    0  501    0  0.00000000000E+00  0.00000000000E+00  0.10632920011E+04  0.10632920011E+04  0.50400001928E-02 0.  1.
       -1   -1    0    0    0  501  0.00000000000E+00  0.00000000000E+00 -0.17844163530E+04  0.17844163530E+04  0.50400001928E-02 0. -1.
    10030    2    1    2    0    0  0.00000000000E+00  0.00000000000E+00 -0.72112435194E+03  0.28477083542E+04  0.27548906583E+04 0.  0.
        4    1    3    3  502    0 -0.14556165380E+03 -0.43491525673E+02  0.10546049116E+04  0.10654918302E+04  0.12699999809E+01 0.  1.
       -4    1    3    3    0  502  0.14556165380E+03  0.43491525673E+02 -0.17757292635E+04  0.17822165239E+04  0.12699999809E+01 0. -1.
</event>
<event>
 5   0  0.6023446E-07  0.3255492E+04  0.7818609E-02  0.8174314E-01
       -1   -1    0    0    0  501  0.00000000000E+00  0.00000000000E+00  0.19230941497E+04  0.19230941497E+04  0.50400001928E-02 0.  1.
        1   -1    0    0  501    0  0.00000000000E+00  0.00000000000E+00 -0.13777576214E+04  0.13777576214E+04  0.50400001928E-02 0. -1.
    10030    2    1    2    0    0  0.00000000000E+00  0.00000000000E+00  0.54533652829E+03  0.33008517710E+04  0.32554923568E+04 0.  0.
        5    1    3    3  502    0 -0.40360740136E+03 -0.13833462389E+04 -0.49483950475E+03  0.15236252743E+04  0.46999998093E+01 0.  1.
       -5    1    3    3    0  502  0.40360740136E+03  0.13833462389E+04  0.10401760330E+04  0.17772264967E+04  0.46999998093E+01 0. -1.
</event>
<event>
 5   0  0.5988516E-07  0.3324080E+04  0.7818609E-02  0.8156795E-01
        1   -1    0    0  501    0  0.00000000000E+00  0.00000000000E+00  0.18112049239E+04  0.18112049239E+04  0.50400001928E-02 0. -1.
       -1   -1    0    0    0  501  0.00000000000E+00  0.00000000000E+00 -0.15251595774E+04  0.15251595774E+04  0.50400001928E-02 0.  1.
    10030    2    1    2    0    0  0.00000000000E+00  0.00000000000E+00  0.28604534649E+03  0.33363645013E+04  0.33240797442E+04 0.  0.
        4    1    3    3  502    0  0.39225804027E+03 -0.16149898211E+04  0.16087692241E+03  0.16697129962E+04  0.12699999809E+01 0.  1.
       -4    1    3    3    0  502 -0.39225804027E+03  0.16149898211E+04  0.12516842408E+03  0.16666515052E+04  0.12699999809E+01 0. -1.
</event>
<event>
 5   0  0.6085351E-07  0.3272989E+04  0.7818609E-02  0.8169803E-01
       -1   -1    0    0    0  501  0.00000000000E+00  0.00000000000E+00  0.10508321537E+04  0.10508321537E+04  0.50400001928E-02 0.  1.
        1   -1    0    0  501    0  0.00000000000E+00  0.00000000000E+00 -0.25485644397E+04  0.25485644397E+04  0.50400001928E-02 0. -1.
    10030    2    1    2    0    0  0.00000000000E+00  0.00000000000E+00 -0.14977322860E+04  0.35993965935E+04  0.32729885176E+04 0.  0.
        1    1    3    3  502    0  0.23903871603E+03 -0.22839636153E+03  0.10137231644E+04  0.10662734451E+04  0.50400001928E-02 0.  1.
       -1    1    3    3    0  502 -0.23903871603E+03  0.22839636153E+03 -0.25114554503E+04  0.25331231484E+04  0.50400001928E-02 0. -1.
</event>
<event>
 5   0  0.1743810E-06  0.3280595E+04  0.7818609E-02  0.8167851E-01
       -2   -1    0    0    0  501  0.00000000000E+00  0.00000000000E+00  0.15850671003E+04  0.15850671003E+04  0.25500000920E-02 0. -1.
        2   -1    0    0  501    0  0.00000000000E+00  0.00000000000E+00 -0.16974522464E+04  0.16974522464E+04  0.25500000920E-02 0.  1.
    10030    2    1    2    0    0  0.00000000000E+00  0.00000000000E+00 -0.11238514614E+03  0.32825193467E+04  0.32805948912E+04 0.  0.
        5    1    3    3  502    0  0.14721748754E+04  0.71851807074E+03 -0.13982712015E+03  0.16441231083E+04  0.46999998093E+01 0. -1.
       -5    1    3    3    0  502 -0.14721748754E+04 -0.71851807074E+03  0.27441974018E+02  0.16383962383E+04  0.46999998093E+01 0.  1.
</event>
<event>
 5   0  0.5988516E-07  0.3472977E+04  0.7818609E-02  0.8120224E-01
        1   -1    0    0  501    0  0.00000000000E+00  0.00000000000E+00  0.18604106951E+04  0.18604106951E+04  0.50400001928E-02 0. -1.
       -1   -1    0    0    0  501  0.00000000000E+00  0.00000000000E+00 -0.16208208667E+04  0.16208208667E+04  0.50400001928E-02 0.  1.
    10030    2    1    2    0    0  0.00000000000E+00  0.00000000000E+00  0.23958982844E+03  0.34812315618E+04  0.34729770948E+04 0.  0.
        4    1    3    3  502    0 -0.18356306505E+03  0.17244988052E+04  0.31271172437E+02  0.17345232853E+04  0.12699999809E+01 0. -1.
       -4    1    3    3    0  502  0.18356306505E+03 -0.17244988052E+04  0.20831865601E+03  0.17467082765E+04  0.12699999809E+01 0.  1.
</event>
<event>
 5   0  0.1743810E-06  0.3292361E+04  0.7818609E-02  0.8164842E-01
       -2   -1    0    0    0  501  0.00000000000E+00  0.00000000000E+00  0.11578857908E+04  0.11578857908E+04  0.25500000920E-02 0. -1.
        2   -1    0    0  501    0  0.00000000000E+00  0.00000000000E+00 -0.23403955398E+04  0.23403955398E+04  0.25500000920E-02 0.  1.
    10030    2    1    2    0    0  0.00000000000E+00  0.00000000000E+00 -0.11825097490E+04  0.34982813306E+04  0.32923613048E+04 0.  0.
        5    1    3    3  502    0  0.11163299793E+04 -0.93029034250E+03 -0.14131014333E+04  0.20269461006E+04  0.46999998093E+01 0.  1.
       -5    1    3    3    0  502 -0.11163299793E+04  0.93029034250E+03  0.23059168432E+03  0.14713352299E+04  0.46999998093E+01 0. -1.
</event>
<event>
 5   0  0.1832626E-06  0.3363563E+04  0.7818609E-02  0.8146908E-01
       -2   -1    0    0    0  501  0.00000000000E+00  0.00000000000E+00  0.17386701333E+04  0.17386701333E+04  0.25500000920E-02 0. -1.
        2   -1    0    0  501    0  0.00000000000E+00  0.00000000000E+00 -0.16267538631E+04  0.16267538631E+04  0.25500000920E-02 0.  1.
    10030    2    1    2    0    0  0.00000000000E+00  0.00000000000E+00  0.11191627024E+03  0.33654239964E+04  0.33635626089E+04 0.  0.
        3    1    3    3  502    0  0.13697814732E+04 -0.96743848228E+03  0.18311050097E+03  0.16869404159E+04  0.10100000352E+00 0. -1.
       -3    1    3    3    0  502 -0.13697814732E+04  0.96743848228E+03 -0.71194230728E+02  0.16784835805E+04  0.10100000352E+00 0.  1.
</event>
<event>
 5   0  0.1832626E-06  0.2880028E+04  0.7818609E-02  0.8278845E-01
        2   -1    0    0  501    0  0.00000000000E+00  0.00000000000E+00  0.27275792180E+04  0.27275792180E+04  0.25500000920E-02 0. -1.
       -2   -1    0    0    0  501  0.00000000000E+00  0.00000000000E+00 -0.76024950396E+03  0.76024950396E+03  0.25500000920E-02 0.  1.
    10030    2    1    2    0    0  0.00000000000E+00  0.00000000000E+00  0.19673297140E+04  0.34878287219E+04  0.28800282967E+04 0.  0.
        3    1    3    3  502    0  0.68780726661E+03 -0.15577320948E+03  0.25041331411E+04  0.26015431820E+04  0.10100000352E+00 0. -1.
       -3    1    3    3    0  502 -0.68780726661E+03  0.15577320948E+03 -0.53680342713E+03  0.88628553998E+03  0.10100000352E+00 0.  1.
</event>
<event>
 5   0  0.6023446E-07  0.3261804E+04  0.7818609E-02  0.8172683E-01
       -1   -1    0    0    0  501  0.00000000000E+00  0.00000000000E+00  0.18703632169E+04  0.18703632169E+04  0.50400001928E-02 0. -1.
        1   -1    0    0  501    0  0.00000000000E+00  0.00000000000E+00 -0.14220988194E+04  0.14220988194E+04  0.50400001928E-02 0.  1.
    10030    2    1    2    0    0  0.00000000000E+00  0.00000000000E+00  0.44826439750E+03  0.32924620362E+04  0.32618039932E+04 0.  0.
        5    1    3    3  502    0  0.91117813369E+03 -0.12812754691E+04 -0.21342434154E+03  0.15866582678E+04  0.46999998093E+01 0.  1.
       -5    1    3    3    0  502 -0.91117813369E+03  0.12812754691E+04  0.66168873904E+03  0.17058037685E+04  0.46999998093E+01 0. -1.
</event>
<event>
 5   0  0.1743810E-06  0.3329030E+04  0.7818609E-02  0.8155548E-01
       -2   -1    0    0    0  501  0.00000000000E+00  0.00000000000E+00  0.11595460623E+04  0.11595460623E+04  0.25500000920E-02 0. -1.
        2   -1    0    0  501    0  0.00000000000E+00  0.00000000000E+00 -0.23893914816E+04  0.23893914816E+04  0.25500000920E-02 0.  1.
    10030    2    1    2    0    0  0.00000000000E+00  0.00000000000E+00 -0.12298454194E+04  0.35489375439E+04  0.33290295786E+04 0.  0.
        5    1    3    3  502    0 -0.57246672557E+02 -0.15214060857E+04  0.10230021400E+03  0.15259230265E+04  0.46999998093E+01 0. -1.
       -5    1    3    3    0  502  0.57246672557E+02  0.15214060857E+04 -0.13321456334E+04  0.20230145174E+04  0.46999998093E+01 0.  1.
</event>
<event>
 5   0  0.1832626E-06  0.3460639E+04  0.7818609E-02  0.8123182E-01
       -2   -1    0    0    0  501  0.00000000000E+00  0.00000000000E+00  0.16301235895E+04  0.16301235895E+04  0.25500000920E-02 0. -1.
        2   -1    0    0  501    0  0.00000000000E+00  0.00000000000E+00 -0.18366737446E+04  0.18366737446E+04  0.25500000920E-02 0.  1.
    10030    2    1    2    0    0  0.00000000000E+00  0.00000000000E+00 -0.20655015512E+03  0.34667973341E+04  0.34606387834E+04 0.  0.
        3    1    3    3  502    0  0.35186840266E+03  0.86658764484E+03 -0.15616197226E+04  0.18202861553E+04  0.10100000352E+00 0.  1.
       -3    1    3    3    0  502 -0.35186840266E+03 -0.86658764484E+03  0.13550695675E+04  0.16465111788E+04  0.10100000352E+00 0. -1.
</event>
<event>
 5   0  0.5858859E-07  0.3294507E+04  0.7818609E-02  0.8164294E-01
        1   -1    0    0  501    0  0.00000000000E+00  0.00000000000E+00  0.17637983733E+04  0.17637983733E+04  0.50400001928E-02 0. -1.
       -1   -1    0    0    0  501  0.00000000000E+00  0.00000000000E+00 -0.15384098153E+04  0.15384098153E+04  0.50400001928E-02 0.  1.
    10030    2    1    2    0    0  0.00000000000E+00  0.00000000000E+00  0.22538855800E+03  0.33022081885E+04  0.32945073863E+04 0.  0.
        3    1    3    3  502    0 -0.93863655258E+03 -0.12698054088E+04 -0.35744405639E+03  0.16190153235E+04  0.10100000352E+00 0.  1.
       -3    1    3    3    0  502  0.93863655258E+03  0.12698054088E+04  0.58283261438E+03  0.16831928650E+04  0.10100000352E+00 0. -1.
</event>
<event>
 5   0  0.5858859E-07  0.3160274E+04  0.7818609E-02  0.8199388E-01
        1   -1    0    0  501    0  0.00000000000E+00  0.00000000000E+00  0.16144705440E+04  0.16144705440E+04  0.50400001928E-02 0.  1.
       -1   -1    0    0    0  501  0.00000000000E+00  0.00000000000E+00 -0.15465340848E+04  0.15465340848E+04  0.50400001928E-02 0. -1.
    10030    2    1    2    0    0  0.00000000000E+00  0.00000000000E+00  0.67936459221E+02  0.31610046288E+04  0.31602744977E+04 0.  0.
        3    1    3    3  502    0  0.13076166919E+03 -0.12847370956E+04  0.94477494926E+03  0.16000774150E+04  0.10100000352E+00 0.  1.
       -3    1    3    3    0  502 -0.13076166919E+03  0.12847370956E+04 -0.87683849004E+03  0.15609272138E+04  0.10100000352E+00 0. -1.
</event>
<event>
 5   0  0.5988516E-07  0.3250329E+04  0.7818609E-02  0.8175651E-01
        1   -1    0    0  501    0  0.00000000000E+00  0.00000000000E+00  0.25888114356E+04  0.25888114356E+04  0.50400001928E-02 0. -1.
       -1   -1    0    0    0  501  0.00000000000E+00  0.00000000000E+00 -0.10202207860E+04  0.10202207860E+04  0.50400001928E-02 0.  1.
    10030    2    1    2    0    0  0.00000000000E+00  0.00000000000E+00  0.15685906496E+04  0.36090322216E+04  0.32503287451E+04 0.  0.
        4    1    3    3  502    0  0.14807408408E+04  0.62804771506E+03  0.52598403560E+03  0.16922464917E+04  0.12699999809E+01 0.  1.
       -4    1    3    3    0  502 -0.14807408408E+04 -0.62804771506E+03  0.10426066140E+04  0.19167857299E+04  0.12699999809E+01 0. -1.
</event>
<event>
 5   0  0.1728937E-06  0.3283578E+04  0.7818609E-02  0.8167086E-01
        2   -1    0    0  501    0  0.00000000000E+00  0.00000000000E+00  0.17269034495E+04  0.17269034495E+04  0.25500000920E-02 0.  1.
       -2   -1    0    0    0  501  0.00000000000E+00  0.00000000000E+00 -0.15608698842E+04  0.15608698842E+04  0.25500000920E-02 0. -1.
    10030    2    1    2    0    0  0.00000000000E+00  0.00000000000E+00  0.16603356533E+03  0.32877733337E+04  0.32835782843E+04 0.  0.
        1    1    3    3  502    0 -0.15619422184E+04  0.12213845234E+03 -0.40841602131E+03  0.16190691590E+04  0.50400001928E-02 0.  1.
       -1    1    3    3    0  502  0.15619422184E+04 -0.12213845234E+03  0.57444958664E+03  0.16687041747E+04  0.50400001928E-02 0. -1.
</event>
<event>
 5   0  0.1743810E-06  0.3292344E+04  0.7818609E-02  0.8164846E-01
       -2   -1    0    0    0  501  0.00000000000E+00  0.00000000000E+00  0.12848506070E+04  0.12848506070E+04  0.25500000920E-02 0.  1.
        2   -1    0    0  501    0  0.00000000000E+00  0.00000000000E+00 -0.21091024908E+04  0.21091024908E+04  0.25500000920E-02 0. -1.
    10030    2    1    2    0    0  0.00000000000E+00  0.00000000000E+00 -0.82425188389E+03  0.33939530978E+04  0.32923436124E+04 0.  0.
        5    1    3    3  502    0  0.14141380256E+04 -0.66031940215E+03 -0.95178160554E+03  0.18280367564E+04  0.46999998093E+01 0.  1.
       -5    1    3    3    0  502 -0.14141380256E+04  0.66031940215E+03  0.12752972165E+03  0.15659163414E+04  0.46999998093E+01 0. -1.
</event>
<event>
 5   0  0.1784626E-06  0.3258657E+04  0.7818609E-02  0.8173496E-01
       -2   -1    0    0    0  501  0.00000000000E+00  0.00000000000E+00  0.10770596930E+04  0.10770596930E+04  0.25500000920E-02 0.  1.
        2   -1    0    0  501    0  0.00000000000E+00  0.00000000000E+00 -0.24647757695E+04  0.24647757695E+04  0.25500000920E-02 0. -1.
    10030    2    1    2    0    0  0.00000000000E+00  0.00000000000E+00 -0.13877160765E+04  0.35418354624E+04  0.32586565535E+04 0.  0.
        2    1    3    3  502    0  0.13393351523E+04  0.73975535762E+00 -0.17023303651E+04  0.21660442907E+04  0.25500000920E-02 0. -1.
       -2    1    3    3    0  502 -0.13393351523E+04 -0.73975535762E+00  0.31461428864E+03  0.13757911717E+04  0.25500000920E-02 0.  1.
</event>
<event>
 5   0  0.1832626E-06  0.3381262E+04  0.7818609E-02  0.8142521E-01
       -2   -1    0    0    0  501  0.00000000000E+00  0.00000000000E+00  0.17904435912E+04  0.17904435912E+04  0.25500000920E-02 0. -1.
        2   -1    0    0  501    0  0.00000000000E+00  0.00000000000E+00 -0.15963826333E+04  0.15963826333E+04  0.25500000920E-02 0.  1.
    10030    2    1    2    0    0  0.00000000000E+00  0.00000000000E+00  0.19406095788E+03  0.33868262246E+04  0.33812619272E+04 0.  0.
        3    1    3    3  502    0 -0.15252147263E+03  0.55323144105E+03  0.16899006362E+04  0.17846826041E+04  0.10100000352E+00 0. -1.
       -3    1    3    3    0  502  0.15252147263E+03 -0.55323144105E+03 -0.14958396783E+04  0.16021436204E+04  0.10100000352E+00 0.  1.
</event>
<event>
 5   0  0.5985183E-07  0.3133685E+04  0.7818609E-02  0.8206554E-01
        1   -1    0    0  501    0  0.00000000000E+00  0.00000000000E+00  0.16976385376E+04  0.16976385376E+04  0.50400001928E-02 0.  1.
       -1   -1    0    0    0  501  0.00000000000E+00  0.00000000000E+00 -0.14461240718E+04  0.14461240719E+04  0.50400001928E-02 0. -1.
    10030    2    1    2    0    0  0.00000000000E+00  0.00000000000E+00  0.25151446575E+03  0.31437626095E+04  0.31336853413E+04 0.  0.
        2    1    3    3  502    0 -0.73812137631E+03  0.47787101265E+03  0.14267745957E+04  0.16759682628E+04  0.25500000920E-02 0.  1.
       -2    1    3    3    0  502  0.73812137631E+03 -0.47787101265E+03 -0.11752601300E+04  0.14677943466E+04  0.25500000920E-02 0. -1.
</event>
<event>
 5   0  0.6085351E-07  0.3178721E+04  0.7818609E-02  0.8194460E-01
       -1   -1    0    0    0  501  0.00000000000E+00  0.00000000000E+00  0.13805894127E+04  0.13805894127E+04  0.50400001928E-02 0.  1.
        1   -1    0    0  501    0  0.00000000000E+00  0.00000000000E+00 -0.18297014052E+04  0.18297014052E+04  0.50400001928E-02 0. -1.
    10030    2    1    2    0    0  0.00000000000E+00  0.00000000000E+00 -0.44911199245E+03  0.32102908179E+04  0.31787207417E+04 0.  0.
        1    1    3    3  502    0  0.15405353626E+04  0.23527676517E+03  0.90733660956E+02  0.15610371414E+04  0.50400001928E-02 0.  1.
       -1    1    3    3    0  502 -0.15405353626E+04 -0.23527676517E+03 -0.53984565341E+03  0.16492536764E+04  0.50400001928E-02 0. -1.
</event>
<event>
 5   0  0.1832626E-06  0.3305748E+04  0.7818609E-02  0.8161434E-01
       -2   -1    0    0    0  501  0.00000000000E+00  0.00000000000E+00  0.12276469841E+04  0.12276469841E+04  0.25500000920E-02 0. -1.
        2   -1    0    0  501    0  0.00000000000E+00  0.00000000000E+00 -0.22253896601E+04  0.22253896601E+04  0.25500000920E-02 0.  1.
    10030    2    1    2    0    0  0.00000000000E+00  0.00000000000E+00 -0.99774267602E+03  0.34530366442E+04  0.33057482691E+04 0.  0.
        3    1    3    3  502    0 -0.11002464407E+04 -0.10651472258E+04 -0.11486082448E+04  0.19142574940E+04  0.10100000352E+00 0.  1.
       -3    1    3    3    0  502  0.11002464407E+04  0.10651472258E+04  0.15086556882E+03  0.15387791502E+04  0.10100000352E+00 0. -1.
</event>
<event>
 5   0  0.1743810E-06  0.3292548E+04  0.7818609E-02  0.8164794E-01
       -2   -1    0    0    0  501  0.00000000000E+00  0.00000000000E+00  0.27114916963E+04  0.27114916963E+04  0.25500000920E-02 0.  1.
        2   -1    0    0  501    0  0.00000000000E+00  0.00000000000E+00 -0.99953000327E+03  0.99953000327E+03  0.25500000920E-02 0. -1.
    10030    2    1    2    0    0  0.00000000000E+00  0.00000000000E+00  0.17119616931E+04  0.37110216996E+04  0.32925475268E+04 0.  0.
        5    1    3    3  502    0 -0.75405250019E+03  0.13687683968E+04  0.14395442833E+04  0.21247192593E+04  0.46999998093E+01 0.  1.
       -5    1    3    3    0  502  0.75405250019E+03 -0.13687683968E+04  0.27241740976E+03  0.15863024403E+04  0.46999998093E+01 0. -1.
</event>
<event>
 5   0  0.5858859E-07  0.3225263E+04  0.7818609E-02  0.8182177E-01
        1   -1    0    0  501    0  0.00000000000E+00  0.00000000000E+00  0.22342507377E+04  0.22342507377E+04  0.50400001928E-02 0.  1.
       -1   -1    0    0    0  501  0.00000000000E+00  0.00000000000E+00 -0.11639609706E+04  0.11639609706E+04  0.50400001928E-02 0. -1.
    10030    2    1    2    0    0  0.00000000000E+00  0.00000000000E+00  0.10702897672E+04  0.33982117083E+04  0.32252631876E+04 0.  0.
        3    1    3    3  502    0 -0.13961985423E+04  0.50922794249E+03  0.11947307507E+04  0.19068468852E+04  0.10100000352E+00 0.  1.
       -3    1    3    3    0  502  0.13961985423E+04 -0.50922794249E+03 -0.12444098350E+03  0.14913648231E+04  0.10100000352E+00 0. -1.
</event>
<event>
 5   0  0.5988516E-07  0.3306477E+04  0.7818609E-02  0.8161249E-01
        1   -1    0    0  501    0  0.00000000000E+00  0.00000000000E+00  0.18320087689E+04  0.18320087689E+04  0.50400001928E-02 0.  1.
       -1   -1    0    0    0  501  0.00000000000E+00  0.00000000000E+00 -0.14919133053E+04  0.14919133053E+04  0.50400001928E-02 0. -1.
    10030    2    1    2    0    0  0.00000000000E+00  0.00000000000E+00  0.34009546364E+03  0.33239220742E+04  0.33064774354E+04 0.  0.
        4    1    3    3  502    0 -0.12900252061E+04  0.45434530754E+03  0.11037114641E+04  0.17574911948E+04  0.12699999809E+01 0.  1.
       -4    1    3    3    0  502  0.12900252061E+04 -0.45434530754E+03 -0.76361600049E+03  0.15664308794E+04  0.12699999809E+01 0. -1.
</event>
<event>
 5   0  0.5985183E-07  0.3273029E+04  0.7818609E-02  0.8169792E-01
        1   -1    0    0  501    0  0.00000000000E+00  0.00000000000E+00  0.19909706954E+04  0.19909706954E+04  0.50400001928E-02 0. -1.
       -1   -1    0    0    0  501  0.00000000000E+00  0.00000000000E+00 -0.13451626738E+04  0.13451626738E+04  0.50400001928E-02 0.  1.
    10030    2    1    2    0    0  0.00000000000E+00  0.00000000000E+00  0.64580802159E+03  0.33361333692E+04  0.32730288505E+04 0.  0.
        2    1    3    3  502    0 -0.77097532217E+03  0.11838460960E+04 -0.51902691559E+03  0.15050858665E+04  0.25500000920E-02 0.  1.
       -2    1    3    3    0  502  0.77097532217E+03 -0.11838460960E+04  0.11648349372E+04  0.18310475027E+04  0.25500000920E-02 0. -1.
</event>
<event>
 5   0  0.1696681E-06  0.3244443E+04  0.7818609E-02  0.8177177E-01
        2   -1    0    0  501    0  0.00000000000E+00  0.00000000000E+00  0.12984405525E+04  0.12984405525E+04  0.25500000920E-02 0. -1.
       -2   -1    0    0    0  501  0.00000000000E+00  0.00000000000E+00 -0.20267413382E+04  0.20267413382E+04  0.25500000920E-02 0.  1.
    10030    2    1    2    0    0  0.00000000000E+00  0.00000000000E+00 -0.72830078562E+03  0.33251818907E+04  0.32444433378E+04 0.  0.
        4    1    3    3  502    0 -0.26168989969E+03  0.31665238278E+03 -0.19725512618E+04  0.20148723107E+04  0.12699999809E+01 0.  1.
       -4    1    3    3    0  502  0.26168989969E+03 -0.31665238278E+03  0.12442504762E+04  0.13103095800E+04  0.12699999809E+01 0. -1.
</event>
<event>
 5   0  0.6023446E-07  0.3311059E+04  0.7818609E-02  0.8160087E-01
        1   -1    0    0  501    0  0.00000000000E+00  0.00000000000E+00  0.17824083767E+04  0.17824083767E+04  0.50400001928E-02 0. -1.
       -1   -1    0    0    0  501  0.00000000000E+00  0.00000000000E+00 -0.15376824987E+04  0.15376824988E+04  0.50400001928E-02 0.  1.
    10030    2    1    2    0    0  0.00000000000E+00  0.00000000000E+00  0.24472587800E+03  0.33200908755E+04  0.33110591457E+04 0.  0.
        5    1    3    3  502    0 -0.69650181723E+03 -0.15454743549E+03  0.16203443548E+04  0.17704625411E+04  0.46999998093E+01 0. -1.
       -5    1    3    3    0  502  0.69650181723E+03  0.15454743549E+03 -0.13756184768E+04  0.15496283344E+04  0.46999998093E+01 0.  1.
</event>
<event>
 5   0  0.1743810E-06  0.3294673E+04  0.7818609E-02  0.8164252E-01
        2   -1    0    0  501    0  0.00000000000E+00  0.00000000000E+00  0.21764033479E+04  0.21764033479E+04  0.25500000920E-02 0.  1.
       -2   -1    0    0    0  501  0.00000000000E+00  0.00000000000E+00 -0.12468816393E+04  0.12468816393E+04  0.25500000920E-02 0. -1.
    10030    2    1    2    0    0  0.00000000000E+00  0.00000000000E+00  0.92952170863E+03  0.34232849872E+04  0.32946728968E+04 0.  0.
        5    1    3    3  502    0 -0.56062677530E+03  0.13055366277E+04 -0.40142851414E+03  0.14764468190E+04  0.46999998093E+01 0. -1.
       -5    1    3    3    0  502  0.56062677530E+03 -0.13055366277E+04  0.13309502228E+04  0.19468381682E+04  0.46999998093E+01 0.  1.
</event>
<event>
 5   0  0.5985183E-07  0.3297547E+04  0.7818609E-02  0.8163520E-01
       -1   -1    0    0    0  501  0.00000000000E+00  0.00000000000E+00  0.14555309827E+04  0.14555309827E+04  0.50400001928E-02 0.  1.
        1   -1    0    0  501    0  0.00000000000E+00  0.00000000000E+00 -0.18676721007E+04  0.18676721007E+04  0.50400001928E-02 0. -1.
    10030    2    1    2    0    0  0.00000000000E+00  0.00000000000E+00 -0.41214111797E+03  0.33232030835E+04  0.32975473359E+04 0.  0.
        2    1    3    3  502    0 -0.39980358095E+03 -0.13730460428E+04 -0.10330377840E+04  0.17641613878E+04  0.25500000920E-02 0. -1.
       -2    1    3    3    0  502  0.39980358095E+03  0.13730460428E+04  0.62089666606E+03  0.15590416957E+04  0.25500000920E-02 0.  1.
</event>
<event>
 5   0  0.1728937E-06  0.3270964E+04  0.7818609E-02  0.8170323E-01
       -2   -1    0    0    0  501  0.00000000000E+00  0.00000000000E+00  0.15386211523E+04  0.15386211523E+04  0.25500000920E-02 0.  1.
        2   -1    0    0  501    0  0.00000000000E+00  0.00000000000E+00 -0.17384401533E+04  0.17384401533E+04  0.25500000920E-02 0. -1.
    10030    2    1    2    0    0  0.00000000000E+00  0.00000000000E+00 -0.19981900103E+03  0.32770613057E+04  0.32709636451E+04 0.  0.
        1    1    3    3  502    0  0.15036169153E+04 -0.60571554972E+03 -0.31721390250E+03  0.16517808012E+04  0.50400001928E-02 0. -1.
       -1    1    3    3    0  502 -0.15036169153E+04  0.60571554972E+03  0.11739490147E+03  0.16252805045E+04  0.50400001928E-02 0.  1.
</event>
<event>
 5   0  0.6023446E-07  0.3289603E+04  0.7818609E-02  0.8165546E-01
       -1   -1    0    0    0  501  0.00000000000E+00  0.00000000000E+00  0.12099504491E+04  0.12099504491E+04  0.50400001928E-02 0. -1.
        1   -1    0    0  501    0  0.00000000000E+00  0.00000000000E+00 -0.22359359767E+04  0.22359359767E+04  0.50400001928E-02 0.  1.
    10030    2    1    2    0    0  0.00000000000E+00  0.00000000000E+00 -0.10259855276E+04  0.34458864258E+04  0.32896028570E+04 0.  0.
        5    1    3    3  502    0 -0.15032353947E+04 -0.56929295761E+03 -0.87817905893E+03  0.18316745544E+04  0.46999998093E+01 0.  1.
       -5    1    3    3    0  502  0.15032353947E+04  0.56929295761E+03 -0.14780646865E+03  0.16142118714E+04  0.46999998093E+01 0. -1.
</event>
<event>
 5   0  0.5985183E-07  0.3351004E+04  0.7818609E-02  0.8150037E-01
       -1   -1    0    0    0  501  0.00000000000E+00  0.00000000000E+00  0.11466804136E+04  0.11466804136E+04  0.50400001928E-02 0.  1.
        1   -1    0    0  501    0  0.00000000000E+00  0.00000000000E+00 -0.24482034586E+04  0.24482034586E+04  0.50400001928E-02 0. -1.
    10030    2    1    2    0    0  0.00000000000E+00  0.00000000000E+00 -0.13015230450E+04  0.35948838721E+04  0.33510040014E+04 0.  0.
        2    1    3    3  502    0  0.22306605492E+03 -0.29180555874E+03  0.11029594218E+04  0.11625095419E+04  0.25500000920E-02 0.  1.
       -2    1    3    3    0  502 -0.22306605492E+03  0.29180555874E+03 -0.24044824668E+04  0.24323743302E+04  0.25500000920E-02 0. -1.
</event>
<event>
 5   0  0.1784626E-06  0.2968734E+04  0.7818609E-02  0.8252716E-01
       -2   -1    0    0    0  501  0.00000000000E+00  0.00000000000E+00  0.15066337311E+04  0.15066337311E+04  0.25500000920E-02 0. -1.
        2   -1    0    0  501    0  0.00000000000E+00  0.00000000000E+00 -0.14624296777E+04  0.14624296777E+04  0.25500000920E-02 0.  1.
    10030    2    1    2    0    0  0.00000000000E+00  0.00000000000E+00  0.44204053441E+02  0.29690634088E+04  0.29687343308E+04 0.  0.
        2    1    3    3  502    0  0.11628695210E+03 -0.80262845802E+03  0.12654657946E+04  0.15030431711E+04  0.25500000920E-02 0. -1.
       -2    1    3    3    0  502 -0.11628695210E+03  0.80262845802E+03 -0.12212617412E+04  0.14660202377E+04  0.25500000920E-02 0.  1.
</event>
<event>
 5   0  0.1784626E-06  0.3262856E+04  0.7818609E-02  0.8172412E-01
       -2   -1    0    0    0  501  0.00000000000E+00  0.00000000000E+00  0.16462619824E+04  0.16462619824E+04  0.25500000920E-02 0.  1.
        2   -1    0    0  501    0  0.00000000000E+00  0.00000000000E+00 -0.16167272734E+04  0.16167272734E+04  0.25500000920E-02 0. -1.
    10030    2    1    2    0    0  0.00000000000E+00  0.00000000000E+00  0.29534708996E+02  0.32629892557E+04  0.32628555873E+04 0.  0.
        2    1    3    3  502    0 -0.76469420855E+03 -0.16561551575E+03  0.14463884041E+04  0.16444528413E+04  0.25500000920E-02 0.  1.
       -2    1    3    3    0  502  0.76469420855E+03  0.16561551575E+03 -0.14168536951E+04  0.16185364145E+04  0.25500000920E-02 0. -1.
</event>
<event>
 5   0  0.1696681E-06  0.3287947E+04  0.7818609E-02  0.8165969E-01
       -2   -1    0    0    0  501  0.00000000000E+00  0.00000000000E+00  0.19041256069E+04  0.19041256069E+04  0.25500000920E-02 0. -1.
        2   -1    0    0  501    0  0.00000000000E+00  0.00000000000E+00 -0.14193644320E+04  0.14193644320E+04  0.25500000920E-02 0.  1.
    10030    2    1    2    0    0  0.00000000000E+00  0.00000000000E+00  0.48476117491E+03  0.33234900388E+04  0.32879465691E+04 0.  0.
        4    1    3    3  502    0  0.38756217479E+03  0.15727312015E+04  0.52641408326E+03  0.17031738817E+04  0.12699999809E+01 0.  1.
       -4    1    3    3    0  502 -0.38756217479E+03 -0.15727312015E+04 -0.41652908350E+02  0.16203161571E+04  0.12699999809E+01 0. -1.
</event>
<event>
 5   0  0.1784626E-06  0.3302718E+04  0.7818609E-02  0.8162204E-01
        2   -1    0    0  501    0  0.00000000000E+00  0.00000000000E+00  0.16736066426E+04  0.16736066426E+04  0.25500000920E-02 0.  1.
       -2   -1    0    0    0  501  0.00000000000E+00  0.00000000000E+00 -0.16294074735E+04  0.16294074735E+04  0.25500000920E-02 0. -1.
    10030    2    1    2    0    0  0.00000000000E+00  0.00000000000E+00  0.44199169023E+02  0.33030141161E+04  0.33027183780E+04 0.  0.
        2    1    3    3  502    0  0.11154491924E+04 -0.11915071296E+04  0.27326153661E+03  0.16548679730E+04  0.25500000920E-02 0. -1.
       -2    1    3    3    0  502 -0.11154491924E+04  0.11915071296E+04 -0.22906236758E+03  0.16481461431E+04  0.25500000920E-02 0.  1.
</event>
<event>
 5   0  0.1784626E-06  0.3251946E+04  0.7818609E-02  0.8175231E-01
       -2   -1    0    0    0  501  0.00000000000E+00  0.00000000000E+00  0.11894298992E+04  0.11894298992E+04  0.25500000920E-02 0. -1.
        2   -1    0    0  501    0  0.00000000000E+00  0.00000000000E+00 -0.22227361460E+04  0.22227361460E+04  0.25500000920E-02 0.  1.
    10030    2    1    2    0    0  0.00000000000E+00  0.00000000000E+00 -0.10333062468E+04  0.34121660452E+04  0.32519463895E+04 0.  0.
        2    1    3    3  502    0  0.52783742121E+03 -0.15026761041E+04 -0.17320222728E+03  0.16020757874E+04  0.25500000920E-02 0. -1.
       -2    1    3    3    0  502 -0.52783742121E+03  0.15026761041E+04 -0.86010401951E+03  0.18100902578E+04  0.25500000920E-02 0.  1.
</event>
<event>
 5   0  0.1832626E-06  0.3298589E+04  0.7818609E-02  0.8163254E-01
       -2   -1    0    0    0  501  0.00000000000E+00  0.00000000000E+00  0.10297469009E+04  0.10297469009E+04  0.25500000920E-02 0.  1.
        2   -1    0    0  501    0  0.00000000000E+00  0.00000000000E+00 -0.26415932252E+04  0.26415932252E+04  0.25500000920E-02 0. -1.
    10030    2    1    2    0    0  0.00000000000E+00  0.00000000000E+00 -0.16118463243E+04  0.36713401261E+04  0.32985890543E+04 0.  0.
        3    1    3    3  502    0 -0.13055328269E+04  0.79293364239E+03 -0.14983262848E+04  0.21396591760E+04  0.10100000352E+00 0. -1.
       -3    1    3    3    0  502  0.13055328269E+04 -0.79293364239E+03 -0.11352003942E+03  0.15316809501E+04  0.10100000352E+00 0.  1.
</event>
<event>
 5   0  0.5988516E-07  0.3324189E+04  0.7818609E-02  0.8156768E-01
       -1   -1    0    0    0  501  0.00000000000E+00  0.00000000000E+00  0.18301902183E+04  0.18301902183E+04  0.50400001928E-02 0. -1.
        1   -1    0    0  501    0  0.00000000000E+00  0.00000000000E+00 -0.15094374829E+04  0.15094374829E+04  0.50400001928E-02 0.  1.
    10030    2    1    2    0    0  0.00000000000E+00  0.00000000000E+00  0.32075273545E+03  0.33396277012E+04  0.33241887530E+04 0.  0.
        4    1    3    3  502    0  0.33124094594E+03 -0.14644388223E+04  0.87660715363E+03  0.17386038489E+04  0.12699999809E+01 0. -1.
       -4    1    3    3    0  502 -0.33124094594E+03  0.14644388223E+04 -0.55585441818E+03  0.16010238523E+04  0.12699999809E+01 0.  1.
</event>
<event>
 5   0  0.6085351E-07  0.3359484E+04  0.7818609E-02  0.8147923E-01
       -1   -1    0    0    0  501  0.00000000000E+00  0.00000000000E+00  0.12636846369E+04  0.12636846369E+04  0.50400001928E-02 0. -1.
        1   -1    0    0  501    0  0.00000000000E+00  0.00000000000E+00 -0.22327824314E+04  0.22327824314E+04  0.50400001928E-02 0.  1.
    10030    2    1    2    0    0  0.00000000000E+00  0.00000000000E+00 -0.96909779450E+03  0.34964670683E+04  0.33594838032E+04 0.  0.
        1    1    3    3  502    0  0.11491540254E+04  0.38125494560E+03 -0.16963358789E+04  0.20840982994E+04  0.50400001928E-02 0.  1.
       -1    1    3    3    0  502 -0.11491540254E+04 -0.38125494560E+03  0.72723808439E+03  0.14123687688E+04  0.50400001928E-02 0. -1.
</event>
<event>
 5   0  0.5858859E-07  0.3278011E+04  0.7818609E-02  0.8168513E-01
        1   -1    0    0  501    0  0.00000000000E+00  0.00000000000E+00  0.18996925985E+04  0.18996925985E+04  0.50400001928E-02 0.  1.
       -1   -1    0    0    0  501  0.00000000000E+00  0.00000000000E+00 -0.14140915940E+04  0.14140915940E+04  0.50400001928E-02 0. -1.
    10030    2    1    2    0    0  0.00000000000E+00  0.00000000000E+00  0.48560100444E+03  0.33137841925E+04  0.32780111865E+04 0.  0.
        3    1    3    3  502    0  0.10581835946E+04 -0.65663496365E+03 -0.83438760468E+03  0.14990412538E+04  0.10100000352E+00 0. -1.
       -3    1    3    3    0  502 -0.10581835946E+04  0.65663496365E+03  0.13199886091E+04  0.18147429388E+04  0.10100000352E+00 0.  1.
</event>
<event>
 5   0  0.5985183E-07  0.3283292E+04  0.7818609E-02  0.8167160E-01
        1   -1    0    0  501    0  0.00000000000E+00  0.00000000000E+00  0.16556757846E+04  0.16556757846E+04  0.50400001928E-02 0. -1.
       -1   -1    0    0    0  501  0.00000000000E+00  0.00000000000E+00 -0.16277350931E+04  0.16277350931E+04  0.50400001928E-02 0.  1.
    10030    2    1    2    0    0  0.00000000000E+00  0.00000000000E+00  0.27940691444E+02  0.32834108777E+04  0.32832919928E+04 0.  0.
        2    1    3    3  502    0  0.33650156449E+03 -0.15322709274E+04 -0.46969381418E+03  0.16375896241E+04  0.25500000920E-02 0.  1.
       -2    1    3    3    0  502 -0.33650156449E+03  0.15322709274E+04  0.49763450562E+03  0.16458212537E+04  0.25500000920E-02 0. -1.
</event>
<event>
 5   0  0.5858859E-07  0.3381688E+04  0.7818609E-02  0.8142415E-01
       -1   -1    0    0    0  501  0.00000000000E+00  0.00000000000E+00  0.24044802488E+04  0.24044802488E+04  0.50400001928E-02 0. -1.
        1   -1    0    0  501    0  0.00000000000E+00  0.00000000000E+00 -0.11890111534E+04  0.11890111534E+04  0.50400001928E-02 0.  1.
    10030    2    1    2    0    0  0.00000000000E+00  0.00000000000E+00  0.12154690955E+04  0.35934914022E+04  0.33816882375E+04 0.  0.
        3    1    3    3  502    0  0.13638805005E+04  0.23016007340E+03 -0.42570488100E+03  0.14471932611E+04  0.10100000352E+00 0.  1.
       -3    1    3    3    0  502 -0.13638805005E+04 -0.23016007340E+03  0.16411739765E+04  0.21462981411E+04  0.10100000352E+00 0. -1.
</event>
<event>
 5   0  0.1696681E-06  0.3284137E+04  0.7818609E-02  0.8166944E-01
       -2   -1    0    0    0  501  0.00000000000E+00  0.00000000000E+00  0.22946996501E+04  0.22946996501E+04  0.25500000920E-02 0.  1.
        2   -1    0    0  501    0  0.00000000000E+00  0.00000000000E+00 -0.11750507539E+04  0.11750507539E+04  0.25500000920E-02 0. -1.
    10030    2    1    2    0    0  0.00000000000E+00  0.00000000000E+00  0.11196488962E+04  0.34697504040E+04  0.32841367534E+04 0.  0.
        4    1    3    3  502    0 -0.53761193025E+03  0.11862291872E+04 -0.49681036235E+03  0.13939111955E+04  0.12699999809E+01 0. -1.
       -4    1    3    3    0  502  0.53761193025E+03 -0.11862291872E+04  0.16164592585E+04  0.20758392085E+04  0.12699999809E+01 0.  1.
</event>
<event>
 5   0  0.1696681E-06  0.3267247E+04  0.7818609E-02  0.8171280E-01
       -2   -1    0    0    0  501  0.00000000000E+00  0.00000000000E+00  0.13934771232E+04  0.13934771232E+04  0.25500000920E-02 0. -1.
        2   -1    0    0  501    0  0.00000000000E+00  0.00000000000E+00 -0.19151562446E+04  0.19151562446E+04  0.25500000920E-02 0.  1.
    10030    2    1    2    0    0  0.00000000000E+00  0.00000000000E+00 -0.52167912143E+03  0.33086333678E+04  0.32672474129E+04 0.  0.
        4    1    3    3  502    0  0.19388344167E+03  0.13544948212E+04 -0.11646002730E+04  0.17968145197E+04  0.12699999809E+01 0.  1.
       -4    1    3    3    0  502 -0.19388344167E+03 -0.13544948212E+04  0.64292115157E+03  0.15118188481E+04  0.12699999809E+01 0. -1.
</event>
<event>
 5   0  0.1784626E-06  0.3294935E+04  0.7818609E-02  0.8164185E-01
        2   -1    0    0  501    0  0.00000000000E+00  0.00000000000E+00  0.25180903834E+04  0.25180903834E+04  0.25500000920E-02 0.  1.
       -2   -1    0    0    0  501  0.00000000000E+00  0.00000000000E+00 -0.10778600554E+04  0.10778600554E+04  0.25500000920E-02 0. -1.
    10030    2    1    2    0    0  0.00000000000E+00  0.00000000000E+00  0.14402303279E+04  0.35959504388E+04  0.32949349251E+04 0.  0.
        2    1    3    3  502    0 -0.46486251655E+03 -0.15536613852E+04  0.40345573902E+03  0.16711485250E+04  0.25500000920E-02 0.  1.
       -2    1    3    3    0  502  0.46486251655E+03  0.15536613852E+04  0.10367745889E+04  0.19248019138E+04  0.25500000920E-02 0. -1.
</event>
<event>
 5   0  0.5685000E-07  0.3308605E+04  0.7818609E-02  0.8160709E-01
        3   -1    0    0  501    0  0.00000000000E+00  0.00000000000E+00  0.16757012412E+04  0.16757012443E+04  0.10100000352E+00 0. -1.
       -3   -1    0    0    0  501  0.00000000000E+00  0.00000000000E+00 -0.16331769368E+04  0.16331769399E+04  0.10100000352E+00 0.  1.
    10030    2    1    2    0    0  0.00000000000E+00  0.00000000000E+00  0.42524304460E+02  0.33088781842E+04  0.33086049207E+04 0.  0.
        1    1    3    3  502    0 -0.75020872990E+03  0.14742384221E+04 -0.16431591414E+01  0.16541447227E+04  0.50400001928E-02 0.  1.
       -1    1    3    3    0  502  0.75020872990E+03 -0.14742384221E+04  0.44167463602E+02  0.16547334615E+04  0.50400001928E-02 0. -1.
</event>
<event>
 5   0  0.5988516E-07  0.3319599E+04  0.7818609E-02  0.8157926E-01
        1   -1    0    0  501    0  0.00000000000E+00  0.00000000000E+00  0.13697707171E+04  0.13697707171E+04  0.50400001928E-02 0.  1.
       -1   -1    0    0    0  501  0.00000000000E+00  0.00000000000E+00 -0.20112372026E+04  0.20112372026E+04  0.50400001928E-02 0. -1.
    10030    2    1    2    0    0  0.00000000000E+00  0.00000000000E+00 -0.64146648550E+03  0.33810079198E+04  0.33195986658E+04 0.  0.
        4    1    3    3  502    0  0.14701285424E+04 -0.16059589263E+03 -0.10882404898E+04  0.18361203524E+04  0.12699999809E+01 0. -1.
       -4    1    3    3    0  502 -0.14701285424E+04  0.16059589263E+03  0.44677400432E+03  0.15448875674E+04  0.12699999809E+01 0.  1.
</event>
<event>
 5   0  0.5858859E-07  0.3154627E+04  0.7818609E-02  0.8200904E-01
       -1   -1    0    0    0  501  0.00000000000E+00  0.00000000000E+00  0.11039726592E+04  0.11039726592E+04  0.50400001928E-02 0. -1.
        1   -1    0    0  501    0  0.00000000000E+00  0.00000000000E+00 -0.22536044964E+04  0.22536044964E+04  0.50400001928E-02 0.  1.
    10030    2    1    2    0    0  0.00000000000E+00  0.00000000000E+00 -0.11496318372E+04  0.33575771556E+04  0.31546269185E+04 0.  0.
        3    1    3    3  502    0 -0.24688647966E+03  0.13512043453E+03 -0.22266636395E+04  0.22443799677E+04  0.10100000352E+00 0.  1.
       -3    1    3    3    0  502  0.24688647966E+03 -0.13512043453E+03  0.10770318024E+04  0.11131971879E+04  0.10100000352E+00 0. -1.
</event>
<event>
 5   0  0.5988516E-07  0.3291961E+04  0.7818609E-02  0.8164944E-01
        1   -1    0    0  501    0  0.00000000000E+00  0.00000000000E+00  0.19788333240E+04  0.19788333240E+04  0.50400001928E-02 0. -1.
       -1   -1    0    0    0  501  0.00000000000E+00  0.00000000000E+00 -0.13691158004E+04  0.13691158004E+04  0.50400001928E-02 0.  1.
    10030    2    1    2    0    0  0.00000000000E+00  0.00000000000E+00  0.60971752367E+03  0.33479491244E+04  0.32919610996E+04 0.  0.
        4    1    3    3  502    0  0.37038318584E+03  0.82025583397E+03 -0.10967115253E+04  0.14187251743E+04  0.12699999809E+01 0.  1.
       -4    1    3    3    0  502 -0.37038318584E+03 -0.82025583397E+03  0.17064290490E+04  0.19292239501E+04  0.12699999809E+01 0. -1.
</event>
<event>
 5   0  0.5988516E-07  0.3315020E+04  0.7818609E-02  0.8159084E-01
        1   -1    0    0  501    0  0.00000000000E+00  0.00000000000E+00  0.29664094166E+04  0.29664094166E+04  0.50400001928E-02 0.  1.
       -1   -1    0    0    0  501  0.00000000000E+00  0.00000000000E+00 -0.92614992540E+03  0.92614992541E+03  0.50400001928E-02 0. -1.
    10030    2    1    2    0    0  0.00000000000E+00  0.00000000000E+00  0.20402594912E+04  0.38925593421E+04  0.33150202774E+04 0.  0.
        4    1    3    3  502    0  0.16186701472E+04  0.15341321750E+03  0.13982748687E+04  0.21444819612E+04  0.12699999809E+01 0. -1.
       -4    1    3    3    0  502 -0.16186701472E+04 -0.15341321750E+03  0.64198462256E+03  0.17480773808E+04  0.12699999809E+01 0.  1.
</event>
<event>
 5   0  0.1728937E-06  0.3353696E+04  0.7818609E-02  0.8149365E-01
        2   -1    0    0  501    0  0.00000000000E+00  0.00000000000E+00  0.23049143902E+04  0.23049143902E+04  0.25500000920E-02 0.  1.
       -2   -1    0    0    0  501  0.00000000000E+00  0.00000000000E+00 -0.12199238362E+04  0.12199238362E+04  0.25500000920E-02 0. -1.
    10030    2    1    2    0    0  0.00000000000E+00  0.00000000000E+00  0.10849905540E+04  0.35248382264E+04  0.33536964711E+04 0.  0.
        1    1    3    3  502    0 -0.14813458993E+04  0.52093966187E+03  0.11607803381E+04  0.19527352094E+04  0.50400001928E-02 0.  1.
       -1    1    3    3    0  502  0.14813458993E+04 -0.52093966187E+03 -0.75789784069E+02  0.15721030170E+04  0.50400001928E-02 0. -1.
</event>
<event>
 5   0  0.1784626E-06  0.3317864E+04  0.7818609E-02  0.8158365E-01
        2   -1    0    0  501    0  0.00000000000E+00  0.00000000000E+00  0.18833403671E+04  0.18833403671E+04  0.25500000920E-02 0. -1.
       -2   -1    0    0    0  501  0.00000000000E+00  0.00000000000E+00 -0.14612628264E+04  0.14612628264E+04  0.25500000920E-02 0.  1.
    10030    2    1    2    0    0  0.00000000000E+00  0.00000000000E+00  0.42207754065E+03  0.33446031935E+04  0.33178639321E+04 0.  0.
        2    1    3    3  502    0 -0.13326044513E+04  0.76441953615E+03  0.84208978857E+03  0.17519380877E+04  0.25500000920E-02 0. -1.
       -2    1    3    3    0  502  0.13326044513E+04 -0.76441953615E+03 -0.42001224792E+03  0.15926651058E+04  0.25500000920E-02 0.  1.
</event>
<event>
 5   0  0.1832626E-06  0.3290168E+04  0.7818609E-02  0.8165402E-01
        2   -1    0    0  501    0  0.00000000000E+00  0.00000000000E+00  0.19485088786E+04  0.19485088786E+04  0.25500000920E-02 0.  1.
       -2   -1    0    0    0  501  0.00000000000E+00  0.00000000000E+00 -0.13889088513E+04  0.13889088513E+04  0.25500000920E-02 0. -1.
    10030    2    1    2    0    0  0.00000000000E+00  0.00000000000E+00  0.55960002732E+03  0.33374177299E+04  0.32901679156E+04 0.  0.
        3    1    3    3  502    0  0.69040969364E+03  0.12498858770E+04 -0.54889061745E+03  0.15297585335E+04  0.10100000352E+00 0. -1.
       -3    1    3    3    0  502 -0.69040969364E+03 -0.12498858770E+04  0.11084906448E+04  0.18076591964E+04  0.10100000352E+00 0.  1.
</event>
<event>
 5   0  0.1743810E-06  0.3317302E+04  0.7818609E-02  0.8158507E-01
       -2   -1    0    0    0  501  0.00000000000E+00  0.00000000000E+00  0.17561907784E+04  0.17561907784E+04  0.25500000920E-02 0. -1.
        2   -1    0    0  501    0  0.00000000000E+00  0.00000000000E+00 -0.15665288158E+04  0.15665288158E+04  0.25500000920E-02 0.  1.
    10030    2    1    2    0    0  0.00000000000E+00  0.00000000000E+00  0.18966196253E+03  0.33227195942E+04  0.33173021933E+04 0.  0.
        5    1    3    3  502    0  0.12630238417E+04  0.25539226361E+03  0.11408768985E+04  0.17210684532E+04  0.46999998093E+01 0. -1.
       -5    1    3    3    0  502 -0.12630238417E+04 -0.25539226361E+03 -0.95121493595E+03  0.16016511410E+04  0.46999998093E+01 0.  1.
</event>
<event>
 5   0  0.6023446E-07  0.3279468E+04  0.7818609E-02  0.8168139E-01
       -1   -1    0    0    0  501  0.00000000000E+00  0.00000000000E+00  0.24890336522E+04  0.24890336522E+04  0.50400001928E-02 0.  1.
        1   -1    0    0  501    0  0.00000000000E+00  0.00000000000E+00 -0.10802297963E+04  0.10802297963E+04  0.50400001928E-02 0. -1.
    10030    2    1    2    0    0  0.00000000000E+00  0.00000000000E+00  0.14088038559E+04  0.35692634485E+04  0.32794684417E+04 0.  0.
        5    1    3    3  502    0  0.99843751835E+03 -0.26862789144E+03  0.20895242334E+04  0.23313455415E+04  0.46999998093E+01 0.  1.
       -5    1    3    3    0  502 -0.99843751835E+03  0.26862789144E+03 -0.68072037748E+03  0.12379179070E+04  0.46999998093E+01 0. -1.
</event>
<event>
 5   0  0.5985183E-07  0.3315410E+04  0.7818609E-02  0.8158985E-01
       -1   -1    0    0    0  501  0.00000000000E+00  0.00000000000E+00  0.11670394619E+04  0.11670394619E+04  0.50400001928E-02 0. -1.
        1   -1    0    0  501    0  0.00000000000E+00  0.00000000000E+00 -0.23546639849E+04  0.23546639849E+04  0.50400001928E-02 0.  1.
    10030    2    1    2    0    0  0.00000000000E+00  0.00000000000E+00 -0.11876245230E+04  0.35217034469E+04  0.33154099535E+04 0.  0.
        2    1    3    3  502    0 -0.43264349303E+03  0.14532330601E+04 -0.13055165344E+04  0.20008598503E+04  0.25500000920E-02 0.  1.
       -2    1    3    3    0  502  0.43264349303E+03 -0.14532330601E+04  0.11789201132E+03  0.15208435966E+04  0.25500000920E-02 0. -1.
</event>
<event>
 5   0  0.6023446E-07  0.3289904E+04  0.7818609E-02  0.8165469E-01
       -1   -1    0    0    0  501  0.00000000000E+00  0.00000000000E+00  0.11263975892E+04  0.11263975892E+04  0.50400001928E-02 0. -1.
        1   -1    0    0  501    0  0.00000000000E+00  0.00000000000E+00 -0.24022303683E+04  0.24022303683E+04  0.50400001928E-02 0.  1.
    10030    2    1    2    0    0  0.00000000000E+00  0.00000000000E+00 -0.12758327791E+04  0.35286279575E+04  0.32899036433E+04 0.  0.
        5    1    3    3  502    0  0.22429229819E+03  0.15508168490E+04 -0.11747385476E+04  0.19584107535E+04  0.46999998093E+01 0.  1.
       -5    1    3    3    0  502 -0.22429229819E+03 -0.15508168490E+04 -0.10109423147E+03  0.15702172040E+04  0.46999998093E+01 0. -1.
</event>
<event>
 5   0  0.1784626E-06  0.3287316E+04  0.7818609E-02  0.8166130E-01
       -2   -1    0    0    0  501  0.00000000000E+00  0.00000000000E+00  0.11557645431E+04  0.11557645431E+04  0.25500000920E-02 0.  1.
        2   -1    0    0  501    0  0.00000000000E+00  0.00000000000E+00 -0.23375108098E+04  0.23375108098E+04  0.25500000920E-02 0. -1.
    10030    2    1    2    0    0  0.00000000000E+00  0.00000000000E+00 -0.11817462668E+04  0.34932753529E+04  0.32873162994E+04 0.  0.
        2    1    3    3  502    0 -0.60262033347E+03 -0.76185092033E+03  0.81811131447E+03  0.12699898480E+04  0.25500000920E-02 0.  1.
       -2    1    3    3    0  502  0.60262033347E+03  0.76185092033E+03 -0.19998575812E+04  0.22232855049E+04  0.25500000920E-02 0. -1.
</event>
<event>
 5   0  0.1728937E-06  0.3307836E+04  0.7818609E-02  0.8160904E-01
       -2   -1    0    0    0  501  0.00000000000E+00  0.00000000000E+00  0.12235058442E+04  0.12235058442E+04  0.25500000920E-02 0.  1.
        2   -1    0    0  501    0  0.00000000000E+00  0.00000000000E+00 -0.22357432481E+04  0.22357432481E+04  0.25500000920E-02 0. -1.
    10030    2    1    2    0    0  0.00000000000E+00  0.00000000000E+00 -0.10122374039E+04  0.34592490924E+04  0.33078361086E+04 0.  0.
        1    1    3    3  502    0 -0.99150193111E+03 -0.11714923691E+04  0.13851805726E+03  0.15409924407E+04  0.50400001928E-02 0. -1.
       -1    1    3    3    0  502  0.99150193111E+03  0.11714923691E+04 -0.11507554612E+04  0.19182566517E+04  0.50400001928E-02 0.  1.
</event>
<event>
 5   0  0.1728937E-06  0.3254827E+04  0.7818609E-02  0.8174486E-01
       -2   -1    0    0    0  501  0.00000000000E+00  0.00000000000E+00  0.95989985922E+03  0.95989985923E+03  0.25500000920E-02 0. -1.
        2   -1    0    0  501    0  0.00000000000E+00  0.00000000000E+00 -0.27591151724E+04  0.27591151724E+04  0.25500000920E-02 0.  1.
    10030    2    1    2    0    0  0.00000000000E+00  0.00000000000E+00 -0.17992153132E+04  0.37190150317E+04  0.32548267331E+04 0.  0.
        1    1    3    3  502    0  0.86454959785E+03 -0.23135256254E+03  0.65346860777E+03  0.11081476602E+04  0.50400001928E-02 0. -1.
       -1    1    3    3    0  502 -0.86454959785E+03  0.23135256254E+03 -0.24526839210E+04  0.26108673715E+04  0.50400001928E-02 0.  1.
</event>
<event>
 5   0  0.1832626E-06  0.3414177E+04  0.7818609E-02  0.8134436E-01
       -2   -1    0    0    0  501  0.00000000000E+00  0.00000000000E+00  0.13357923550E+04  0.13357923550E+04  0.25500000920E-02 0.  1.
        2   -1    0    0  501    0  0.00000000000E+00  0.00000000000E+00 -0.21815897544E+04  0.21815897544E+04  0.25500000920E-02 0. -1.
    10030    2    1    2    0    0  0.00000000000E+00  0.00000000000E+00 -0.84579739943E+03  0.35173821094E+04  0.34141768646E+04 0.  0.
        3    1    3    3  502    0 -0.14436333012E+04  0.61686627876E+02  0.51357190224E+03  0.15335052844E+04  0.10100000352E+00 0.  1.
       -3    1    3    3    0  502  0.14436333012E+04 -0.61686627876E+02 -0.13593693017E+04  0.19838768250E+04  0.10100000352E+00 0. -1.
</event>
<event>
 5   0  0.5988516E-07  0.3329647E+04  0.7818609E-02  0.8155392E-01
       -1   -1    0    0    0  501  0.00000000000E+00  0.00000000000E+00  0.13470756112E+04  0.13470756112E+04  0.50400001928E-02 0.  1.
        1   -1    0    0  501    0  0.00000000000E+00  0.00000000000E+00 -0.20575216321E+04  0.20575216321E+04  0.50400001928E-02 0. -1.
    10030    2    1    2    0    0  0.00000000000E+00  0.00000000000E+00 -0.71044602089E+03  0.34045972432E+04  0.33296469543E+04 0.  0.
        4    1    3    3  502    0 -0.70618341149E+03  0.40037308103E+03  0.11309881177E+04  0.13921671415E+04  0.12699999809E+01 0.  1.
       -4    1    3    3    0  502  0.70618341149E+03 -0.40037308103E+03 -0.18414341386E+04  0.20124301017E+04  0.12699999809E+01 0. -1.
</event>
<event>
 5   0  0.1832626E-06  0.3312263E+04  0.7818609E-02  0.8159782E-01
        2   -1    0    0  501    0  0.00000000000E+00  0.00000000000E+00  0.19200505495E+04  0.19200505495E+04  0.25500000920E-02 0.  1.
       -2   -1    0    0    0  501  0.00000000000E+00  0.00000000000E+00 -0.14284890163E+04  0.14284890163E+04  0.25500000920E-02 0. -1.
    10030    2    1    2    0    0  0.00000000000E+00  0.00000000000E+00  0.49156153320E+03  0.33485395657E+04  0.33122627436E+04 0.  0.
        3    1    3    3  502    0  0.76522583313E+03 -0.77346471555E+03 -0.10164743736E+04  0.14889722644E+04  0.10100000352E+00 0. -1.
       -3    1    3    3    0  502 -0.76522583313E+03  0.77346471555E+03  0.15080359068E+04  0.18595673013E+04  0.10100000352E+00 0.  1.
</event>
<event>
 5   0  0.5985183E-07  0.3254727E+04  0.7818609E-02  0.8174512E-01
        1   -1    0    0  501    0  0.00000000000E+00  0.00000000000E+00  0.89790719197E+03  0.89790719198E+03  0.50400001928E-02 0.  1.
       -1   -1    0    0    0  501  0.00000000000E+00  0.00000000000E+00 -0.29494270167E+04  0.29494270167E+04  0.50400001928E-02 0. -1.
    10030    2    1    2    0    0  0.00000000000E+00  0.00000000000E+00 -0.20515198247E+04  0.38473342087E+04  0.32547268583E+04 0.  0.
        2    1    3    3  502    0 -0.50989842683E+03 -0.84238329443E+03 -0.25573150981E+04  0.27403405868E+04  0.25500000920E-02 0. -1.
       -2    1    3    3    0  502  0.50989842683E+03  0.84238329443E+03  0.50579527338E+03  0.11069936219E+04  0.25500000920E-02 0.  1.
</event>
<event>
 5   0  0.1743810E-06  0.3462804E+04  0.7818609E-02  0.8122662E-01
        2   -1    0    0  501    0  0.00000000000E+00  0.00000000000E+00  0.15483597880E+04  0.15483597880E+04  0.25500000920E-02 0.  1.
       -2   -1    0    0    0  501  0.00000000000E+00  0.00000000000E+00 -0.19360830878E+04  0.19360830878E+04  0.25500000920E-02 0. -1.
    10030    2    1    2    0    0  0.00000000000E+00  0.00000000000E+00 -0.38772329981E+03  0.34844428758E+04  0.34628041812E+04 0.  0.
        5    1    3    3  502    0  0.11081172669E+04  0.10481409608E+04  0.63053059884E+03  0.16504891023E+04  0.46999998093E+01 0.  1.
       -5    1    3    3    0  502 -0.11081172669E+04 -0.10481409608E+04 -0.10182538987E+04  0.18339537734E+04  0.46999998093E+01 0. -1.
</event>
<event>
 5   0  0.1832626E-06  0.3316842E+04  0.7818609E-02  0.8158623E-01
        2   -1    0    0  501    0  0.00000000000E+00  0.00000000000E+00  0.19495363441E+04  0.19495363441E+04  0.25500000920E-02 0. -1.
       -2   -1    0    0    0  501  0.00000000000E+00  0.00000000000E+00 -0.14107769765E+04  0.14107769765E+04  0.25500000920E-02 0.  1.
    10030    2    1    2    0    0  0.00000000000E+00  0.00000000000E+00  0.53875936760E+03  0.33603133207E+04  0.33168424679E+04 0.  0.
        3    1    3    3  502    0 -0.13898586765E+04 -0.55734795408E+03 -0.45271490776E+03  0.15643831629E+04  0.10100000352E+00 0.  1.
       -3    1    3    3    0  502  0.13898586765E+04  0.55734795408E+03  0.99147427536E+03  0.17959301577E+04  0.10100000352E+00 0. -1.
</event>
<event>
 5   0  0.5985183E-07  0.3296534E+04  0.7818609E-02  0.8163778E-01
       -1   -1    0    0    0  501  0.00000000000E+00  0.00000000000E+00  0.10489566860E+04  0.10489566860E+04  0.50400001928E-02 0.  1.
        1   -1    0    0  501    0  0.00000000000E+00  0.00000000000E+00 -0.25899863750E+04  0.25899863750E+04  0.50400001928E-02 0. -1.
    10030    2    1    2    0    0  0.00000000000E+00  0.00000000000E+00 -0.15410296890E+04  0.36389430609E+04  0.32965336489E+04 0.  0.
        2    1    3    3  502    0 -0.49939504389E+03  0.19106656851E+03  0.95055960591E+03  0.10906261540E+04  0.25500000920E-02 0.  1.
       -2    1    3    3    0  502  0.49939504389E+03 -0.19106656851E+03 -0.24915892949E+04  0.25483169069E+04  0.25500000920E-02 0. -1.
</event>
<event>
 5   0  0.5985183E-07  0.3270522E+04  0.7818609E-02  0.8170437E-01
        1   -1    0    0  501    0  0.00000000000E+00  0.00000000000E+00  0.11389824094E+04  0.11389824095E+04  0.50400001928E-02 0. -1.
       -1   -1    0    0    0  501  0.00000000000E+00  0.00000000000E+00 -0.23477779231E+04  0.23477779231E+04  0.50400001928E-02 0.  1.
    10030    2    1    2    0    0  0.00000000000E+00  0.00000000000E+00 -0.12087955137E+04  0.34867603326E+04  0.32705215216E+04 0.  0.
        2    1    3    3  502    0  0.31717970754E+03 -0.13056476374E+04 -0.15980965275E+04  0.20878772069E+04  0.25500000920E-02 0.  1.
       -2    1    3    3    0  502 -0.31717970754E+03  0.13056476374E+04  0.38930101380E+03  0.13988831257E+04  0.25500000920E-02 0. -1.
</event>
<event>
 5   0  0.6023446E-07  0.3000351E+04  0.7818609E-02  0.8243631E-01
       -1   -1    0    0    0  501  0.00000000000E+00  0.00000000000E+00  0.19703314096E+04  0.19703314096E+04  0.50400001928E-02 0. -1.
        1   -1    0    0  501    0  0.00000000000E+00  0.00000000000E+00 -0.11422067864E+04  0.11422067864E+04  0.50400001928E-02 0.  1.
    10030    2    1    2    0    0  0.00000000000E+00  0.00000000000E+00  0.82812462320E+03  0.31125381960E+04  0.30003505845E+04 0.  0.
        5    1    3    3  502    0  0.61407058891E+03  0.13673758776E+04  0.47720135931E+03  0.15730679280E+04  0.46999998093E+01 0.  1.
       -5    1    3    3    0  502 -0.61407058891E+03 -0.13673758776E+04  0.35092326389E+03  0.15394702680E+04  0.46999998093E+01 0. -1.
</event>
<event>
 5   0  0.1784626E-06  0.3270563E+04  0.7818609E-02  0.8170426E-01
        2   -1    0    0  501    0  0.00000000000E+00  0.00000000000E+00  0.24063990303E+04  0.24063990303E+04  0.25500000920E-02 0. -1.
       -2   -1    0    0    0  501  0.00000000000E+00  0.00000000000E+00 -0.11112641842E+04  0.11112641842E+04  0.25500000920E-02 0.  1.
    10030    2    1    2    0    0  0.00000000000E+00  0.00000000000E+00  0.12951348461E+04  0.35176632145E+04  0.32705626765E+04 0.  0.
        2    1    3    3  502    0 -0.47505403838E+03 -0.40531647914E+03  0.22731073233E+04  0.23573236288E+04  0.25500000920E-02 0. -1.
       -2    1    3    3    0  502  0.47505403838E+03  0.40531647914E+03 -0.97797247729E+03  0.11603395856E+04  0.25500000920E-02 0.  1.
</event>
<event>
 5   0  0.1784626E-06  0.3264915E+04  0.7818609E-02  0.8171880E-01
        2   -1    0    0  501    0  0.00000000000E+00  0.00000000000E+00  0.16418140729E+04  0.16418140729E+04  0.25500000920E-02 0. -1.
       -2   -1    0    0    0  501  0.00000000000E+00  0.00000000000E+00 -0.16231546933E+04  0.16231546933E+04  0.25500000920E-02 0.  1.
    10030    2    1    2    0    0  0.00000000000E+00  0.00000000000E+00  0.18659379526E+02  0.32649687662E+04  0.32649154464E+04 0.  0.
        2    1    3    3  502    0  0.25256958198E+02 -0.49679831379E+03 -0.15455177948E+04  0.16235983902E+04  0.25500000920E-02 0.  1.
       -2    1    3    3    0  502 -0.25256958198E+02  0.49679831379E+03  0.15641771743E+04  0.16413703760E+04  0.25500000920E-02 0. -1.
</event>
<event>
 5   0  0.5858859E-07  0.3291103E+04  0.7818609E-02  0.8165163E-01
        1   -1    0    0  501    0  0.00000000000E+00  0.00000000000E+00  0.20045415822E+04  0.20045415822E+04  0.50400001928E-02 0. -1.
       -1   -1    0    0    0  501  0.00000000000E+00  0.00000000000E+00 -0.13508521674E+04  0.13508521674E+04  0.50400001928E-02 0.  1.
    10030    2    1    2    0    0  0.00000000000E+00  0.00000000000E+00  0.65368941485E+03  0.33553937496E+04  0.32911027580E+04 0.  0.
        3    1    3    3  502    0 -0.21926900294E+02  0.14171114186E+04  0.11793329547E+04  0.18437765022E+04  0.10100000352E+00 0. -1.
       -3    1    3    3    0  502  0.21926900294E+02 -0.14171114186E+04 -0.52564353989E+03  0.15116172475E+04  0.10100000352E+00 0.  1.
</event>
<event>
 5   0  0.1696681E-06  0.3284442E+04  0.7818609E-02  0.8166865E-01
        2   -1    0    0  501    0  0.00000000000E+00  0.00000000000E+00  0.22259484045E+04  0.22259484045E+04  0.25500000920E-02 0. -1.
       -2   -1    0    0    0  501  0.00000000000E+00  0.00000000000E+00 -0.12115688349E+04  0.12115688349E+04  0.25500000920E-02 0.  1.
    10030    2    1    2    0    0  0.00000000000E+00  0.00000000000E+00  0.10143795695E+04  0.34375172394E+04  0.32844419404E+04 0.  0.
        4    1    3    3  502    0 -0.52779220332E+03  0.45552780920E+03 -0.10489900469E+04  0.12595443328E+04  0.12699999809E+01 0.  1.
       -4    1    3    3    0  502  0.52779220332E+03 -0.45552780920E+03  0.20633696165E+04  0.21779729066E+04  0.12699999809E+01 0. -1.
</event>
<event>
 5   0  0.6085351E-07  0.2730254E+04  0.7818609E-02  0.8325255E-01
        1   -1    0    0  501    0  0.00000000000E+00  0.00000000000E+00  0.14117342114E+04  0.14117342114E+04  0.50400001928E-02 0.  1.
       -1   -1    0    0    0  501  0.00000000000E+00  0.00000000000E+00 -0.13200582987E+04  0.13200582987E+04  0.50400001928E-02 0. -1.
    10030    2    1    2    0    0  0.00000000000E+00  0.00000000000E+00  0.91675912723E+02  0.27317925102E+04  0.27302538061E+04 0.  0.
        1    1    3    3  502    0  0.69763969112E+03  0.79717926738E+03  0.90735488365E+03  0.13948078032E+04  0.50400001928E-02 0.  1.
       -1    1    3    3    0  502 -0.69763969112E+03 -0.79717926738E+03 -0.81567897093E+03  0.13369847069E+04  0.50400001928E-02 0. -1.
</event>
<event>
 5   0  0.1784626E-06  0.3343834E+04  0.7818609E-02  0.8151830E-01
       -2   -1    0    0    0  501  0.00000000000E+00  0.00000000000E+00  0.12117333399E+04  0.12117333400E+04  0.25500000920E-02 0. -1.
        2   -1    0    0  501    0  0.00000000000E+00  0.00000000000E+00 -0.23068662597E+04  0.23068662597E+04  0.25500000920E-02 0.  1.
    10030    2    1    2    0    0  0.00000000000E+00  0.00000000000E+00 -0.10951329198E+04  0.35185995997E+04  0.33438341811E+04 0.  0.
        2    1    3    3  502    0  0.19314821988E+03  0.96801618775E+03  0.87238517525E+03  0.13173524466E+04  0.25500000920E-02 0. -1.
       -2    1    3    3    0  502 -0.19314821988E+03 -0.96801618775E+03 -0.19675180950E+04  0.22012471531E+04  0.25500000920E-02 0.  1.
</event>
<event>
 5   0  0.6023446E-07  0.3285990E+04  0.7818609E-02  0.8166469E-01
        1   -1    0    0  501    0  0.00000000000E+00  0.00000000000E+00  0.27750527747E+04  0.27750527747E+04  0.50400001928E-02 0. -1.
       -1   -1    0    0    0  501  0.00000000000E+00  0.00000000000E+00 -0.97275017138E+03  0.97275017139E+03  0.50400001928E-02 0.  1.
    10030    2    1    2    0    0  0.00000000000E+00  0.00000000000E+00  0.18023026033E+04  0.37478029461E+04  0.32859902995E+04 0.  0.
        5    1    3    3  502    0  0.44569153177E+03  0.12446311566E+04 -0.21148220719E+03  0.13388407192E+04  0.46999998093E+01 0.  1.
       -5    1    3    3    0  502 -0.44569153177E+03 -0.12446311566E+04  0.20137848105E+04  0.24089622268E+04  0.46999998093E+01 0. -1.
</event>
<event>
 5   0  0.1728937E-06  0.3312942E+04  0.7818609E-02  0.8159610E-01
       -2   -1    0    0    0  501  0.00000000000E+00  0.00000000000E+00  0.21551715779E+04  0.21551715779E+04  0.25500000920E-02 0.  1.
        2   -1    0    0  501    0  0.00000000000E+00  0.00000000000E+00 -0.12731681571E+04  0.12731681572E+04  0.25500000920E-02 0. -1.
    10030    2    1    2    0    0  0.00000000000E+00  0.00000000000E+00  0.88200342079E+03  0.34283397351E+04  0.33129417902E+04 0.  0.
        1    1    3    3  502    0 -0.42650270409E+03 -0.10741764808E+04  0.16689847604E+04  0.20300910814E+04  0.50400001928E-02 0.  1.
       -1    1    3    3    0  502  0.42650270409E+03  0.10741764808E+04 -0.78698133957E+03  0.13982486537E+04  0.50400001928E-02 0. -1.
</event>
<event>
 5   0  0.1743810E-06  0.3321779E+04  0.7818609E-02  0.8157376E-01
        2   -1    0    0  501    0  0.00000000000E+00  0.00000000000E+00  0.24913542445E+04  0.24913542445E+04  0.25500000920E-02 0. -1.
       -2   -1    0    0    0  501  0.00000000000E+00  0.00000000000E+00 -0.11072505167E+04  0.11072505167E+04  0.25500000920E-02 0.  1.
    10030    2    1    2    0    0  0.00000000000E+00  0.00000000000E+00  0.13841037278E+04  0.35986047612E+04  0.33217786046E+04 0.  0.
        5    1    3    3  502    0 -0.10240945631E+04  0.17395633307E+03 -0.71190434522E+03  0.12593094801E+04  0.46999998093E+01 0.  1.
       -5    1    3    3    0  502  0.10240945631E+04 -0.17395633307E+03  0.20960080730E+04  0.23392952811E+04  0.46999998093E+01 0. -1.
</event>
<event>
 5   0  0.6085351E-07  0.3380969E+04  0.7818609E-02  0.8142593E-01
        1   -1    0    0  501    0  0.00000000000E+00  0.00000000000E+00  0.11614975741E+04  0.11614975741E+04  0.50400001928E-02 0. -1.
       -1   -1    0    0    0  501  0.00000000000E+00  0.00000000000E+00 -0.24603910245E+04  0.24603910245E+04  0.50400001928E-02 0.  1.
    10030    2    1    2    0    0  0.00000000000E+00  0.00000000000E+00 -0.12988934504E+04  0.36218885985E+04  0.33809692138E+04 0.  0.
        1    1    3    3  502    0  0.66231028689E+03 -0.77037300148E+03 -0.20968772386E+04  0.23300265302E+04  0.50400001928E-02 0.  1.
       -1    1    3    3    0  502 -0.66231028689E+03  0.77037300148E+03  0.79798378816E+03  0.12918620684E+04  0.50400001928E-02 0. -1.
</event>
<event>
 5   0  0.5988516E-07  0.3296921E+04  0.7818609E-02  0.8163679E-01
        1   -1    0    0  501    0  0.00000000000E+00  0.00000000000E+00  0.16661154546E+04  0.16661154546E+04  0.50400001928E-02 0. -1.
       -1   -1    0    0    0  501  0.00000000000E+00  0.00000000000E+00 -0.16309929331E+04  0.16309929331E+04  0.50400001928E-02 0.  1.
    10030    2    1    2    0    0  0.00000000000E+00  0.00000000000E+00  0.35122521509E+02  0.32971083878E+04  0.32969213107E+04 0.  0.
        4    1    3    3  502    0 -0.11699702137E+04  0.24523918944E+03 -0.11176015396E+04  0.16364618465E+04  0.12699999809E+01 0.  1.
       -4    1    3    3    0  502  0.11699702137E+04 -0.24523918944E+03  0.11527240611E+04  0.16606465412E+04  0.12699999809E+01 0. -1.
</event>
<event>
 5   0  0.5988516E-07  0.3289227E+04  0.7818609E-02  0.8165642E-01
       -1   -1    0    0    0  501  0.00000000000E+00  0.00000000000E+00  0.12494497991E+04  0.12494497992E+04  0.50400001928E-02 0.  1.
        1   -1    0    0  501    0  0.00000000000E+00  0.00000000000E+00 -0.21647560502E+04  0.21647560502E+04  0.50400001928E-02 0. -1.
    10030    2    1    2    0    0  0.00000000000E+00  0.00000000000E+00 -0.91530625107E+03  0.34142058494E+04  0.32892272723E+04 0.  0.
        4    1    3    3  502    0 -0.69052419053E+03  0.79396958539E+03 -0.17696168629E+04  0.20588241339E+04  0.12699999809E+01 0. -1.
       -4    1    3    3    0  502  0.69052419053E+03 -0.79396958539E+03  0.85431061180E+03  0.13553817154E+04  0.12699999809E+01 0.  1.
</event>
<event>
 5   0  0.1784626E-06  0.3344714E+04  0.7818609E-02  0.8151610E-01
        2   -1    0    0  501    0  0.00000000000E+00  0.00000000000E+00  0.14393121456E+04  0.14393121456E+04  0.25500000920E-02 0.  1.
       -2   -1    0    0    0  501  0.00000000000E+00  0.00000000000E+00 -0.19431351800E+04  0.19431351800E+04  0.25500000920E-02 0. -1.
    10030    2    1    2    0    0  0.00000000000E+00  0.00000000000E+00 -0.50382303441E+03  0.33824473256E+04  0.33447140776E+04 0.  0.
        2    1    3    3  502    0  0.97842779778E+03  0.22599770563E+02 -0.16232876121E+04  0.18954931751E+04  0.25500000920E-02 0. -1.
       -2    1    3    3    0  502 -0.97842779778E+03 -0.22599770563E+02  0.11194645777E+04  0.14869541506E+04  0.25500000920E-02 0.  1.
</event>
<event>
 5   0  0.1784626E-06  0.3290645E+04  0.7818609E-02  0.8165280E-01
        2   -1    0    0  501    0  0.00000000000E+00  0.00000000000E+00  0.23139985686E+04  0.23139985686E+04  0.25500000920E-02 0. -1.
       -2   -1    0    0    0  501  0.00000000000E+00  0.00000000000E+00 -0.11698735068E+04  0.11698735068E+04  0.25500000920E-02 0.  1.
    10030    2    1    2    0    0  0.00000000000E+00  0.00000000000E+00  0.11441250618E+04  0.34838720754E+04  0.32906446908E+04 0.  0.
        2    1    3    3  502    0 -0.11179692049E+04 -0.64608870329E+03 -0.50752059145E+03  0.13873942865E+04  0.25500000920E-02 0.  1.
       -2    1    3    3    0  502  0.11179692049E+04  0.64608870329E+03  0.16516456532E+04  0.20964777889E+04  0.25500000920E-02 0. -1.
</event>
<event>
 5   0  0.1696681E-06  0.3262807E+04  0.7818609E-02  0.8172424E-01
        2   -1    0    0  501    0  0.00000000000E+00  0.00000000000E+00  0.15243015370E+04  0.15243015370E+04  0.25500000920E-02 0. -1.
       -2   -1    0    0    0  501  0.00000000000E+00  0.00000000000E+00 -0.17460305858E+04  0.17460305858E+04  0.25500000920E-02 0.  1.
    10030    2    1    2    0    0  0.00000000000E+00  0.00000000000E+00 -0.22172904879E+03  0.32703321227E+04  0.32628068318E+04 0.  0.
        4    1    3    3  502    0 -0.60202302921E+03  0.14096460240E+04  0.44894118099E+03  0.15972111437E+04  0.12699999809E+01 0. -1.
       -4    1    3    3    0  502  0.60202302921E+03 -0.14096460240E+04 -0.67067022978E+03  0.16731209791E+04  0.12699999809E+01 0.  1.
</event>
<event>
 5   0  0.1743810E-06  0.3319252E+04  0.7818609E-02  0.8158014E-01
       -2   -1    0    0    0  501  0.00000000000E+00  0.00000000000E+00  0.16006619610E+04  0.16006619610E+04  0.25500000920E-02 0.  1.
        2   -1    0    0  501    0  0.00000000000E+00  0.00000000000E+00 -0.17207617526E+04  0.17207617526E+04  0.25500000920E-02 0. -1.
    10030    2    1    2    0    0  0.00000000000E+00  0.00000000000E+00 -0.12009979155E+03  0.33214237137E+04  0.33192516515E+04 0.  0.
        5    1    3    3  502    0 -0.14446556921E+04  0.49592670317E+03  0.58949923486E+03  0.16372247254E+04  0.46999998093E+01 0.  1.
       -5    1    3    3    0  502  0.14446556921E+04 -0.49592670317E+03 -0.70959902642E+03  0.16841989882E+04  0.46999998093E+01 0. -1.
</event>
<event>
 5   0  0.1784626E-06  0.2688919E+04  0.7818609E-02  0.8338609E-01
       -2   -1    0    0    0  501  0.00000000000E+00  0.00000000000E+00  0.22957391659E+04  0.22957391659E+04  0.25500000920E-02 0.  1.
        2   -1    0    0  501    0  0.00000000000E+00  0.00000000000E+00 -0.78735925400E+03  0.78735925400E+03  0.25500000920E-02 0. -1.
    10030    2    1    2    0    0  0.00000000000E+00  0.00000000000E+00  0.15083799119E+04  0.30830984199E+04  0.26889190966E+04 0.  0.
        2    1    3    3  502    0  0.85052367321E+03  0.16301811578E+02  0.19479232541E+04  0.21255731631E+04  0.25500000920E-02 0.  1.
       -2    1    3    3    0  502 -0.85052367321E+03 -0.16301811578E+02 -0.43954334221E+03  0.95752525682E+03  0.25500000920E-02 0. -1.
</event>
<event>
 5   0  0.1728937E-06  0.3037686E+04  0.7818609E-02  0.8233051E-01
       -2   -1    0    0    0  501  0.00000000000E+00  0.00000000000E+00  0.13743688132E+04  0.13743688132E+04  0.25500000920E-02 0.  1.
        2   -1    0    0  501    0  0.00000000000E+00  0.00000000000E+00 -0.16785039221E+04  0.16785039222E+04  0.25500000920E-02 0. -1.
    10030    2    1    2    0    0  0.00000000000E+00  0.00000000000E+00 -0.30413510891E+03  0.30528727354E+04  0.30376855950E+04 0.  0.
        1    1    3    3  502    0 -0.12716094135E+04  0.42617765733E+03  0.56442422953E+03  0.14550575958E+04  0.50400001928E-02 0.  1.
       -1    1    3    3    0  502  0.12716094135E+04 -0.42617765733E+03 -0.86855933843E+03  0.15978151396E+04  0.50400001928E-02 0. -1.
</event>
<event>
 5   0  0.1696681E-06  0.3318388E+04  0.7818609E-02  0.8158232E-01
        2   -1    0    0  501    0  0.00000000000E+00  0.00000000000E+00  0.17591672939E+04  0.17591672939E+04  0.25500000920E-02 0.  1.
       -2   -1    0    0    0  501  0.00000000000E+00  0.00000000000E+00 -0.15649025715E+04  0.15649025715E+04  0.25500000920E-02 0. -1.
    10030    2    1    2    0    0  0.00000000000E+00  0.00000000000E+00  0.19426472243E+03  0.33240698655E+04  0.33183884173E+04 0.  0.
        4    1    3    3  502    0 -0.89652878217E+03  0.94223275127E+03  0.11291182274E+04  0.17223460742E+04  0.12699999809E+01 0.  1.
       -4    1    3    3    0  502  0.89652878217E+03 -0.94223275127E+03 -0.93485350500E+03  0.16017237913E+04  0.12699999809E+01 0. -1.
</event>
<event>
 5   0  0.1696681E-06  0.3267851E+04  0.7818609E-02  0.8171124E-01
       -2   -1    0    0    0  501  0.00000000000E+00  0.00000000000E+00  0.13336627254E+04  0.13336627254E+04  0.25500000920E-02 0. -1.
        2   -1    0    0  501    0  0.00000000000E+00  0.00000000000E+00 -0.20017904513E+04  0.20017904513E+04  0.25500000920E-02 0.  1.
    10030    2    1    2    0    0  0.00000000000E+00  0.00000000000E+00 -0.66812772589E+03  0.33354531767E+04  0.32678514709E+04 0.  0.
        4    1    3    3  502    0 -0.10044842383E+03 -0.14597291556E+04  0.40817456912E+03  0.15190481182E+04  0.12699999809E+01 0. -1.
       -4    1    3    3    0  502  0.10044842383E+03  0.14597291556E+04 -0.10763022950E+04  0.18164050585E+04  0.12699999809E+01 0.  1.
</event>
<event>
 5   0  0.1743810E-06  0.3308712E+04  0.7818609E-02  0.8160682E-01
        2   -1    0    0  501    0  0.00000000000E+00  0.00000000000E+00  0.17859925717E+04  0.17859925717E+04  0.25500000920E-02 0.  1.
       -2   -1    0    0    0  501  0.00000000000E+00  0.00000000000E+00 -0.15324219801E+04  0.15324219801E+04  0.25500000920E-02 0. -1.
    10030    2    1    2    0    0  0.00000000000E+00  0.00000000000E+00  0.25357059159E+03  0.33184145519E+04  0.33087123013E+04 0.  0.
        5    1    3    3  502    0  0.12225213893E+04 -0.35639144693E+03  0.11859591343E+04  0.17401421117E+04  0.46999998093E+01 0.  1.
       -5    1    3    3    0  502 -0.12225213893E+04  0.35639144693E+03 -0.93238854267E+03  0.15782724401E+04  0.46999998093E+01 0. -1.
</event>
<event>
 5   0  0.5988516E-07  0.3246548E+04  0.7818609E-02  0.8176631E-01
        1   -1    0    0  501    0  0.00000000000E+00  0.00000000000E+00  0.91061571239E+03  0.91061571240E+03  0.50400001928E-02 0. -1.
       -1   -1    0    0    0  501  0.00000000000E+00  0.00000000000E+00 -0.28936676383E+04  0.28936676383E+04  0.50400001928E-02 0.  1.
    10030    2    1    2    0    0  0.00000000000E+00  0.00000000000E+00 -0.19830519259E+04  0.38042833507E+04  0.32465484551E+04 0.  0.
        4    1    3    3  502    0  0.49045310234E+03 -0.34806173911E+03  0.77525155278E+03  0.98117674392E+03  0.12699999809E+01 0. -1.
       -4    1    3    3    0  502 -0.49045310234E+03  0.34806173911E+03 -0.27583034786E+04  0.28231066067E+04  0.12699999809E+01 0.  1.
</event>
<event>
 5   0  0.1743810E-06  0.3290909E+04  0.7818609E-02  0.8165212E-01
        2   -1    0    0  501    0  0.00000000000E+00  0.00000000000E+00  0.18327005272E+04  0.18327005272E+04  0.25500000920E-02 0. -1.
       -2   -1    0    0    0  501  0.00000000000E+00  0.00000000000E+00 -0.14773393709E+04  0.14773393709E+04  0.25500000920E-02 0.  1.
    10030    2    1    2    0    0  0.00000000000E+00  0.00000000000E+00  0.35536115636E+03  0.33100398981E+04  0.32909090804E+04 0.  0.
        5    1    3    3  502    0  0.73599075344E+03 -0.88599791345E+03 -0.10042350804E+04  0.15281311719E+04  0.46999998093E+01 0.  1.
       -5    1    3    3    0  502 -0.73599075344E+03  0.88599791345E+03  0.13595962367E+04  0.17819087262E+04  0.46999998093E+01 0. -1.
</event>
<event>
 5   0  0.1832626E-06  0.3487410E+04  0.7818609E-02  0.8116780E-01
        2   -1    0    0  501    0  0.00000000000E+00  0.00000000000E+00  0.95018780498E+03  0.95018780498E+03  0.25500000920E-02 0.  1.
       -2   -1    0    0    0  501  0.00000000000E+00  0.00000000000E+00 -0.31999003333E+04  0.31999003333E+04  0.25500000920E-02 0. -1.
    10030    2    1    2    0    0  0.00000000000E+00  0.00000000000E+00 -0.22497125283E+04  0.41500881383E+04  0.34874095107E+04 0.  0.
        3    1    3    3  502    0  0.14895879707E+03 -0.16755139341E+04 -0.57826166205E+03  0.17787417538E+04  0.10100000352E+00 0.  1.
       -3    1    3    3    0  502 -0.14895879707E+03  0.16755139341E+04 -0.16714508663E+04  0.23713463845E+04  0.10100000352E+00 0. -1.
</event>
<event>
 5   0  0.5685000E-07  0.2722058E+04  0.7818609E-02  0.8327883E-01
        4   -1    0    0  501    0  0.00000000000E+00  0.00000000000E+00  0.13586678147E+04  0.13586684082E+04  0.12699999809E+01 0. -1.
       -4   -1    0    0    0  501  0.00000000000E+00  0.00000000000E+00 -0.13633929657E+04  0.13633935572E+04  0.12699999809E+01 0.  1.
    10030    2    1    2    0    0  0.00000000000E+00  0.00000000000E+00 -0.47251509760E+01  0.27220619654E+04  0.27220578643E+04 0.  0.
        4    1    3    3  502    0 -0.10652415930E+04 -0.60254080175E+03  0.59312389839E+03  0.13599972944E+04  0.12699999809E+01 0. -1.
       -4    1    3    3    0  502  0.10652415930E+04  0.60254080175E+03 -0.59784904936E+03  0.13620646710E+04  0.12699999809E+01 0.  1.
</event>
<event>
 5   0  0.6085351E-07  0.3321659E+04  0.7818609E-02  0.8157406E-01
       -1   -1    0    0    0  501  0.00000000000E+00  0.00000000000E+00  0.21166793192E+04  0.21166793192E+04  0.50400001928E-02 0.  1.
        1   -1    0    0  501    0  0.00000000000E+00  0.00000000000E+00 -0.13031518899E+04  0.13031518899E+04  0.50400001928E-02 0. -1.
    10030    2    1    2    0    0  0.00000000000E+00  0.00000000000E+00  0.81352742925E+03  0.34198312091E+04  0.33216590163E+04 0.  0.
        1    1    3    3  502    0  0.13384760388E+04  0.92833180427E+03  0.73091555679E+02  0.16305399169E+04  0.50400001928E-02 0. -1.
       -1    1    3    3    0  502 -0.13384760388E+04 -0.92833180427E+03  0.74043587357E+03  0.17892912921E+04  0.50400001928E-02 0.  1.
</event>
<event>
 5   0  0.6023446E-07  0.3309908E+04  0.7818609E-02  0.8160379E-01
        1   -1    0    0  501    0  0.00000000000E+00  0.00000000000E+00  0.23788001229E+04  0.23788001229E+04  0.50400001928E-02 0. -1.
       -1   -1    0    0    0  501  0.00000000000E+00  0.00000000000E+00 -0.11513672588E+04  0.11513672588E+04  0.50400001928E-02 0.  1.
    10030    2    1    2    0    0  0.00000000000E+00  0.00000000000E+00  0.12274328641E+04  0.35301673817E+04  0.33099079001E+04 0.  0.
        5    1    3    3  502    0 -0.18994993142E+03  0.13533682625E+04 -0.38175617241E+03  0.14189596525E+04  0.46999998093E+01 0.  1.
       -5    1    3    3    0  502  0.18994993142E+03 -0.13533682625E+04  0.16091890366E+04  0.21112077292E+04  0.46999998093E+01 0. -1.
</event>
<event>
 5   0  0.6023446E-07  0.2954013E+04  0.7818609E-02  0.8256986E-01
        1   -1    0    0  501    0  0.00000000000E+00  0.00000000000E+00  0.15567947140E+04  0.15567947140E+04  0.50400001928E-02 0.  1.
       -1   -1    0    0    0  501  0.00000000000E+00  0.00000000000E+00 -0.14013071467E+04  0.14013071467E+04  0.50400001928E-02 0. -1.
    10030    2    1    2    0    0  0.00000000000E+00  0.00000000000E+00  0.15548756727E+03  0.29581018608E+04  0.29540125651E+04 0.  0.
        5    1    3    3  502    0 -0.30871797876E+03 -0.13950958637E+04  0.45232873075E+03  0.14987403478E+04  0.46999998093E+01 0.  1.
       -5    1    3    3    0  502  0.30871797876E+03  0.13950958637E+04 -0.29684116348E+03  0.14593615130E+04  0.46999998093E+01 0. -1.
</event>
<event>
 5   0  0.1728937E-06  0.3376720E+04  0.7818609E-02  0.8143644E-01
       -2   -1    0    0    0  501  0.00000000000E+00  0.00000000000E+00  0.11088721837E+04  0.11088721837E+04  0.25500000920E-02 0.  1.
        2   -1    0    0  501    0  0.00000000000E+00  0.00000000000E+00 -0.25706841991E+04  0.25706841991E+04  0.25500000920E-02 0. -1.
    10030    2    1    2    0    0  0.00000000000E+00  0.00000000000E+00 -0.14618120154E+04  0.36795563829E+04  0.33767204217E+04 0.  0.
        1    1    3    3  502    0 -0.31151641356E+03 -0.12238746710E+04 -0.19519586887E+04  0.23248772889E+04  0.50400001928E-02 0. -1.
       -1    1    3    3    0  502  0.31151641356E+03  0.12238746710E+04  0.49014667333E+03  0.13546790939E+04  0.50400001928E-02 0.  1.
</event>
<event>
 5   0  0.1728937E-06  0.3309777E+04  0.7818609E-02  0.8160412E-01
       -2   -1    0    0    0  501  0.00000000000E+00  0.00000000000E+00  0.10640663763E+04  0.10640663763E+04  0.25500000920E-02 0.  1.
        2   -1    0    0  501    0  0.00000000000E+00  0.00000000000E+00 -0.25737641272E+04  0.25737641272E+04  0.25500000920E-02 0. -1.
    10030    2    1    2    0    0  0.00000000000E+00  0.00000000000E+00 -0.15096977509E+04  0.36378305035E+04  0.33097769521E+04 0.  0.
        1    1    3    3  502    0  0.11849034061E+04  0.54515280851E+03  0.36466925182E+03  0.13543158161E+04  0.50400001928E-02 0.  1.
       -1    1    3    3    0  502 -0.11849034061E+04 -0.54515280851E+03 -0.18743670027E+04  0.22835146874E+04  0.50400001928E-02 0. -1.
</event>
<event>
 5   0  0.5988516E-07  0.3213707E+04  0.7818609E-02  0.8185207E-01
       -1   -1    0    0    0  501  0.00000000000E+00  0.00000000000E+00  0.84754129497E+03  0.84754129499E+03  0.50400001928E-02 0. -1.
        1   -1    0    0  501    0  0.00000000000E+00  0.00000000000E+00 -0.30464326222E+04  0.30464326222E+04  0.50400001928E-02 0.  1.
    10030    2    1    2    0    0  0.00000000000E+00  0.00000000000E+00 -0.21988913272E+04  0.38939739172E+04  0.32137065515E+04 0.  0.
        4    1    3    3  502    0 -0.22727930951E+03  0.12239473709E+04 -0.23305193797E+04  0.26421629857E+04  0.12699999809E+01 0.  1.
       -4    1    3    3    0  502  0.22727930951E+03 -0.12239473709E+04  0.13162805241E+03  0.12518109315E+04  0.12699999809E+01 0. -1.
</event>
<event>
 5   0  0.1784626E-06  0.3273997E+04  0.7818609E-02  0.8169544E-01
       -2   -1    0    0    0  501  0.00000000000E+00  0.00000000000E+00  0.12450703170E+04  0.12450703170E+04  0.25500000920E-02 0.  1.
        2   -1    0    0  501    0  0.00000000000E+00  0.00000000000E+00 -0.21522994012E+04  0.21522994012E+04  0.25500000920E-02 0. -1.
    10030    2    1    2    0    0  0.00000000000E+00  0.00000000000E+00 -0.90722908420E+03  0.33973697181E+04  0.32739970053E+04 0.  0.
        2    1    3    3  502    0 -0.37923336350E+03 -0.34388080673E+03  0.11598708333E+04  0.12678218736E+04  0.25500000920E-02 0.  1.
       -2    1    3    3    0  502  0.37923336350E+03  0.34388080673E+03 -0.20670999175E+04  0.21295478445E+04  0.25500000920E-02 0. -1.
</event>
<event>
 5   0  0.1743810E-06  0.3398499E+04  0.7818609E-02  0.8138275E-01
        2   -1    0    0  501    0  0.00000000000E+00  0.00000000000E+00  0.16786927239E+04  0.16786927239E+04  0.25500000920E-02 0.  1.
       -2   -1    0    0    0  501  0.00000000000E+00  0.00000000000E+00 -0.17200576811E+04  0.17200576811E+04  0.25500000920E-02 0. -1.
    10030    2    1    2    0    0  0.00000000000E+00  0.00000000000E+00 -0.41364957223E+02  0.33987504050E+04  0.33984986768E+04 0.  0.
        5    1    3    3  502    0  0.61283185635E+03 -0.14476611303E+03  0.15576948942E+04  0.16801653446E+04  0.46999998093E+01 0.  1.
       -5    1    3    3    0  502 -0.61283185635E+03  0.14476611303E+03 -0.15990598514E+04  0.17185850605E+04  0.46999998093E+01 0. -1.
</event>
<event>
 5   0  0.1743810E-06  0.2898836E+04  0.7818609E-02  0.8273224E-01
        2   -1    0    0  501    0  0.00000000000E+00  0.00000000000E+00  0.17551774256E+04  0.17551774256E+04  0.25500000920E-02 0.  1.
       -2   -1    0    0    0  501  0.00000000000E+00  0.00000000000E+00 -0.11969234784E+04  0.11969234784E+04  0.25500000920E-02 0. -1.
    10030    2    1    2    0    0  0.00000000000E+00  0.00000000000E+00  0.55825394727E+03  0.29521009040E+04  0.28988363662E+04 0.  0.
        5    1    3    3  502    0  0.18697304918E+03 -0.13562627871E+04 -0.20541309919E+03  0.13844220094E+04  0.46999998093E+01 0. -1.
       -5    1    3    3    0  502 -0.18697304918E+03  0.13562627871E+04  0.76366704646E+03  0.15676788946E+04  0.46999998093E+01 0.  1.
</event>
<event>
 5   0  0.6085351E-07  0.3332360E+04  0.7818609E-02  0.8154710E-01
        1   -1    0    0  501    0  0.00000000000E+00  0.00000000000E+00  0.29958841492E+04  0.29958841492E+04  0.50400001928E-02 0.  1.
       -1   -1    0    0    0  501  0.00000000000E+00  0.00000000000E+00 -0.92665680436E+03  0.92665680437E+03  0.50400001928E-02 0. -1.
    10030    2    1    2    0    0  0.00000000000E+00  0.00000000000E+00  0.20692273448E+04  0.39225409535E+04  0.33323603838E+04 0.  0.
        1    1    3    3  502    0 -0.10631721098E+04  0.91764081362E+03  0.20899183498E+04  0.25179670980E+04  0.50400001928E-02 0.  1.
       -1    1    3    3    0  502  0.10631721098E+04 -0.91764081362E+03 -0.20691005046E+02  0.14045738555E+04  0.50400001928E-02 0. -1.
</event>
<event>
 5   0  0.5988516E-07  0.3282219E+04  0.7818609E-02  0.8167435E-01
        1   -1    0    0  501    0  0.00000000000E+00  0.00000000000E+00  0.18205233217E+04  0.18205233217E+04  0.50400001928E-02 0.  1.
       -1   -1    0    0    0  501  0.00000000000E+00  0.00000000000E+00 -0.14793771887E+04  0.14793771887E+04  0.50400001928E-02 0. -1.
    10030    2    1    2    0    0  0.00000000000E+00  0.00000000000E+00  0.34114613299E+03  0.32999005104E+04  0.32822191722E+04 0.  0.
        4    1    3    3  502    0 -0.35518862163E+03  0.36474100158E+03 -0.13979737665E+04  0.14877927341E+04  0.12699999809E+01 0. -1.
       -4    1    3    3    0  502  0.35518862163E+03 -0.36474100158E+03  0.17391198994E+04  0.18121077762E+04  0.12699999809E+01 0.  1.
</event>
<event>
 5   0  0.1832626E-06  0.3275668E+04  0.7818609E-02  0.8169114E-01
       -2   -1    0    0    0  501  0.00000000000E+00  0.00000000000E+00  0.10027389996E+04  0.10027389996E+04  0.25500000920E-02 0.  1.
        2   -1    0    0  501    0  0.00000000000E+00  0.00000000000E+00 -0.26751733228E+04  0.26751733228E+04  0.25500000920E-02 0. -1.
    10030    2    1    2    0    0  0.00000000000E+00  0.00000000000E+00 -0.16724343232E+04  0.36779123224E+04  0.32756682502E+04 0.  0.
        3    1    3    3  502    0  0.10489489765E+04 -0.79663170584E+03  0.25675840467E+03  0.13419541418E+04  0.10100000352E+00 0.  1.
       -3    1    3    3    0  502 -0.10489489765E+04  0.79663170584E+03 -0.19291927278E+04  0.23359581806E+04  0.10100000352E+00 0. -1.
</event>
<event>
 5   0  0.1728937E-06  0.3283203E+04  0.7818609E-02  0.8167183E-01
        2   -1    0    0  501    0  0.00000000000E+00  0.00000000000E+00  0.28673760905E+04  0.28673760905E+04  0.25500000920E-02 0. -1.
       -2   -1    0    0    0  501  0.00000000000E+00  0.00000000000E+00 -0.93983334462E+03  0.93983334462E+03  0.25500000920E-02 0.  1.
    10030    2    1    2    0    0  0.00000000000E+00  0.00000000000E+00  0.19275427459E+04  0.38072094352E+04  0.32832031076E+04 0.  0.
        1    1    3    3  502    0  0.59377377338E+03 -0.30752998964E+03 -0.77474790823E+03  0.10234140461E+04  0.50400001928E-02 0.  1.
       -1    1    3    3    0  502 -0.59377377338E+03  0.30752998964E+03  0.27022906541E+04  0.27837953890E+04  0.50400001928E-02 0. -1.
</event>
<event>
 5   0  0.1743810E-06  0.3307936E+04  0.7818609E-02  0.8160879E-01
       -2   -1    0    0    0  501  0.00000000000E+00  0.00000000000E+00  0.23566994993E+04  0.23566994993E+04  0.25500000920E-02 0. -1.
        2   -1    0    0  501    0  0.00000000000E+00  0.00000000000E+00 -0.11607802918E+04  0.11607802918E+04  0.25500000920E-02 0.  1.
    10030    2    1    2    0    0  0.00000000000E+00  0.00000000000E+00  0.11959192075E+04  0.35174797912E+04  0.33079361134E+04 0.  0.
        5    1    3    3  502    0  0.15218142609E+04 -0.30446842402E+03 -0.10073893968E+02  0.15520126414E+04  0.46999998093E+01 0. -1.
       -5    1    3    3    0  502 -0.15218142609E+04  0.30446842402E+03  0.12059931015E+04  0.19654671497E+04  0.46999998093E+01 0.  1.
</event>
<event>
 5   0  0.5685000E-07  0.3255548E+04  0.7818609E-02  0.8174299E-01
       -4   -1    0    0    0  501  0.00000000000E+00  0.00000000000E+00  0.14158570247E+04  0.14158575943E+04  0.12699999809E+01 0.  1.
        4   -1    0    0  501    0  0.00000000000E+00  0.00000000000E+00 -0.18714081898E+04  0.18714086208E+04  0.12699999809E+01 0. -1.
    10030    2    1    2    0    0  0.00000000000E+00  0.00000000000E+00 -0.45555116508E+03  0.32872662151E+04  0.32555479270E+04 0.  0.
        5    1    3    3  502    0 -0.15690266835E+04  0.48382751207E+02  0.20704782619E+03  0.15833750398E+04  0.46999998093E+01 0.  1.
       -5    1    3    3    0  502  0.15690266835E+04 -0.48382751207E+02 -0.66259899127E+03  0.17038911753E+04  0.46999998093E+01 0. -1.
</event>
<event>
 5   0  0.1832626E-06  0.3269289E+04  0.7818609E-02  0.8170754E-01
       -2   -1    0    0    0  501  0.00000000000E+00  0.00000000000E+00  0.19538526354E+04  0.19538526354E+04  0.25500000920E-02 0.  1.
        2   -1    0    0  501    0  0.00000000000E+00  0.00000000000E+00 -0.13675867134E+04  0.13675867134E+04  0.25500000920E-02 0. -1.
    10030    2    1    2    0    0  0.00000000000E+00  0.00000000000E+00  0.58626592200E+03  0.33214393487E+04  0.32692891606E+04 0.  0.
        3    1    3    3  502    0  0.13325908200E+04  0.84059196226E+03 -0.14932501816E+03  0.15826215946E+04  0.10100000352E+00 0. -1.
       -3    1    3    3    0  502 -0.13325908200E+04 -0.84059196226E+03  0.73559094016E+03  0.17388177541E+04  0.10100000352E+00 0.  1.
</event>
<event>
 5   0  0.1696681E-06  0.3304136E+04  0.7818609E-02  0.8161844E-01
       -2   -1    0    0    0  501  0.00000000000E+00  0.00000000000E+00  0.33998389890E+04  0.33998389890E+04  0.25500000920E-02 0.  1.
        2   -1    0    0  501    0  0.00000000000E+00  0.00000000000E+00 -0.80278183720E+03  0.80278183720E+03  0.25500000920E-02 0. -1.
    10030    2    1    2    0    0  0.00000000000E+00  0.00000000000E+00  0.25970571518E+04  0.42026208262E+04  0.33041361896E+04 0.  0.
        4    1    3    3  502    0  0.60687107330E+03  0.23907996350E+03  0.32291262818E+04  0.32943451376E+04  0.12699999809E+01 0.  1.
       -4    1    3    3    0  502 -0.60687107330E+03 -0.23907996350E+03 -0.63206913002E+03  0.90827568864E+03  0.12699999809E+01 0. -1.
</event>
<event>
 5   0  0.5685000E-07  0.3378629E+04  0.7818609E-02  0.8143171E-01
        3   -1    0    0  501    0  0.00000000000E+00  0.00000000000E+00  0.11233307776E+04  0.11233307821E+04  0.10100000352E+00 0.  1.
       -3   -1    0    0    0  501  0.00000000000E+00  0.00000000000E+00 -0.25404663274E+04  0.25404663294E+04  0.10100000352E+00 0. -1.
    10030    2    1    2    0    0  0.00000000000E+00  0.00000000000E+00 -0.14171355498E+04  0.36637971116E+04  0.33786293239E+04 0.  0.
        1    1    3    3  502    0  0.39963373783E+03  0.15764830824E+04 -0.12040558749E+04  0.20235504894E+04  0.50400001928E-02 0. -1.
       -1    1    3    3    0  502 -0.39963373783E+03 -0.15764830824E+04 -0.21307967493E+03  0.16402466221E+04  0.50400001928E-02 0.  1.
</event>
<event>
 5   0  0.1832626E-06  0.3269861E+04  0.7818609E-02  0.8170607E-01
        2   -1    0    0  501    0  0.00000000000E+00  0.00000000000E+00  0.16218927198E+04  0.16218927198E+04  0.25500000920E-02 0.  1.
       -2   -1    0    0    0  501  0.00000000000E+00  0.00000000000E+00 -0.16480731308E+04  0.16480731308E+04  0.25500000920E-02 0. -1.
    10030    2    1    2    0    0  0.00000000000E+00  0.00000000000E+00 -0.26180410969E+02  0.32699658506E+04  0.32698610444E+04 0.  0.
        3    1    3    3  502    0 -0.14761973116E+04 -0.69624162735E+03 -0.10841847188E+03  0.16357461544E+04  0.10100000352E+00 0. -1.
       -3    1    3    3    0  502  0.14761973116E+04  0.69624162735E+03  0.82238060909E+02  0.16342196962E+04  0.10100000352E+00 0.  1.
</event>
<event>
 5   0  0.1696681E-06  0.3283420E+04  0.7818609E-02  0.8167127E-01
       -2   -1    0    0    0  501  0.00000000000E+00  0.00000000000E+00  0.12382229680E+04  0.12382229680E+04  0.25500000920E-02 0.  1.
        2   -1    0    0  501    0  0.00000000000E+00  0.00000000000E+00 -0.21766776654E+04  0.21766776654E+04  0.25500000920E-02 0. -1.
    10030    2    1    2    0    0  0.00000000000E+00  0.00000000000E+00 -0.93845469735E+03  0.34149006334E+04  0.32834203382E+04 0.  0.
        4    1    3    3  502    0  0.58081136126E+03  0.15279697433E+04 -0.62756454046E+03  0.17509632318E+04  0.12699999809E+01 0.  1.
       -4    1    3    3    0  502 -0.58081136126E+03 -0.15279697433E+04 -0.31089015689E+03  0.16639374016E+04  0.12699999809E+01 0. -1.
</event>
<event>
 5   0  0.1728937E-06  0.3348631E+04  0.7818609E-02  0.8150630E-01
       -2   -1    0    0    0  501  0.00000000000E+00  0.00000000000E+00  0.25879518008E+04  0.25879518008E+04  0.25500000920E-02 0.  1.
        2   -1    0    0  501    0  0.00000000000E+00  0.00000000000E+00 -0.10832246416E+04  0.10832246417E+04  0.25500000920E-02 0. -1.
    10030    2    1    2    0    0  0.00000000000E+00  0.00000000000E+00  0.15047271591E+04  0.36711764424E+04  0.33486314590E+04 0.  0.
        1    1    3    3  502    0 -0.13422011557E+04  0.71983955494E+03 -0.10080674995E+02  0.15230806109E+04  0.50400001928E-02 0.  1.
       -1    1    3    3    0  502  0.13422011557E+04 -0.71983955494E+03  0.15148078341E+04  0.21480958316E+04  0.50400001928E-02 0. -1.
</event>
<event>
 5   0  0.5988516E-07  0.3288143E+04  0.7818609E-02  0.8165919E-01
       -1   -1    0    0    0  501  0.00000000000E+00  0.00000000000E+00  0.13523951932E+04  0.13523951932E+04  0.50400001928E-02 0. -1.
        1   -1    0    0  501    0  0.00000000000E+00  0.00000000000E+00 -0.19986546422E+04  0.19986546422E+04  0.50400001928E-02 0.  1.
    10030    2    1    2    0    0  0.00000000000E+00  0.00000000000E+00 -0.64625944900E+03  0.33510498354E+04  0.32881428989E+04 0.  0.
        4    1    3    3  502    0 -0.11312904831E+04 -0.97533597949E+02 -0.15348415986E+04  0.19092069835E+04  0.12699999809E+01 0.  1.
       -4    1    3    3    0  502  0.11312904831E+04  0.97533597949E+02  0.88858214964E+03  0.14418428519E+04  0.12699999809E+01 0. -1.
</event>
<event>
 5   0  0.1832626E-06  0.3343918E+04  0.7818609E-02  0.8151809E-01
       -2   -1    0    0    0  501  0.00000000000E+00  0.00000000000E+00  0.19509571108E+04  0.19509571108E+04  0.25500000920E-02 0.  1.
        2   -1    0    0  501    0  0.00000000000E+00  0.00000000000E+00 -0.14328595597E+04  0.14328595597E+04  0.25500000920E-02 0. -1.
    10030    2    1    2    0    0  0.00000000000E+00  0.00000000000E+00  0.51809755110E+03  0.33838166705E+04  0.33439183883E+04 0.  0.
        3    1    3    3  502    0  0.14825452074E+03  0.16650875009E+04  0.29026728332E+03  0.16966882137E+04  0.10100000352E+00 0. -1.
       -3    1    3    3    0  502 -0.14825452074E+03 -0.16650875009E+04  0.22783026779E+03  0.16871284568E+04  0.10100000352E+00 0.  1.
</event>
<event>
 5   0  0.1743810E-06  0.3288279E+04  0.7818609E-02  0.8165884E-01
       -2   -1    0    0    0  501  0.00000000000E+00  0.00000000000E+00  0.11607107856E+04  0.11607107856E+04  0.25500000920E-02 0. -1.
        2   -1    0    0  501    0  0.00000000000E+00  0.00000000000E+00 -0.23289126531E+04  0.23289126531E+04  0.25500000920E-02 0.  1.
    10030    2    1    2    0    0  0.00000000000E+00  0.00000000000E+00 -0.11682018675E+04  0.34896234387E+04  0.32882785984E+04 0.  0.
        5    1    3    3  502    0  0.15341575606E+04  0.10765502922E+03  0.32823022510E+02  0.15382875111E+04  0.46999998093E+01 0. -1.
       -5    1    3    3    0  502 -0.15341575606E+04 -0.10765502922E+03 -0.12010248900E+04  0.19513359276E+04  0.46999998093E+01 0.  1.
</event>
<event>
 5   0  0.5858859E-07  0.3253716E+04  0.7818609E-02  0.8174773E-01
        1   -1    0    0  501    0  0.00000000000E+00  0.00000000000E+00  0.10089585230E+04  0.10089585230E+04  0.50400001928E-02 0. -1.
       -1   -1    0    0    0  501  0.00000000000E+00  0.00000000000E+00 -0.26231667672E+04  0.26231667672E+04  0.50400001928E-02 0.  1.
    10030    2    1    2    0    0  0.00000000000E+00  0.00000000000E+00 -0.16142082442E+04  0.36321252903E+04  0.32537157019E+04 0.  0.
        3    1    3    3  502    0  0.18627921614E+03  0.15349618372E+04 -0.24245158200E+03  0.15651167904E+04  0.10100000352E+00 0. -1.
       -3    1    3    3    0  502 -0.18627921614E+03 -0.15349618372E+04 -0.13717566622E+04  0.20670084998E+04  0.10100000352E+00 0.  1.
</event>
<event>
 5   0  0.5988516E-07  0.3045905E+04  0.7818609E-02  0.8230743E-01
        1   -1    0    0  501    0  0.00000000000E+00  0.00000000000E+00  0.22978458789E+04  0.22978458789E+04  0.50400001928E-02 0.  1.
       -1   -1    0    0    0  501  0.00000000000E+00  0.00000000000E+00 -0.10093732214E+04  0.10093732214E+04  0.50400001928E-02 0. -1.
    10030    2    1    2    0    0  0.00000000000E+00  0.00000000000E+00  0.12884726575E+04  0.33072191003E+04  0.30459048554E+04 0.  0.
        4    1    3    3  502    0  0.14261919719E+04 -0.44128505827E+03  0.97110560099E+03  0.17809558514E+04  0.12699999809E+01 0. -1.
       -4    1    3    3    0  502 -0.14261919719E+04  0.44128505827E+03  0.31736705647E+03  0.15262632489E+04  0.12699999809E+01 0.  1.
</event>
<event>
 5   0  0.1696681E-06  0.3275934E+04  0.7818609E-02  0.8169046E-01
        2   -1    0    0  501    0  0.00000000000E+00  0.00000000000E+00  0.23653618829E+04  0.23653618829E+04  0.25500000920E-02 0. -1.
       -2   -1    0    0    0  501  0.00000000000E+00  0.00000000000E+00 -0.11342602141E+04  0.11342602141E+04  0.25500000920E-02 0.  1.
    10030    2    1    2    0    0  0.00000000000E+00  0.00000000000E+00  0.12311016688E+04  0.34996220970E+04  0.32759339894E+04 0.  0.
        4    1    3    3  502    0  0.12054392026E+04  0.10089956664E+04  0.12393396748E+03  0.15768694198E+04  0.12699999809E+01 0.  1.
       -4    1    3    3    0  502 -0.12054392026E+04 -0.10089956664E+04  0.11071677013E+04  0.19227526772E+04  0.12699999809E+01 0. -1.
</event>
<event>
 5   0  0.5858859E-07  0.3139820E+04  0.7818609E-02  0.8204894E-01
       -1   -1    0    0    0  501  0.00000000000E+00  0.00000000000E+00  0.12484428499E+04  0.12484428499E+04  0.50400001928E-02 0. -1.
        1   -1    0    0  501    0  0.00000000000E+00  0.00000000000E+00 -0.19741531752E+04  0.19741531752E+04  0.50400001928E-02 0.  1.
    10030    2    1    2    0    0  0.00000000000E+00  0.00000000000E+00 -0.72571032530E+03  0.32225960252E+04  0.31398200052E+04 0.  0.
        3    1    3    3  502    0 -0.76267476430E+03 -0.10410447344E+04  0.55467601215E+03  0.14046752022E+04  0.10100000352E+00 0. -1.
       -3    1    3    3    0  502  0.76267476430E+03  0.10410447344E+04 -0.12803863374E+04  0.18179208229E+04  0.10100000352E+00 0.  1.
</event>
<event>
 5   0  0.1743810E-06  0.3371887E+04  0.7818609E-02  0.8144841E-01
       -2   -1    0    0    0  501  0.00000000000E+00  0.00000000000E+00  0.15982788075E+04  0.15982788075E+04  0.25500000920E-02 0.  1.
        2   -1    0    0  501    0  0.00000000000E+00  0.00000000000E+00 -0.17784162651E+04  0.17784162651E+04  0.25500000920E-02 0. -1.
    10030    2    1    2    0    0  0.00000000000E+00  0.00000000000E+00 -0.18013745755E+03  0.33766950726E+04  0.33718867285E+04 0.  0.
        5    1    3    3  502    0  0.64840735123E+03  0.92025650276E+02  0.14656852142E+04  0.16053523135E+04  0.46999998093E+01 0.  1.
       -5    1    3    3    0  502 -0.64840735123E+03 -0.92025650276E+02 -0.16458226717E+04  0.17713427591E+04  0.46999998093E+01 0. -1.
</event>
<event>
 5   0  0.1784626E-06  0.3344432E+04  0.7818609E-02  0.8151681E-01
        2   -1    0    0  501    0  0.00000000000E+00  0.00000000000E+00  0.19284014509E+04  0.19284014509E+04  0.25500000920E-02 0.  1.
       -2   -1    0    0    0  501  0.00000000000E+00  0.00000000000E+00 -0.14500647635E+04  0.14500647635E+04  0.25500000920E-02 0. -1.
    10030    2    1    2    0    0  0.00000000000E+00  0.00000000000E+00  0.47833668743E+03  0.33784662144E+04  0.33444323846E+04 0.  0.
        2    1    3    3  502    0  0.43681380049E+03  0.14879194312E+04 -0.39297641402E+03  0.15997315375E+04  0.25500000920E-02 0.  1.
       -2    1    3    3    0  502 -0.43681380049E+03 -0.14879194312E+04  0.87131310145E+03  0.17787346769E+04  0.25500000920E-02 0. -1.
</event>
<event>
 5   0  0.1743810E-06  0.3309168E+04  0.7818609E-02  0.8160566E-01
        2   -1    0    0  501    0  0.00000000000E+00  0.00000000000E+00  0.29033220506E+04  0.29033220506E+04  0.25500000920E-02 0. -1.
       -2   -1    0    0    0  501  0.00000000000E+00  0.00000000000E+00 -0.94293649984E+03  0.94293649985E+03  0.25500000920E-02 0.  1.
    10030    2    1    2    0    0  0.00000000000E+00  0.00000000000E+00  0.19603855507E+04  0.38462585504E+04  0.33091680721E+04 0.  0.
        5    1    3    3  502    0 -0.16015734935E+04  0.67695837895E+01  0.49739193249E+03  0.16770522672E+04  0.46999998093E+01 0.  1.
       -5    1    3    3    0  502  0.16015734935E+04 -0.67695837895E+01  0.14629936182E+04  0.21692062833E+04  0.46999998093E+01 0. -1.
</event>
<event>
 5   0  0.6023446E-07  0.3312610E+04  0.7818609E-02  0.8159694E-01
       -1   -1    0    0    0  501  0.00000000000E+00  0.00000000000E+00  0.18624448071E+04  0.18624448072E+04  0.50400001928E-02 0. -1.
        1   -1    0    0  501    0  0.00000000000E+00  0.00000000000E+00 -0.14729810442E+04  0.14729810442E+04  0.50400001928E-02 0.  1.
    10030    2    1    2    0    0  0.00000000000E+00  0.00000000000E+00  0.38946376297E+03  0.33354258513E+04  0.33126097849E+04 0.  0.
        5    1    3    3  502    0  0.51866413805E+03  0.12792413042E+04  0.11163795434E+04  0.17753298785E+04  0.46999998093E+01 0. -1.
       -5    1    3    3    0  502 -0.51866413805E+03 -0.12792413042E+04 -0.72691578043E+03  0.15600959728E+04  0.46999998093E+01 0.  1.
</event>
<event>
 5   0  0.5988516E-07  0.3272519E+04  0.7818609E-02  0.8169923E-01
       -1   -1    0    0    0  501  0.00000000000E+00  0.00000000000E+00  0.16000501623E+04  0.16000501624E+04  0.50400001928E-02 0.  1.
        1   -1    0    0  501    0  0.00000000000E+00  0.00000000000E+00 -0.16732883398E+04  0.16732883398E+04  0.50400001928E-02 0. -1.
    10030    2    1    2    0    0  0.00000000000E+00  0.00000000000E+00 -0.73238177408E+02  0.32733385021E+04  0.32725190784E+04 0.  0.
        4    1    3    3  502    0  0.77207475143E+03 -0.14417526949E+04  0.14319213587E+02  0.16355295497E+04  0.12699999809E+01 0.  1.
       -4    1    3    3    0  502 -0.77207475143E+03  0.14417526949E+04 -0.87557390996E+02  0.16378089524E+04  0.12699999809E+01 0. -1.
</event>
<event>
 5   0  0.1832626E-06  0.3310784E+04  0.7818609E-02  0.8160157E-01
        2   -1    0    0  501    0  0.00000000000E+00  0.00000000000E+00  0.17860684482E+04  0.17860684482E+04  0.25500000920E-02 0.  1.
       -2   -1    0    0    0  501  0.00000000000E+00  0.00000000000E+00 -0.15342765282E+04  0.15342765282E+04  0.25500000920E-02 0. -1.
    10030    2    1    2    0    0  0.00000000000E+00  0.00000000000E+00  0.25179191997E+03  0.33203449764E+04  0.33107841355E+04 0.  0.
        3    1    3    3  502    0  0.28161060009E+02 -0.93649457037E+02 -0.15313771319E+04  0.15344963983E+04  0.10100000352E+00 0. -1.
       -3    1    3    3    0  502 -0.28161060009E+02  0.93649457037E+02  0.17831690519E+04  0.17858485781E+04  0.10100000352E+00 0.  1.
</event>
<event>
 5   0  0.5985183E-07  0.2982026E+04  0.7818609E-02  0.8248882E-01
       -1   -1    0    0    0  501  0.00000000000E+00  0.00000000000E+00  0.14501954350E+04  0.14501954350E+04  0.50400001928E-02 0.  1.
        1   -1    0    0  501    0  0.00000000000E+00  0.00000000000E+00 -0.15329797725E+04  0.15329797725E+04  0.50400001928E-02 0. -1.
    10030    2    1    2    0    0  0.00000000000E+00  0.00000000000E+00 -0.82784337468E+02  0.29831752075E+04  0.29820263366E+04 0.  0.
        2    1    3    3  502    0 -0.68229683281E+03 -0.13256520727E+04 -0.56821536292E+02  0.14920157750E+04  0.25500000920E-02 0. -1.
       -2    1    3    3    0  502  0.68229683281E+03  0.13256520727E+04 -0.25962801176E+02  0.14911594325E+04  0.25500000920E-02 0.  1.
</event>
<event>
 5   0  0.1696681E-06  0.3196920E+04  0.7818609E-02  0.8189631E-01
        2   -1    0    0  501    0  0.00000000000E+00  0.00000000000E+00  0.21609222877E+04  0.21609222877E+04  0.25500000920E-02 0. -1.
       -2   -1    0    0    0  501  0.00000000000E+00  0.00000000000E+00 -0.11824002266E+04  0.11824002266E+04  0.25500000920E-02 0.  1.
    10030    2    1    2    0    0  0.00000000000E+00  0.00000000000E+00  0.97852206112E+03  0.33433225142E+04  0.31969203947E+04 0.  0.
        4    1    3    3  502    0  0.56352245410E+03  0.55695772490E+03 -0.96259208354E+03  0.12467335705E+04  0.12699999809E+01 0.  1.
       -4    1    3    3    0  502 -0.56352245410E+03 -0.55695772490E+03  0.19411141447E+04  0.20965889438E+04  0.12699999809E+01 0. -1.
</event>
<event>
 5   0  0.5988516E-07  0.3567133E+04  0.7818609E-02  0.8098062E-01
        1   -1    0    0  501    0  0.00000000000E+00  0.00000000000E+00  0.16002125569E+04  0.16002125569E+04  0.50400001928E-02 0. -1.
       -1   -1    0    0    0  501  0.00000000000E+00  0.00000000000E+00 -0.19879291707E+04  0.19879291707E+04  0.50400001928E-02 0.  1.
    10030    2    1    2    0    0  0.00000000000E+00  0.00000000000E+00 -0.38771661379E+03  0.35881417277E+04  0.35671328662E+04 0.  0.
        4    1    3    3  502    0 -0.54195229991E+03 -0.10115572291E+04 -0.15672373444E+04  0.19424713202E+04  0.12699999809E+01 0.  1.
       -4    1    3    3    0  502  0.54195229991E+03  0.10115572291E+04  0.11795207306E+04  0.16456704075E+04  0.12699999809E+01 0. -1.
</event>
<event>
 5   0  0.6085351E-07  0.3322090E+04  0.7818609E-02  0.8157297E-01
       -1   -1    0    0    0  501  0.00000000000E+00  0.00000000000E+00  0.10851355483E+04  0.10851355483E+04  0.50400001928E-02 0.  1.
        1   -1    0    0  501    0  0.00000000000E+00  0.00000000000E+00 -0.25426045892E+04  0.25426045892E+04  0.50400001928E-02 0. -1.
    10030    2    1    2    0    0  0.00000000000E+00  0.00000000000E+00 -0.14574690409E+04  0.36277401375E+04  0.33220900800E+04 0.  0.
        1    1    3    3  502    0 -0.56418390251E+03  0.62181402661E+03  0.83634744188E+03  0.11850878462E+04  0.50400001928E-02 0.  1.
       -1    1    3    3    0  502  0.56418390251E+03 -0.62181402661E+03 -0.22938164828E+04  0.24426522913E+04  0.50400001928E-02 0. -1.
</event>
<event>
 5   0  0.6023446E-07  0.3315652E+04  0.7818609E-02  0.8158924E-01
       -1   -1    0    0    0  501  0.00000000000E+00  0.00000000000E+00  0.12830879071E+04  0.12830879071E+04  0.50400001928E-02 0.  1.
        1   -1    0    0  501    0  0.00000000000E+00  0.00000000000E+00 -0.21420104752E+04  0.21420104752E+04  0.50400001928E-02 0. -1.
    10030    2    1    2    0    0  0.00000000000E+00  0.00000000000E+00 -0.85892256807E+03  0.34250983823E+04  0.33156524170E+04 0.  0.
        5    1    3    3  502    0  0.14925578217E+04 -0.70937806806E+03 -0.29312151433E+03  0.16783588433E+04  0.46999998093E+01 0.  1.
       -5    1    3    3    0  502 -0.14925578217E+04  0.70937806806E+03 -0.56580105373E+03  0.17467395390E+04  0.46999998093E+01 0. -1.
</event>
<event>
 5   0  0.5858859E-07  0.3290827E+04  0.7818609E-02  0.8165233E-01
        1   -1    0    0  501    0  0.00000000000E+00  0.00000000000E+00  0.17282300733E+04  0.17282300733E+04  0.50400001928E-02 0. -1.
       -1   -1    0    0    0  501  0.00000000000E+00  0.00000000000E+00 -0.15665659244E+04  0.15665659244E+04  0.50400001928E-02 0.  1.
    10030    2    1    2    0    0  0.00000000000E+00  0.00000000000E+00  0.16166414887E+03  0.32947959977E+04  0.32908274597E+04 0.  0.
        3    1    3    3  502    0  0.13603379126E+04 -0.92564157486E+03  0.88241710916E+02  0.16477615639E+04  0.10100000352E+00 0. -1.
       -3    1    3    3    0  502 -0.13603379126E+04  0.92564157486E+03  0.73422437952E+02  0.16470344338E+04  0.10100000352E+00 0.  1.
</event>
<event>
 5   0  0.1784626E-06  0.3283281E+04  0.7818609E-02  0.8167163E-01
        2   -1    0    0  501    0  0.00000000000E+00  0.00000000000E+00  0.17277577648E+04  0.17277577648E+04  0.25500000920E-02 0.  1.
       -2   -1    0    0    0  501  0.00000000000E+00  0.00000000000E+00 -0.15598155476E+04  0.15598155476E+04  0.25500000920E-02 0. -1.
    10030    2    1    2    0    0  0.00000000000E+00  0.00000000000E+00  0.16794221717E+03  0.32875733124E+04  0.32832809347E+04 0.  0.
        2    1    3    3  502    0  0.11590244178E+04  0.86120597082E+02  0.12448957844E+04  0.17030912695E+04  0.25500000920E-02 0.  1.
       -2    1    3    3    0  502 -0.11590244178E+04 -0.86120597082E+02 -0.10769535672E+04  0.15844820429E+04  0.25500000920E-02 0. -1.
</event>
<event>
 5   0  0.5988516E-07  0.3365267E+04  0.7818609E-02  0.8146484E-01
       -1   -1    0    0    0  501  0.00000000000E+00  0.00000000000E+00  0.21726182296E+04  0.21726182296E+04  0.50400001928E-02 0. -1.
        1   -1    0    0  501    0  0.00000000000E+00  0.00000000000E+00 -0.13031534343E+04  0.13031534343E+04  0.50400001928E-02 0.  1.
    10030    2    1    2    0    0  0.00000000000E+00  0.00000000000E+00  0.86946479523E+03  0.34757716639E+04  0.33652666506E+04 0.  0.
        4    1    3    3  502    0  0.86687032915E+03 -0.14420881194E+04  0.42122698196E+03  0.17345074502E+04  0.12699999809E+01 0.  1.
       -4    1    3    3    0  502 -0.86687032915E+03  0.14420881194E+04  0.44823781327E+03  0.17412642137E+04  0.12699999809E+01 0. -1.
</event>
<event>
 5   0  0.1832626E-06  0.3290358E+04  0.7818609E-02  0.8165353E-01
        2   -1    0    0  501    0  0.00000000000E+00  0.00000000000E+00  0.19012664934E+04  0.19012664934E+04  0.25500000920E-02 0. -1.
       -2   -1    0    0    0  501  0.00000000000E+00  0.00000000000E+00 -0.14235846698E+04  0.14235846698E+04  0.25500000920E-02 0.  1.
    10030    2    1    2    0    0  0.00000000000E+00  0.00000000000E+00  0.47768182360E+03  0.33248511633E+04  0.32903579339E+04 0.  0.
        3    1    3    3  502    0  0.10234876062E+04  0.44032009016E+03 -0.98430504648E+03  0.14866960337E+04  0.10100000352E+00 0.  1.
       -3    1    3    3    0  502 -0.10234876062E+04 -0.44032009016E+03  0.14619868701E+04  0.18381551296E+04  0.10100000352E+00 0. -1.
</event>
<event>
 5   0  0.1696681E-06  0.3261292E+04  0.7818609E-02  0.8172815E-01
       -2   -1    0    0    0  501  0.00000000000E+00  0.00000000000E+00  0.13344219949E+04  0.13344219949E+04  0.25500000920E-02 0.  1.
        2   -1    0    0  501    0  0.00000000000E+00  0.00000000000E+00 -0.19926274269E+04  0.19926274269E+04  0.25500000920E-02 0. -1.
    10030    2    1    2    0    0  0.00000000000E+00  0.00000000000E+00 -0.65820543206E+03  0.33270494218E+04  0.32612916865E+04 0.  0.
        4    1    3    3  502    0  0.68102112767E+03 -0.11457176828E+04 -0.12874836238E+04  0.18531255973E+04  0.12699999809E+01 0. -1.
       -4    1    3    3    0  502 -0.68102112767E+03  0.11457176828E+04  0.62927819177E+03  0.14739238245E+04  0.12699999809E+01 0.  1.
</event>
<event>
 5   0  0.6085351E-07  0.3045167E+04  0.7818609E-02  0.8230950E-01
       -1   -1    0    0    0  501  0.00000000000E+00  0.00000000000E+00  0.15610410959E+04  0.15610410959E+04  0.50400001928E-02 0. -1.
        1   -1    0    0  501    0  0.00000000000E+00  0.00000000000E+00 -0.14850731125E+04  0.14850731125E+04  0.50400001928E-02 0.  1.
    10030    2    1    2    0    0  0.00000000000E+00  0.00000000000E+00  0.75967983399E+02  0.30461142084E+04  0.30451667665E+04 0.  0.
        1    1    3    3  502    0  0.10091891665E+01 -0.15081072591E+04 -0.17153674584E+03  0.15178318018E+04  0.50400001928E-02 0. -1.
       -1    1    3    3    0  502 -0.10091891665E+01  0.15081072591E+04  0.24750472924E+03  0.15282824066E+04  0.50400001928E-02 0.  1.
</event>
<event>
 5   0  0.1743810E-06  0.3314115E+04  0.7818609E-02  0.8159313E-01
       -2   -1    0    0    0  501  0.00000000000E+00  0.00000000000E+00  0.91656118715E+03  0.91656118715E+03  0.25500000920E-02 0. -1.
        2   -1    0    0  501    0  0.00000000000E+00  0.00000000000E+00 -0.29958053058E+04  0.29958053058E+04  0.25500000920E-02 0.  1.
    10030    2    1    2    0    0  0.00000000000E+00  0.00000000000E+00 -0.20792441187E+04  0.39123664930E+04  0.33141145832E+04 0.  0.
        5    1    3    3  502    0  0.98397753631E+03 -0.58661124271E+03 -0.24530370186E+04  0.27073487487E+04  0.46999998093E+01 0.  1.
       -5    1    3    3    0  502 -0.98397753631E+03  0.58661124271E+03  0.37379289998E+03  0.12050177443E+04  0.46999998093E+01 0. -1.
</event>
<event>
 5   0  0.1728937E-06  0.3177913E+04  0.7818609E-02  0.8194675E-01
       -2   -1    0    0    0  501  0.00000000000E+00  0.00000000000E+00  0.11183105553E+04  0.11183105553E+04  0.25500000920E-02 0. -1.
        2   -1    0    0  501    0  0.00000000000E+00  0.00000000000E+00 -0.22576763277E+04  0.22576763277E+04  0.25500000920E-02 0.  1.
    10030    2    1    2    0    0  0.00000000000E+00  0.00000000000E+00 -0.11393657724E+04  0.33759868830E+04  0.31779133202E+04 0.  0.
        1    1    3    3  502    0 -0.70018546157E+03  0.13951905293E+04 -0.88476121226E+03  0.17943295953E+04  0.50400001928E-02 0.  1.
       -1    1    3    3    0  502  0.70018546157E+03 -0.13951905293E+04 -0.25460456016E+03  0.15816572877E+04  0.50400001928E-02 0. -1.
</event>
<event>
 5   0  0.1832626E-06  0.3319614E+04  0.7818609E-02  0.8157922E-01
       -2   -1    0    0    0  501  0.00000000000E+00  0.00000000000E+00  0.10248520452E+04  0.10248520452E+04  0.25500000920E-02 0. -1.
        2   -1    0    0  501    0  0.00000000000E+00  0.00000000000E+00 -0.26881533315E+04  0.26881533315E+04  0.25500000920E-02 0.  1.
    10030    2    1    2    0    0  0.00000000000E+00  0.00000000000E+00 -0.16633012864E+04  0.37130053767E+04  0.33196140978E+04 0.  0.
        3    1    3    3  502    0  0.72874091114E+03  0.14851918181E+04 -0.98213584162E+03  0.19239149861E+04  0.10100000352E+00 0. -1.
       -3    1    3    3    0  502 -0.72874091114E+03 -0.14851918181E+04 -0.68116544474E+03  0.17890903906E+04  0.10100000352E+00 0.  1.
</event>
<event>
 5   0  0.6085351E-07  0.3343212E+04  0.7818609E-02  0.8151986E-01
        1   -1    0    0  501    0  0.00000000000E+00  0.00000000000E+00  0.23234005026E+04  0.23234005026E+04  0.50400001928E-02 0. -1.
       -1   -1    0    0    0  501  0.00000000000E+00  0.00000000000E+00 -0.12026622697E+04  0.12026622697E+04  0.50400001928E-02 0.  1.
    10030    2    1    2    0    0  0.00000000000E+00  0.00000000000E+00  0.11207382329E+04  0.35260627724E+04  0.33432117026E+04 0.  0.
        1    1    3    3  502    0  0.10932821195E+04  0.50217481750E+03  0.17843681241E+04  0.21520722438E+04  0.50400001928E-02 0. -1.
       -1    1    3    3    0  502 -0.10932821195E+04 -0.50217481750E+03 -0.66362989122E+03  0.13739905286E+04  0.50400001928E-02 0.  1.
</event>
<event>
 5   0  0.5985183E-07  0.3299200E+04  0.7818609E-02  0.8163099E-01
        1   -1    0    0  501    0  0.00000000000E+00  0.00000000000E+00  0.12649983637E+04  0.12649983637E+04  0.50400001928E-02 0. -1.
       -1   -1    0    0    0  501  0.00000000000E+00  0.00000000000E+00 -0.21511329772E+04  0.21511329772E+04  0.50400001928E-02 0.  1.
    10030    2    1    2    0    0  0.00000000000E+00  0.00000000000E+00 -0.88613461355E+03  0.34161313409E+04  0.32991997189E+04 0.  0.
        2    1    3    3  502    0 -0.13183504392E+04 -0.31726996668E+03  0.52962687492E+03  0.14557516062E+04  0.25500000920E-02 0. -1.
       -2    1    3    3    0  502  0.13183504392E+04  0.31726996668E+03 -0.14157614885E+04  0.19603797348E+04  0.25500000920E-02 0.  1.
</event>
<event>
 5   0  0.1728937E-06  0.3302406E+04  0.7818609E-02  0.8162284E-01
        2   -1    0    0  501    0  0.00000000000E+00  0.00000000000E+00  0.23294662895E+04  0.23294662895E+04  0.25500000920E-02 0. -1.
       -2   -1    0    0    0  501  0.00000000000E+00  0.00000000000E+00 -0.11704272621E+04  0.11704272621E+04  0.25500000920E-02 0.  1.
    10030    2    1    2    0    0  0.00000000000E+00  0.00000000000E+00  0.11590390273E+04  0.34998935516E+04  0.33024056997E+04 0.  0.
        1    1    3    3  502    0 -0.15451070610E+03  0.11306993227E+03  0.23176621499E+04  0.23255571824E+04  0.50400001928E-02 0. -1.
       -1    1    3    3    0  502  0.15451070610E+03 -0.11306993227E+03 -0.11586231225E+04  0.11743363692E+04  0.50400001928E-02 0.  1.
</event>
<event>
 5   0  0.1832626E-06  0.3297689E+04  0.7818609E-02  0.8163484E-01
        2   -1    0    0  501    0  0.00000000000E+00  0.00000000000E+00  0.24482110996E+04  0.24482110996E+04  0.25500000920E-02 0.  1.
       -2   -1    0    0    0  501  0.00000000000E+00  0.00000000000E+00 -0.11104795269E+04  0.11104795269E+04  0.25500000920E-02 0. -1.
    10030    2    1    2    0    0  0.00000000000E+00  0.00000000000E+00  0.13377315727E+04  0.35586906265E+04  0.32976890719E+04 0.  0.
        3    1    3    3  502    0 -0.13109187138E+04  0.53590071219E+03 -0.24235266747E+03  0.14368132353E+04  0.10100000352E+00 0. -1.
       -3    1    3    3    0  502  0.13109187138E+04 -0.53590071219E+03  0.15800842401E+04  0.21218773913E+04  0.10100000352E+00 0.  1.
</event>
<event>
 5   0  0.6023446E-07  0.3272574E+04  0.7818609E-02  0.8169909E-01
       -1   -1    0    0    0  501  0.00000000000E+00  0.00000000000E+00  0.12067329347E+04  0.12067329347E+04  0.50400001928E-02 0. -1.
        1   -1    0    0  501    0  0.00000000000E+00  0.00000000000E+00 -0.22187466130E+04  0.22187466130E+04  0.50400001928E-02 0.  1.
    10030    2    1    2    0    0  0.00000000000E+00  0.00000000000E+00 -0.10120136783E+04  0.34254795477E+04  0.32725736732E+04 0.  0.
        5    1    3    3  502    0  0.13422791821E+04  0.69569246368E+03 -0.11611178426E+04  0.19062838564E+04  0.46999998093E+01 0.  1.
       -5    1    3    3    0  502 -0.13422791821E+04 -0.69569246368E+03  0.14910416423E+03  0.15191956913E+04  0.46999998093E+01 0. -1.
</event>
<event>
 5   0  0.1832626E-06  0.3288183E+04  0.7818609E-02  0.8165909E-01
       -2   -1    0    0    0  501  0.00000000000E+00  0.00000000000E+00  0.31011670543E+04  0.31011670543E+04  0.25500000920E-02 0.  1.
        2   -1    0    0  501    0  0.00000000000E+00  0.00000000000E+00 -0.87161940211E+03  0.87161940211E+03  0.25500000920E-02 0. -1.
    10030    2    1    2    0    0  0.00000000000E+00  0.00000000000E+00  0.22295476522E+04  0.39727864565E+04  0.32881833123E+04 0.  0.
        3    1    3    3  502    0 -0.12410927367E+04  0.98140860399E+03  0.16545075772E+04  0.22892945119E+04  0.10100000352E+00 0.  1.
       -3    1    3    3    0  502  0.12410927367E+04 -0.98140860399E+03  0.57504007508E+03  0.16834919445E+04  0.10100000352E+00 0. -1.
</event>
<event>
 5   0  0.5988516E-07  0.3353530E+04  0.7818609E-02  0.8149407E-01
        1   -1    0    0  501    0  0.00000000000E+00  0.00000000000E+00  0.97435546915E+03  0.97435546916E+03  0.50400001928E-02 0.  1.
       -1   -1    0    0    0  501  0.00000000000E+00  0.00000000000E+00 -0.28855383088E+04  0.28855383088E+04  0.50400001928E-02 0. -1.
    10030    2    1    2    0    0  0.00000000000E+00  0.00000000000E+00 -0.19111828397E+04  0.38598937780E+04  0.33535295035E+04 0.  0.
        4    1    3    3  502    0 -0.76147147659E+03  0.13299400446E+04 -0.17244218365E+03  0.15421793837E+04  0.12699999809E+01 0.  1.
       -4    1    3    3    0  502  0.76147147659E+03 -0.13299400446E+04 -0.17387406560E+04  0.23177143943E+04  0.12699999809E+01 0. -1.
</event>
<event>
 5   0  0.5988516E-07  0.3324620E+04  0.7818609E-02  0.8156659E-01
        1   -1    0    0  501    0  0.00000000000E+00  0.00000000000E+00  0.13541625100E+04  0.13541625100E+04  0.50400001928E-02 0.  1.
       -1   -1    0    0    0  501  0.00000000000E+00  0.00000000000E+00 -0.20405786581E+04  0.20405786581E+04  0.50400001928E-02 0. -1.
    10030    2    1    2    0    0  0.00000000000E+00  0.00000000000E+00 -0.68641614813E+03  0.33947411682E+04  0.33246203498E+04 0.  0.
        4    1    3    3  502    0 -0.12388999565E+04 -0.57728823792E+03 -0.13092806933E+04  0.18927103208E+04  0.12699999809E+01 0. -1.
       -4    1    3    3    0  502  0.12388999565E+04  0.57728823792E+03  0.62286454517E+03  0.15020308473E+04  0.12699999809E+01 0.  1.
</event>
<event>
 5   0  0.1832626E-06  0.3300611E+04  0.7818609E-02  0.8162740E-01
        2   -1    0    0  501    0  0.00000000000E+00  0.00000000000E+00  0.16246596227E+04  0.16246596227E+04  0.25500000920E-02 0.  1.
       -2   -1    0    0    0  501  0.00000000000E+00  0.00000000000E+00 -0.16763557834E+04  0.16763557834E+04  0.25500000920E-02 0. -1.
    10030    2    1    2    0    0  0.00000000000E+00  0.00000000000E+00 -0.51696160745E+02  0.33010154061E+04  0.33006105827E+04 0.  0.
        3    1    3    3  502    0 -0.12233906567E+04  0.46437910689E+03  0.97984717622E+03  0.16347578270E+04  0.10100000352E+00 0.  1.
       -3    1    3    3    0  502  0.12233906567E+04 -0.46437910689E+03 -0.10315433370E+04  0.16662575792E+04  0.10100000352E+00 0. -1.
</event>
<event>
 5   0  0.5858859E-07  0.3317342E+04  0.7818609E-02  0.8158497E-01
        1   -1    0    0  501    0  0.00000000000E+00  0.00000000000E+00  0.21988483274E+04  0.21988483274E+04  0.50400001928E-02 0. -1.
       -1   -1    0    0    0  501  0.00000000000E+00  0.00000000000E+00 -0.12511960068E+04  0.12511960068E+04  0.50400001928E-02 0.  1.
    10030    2    1    2    0    0  0.00000000000E+00  0.00000000000E+00  0.94765232053E+03  0.34500443342E+04  0.33173424586E+04 0.  0.
        3    1    3    3  502    0  0.34886269539E+03 -0.48236485040E+03  0.20839196755E+04  0.21672799204E+04  0.10100000352E+00 0. -1.
       -3    1    3    3    0  502 -0.34886269539E+03  0.48236485040E+03 -0.11362673550E+04  0.12827644138E+04  0.10100000352E+00 0.  1.
</event>
<event>
 5   0  0.6085351E-07  0.3274841E+04  0.7818609E-02  0.8169327E-01
       -1   -1    0    0    0  501  0.00000000000E+00  0.00000000000E+00  0.11945227778E+04  0.11945227778E+04  0.50400001928E-02 0. -1.
        1   -1    0    0  501    0  0.00000000000E+00  0.00000000000E+00 -0.22445327643E+04  0.22445327643E+04  0.50400001928E-02 0.  1.
    10030    2    1    2    0    0  0.00000000000E+00  0.00000000000E+00 -0.10500099865E+04  0.34390555421E+04  0.32748407671E+04 0.  0.
        1    1    3    3  502    0 -0.13213114104E+04 -0.47683439288E+03 -0.14085694131E+04  0.19892970298E+04  0.50400001928E-02 0.  1.
       -1    1    3    3    0  502  0.13213114104E+04  0.47683439288E+03  0.35855942662E+03  0.14497585123E+04  0.50400001928E-02 0. -1.
</event>
<event>
 5   0  0.5988516E-07  0.3053983E+04  0.7818609E-02  0.8228481E-01
       -1   -1    0    0    0  501  0.00000000000E+00  0.00000000000E+00  0.20670842272E+04  0.20670842272E+04  0.50400001928E-02 0.  1.
        1   -1    0    0  501    0  0.00000000000E+00  0.00000000000E+00 -0.11280156152E+04  0.11280156152E+04  0.50400001928E-02 0. -1.
    10030    2    1    2    0    0  0.00000000000E+00  0.00000000000E+00  0.93906861201E+03  0.31950998424E+04  0.30539831605E+04 0.  0.
        4    1    3    3  502    0 -0.76393449502E+03  0.14491079431E+03 -0.90538550742E+03  0.11934486084E+04  0.12699999809E+01 0. -1.
       -4    1    3    3    0  502  0.76393449502E+03 -0.14491079431E+03  0.18444541194E+04  0.20016512340E+04  0.12699999809E+01 0.  1.
</event>
<event>
 5   0  0.1784626E-06  0.3254784E+04  0.7818609E-02  0.8174497E-01
        2   -1    0    0  501    0  0.00000000000E+00  0.00000000000E+00  0.17817247403E+04  0.17817247403E+04  0.25500000920E-02 0.  1.
       -2   -1    0    0    0  501  0.00000000000E+00  0.00000000000E+00 -0.14864276324E+04  0.14864276324E+04  0.25500000920E-02 0. -1.
    10030    2    1    2    0    0  0.00000000000E+00  0.00000000000E+00  0.29529710789E+03  0.32681523728E+04  0.32547841019E+04 0.  0.
        2    1    3    3  502    0  0.86558783631E+03  0.10972520357E+04  0.98486001656E+03  0.17097232479E+04  0.25500000920E-02 0.  1.
       -2    1    3    3    0  502 -0.86558783631E+03 -0.10972520357E+04 -0.68956290866E+03  0.15584291249E+04  0.25500000920E-02 0. -1.
</event>
<event>
 5   0  0.1784626E-06  0.3303826E+04  0.7818609E-02  0.8161923E-01
       -2   -1    0    0    0  501  0.00000000000E+00  0.00000000000E+00  0.16705386025E+04  0.16705386025E+04  0.25500000920E-02 0.  1.
        2   -1    0    0  501    0  0.00000000000E+00  0.00000000000E+00 -0.16334947587E+04  0.16334947587E+04  0.25500000920E-02 0. -1.
    10030    2    1    2    0    0  0.00000000000E+00  0.00000000000E+00  0.37043843818E+02  0.33040333612E+04  0.33038256924E+04 0.  0.
        2    1    3    3  502    0  0.54195234219E+03 -0.46621522411E+03 -0.14707819040E+04  0.16353190471E+04  0.25500000920E-02 0. -1.
       -2    1    3    3    0  502 -0.54195234219E+03  0.46621522411E+03  0.15078257479E+04  0.16687143142E+04  0.25500000920E-02 0.  1.
</event>
<event>
 5   0  0.1784626E-06  0.3325220E+04  0.7818609E-02  0.8156508E-01
        2   -1    0    0  501    0  0.00000000000E+00  0.00000000000E+00  0.18095311998E+04  0.18095311998E+04  0.25500000920E-02 0.  1.
       -2   -1    0    0    0  501  0.00000000000E+00  0.00000000000E+00 -0.15276177615E+04  0.15276177615E+04  0.25500000920E-02 0. -1.
    10030    2    1    2    0    0  0.00000000000E+00  0.00000000000E+00  0.28191343827E+03  0.33371489612E+04  0.33252199931E+04 0.  0.
        2    1    3    3  502    0  0.37953921700E+03 -0.16183159148E+04  0.17680015283E+03  0.16716024382E+04  0.25500000920E-02 0.  1.
       -2    1    3    3    0  502 -0.37953921700E+03  0.16183159148E+04  0.10511328544E+03  0.16655465230E+04  0.25500000920E-02 0. -1.
</event>
<event>
 5   0  0.5985183E-07  0.3335336E+04  0.7818609E-02  0.8153962E-01
       -1   -1    0    0    0  501  0.00000000000E+00  0.00000000000E+00  0.25829723968E+04  0.25829723968E+04  0.50400001928E-02 0. -1.
        1   -1    0    0  501    0  0.00000000000E+00  0.00000000000E+00 -0.10767118212E+04  0.10767118212E+04  0.50400001928E-02 0.  1.
    10030    2    1    2    0    0  0.00000000000E+00  0.00000000000E+00  0.15062605756E+04  0.36596842180E+04  0.33353362130E+04 0.  0.
        2    1    3    3  502    0  0.42732981627E+03 -0.81231743041E+03 -0.77462329507E+03  0.12010460561E+04  0.25500000920E-02 0.  1.
       -2    1    3    3    0  502 -0.42732981627E+03  0.81231743041E+03  0.22808838707E+04  0.24586381619E+04  0.25500000920E-02 0. -1.
</event>
<event>
 5   0  0.5988516E-07  0.3244978E+04  0.7818609E-02  0.8177039E-01
       -1   -1    0    0    0  501  0.00000000000E+00  0.00000000000E+00  0.10125145974E+04  0.10125145974E+04  0.50400001928E-02 0. -1.
        1   -1    0    0  501    0  0.00000000000E+00  0.00000000000E+00 -0.25999333943E+04  0.25999333943E+04  0.50400001928E-02 0.  1.
    10030    2    1    2    0    0  0.00000000000E+00  0.00000000000E+00 -0.15874187969E+04  0.36124479917E+04  0.32449779746E+04 0.  0.
        4    1    3    3  502    0  0.15421942002E+04 -0.49121664228E+03 -0.66770055322E+03  0.17508519019E+04  0.12699999809E+01 0.  1.
       -4    1    3    3    0  502 -0.15421942002E+04  0.49121664228E+03 -0.91971824364E+03  0.18615960897E+04  0.12699999809E+01 0. -1.
</event>
<event>
 5   0  0.5858859E-07  0.3316007E+04  0.7818609E-02  0.8158834E-01
        1   -1    0    0  501    0  0.00000000000E+00  0.00000000000E+00  0.14118755523E+04  0.14118755523E+04  0.50400001928E-02 0.  1.
       -1   -1    0    0    0  501  0.00000000000E+00  0.00000000000E+00 -0.19470385812E+04  0.19470385812E+04  0.50400001928E-02 0. -1.
    10030    2    1    2    0    0  0.00000000000E+00  0.00000000000E+00 -0.53516302890E+03  0.33589141335E+04  0.33160073414E+04 0.  0.
        3    1    3    3  502    0 -0.16135510660E+04 -0.14434304872E+03  0.89964826456E+02  0.16224905665E+04  0.10100000352E+00 0.  1.
       -3    1    3    3    0  502  0.16135510660E+04  0.14434304872E+03 -0.62512785535E+03  0.17364235670E+04  0.10100000352E+00 0. -1.
</event>
<event>
 5   0  0.1743810E-06  0.3332611E+04  0.7818609E-02  0.8154647E-01
        2   -1    0    0  501    0  0.00000000000E+00  0.00000000000E+00  0.24117382993E+04  0.24117382993E+04  0.25500000920E-02 0.  1.
       -2   -1    0    0    0  501  0.00000000000E+00  0.00000000000E+00 -0.11512746744E+04  0.11512746744E+04  0.25500000920E-02 0. -1.
    10030    2    1    2    0    0  0.00000000000E+00  0.00000000000E+00  0.12604636249E+04  0.35630129737E+04  0.33326105235E+04 0.  0.
        5    1    3    3  502    0 -0.74266393359E+03  0.13543009842E+04  0.12986513828E+04  0.20179688744E+04  0.46999998093E+01 0.  1.
       -5    1    3    3    0  502  0.74266393359E+03 -0.13543009842E+04 -0.38187757889E+02  0.15450440993E+04  0.46999998093E+01 0. -1.
</event>
<event>
 5   0  0.5988516E-07  0.3317114E+04  0.7818609E-02  0.8158554E-01
        1   -1    0    0  501    0  0.00000000000E+00  0.00000000000E+00  0.12809090354E+04  0.12809090354E+04  0.50400001928E-02 0. -1.
       -1   -1    0    0    0  501  0.00000000000E+00  0.00000000000E+00 -0.21475463989E+04  0.21475463989E+04  0.50400001928E-02 0.  1.
    10030    2    1    2    0    0  0.00000000000E+00  0.00000000000E+00 -0.86663736352E+03  0.34284554343E+04  0.33171141592E+04 0.  0.
        4    1    3    3  502    0  0.99595213173E+03 -0.92142174297E+03 -0.14192077991E+04  0.19634385825E+04  0.12699999809E+01 0.  1.
       -4    1    3    3    0  502 -0.99595213173E+03  0.92142174297E+03  0.55257043560E+03  0.14650168519E+04  0.12699999809E+01 0. -1.
</event>
<event>
 5   0  0.1743810E-06  0.3366248E+04  0.7818609E-02  0.8146240E-01
       -2   -1    0    0    0  501  0.00000000000E+00  0.00000000000E+00  0.15515686080E+04  0.15515686080E+04  0.25500000920E-02 0.  1.
        2   -1    0    0  501    0  0.00000000000E+00  0.00000000000E+00 -0.18258339810E+04  0.18258339810E+04  0.25500000920E-02 0. -1.
    10030    2    1    2    0    0  0.00000000000E+00  0.00000000000E+00 -0.27426537301E+03  0.33774025889E+04  0.33662481716E+04 0.  0.
        5    1    3    3  502    0  0.10852101596E+03 -0.49145041418E+03  0.14742977492E+04  0.15578434657E+04  0.46999998093E+01 0.  1.
       -5    1    3    3    0  502 -0.10852101596E+03  0.49145041418E+03 -0.17485631222E+04  0.18195591232E+04  0.46999998093E+01 0. -1.
</event>
<event>
 5   0  0.5988516E-07  0.3278177E+04  0.7818609E-02  0.8168471E-01
        1   -1    0    0  501    0  0.00000000000E+00  0.00000000000E+00  0.15304364464E+04  0.15304364464E+04  0.50400001928E-02 0. -1.
       -1   -1    0    0    0  501  0.00000000000E+00  0.00000000000E+00 -0.17554539415E+04  0.17554539415E+04  0.50400001928E-02 0.  1.
    10030    2    1    2    0    0  0.00000000000E+00  0.00000000000E+00 -0.22501749513E+03  0.32858903879E+04  0.32781767445E+04 0.  0.
        4    1    3    3  502    0 -0.29229657100E+03 -0.60227891346E+03  0.13871507091E+04  0.15402486415E+04  0.12699999809E+01 0. -1.
       -4    1    3    3    0  502  0.29229657100E+03  0.60227891346E+03 -0.16121682043E+04  0.17456417464E+04  0.12699999809E+01 0.  1.
</event>
<event>
 5   0  0.6023446E-07  0.3460754E+04  0.7818609E-02  0.8123154E-01
        1   -1    0    0  501    0  0.00000000000E+00  0.00000000000E+00  0.14008582401E+04  0.14008582401E+04  0.50400001928E-02 0.  1.
       -1   -1    0    0    0  501  0.00000000000E+00  0.00000000000E+00 -0.21374072956E+04  0.21374072956E+04  0.50400001928E-02 0. -1.
    10030    2    1    2    0    0  0.00000000000E+00  0.00000000000E+00 -0.73654905554E+03  0.35382655357E+04  0.34607540348E+04 0.  0.
        5    1    3    3  502    0 -0.98172937858E+03 -0.38969789661E+03  0.10330161626E+04  0.14774307110E+04  0.46999998093E+01 0.  1.
       -5    1    3    3    0  502  0.98172937858E+03  0.38969789661E+03 -0.17695652182E+04  0.20608348247E+04  0.46999998093E+01 0. -1.
</event>
<event>
 5   0  0.5858859E-07  0.3289062E+04  0.7818609E-02  0.8165684E-01
        1   -1    0    0  501    0  0.00000000000E+00  0.00000000000E+00  0.22643155847E+04  0.22643155847E+04  0.50400001928E-02 0. -1.
       -1   -1    0    0    0  501  0.00000000000E+00  0.00000000000E+00 -0.11943926183E+04  0.11943926183E+04  0.50400001928E-02 0.  1.
    10030    2    1    2    0    0  0.00000000000E+00  0.00000000000E+00  0.10699229664E+04  0.34587082030E+04  0.32890617627E+04 0.  0.
        3    1    3    3  502    0 -0.18785882012E+03 -0.11733860557E+04 -0.66049282954E+03  0.13595501315E+04  0.10100000352E+00 0.  1.
       -3    1    3    3    0  502  0.18785882012E+03  0.11733860557E+04  0.17304157960E+04  0.20991580715E+04  0.10100000352E+00 0. -1.
</event>
<event>
 5   0  0.5858859E-07  0.3151980E+04  0.7818609E-02  0.8201615E-01
       -1   -1    0    0    0  501  0.00000000000E+00  0.00000000000E+00  0.98755380364E+03  0.98755380366E+03  0.50400001928E-02 0. -1.
        1   -1    0    0  501    0  0.00000000000E+00  0.00000000000E+00 -0.25150472978E+04  0.25150472978E+04  0.50400001928E-02 0.  1.
    10030    2    1    2    0    0  0.00000000000E+00  0.00000000000E+00 -0.15274934942E+04  0.35026011015E+04  0.31519800287E+04 0.  0.
        3    1    3    3  502    0  0.98039977463E+03 -0.60543317931E+03  0.43103421269E+03  0.12302534517E+04  0.10100000352E+00 0. -1.
       -3    1    3    3    0  502 -0.98039977463E+03  0.60543317931E+03 -0.19585277069E+04  0.22723476498E+04  0.10100000352E+00 0.  1.
</event>
<event>
 5   0  0.1696681E-06  0.3187973E+04  0.7818609E-02  0.8192001E-01
       -2   -1    0    0    0  501  0.00000000000E+00  0.00000000000E+00  0.22287502586E+04  0.22287502586E+04  0.25500000920E-02 0. -1.
        2   -1    0    0  501    0  0.00000000000E+00  0.00000000000E+00 -0.11400081699E+04  0.11400081699E+04  0.25500000920E-02 0.  1.
    10030    2    1    2    0    0  0.00000000000E+00  0.00000000000E+00  0.10887420887E+04  0.33687584285E+04  0.31879733395E+04 0.  0.
        4    1    3    3  502    0 -0.98419807646E+03 -0.85199971768E+03 -0.42771030170E+03  0.13702142488E+04  0.12699999809E+01 0.  1.
       -4    1    3    3    0  502  0.98419807646E+03  0.85199971768E+03  0.15164523904E+04  0.19985441796E+04  0.12699999809E+01 0. -1.
</event>
<event>
 5   0  0.1784626E-06  0.3399992E+04  0.7818609E-02  0.8137908E-01
        2   -1    0    0  501    0  0.00000000000E+00  0.00000000000E+00  0.22573413986E+04  0.22573413986E+04  0.25500000920E-02 0.  1.
       -2   -1    0    0    0  501  0.00000000000E+00  0.00000000000E+00 -0.12802609925E+04  0.12802609925E+04  0.25500000920E-02 0. -1.
    10030    2    1    2    0    0  0.00000000000E+00  0.00000000000E+00  0.97708040608E+03  0.35376023910E+04  0.33999918466E+04 0.  0.
        2    1    3    3  502    0 -0.16306937515E+04 -0.41351203998E+03  0.74304575033E+03  0.18390952410E+04  0.25500000920E-02 0.  1.
       -2    1    3    3    0  502  0.16306937515E+04  0.41351203998E+03  0.23403465575E+03  0.16985071500E+04  0.25500000920E-02 0. -1.
</event>
<event>
 5   0  0.5858859E-07  0.3283205E+04  0.7818609E-02  0.8167182E-01
       -1   -1    0    0    0  501  0.00000000000E+00  0.00000000000E+00  0.14299158017E+04  0.14299158017E+04  0.50400001928E-02 0. -1.
        1   -1    0    0  501    0  0.00000000000E+00  0.00000000000E+00 -0.18846270227E+04  0.18846270227E+04  0.50400001928E-02 0.  1.
    10030    2    1    2    0    0  0.00000000000E+00  0.00000000000E+00 -0.45471122105E+03  0.33145428244E+04  0.32832045078E+04 0.  0.
        3    1    3    3  502    0  0.71908951941E+03  0.88344863099E+03 -0.14207073386E+04  0.18209834081E+04  0.10100000352E+00 0.  1.
       -3    1    3    3    0  502 -0.71908951941E+03 -0.88344863099E+03  0.96599611757E+03  0.14935594163E+04  0.10100000352E+00 0. -1.
</event>
<event>
 5   0  0.1832626E-06  0.3207141E+04  0.7818609E-02  0.8186934E-01
       -2   -1    0    0    0  501  0.00000000000E+00  0.00000000000E+00  0.12345944524E+04  0.12345944524E+04  0.25500000920E-02 0. -1.
        2   -1    0    0  501    0  0.00000000000E+00  0.00000000000E+00 -0.20828205900E+04  0.20828205900E+04  0.25500000920E-02 0.  1.
    10030    2    1    2    0    0  0.00000000000E+00  0.00000000000E+00 -0.84822613756E+03  0.33174150424E+04  0.32071412478E+04 0.  0.
        3    1    3    3  502    0  0.10945646871E+04  0.11652330074E+04 -0.55330309449E+03  0.16917399742E+04  0.10100000352E+00 0.  1.
       -3    1    3    3    0  502 -0.10945646871E+04 -0.11652330074E+04 -0.29492304307E+03  0.16256750682E+04  0.10100000352E+00 0. -1.
</event>
<event>
 5   0  0.6085351E-07  0.3243663E+04  0.7818609E-02  0.8177380E-01
       -1   -1    0    0    0  501  0.00000000000E+00  0.00000000000E+00  0.11741285108E+04  0.11741285108E+04  0.50400001928E-02 0. -1.
        1   -1    0    0  501    0  0.00000000000E+00  0.00000000000E+00 -0.22402470605E+04  0.22402470605E+04  0.50400001928E-02 0.  1.
    10030    2    1    2    0    0  0.00000000000E+00  0.00000000000E+00 -0.10661185497E+04  0.34143755713E+04  0.32436633271E+04 0.  0.
        1    1    3    3  502    0  0.89785085322E+02  0.23181599215E+03  0.11539540445E+04  0.11804278684E+04  0.50400001928E-02 0. -1.
       -1    1    3    3    0  502 -0.89785085322E+02 -0.23181599215E+03 -0.22200725942E+04  0.22339477029E+04  0.50400001928E-02 0.  1.
</event>
<event>
 5   0  0.5988516E-07  0.2755616E+04  0.7818609E-02  0.8317182E-01
        1   -1    0    0  501    0  0.00000000000E+00  0.00000000000E+00  0.19207090365E+04  0.19207090365E+04  0.50400001928E-02 0. -1.
       -1   -1    0    0    0  501  0.00000000000E+00  0.00000000000E+00 -0.98836156951E+03  0.98836156952E+03  0.50400001928E-02 0.  1.
    10030    2    1    2    0    0  0.00000000000E+00  0.00000000000E+00  0.93234746700E+03  0.29090706060E+04  0.27556160821E+04 0.  0.
        4    1    3    3  502    0  0.80187666942E+03  0.40927358211E+03 -0.63490538849E+03  0.11016431016E+04  0.12699999809E+01 0.  1.
       -4    1    3    3    0  502 -0.80187666942E+03 -0.40927358211E+03  0.15672528555E+04  0.18074275045E+04  0.12699999809E+01 0. -1.
</event>
<event>
 5   0  0.6023446E-07  0.3254111E+04  0.7818609E-02  0.8174671E-01
        1   -1    0    0  501    0  0.00000000000E+00  0.00000000000E+00  0.16627619543E+04  0.16627619543E+04  0.50400001928E-02 0.  1.
       -1   -1    0    0    0  501  0.00000000000E+00  0.00000000000E+00 -0.15921160864E+04  0.15921160864E+04  0.50400001928E-02 0. -1.
    10030    2    1    2    0    0  0.00000000000E+00  0.00000000000E+00  0.70645867951E+02  0.32548780407E+04  0.32541112798E+04 0.  0.
        5    1    3    3  502    0 -0.25212035105E+03  0.15966319870E+04  0.22108043014E+03  0.16314708149E+04  0.46999998093E+01 0. -1.
       -5    1    3    3    0  502  0.25212035105E+03 -0.15966319870E+04 -0.15043456219E+03  0.16234072258E+04  0.46999998093E+01 0.  1.
</event>
<event>
 5   0  0.1832626E-06  0.3311253E+04  0.7818609E-02  0.8160038E-01
        2   -1    0    0  501    0  0.00000000000E+00  0.00000000000E+00  0.21825788396E+04  0.21825788396E+04  0.25500000920E-02 0. -1.
       -2   -1    0    0    0  501  0.00000000000E+00  0.00000000000E+00 -0.12558992260E+04  0.12558992260E+04  0.25500000920E-02 0.  1.
    10030    2    1    2    0    0  0.00000000000E+00  0.00000000000E+00  0.92667961365E+03  0.34384780656E+04  0.33112529805E+04 0.  0.
        3    1    3    3  502    0 -0.67028651076E+03 -0.83222543338E+03 -0.84984982082E+03  0.13653306950E+04  0.10100000352E+00 0.  1.
       -3    1    3    3    0  502  0.67028651076E+03  0.83222543338E+03  0.17765294345E+04  0.20731473706E+04  0.10100000352E+00 0. -1.
</event>
<event>
 5   0  0.6085351E-07  0.3311045E+04  0.7818609E-02  0.8160091E-01
        1   -1    0    0  501    0  0.00000000000E+00  0.00000000000E+00  0.76312587860E+03  0.76312587861E+03  0.50400001928E-02 0. -1.
       -1   -1    0    0    0  501  0.00000000000E+00  0.00000000000E+00 -0.35914840412E+04  0.35914840412E+04  0.50400001928E-02 0.  1.
    10030    2    1    2    0    0  0.00000000000E+00  0.00000000000E+00 -0.28283581626E+04  0.43546099198E+04  0.33110447985E+04 0.  0.
        1    1    3    3  502    0 -0.49554260643E+03 -0.12500495056E+04 -0.26842398337E+04  0.30022207990E+04  0.50400001928E-02 0.  1.
       -1    1    3    3    0  502  0.49554260643E+03  0.12500495056E+04 -0.14411832894E+03  0.13523891208E+04  0.50400001928E-02 0. -1.
</event>
<event>
 5   0  0.1728937E-06  0.3298065E+04  0.7818609E-02  0.8163388E-01
       -2   -1    0    0    0  501  0.00000000000E+00  0.00000000000E+00  0.11929303624E+04  0.11929303624E+04  0.25500000920E-02 0.  1.
        2   -1    0    0  501    0  0.00000000000E+00  0.00000000000E+00 -0.22795203256E+04  0.22795203256E+04  0.25500000920E-02 0. -1.
    10030    2    1    2    0    0  0.00000000000E+00  0.00000000000E+00 -0.10865899632E+04  0.34724506880E+04  0.32980654985E+04 0.  0.
        1    1    3    3  502    0 -0.24355692427E+03  0.22461058957E+02  0.11737257749E+04  0.11989398105E+04  0.50400001928E-02 0.  1.
       -1    1    3    3    0  502  0.24355692427E+03 -0.22461058957E+02 -0.22603157381E+04  0.22735108776E+04  0.50400001928E-02 0. -1.
</event>
<event>
 5   0  0.5988516E-07  0.3377146E+04  0.7818609E-02  0.8143538E-01
        1   -1    0    0  501    0  0.00000000000E+00  0.00000000000E+00  0.16940005834E+04  0.16940005834E+04  0.50400001928E-02 0.  1.
       -1   -1    0    0    0  501  0.00000000000E+00  0.00000000000E+00 -0.16831627145E+04  0.16831627145E+04  0.50400001928E-02 0. -1.
    10030    2    1    2    0    0  0.00000000000E+00  0.00000000000E+00  0.10837868882E+02  0.33771632979E+04  0.33771459076E+04 0.  0.
        4    1    3    3  502    0 -0.11762761631E+04  0.83037476992E+03  0.88753976002E+03  0.16914125188E+04  0.12699999809E+01 0.  1.
       -4    1    3    3    0  502  0.11762761631E+04 -0.83037476992E+03 -0.87670189114E+03  0.16857507791E+04  0.12699999809E+01 0. -1.
</event>
<event>
 5   0  0.6023446E-07  0.3347169E+04  0.7818609E-02  0.8150996E-01
        1   -1    0    0  501    0  0.00000000000E+00  0.00000000000E+00  0.12440027173E+04  0.12440027174E+04  0.50400001928E-02 0.  1.
       -1   -1    0    0    0  501  0.00000000000E+00  0.00000000000E+00 -0.22515104580E+04  0.22515104580E+04  0.50400001928E-02 0. -1.
    10030    2    1    2    0    0  0.00000000000E+00  0.00000000000E+00 -0.10075077406E+04  0.34955131753E+04  0.33471690294E+04 0.  0.
        5    1    3    3  502    0  0.15932406527E+04  0.73671517443E+02 -0.10331936422E+04  0.19003564040E+04  0.46999998093E+01 0.  1.
       -5    1    3    3    0  502 -0.15932406527E+04 -0.73671517443E+02  0.25685901562E+02  0.15951567714E+04  0.46999998093E+01 0. -1.
</event>
<event>
 5   0  0.5985183E-07  0.3313595E+04  0.7818609E-02  0.8159445E-01
        1   -1    0    0  501    0  0.00000000000E+00  0.00000000000E+00  0.10676587910E+04  0.10676587910E+04  0.50400001928E-02 0. -1.
       -1   -1    0    0    0  501  0.00000000000E+00  0.00000000000E+00 -0.25710258741E+04  0.25710258741E+04  0.50400001928E-02 0.  1.
    10030    2    1    2    0    0  0.00000000000E+00  0.00000000000E+00 -0.15033670832E+04  0.36386846651E+04  0.33135952537E+04 0.  0.
        2    1    3    3  502    0 -0.10131222315E+04  0.47033960857E+03 -0.20953934461E+04  0.23745125179E+04  0.25500000920E-02 0.  1.
       -2    1    3    3    0  502  0.10131222315E+04 -0.47033960857E+03  0.59202636297E+03  0.12641721472E+04  0.25500000920E-02 0. -1.
</event>
<event>
 5   0  0.5988516E-07  0.3294429E+04  0.7818609E-02  0.8164314E-01
        1   -1    0    0  501    0  0.00000000000E+00  0.00000000000E+00  0.19200349506E+04  0.19200349506E+04  0.50400001928E-02 0.  1.
       -1   -1    0    0    0  501  0.00000000000E+00  0.00000000000E+00 -0.14131592550E+04  0.14131592550E+04  0.50400001928E-02 0. -1.
    10030    2    1    2    0    0  0.00000000000E+00  0.00000000000E+00  0.50687569568E+03  0.33331942056E+04  0.32944287276E+04 0.  0.
        4    1    3    3  502    0  0.30138553660E+02 -0.71398147317E+03 -0.12481537721E+04  0.14382514830E+04  0.12699999809E+01 0. -1.
       -4    1    3    3    0  502 -0.30138553660E+02  0.71398147317E+03  0.17550294678E+04  0.18949427227E+04  0.12699999809E+01 0.  1.
</event>
<event>
 5   0  0.6023446E-07  0.3313352E+04  0.7818609E-02  0.8159506E-01
       -1   -1    0    0    0  501  0.00000000000E+00  0.00000000000E+00  0.15267550493E+04  0.15267550493E+04  0.50400001928E-02 0.  1.
        1   -1    0    0  501    0  0.00000000000E+00  0.00000000000E+00 -0.17976531425E+04  0.17976531425E+04  0.50400001928E-02 0. -1.
    10030    2    1    2    0    0  0.00000000000E+00  0.00000000000E+00 -0.27089809316E+03  0.33244081919E+04  0.33133523883E+04 0.  0.
        5    1    3    3  502    0  0.12051682387E+04 -0.12174234009E+03 -0.12693981283E+04  0.17546069016E+04  0.46999998093E+01 0. -1.
       -5    1    3    3    0  502 -0.12051682387E+04  0.12174234009E+03  0.99850003511E+03  0.15698012903E+04  0.46999998093E+01 0.  1.
</event>
<event>
 5   0  0.1784626E-06  0.3277274E+04  0.7818609E-02  0.8168702E-01
       -2   -1    0    0    0  501  0.00000000000E+00  0.00000000000E+00  0.21826141298E+04  0.21826141298E+04  0.25500000920E-02 0. -1.
        2   -1    0    0  501    0  0.00000000000E+00  0.00000000000E+00 -0.12302363795E+04  0.12302363795E+04  0.25500000920E-02 0.  1.
    10030    2    1    2    0    0  0.00000000000E+00  0.00000000000E+00  0.95237775037E+03  0.34128505093E+04  0.32772740531E+04 0.  0.
        2    1    3    3  502    0 -0.11413948683E+04 -0.11657948668E+04  0.63504927424E+03  0.17507562645E+04  0.25500000920E-02 0.  1.
       -2    1    3    3    0  502  0.11413948683E+04  0.11657948668E+04  0.31732847613E+03  0.16620942448E+04  0.25500000920E-02 0. -1.
</event>
<event>
 5   0  0.6085351E-07  0.3312369E+04  0.7818609E-02  0.8159755E-01
       -1   -1    0    0    0  501  0.00000000000E+00  0.00000000000E+00  0.11451016230E+04  0.11451016230E+04  0.50400001928E-02 0.  1.
        1   -1    0    0  501    0  0.00000000000E+00  0.00000000000E+00 -0.23953738327E+04  0.23953738327E+04  0.50400001928E-02 0. -1.
    10030    2    1    2    0    0  0.00000000000E+00  0.00000000000E+00 -0.12502722097E+04  0.35404754558E+04  0.33123686169E+04 0.  0.
        1    1    3    3  502    0  0.14141706281E+04  0.22826711235E+03  0.26334872293E+03  0.14564810297E+04  0.50400001928E-02 0.  1.
       -1    1    3    3    0  502 -0.14141706281E+04 -0.22826711235E+03 -0.15136209327E+04  0.20839944261E+04  0.50400001928E-02 0. -1.
</event>
<event>
 5   0  0.6085351E-07  0.3294326E+04  0.7818609E-02  0.8164341E-01
        1   -1    0    0  501    0  0.00000000000E+00  0.00000000000E+00  0.77207752120E+03  0.77207752122E+03  0.50400001928E-02 0.  1.
       -1   -1    0    0    0  501  0.00000000000E+00  0.00000000000E+00 -0.35140850897E+04  0.35140850897E+04  0.50400001928E-02 0. -1.
    10030    2    1    2    0    0  0.00000000000E+00  0.00000000000E+00 -0.27420075685E+04  0.42861626109E+04  0.32943260952E+04 0.  0.
        1    1    3    3  502    0 -0.10782757760E+04 -0.71256589010E+03 -0.42431010024E+02  0.12931470092E+04  0.50400001928E-02 0.  1.
       -1    1    3    3    0  502  0.10782757760E+04  0.71256589010E+03 -0.26995765585E+04  0.29930156017E+04  0.50400001928E-02 0. -1.
</event>
<event>
 5   0  0.6085351E-07  0.3288284E+04  0.7818609E-02  0.8165883E-01
        1   -1    0    0  501    0  0.00000000000E+00  0.00000000000E+00  0.18880174219E+04  0.18880174219E+04  0.50400001928E-02 0.  1.
       -1   -1    0    0    0  501  0.00000000000E+00  0.00000000000E+00 -0.14317676894E+04  0.14317676894E+04  0.50400001928E-02 0. -1.
    10030    2    1    2    0    0  0.00000000000E+00  0.00000000000E+00  0.45624973243E+03  0.33197851113E+04  0.32882836506E+04 0.  0.
        1    1    3    3  502    0  0.11281960325E+04  0.10034341579E+04  0.88512480286E+03  0.17501863654E+04  0.50400001928E-02 0.  1.
       -1    1    3    3    0  502 -0.11281960325E+04 -0.10034341579E+04 -0.42887507043E+03  0.15695987459E+04  0.50400001928E-02 0. -1.
</event>
<event>
 5   0  0.1696681E-06  0.3330779E+04  0.7818609E-02  0.8155107E-01
       -2   -1    0    0    0  501  0.00000000000E+00  0.00000000000E+00  0.96788814152E+03  0.96788814152E+03  0.25500000920E-02 0. -1.
        2   -1    0    0  501    0  0.00000000000E+00  0.00000000000E+00 -0.28655403420E+04  0.28655403420E+04  0.25500000920E-02 0.  1.
    10030    2    1    2    0    0  0.00000000000E+00  0.00000000000E+00 -0.18976522005E+04  0.38334284835E+04  0.33307791978E+04 0.  0.
        4    1    3    3  502    0 -0.21117607242E+03 -0.71388042720E+03  0.76572154554E+03  0.10679661493E+04  0.12699999809E+01 0. -1.
       -4    1    3    3    0  502  0.21117607242E+03  0.71388042720E+03 -0.26633737460E+04  0.27654623342E+04  0.12699999809E+01 0.  1.
</event>
<event>
 5   0  0.5858859E-07  0.3292939E+04  0.7818609E-02  0.8164694E-01
        1   -1    0    0  501    0  0.00000000000E+00  0.00000000000E+00  0.24923906321E+04  0.24923906321E+04  0.50400001928E-02 0. -1.
       -1   -1    0    0    0  501  0.00000000000E+00  0.00000000000E+00 -0.10876554829E+04  0.10876554829E+04  0.50400001928E-02 0.  1.
    10030    2    1    2    0    0  0.00000000000E+00  0.00000000000E+00  0.14047351492E+04  0.35800461150E+04  0.32929393171E+04 0.  0.
        3    1    3    3  502    0 -0.11537446171E+04  0.54626936946E+03  0.18329002207E+04  0.22336204007E+04  0.10100000352E+00 0. -1.
       -3    1    3    3    0  502  0.11537446171E+04 -0.54626936946E+03 -0.42816507145E+03  0.13464257143E+04  0.10100000352E+00 0.  1.
</event>
<event>
 5   0  0.1696681E-06  0.3324829E+04  0.7818609E-02  0.8156606E-01
       -2   -1    0    0    0  501  0.00000000000E+00  0.00000000000E+00  0.10170249471E+04  0.10170249471E+04  0.25500000920E-02 0.  1.
        2   -1    0    0  501    0  0.00000000000E+00  0.00000000000E+00 -0.27173586857E+04  0.27173586857E+04  0.25500000920E-02 0. -1.
    10030    2    1    2    0    0  0.00000000000E+00  0.00000000000E+00 -0.17003337386E+04  0.37343836328E+04  0.33248287617E+04 0.  0.
        4    1    3    3  502    0 -0.48994123997E+02 -0.28329999691E+03  0.98888876627E+03  0.10298358692E+04  0.12699999809E+01 0.  1.
       -4    1    3    3    0  502  0.48994123997E+02  0.28329999691E+03 -0.26892225048E+04  0.27045477636E+04  0.12699999809E+01 0. -1.
</event>
<event>
 5   0  0.1832626E-06  0.3303953E+04  0.7818609E-02  0.8161890E-01
        2   -1    0    0  501    0  0.00000000000E+00  0.00000000000E+00  0.26049307464E+04  0.26049307464E+04  0.25500000920E-02 0.  1.
       -2   -1    0    0    0  501  0.00000000000E+00  0.00000000000E+00 -0.10476389626E+04  0.10476389626E+04  0.25500000920E-02 0. -1.
    10030    2    1    2    0    0  0.00000000000E+00  0.00000000000E+00  0.15572917838E+04  0.36525697090E+04  0.33039533561E+04 0.  0.
        3    1    3    3  502    0  0.84458901900E+03 -0.13640724206E+04  0.34340036726E+03  0.16407156982E+04  0.10100000352E+00 0.  1.
       -3    1    3    3    0  502 -0.84458901900E+03  0.13640724206E+04  0.12138914165E+04  0.20118540109E+04  0.10100000352E+00 0. -1.
</event>
<event>
 5   0  0.1728937E-06  0.3290085E+04  0.7818609E-02  0.8165423E-01
        2   -1    0    0  501    0  0.00000000000E+00  0.00000000000E+00  0.35972973187E+04  0.35972973187E+04  0.25500000920E-02 0. -1.
       -2   -1    0    0    0  501  0.00000000000E+00  0.00000000000E+00 -0.75227712215E+03  0.75227712215E+03  0.25500000920E-02 0.  1.
    10030    2    1    2    0    0  0.00000000000E+00  0.00000000000E+00  0.28450201965E+04  0.43495744408E+04  0.32900847858E+04 0.  0.
        1    1    3    3  502    0  0.14754361633E+04  0.17450870525E+03  0.48882032516E+03  0.15640685632E+04  0.50400001928E-02 0.  1.
       -1    1    3    3    0  502 -0.14754361633E+04 -0.17450870525E+03  0.23561998713E+04  0.27855058776E+04  0.50400001928E-02 0. -1.
</event>
<event>
 5   0  0.1696681E-06  0.3258518E+04  0.7818609E-02  0.8173531E-01
        2   -1    0    0  501    0  0.00000000000E+00  0.00000000000E+00  0.18936695229E+04  0.18936695229E+04  0.25500000920E-02 0.  1.
       -2   -1    0    0    0  501  0.00000000000E+00  0.00000000000E+00 -0.14017679710E+04  0.14017679710E+04  0.25500000920E-02 0. -1.
    10030    2    1    2    0    0  0.00000000000E+00  0.00000000000E+00  0.49190155186E+03  0.32954374939E+04  0.32585182430E+04 0.  0.
        4    1    3    3  502    0 -0.67947109434E+03  0.14724145713E+04  0.86692669432E+02  0.16239466955E+04  0.12699999809E+01 0.  1.
       -4    1    3    3    0  502  0.67947109434E+03 -0.14724145713E+04  0.40520888242E+03  0.16714907984E+04  0.12699999809E+01 0. -1.
</event>
<event>
 5   0  0.5858859E-07  0.3301021E+04  0.7818609E-02  0.8162636E-01
       -1   -1    0    0    0  501  0.00000000000E+00  0.00000000000E+00  0.14903689197E+04  0.14903689197E+04  0.50400001928E-02 0.  1.
        1   -1    0    0  501    0  0.00000000000E+00  0.00000000000E+00 -0.18278597740E+04  0.18278597740E+04  0.50400001928E-02 0. -1.
    10030    2    1    2    0    0  0.00000000000E+00  0.00000000000E+00 -0.33749085432E+03  0.33182286937E+04  0.33010212946E+04 0.  0.
        3    1    3    3  502    0  0.96709542897E+03 -0.19115851985E+03  0.11619262796E+04  0.15237742083E+04  0.10100000352E+00 0.  1.
       -3    1    3    3    0  502 -0.96709542897E+03  0.19115851985E+03 -0.14994171339E+04  0.17944544854E+04  0.10100000352E+00 0. -1.
</event>
<event>
 5   0  0.1832626E-06  0.3293343E+04  0.7818609E-02  0.8164591E-01
       -2   -1    0    0    0  501  0.00000000000E+00  0.00000000000E+00  0.18803172389E+04  0.18803172389E+04  0.25500000920E-02 0. -1.
        2   -1    0    0  501    0  0.00000000000E+00  0.00000000000E+00 -0.14420581625E+04  0.14420581625E+04  0.25500000920E-02 0.  1.
    10030    2    1    2    0    0  0.00000000000E+00  0.00000000000E+00  0.43825907643E+03  0.33223754014E+04  0.32933428747E+04 0.  0.
        3    1    3    3  502    0  0.51239401904E+03 -0.15328051893E+04  0.53732638197E+03  0.17031614809E+04  0.10100000352E+00 0. -1.
       -3    1    3    3    0  502 -0.51239401904E+03  0.15328051893E+04 -0.99067305539E+02  0.16192139205E+04  0.10100000352E+00 0.  1.
</event>
<event>
 5   0  0.5858859E-07  0.2763509E+04  0.7818609E-02  0.8314688E-01
       -1   -1    0    0    0  501  0.00000000000E+00  0.00000000000E+00  0.17207847072E+04  0.17207847072E+04  0.50400001928E-02 0.  1.
        1   -1    0    0  501    0  0.00000000000E+00  0.00000000000E+00 -0.11095199604E+04  0.11095199604E+04  0.50400001928E-02 0. -1.
    10030    2    1    2    0    0  0.00000000000E+00  0.00000000000E+00  0.61126474676E+03  0.28303046676E+04  0.27635086251E+04 0.  0.
        3    1    3    3  502    0 -0.94531977072E+03  0.64296438050E+03  0.11004128244E+04  0.15868021483E+04  0.10100000352E+00 0.  1.
       -3    1    3    3    0  502  0.94531977072E+03 -0.64296438050E+03 -0.48914807765E+03  0.12435025193E+04  0.10100000352E+00 0. -1.
</event>
<event>
 5   0  0.1696681E-06  0.3226783E+04  0.7818609E-02  0.8181779E-01
        2   -1    0    0  501    0  0.00000000000E+00  0.00000000000E+00  0.21821525520E+04  0.21821525520E+04  0.25500000920E-02 0. -1.
       -2   -1    0    0    0  501  0.00000000000E+00  0.00000000000E+00 -0.11928737030E+04  0.11928737030E+04  0.25500000920E-02 0.  1.
    10030    2    1    2    0    0  0.00000000000E+00  0.00000000000E+00  0.98927884908E+03  0.33750262550E+04  0.32267831630E+04 0.  0.
        4    1    3    3  502    0  0.14362704121E+04 -0.63385606346E+03  0.88373045381E+03  0.18015624701E+04  0.12699999809E+01 0. -1.
       -4    1    3    3    0  502 -0.14362704121E+04  0.63385606346E+03  0.10554839528E+03  0.15734637849E+04  0.12699999809E+01 0.  1.
</event>
<event>
 5   0  0.1784626E-06  0.3337463E+04  0.7818609E-02  0.8153428E-01
       -2   -1    0    0    0  501  0.00000000000E+00  0.00000000000E+00  0.31184282479E+04  0.31184282479E+04  0.25500000920E-02 0. -1.
        2   -1    0    0  501    0  0.00000000000E+00  0.00000000000E+00 -0.89297040568E+03  0.89297040568E+03  0.25500000920E-02 0.  1.
    10030    2    1    2    0    0  0.00000000000E+00  0.00000000000E+00  0.22254578422E+04  0.40113986536E+04  0.33374625916E+04 0.  0.
        2    1    3    3  502    0 -0.34019532866E+03  0.14584479816E+04  0.22797342514E+03  0.15148515635E+04  0.25500000920E-02 0.  1.
       -2    1    3    3    0  502  0.34019532866E+03 -0.14584479816E+04  0.19974844170E+04  0.24965470901E+04  0.25500000920E-02 0. -1.
</event>
<event>
 5   0  0.1728937E-06  0.3300260E+04  0.7818609E-02  0.8162829E-01
        2   -1    0    0  501    0  0.00000000000E+00  0.00000000000E+00  0.22820289142E+04  0.22820289142E+04  0.25500000920E-02 0. -1.
       -2   -1    0    0    0  501  0.00000000000E+00  0.00000000000E+00 -0.11932055084E+04  0.11932055084E+04  0.25500000920E-02 0.  1.
    10030    2    1    2    0    0  0.00000000000E+00  0.00000000000E+00  0.10888234057E+04  0.34752344226E+04  0.33002602751E+04 0.  0.
        1    1    3    3  502    0  0.90981578196E+03  0.10172669174E+04 -0.43230617407E+03  0.14316023772E+04  0.50400001928E-02 0.  1.
       -1    1    3    3    0  502 -0.90981578196E+03 -0.10172669174E+04  0.15211295798E+04  0.20436320454E+04  0.50400001928E-02 0. -1.
</event>
<event>
 5   0  0.1832626E-06  0.3301283E+04  0.7818609E-02  0.8162569E-01
       -2   -1    0    0    0  501  0.00000000000E+00  0.00000000000E+00  0.10411962751E+04  0.10411962751E+04  0.25500000920E-02 0. -1.
        2   -1    0    0  501    0  0.00000000000E+00  0.00000000000E+00 -0.26168142042E+04  0.26168142042E+04  0.25500000920E-02 0.  1.
    10030    2    1    2    0    0  0.00000000000E+00  0.00000000000E+00 -0.15756179291E+04  0.36580104793E+04  0.33012829034E+04 0.  0.
        3    1    3    3  502    0  0.10604405760E+04  0.10970355155E+04 -0.90000236693E+02  0.15284374997E+04  0.10100000352E+00 0.  1.
       -3    1    3    3    0  502 -0.10604405760E+04 -0.10970355155E+04 -0.14856176924E+04  0.21295729796E+04  0.10100000352E+00 0. -1.
</event>
<event>
 5   0  0.1784626E-06  0.3288141E+04  0.7818609E-02  0.8165919E-01
        2   -1    0    0  501    0  0.00000000000E+00  0.00000000000E+00  0.23042565246E+04  0.23042565246E+04  0.25500000920E-02 0.  1.
       -2   -1    0    0    0  501  0.00000000000E+00  0.00000000000E+00 -0.11730328154E+04  0.11730328154E+04  0.25500000920E-02 0. -1.
    10030    2    1    2    0    0  0.00000000000E+00  0.00000000000E+00  0.11312237091E+04  0.34772893400E+04  0.32881414316E+04 0.  0.
        2    1    3    3  502    0 -0.12221756804E+04 -0.19772200130E+03 -0.57835429737E+03  0.13664922527E+04  0.25500000920E-02 0. -1.
       -2    1    3    3    0  502  0.12221756804E+04  0.19772200130E+03  0.17095780065E+04  0.21107970873E+04  0.25500000920E-02 0.  1.
</event>
<event>
 5   0  0.5985183E-07  0.3283869E+04  0.7818609E-02  0.8167012E-01
        1   -1    0    0  501    0  0.00000000000E+00  0.00000000000E+00  0.26601509273E+04  0.26601509273E+04  0.50400001928E-02 0.  1.
       -1   -1    0    0    0  501  0.00000000000E+00  0.00000000000E+00 -0.10134571804E+04  0.10134571804E+04  0.50400001928E-02 0. -1.
    10030    2    1    2    0    0  0.00000000000E+00  0.00000000000E+00  0.16466937469E+04  0.36736081077E+04  0.32838690949E+04 0.  0.
        2    1    3    3  502    0 -0.11241732435E+04  0.96131688445E+03  0.16207201563E+04  0.21942263919E+04  0.25500000920E-02 0.  1.
       -2    1    3    3    0  502  0.11241732435E+04 -0.96131688445E+03  0.25973590628E+02  0.14793817158E+04  0.25500000920E-02 0. -1.
</event>
<event>
 5   0  0.5985183E-07  0.3271383E+04  0.7818609E-02  0.8170215E-01
       -1   -1    0    0    0  501  0.00000000000E+00  0.00000000000E+00  0.13397685142E+04  0.13397685142E+04  0.50400001928E-02 0. -1.
        1   -1    0    0  501    0  0.00000000000E+00  0.00000000000E+00 -0.19969773296E+04  0.19969773296E+04  0.50400001928E-02 0.  1.
    10030    2    1    2    0    0  0.00000000000E+00  0.00000000000E+00 -0.65720881547E+03  0.33367458438E+04  0.32713834075E+04 0.  0.
        2    1    3    3  502    0 -0.68327566916E+03  0.11546809440E+04  0.62568145057E+03  0.14804158200E+04  0.25500000920E-02 0. -1.
       -2    1    3    3    0  502  0.68327566916E+03 -0.11546809440E+04 -0.12828902660E+04  0.18563300238E+04  0.25500000920E-02 0.  1.
</event>
<event>
 5   0  0.5988516E-07  0.3314848E+04  0.7818609E-02  0.8159127E-01
       -1   -1    0    0    0  501  0.00000000000E+00  0.00000000000E+00  0.12403103232E+04  0.12403103232E+04  0.50400001928E-02 0.  1.
        1   -1    0    0  501    0  0.00000000000E+00  0.00000000000E+00 -0.22148126608E+04  0.22148126608E+04  0.50400001928E-02 0. -1.
    10030    2    1    2    0    0  0.00000000000E+00  0.00000000000E+00 -0.97450233759E+03  0.34551229840E+04  0.33148484172E+04 0.  0.
        4    1    3    3  502    0 -0.16269135390E+04  0.27208460276E+03 -0.65588666281E+03  0.17751243961E+04  0.12699999809E+01 0.  1.
       -4    1    3    3    0  502  0.16269135390E+04 -0.27208460276E+03 -0.31861567478E+03  0.16799985879E+04  0.12699999809E+01 0. -1.
</event>
<event>
 5   0  0.6023446E-07  0.3338514E+04  0.7818609E-02  0.8153164E-01
        1   -1    0    0  501    0  0.00000000000E+00  0.00000000000E+00  0.20176602787E+04  0.20176602787E+04  0.50400001928E-02 0. -1.
       -1   -1    0    0    0  501  0.00000000000E+00  0.00000000000E+00 -0.13810145139E+04  0.13810145139E+04  0.50400001928E-02 0.  1.
    10030    2    1    2    0    0  0.00000000000E+00  0.00000000000E+00  0.63664576484E+03  0.33986747926E+04  0.33385135189E+04 0.  0.
        5    1    3    3  502    0  0.13396816204E+04  0.96567425559E+03  0.70790171609E+02  0.16529691317E+04  0.46999998093E+01 0.  1.
       -5    1    3    3    0  502 -0.13396816204E+04 -0.96567425559E+03  0.56585559323E+03  0.17457056609E+04  0.46999998093E+01 0. -1.
</event>
<event>
 5   0  0.6023446E-07  0.3510442E+04  0.7818609E-02  0.8111320E-01
       -1   -1    0    0    0  501  0.00000000000E+00  0.00000000000E+00  0.14179402942E+04  0.14179402942E+04  0.50400001928E-02 0. -1.
        1   -1    0    0  501    0  0.00000000000E+00  0.00000000000E+00 -0.21727300079E+04  0.21727300079E+04  0.50400001928E-02 0.  1.
    10030    2    1    2    0    0  0.00000000000E+00  0.00000000000E+00 -0.75478971367E+03  0.35906703021E+04  0.35104423805E+04 0.  0.
        5    1    3    3  502    0  0.10885955249E+04  0.85267986616E+03  0.72836488497E+03  0.15628949634E+04  0.46999998093E+01 0. -1.
       -5    1    3    3    0  502 -0.10885955249E+04 -0.85267986616E+03 -0.14831545986E+04  0.20277753387E+04  0.46999998093E+01 0.  1.
</event>
<event>
 5   0  0.1832626E-06  0.3289734E+04  0.7818609E-02  0.8165512E-01
        2   -1    0    0  501    0  0.00000000000E+00  0.00000000000E+00  0.20778779186E+04  0.20778779186E+04  0.25500000920E-02 0. -1.
       -2   -1    0    0    0  501  0.00000000000E+00  0.00000000000E+00 -0.13020919257E+04  0.13020919257E+04  0.25500000920E-02 0.  1.
    10030    2    1    2    0    0  0.00000000000E+00  0.00000000000E+00  0.77578599285E+03  0.33799698443E+04  0.32897343725E+04 0.  0.
        3    1    3    3  502    0  0.65922375831E+03  0.13375096564E+04 -0.32547160135E+03  0.15262502475E+04  0.10100000352E+00 0.  1.
       -3    1    3    3    0  502 -0.65922375831E+03 -0.13375096564E+04  0.11012575942E+04  0.18537195968E+04  0.10100000352E+00 0. -1.
</event>
<event>
 5   0  0.1832626E-06  0.3242112E+04  0.7818609E-02  0.8177783E-01
        2   -1    0    0  501    0  0.00000000000E+00  0.00000000000E+00  0.12054517380E+04  0.12054517380E+04  0.25500000920E-02 0.  1.
       -2   -1    0    0    0  501  0.00000000000E+00  0.00000000000E+00 -0.21799480693E+04  0.21799480693E+04  0.25500000920E-02 0. -1.
    10030    2    1    2    0    0  0.00000000000E+00  0.00000000000E+00 -0.97449633137E+03  0.33853998073E+04  0.32421117741E+04 0.  0.
        3    1    3    3  502    0  0.53115489822E+03 -0.10297371004E+03  0.11083887637E+04  0.12333915731E+04  0.10100000352E+00 0.  1.
       -3    1    3    3    0  502 -0.53115489822E+03  0.10297371004E+03 -0.20828850951E+04  0.21520082342E+04  0.10100000352E+00 0. -1.
</event>
<event>
 5   0  0.6023446E-07  0.3276886E+04  0.7818609E-02  0.8168802E-01
        1   -1    0    0  501    0  0.00000000000E+00  0.00000000000E+00  0.14095171660E+04  0.14095171660E+04  0.50400001928E-02 0.  1.
       -1   -1    0    0    0  501  0.00000000000E+00  0.00000000000E+00 -0.19045497994E+04  0.19045497994E+04  0.50400001928E-02 0. -1.
    10030    2    1    2    0    0  0.00000000000E+00  0.00000000000E+00 -0.49503263345E+03  0.33140669654E+04  0.32768861046E+04 0.  0.
        5    1    3    3  502    0  0.32081475441E+03 -0.31341427791E+02  0.13771257111E+04  0.14143555797E+04  0.46999998093E+01 0.  1.
       -5    1    3    3    0  502 -0.32081475441E+03  0.31341427791E+02 -0.18721583445E+04  0.18997113857E+04  0.46999998093E+01 0. -1.
</event>
<event>
 5   0  0.1728937E-06  0.3526538E+04  0.7818609E-02  0.8107529E-01
        2   -1    0    0  501    0  0.00000000000E+00  0.00000000000E+00  0.28945254629E+04  0.28945254629E+04  0.25500000920E-02 0. -1.
       -2   -1    0    0    0  501  0.00000000000E+00  0.00000000000E+00 -0.10741371572E+04  0.10741371572E+04  0.25500000920E-02 0.  1.
    10030    2    1    2    0    0  0.00000000000E+00  0.00000000000E+00  0.18203883057E+04  0.39686626202E+04  0.35265378786E+04 0.  0.
        1    1    3    3  502    0 -0.15623222506E+04  0.35896138548E+03  0.17367199962E+04  0.23634509591E+04  0.50400001928E-02 0. -1.
       -1    1    3    3    0  502  0.15623222506E+04 -0.35896138548E+03  0.83668309523E+02  0.16052116611E+04  0.50400001928E-02 0.  1.
</event>
<event>
 5   0  0.5985183E-07  0.3235511E+04  0.7818609E-02  0.8179501E-01
        1   -1    0    0  501    0  0.00000000000E+00  0.00000000000E+00  0.11948160716E+04  0.11948160716E+04  0.50400001928E-02 0.  1.
       -1   -1    0    0    0  501  0.00000000000E+00  0.00000000000E+00 -0.21904060980E+04  0.21904060980E+04  0.50400001928E-02 0. -1.
    10030    2    1    2    0    0  0.00000000000E+00  0.00000000000E+00 -0.99559002644E+03  0.33852221696E+04  0.32355107227E+04 0.  0.
        2    1    3    3  502    0  0.11349035000E+04 -0.11528655639E+04 -0.50327637111E+03  0.16942231460E+04  0.25500000920E-02 0.  1.
       -2    1    3    3    0  502 -0.11349035000E+04  0.11528655639E+04 -0.49231365533E+03  0.16909990236E+04  0.25500000920E-02 0. -1.
</event>
<event>
 5   0  0.1832626E-06  0.3289137E+04  0.7818609E-02  0.8165665E-01
       -2   -1    0    0    0  501  0.00000000000E+00  0.00000000000E+00  0.15609140705E+04  0.15609140705E+04  0.25500000920E-02 0.  1.
        2   -1    0    0  501    0  0.00000000000E+00  0.00000000000E+00 -0.17327062713E+04  0.17327062713E+04  0.25500000920E-02 0. -1.
    10030    2    1    2    0    0  0.00000000000E+00  0.00000000000E+00 -0.17179220074E+03  0.32936203418E+04  0.32891370290E+04 0.  0.
        3    1    3    3  502    0  0.75375145670E+02  0.43525295309E+03 -0.16721889105E+04  0.17295497415E+04  0.10100000352E+00 0. -1.
       -3    1    3    3    0  502 -0.75375145670E+02 -0.43525295309E+03  0.15003967098E+04  0.15640706003E+04  0.10100000352E+00 0.  1.
</event>
<event>
 5   0  0.1696681E-06  0.3327385E+04  0.7818609E-02  0.8155962E-01
       -2   -1    0    0    0  501  0.00000000000E+00  0.00000000000E+00  0.19732371685E+04  0.19732371685E+04  0.25500000920E-02 0. -1.
        2   -1    0    0  501    0  0.00000000000E+00  0.00000000000E+00 -0.14027063463E+04  0.14027063463E+04  0.25500000920E-02 0.  1.
    10030    2    1    2    0    0  0.00000000000E+00  0.00000000000E+00  0.57053082220E+03  0.33759435147E+04  0.33273847381E+04 0.  0.
        4    1    3    3  502    0 -0.13127595581E+04  0.30485857405E+03  0.12749984371E+04  0.18552355740E+04  0.12699999809E+01 0. -1.
       -4    1    3    3    0  502  0.13127595581E+04 -0.30485857405E+03 -0.70446761485E+03  0.15207079407E+04  0.12699999809E+01 0.  1.
</event>
<event>
 5   0  0.1743810E-06  0.3159074E+04  0.7818609E-02  0.8199710E-01
       -2   -1    0    0    0  501  0.00000000000E+00  0.00000000000E+00  0.20008384376E+04  0.20008384376E+04  0.25500000920E-02 0.  1.
        2   -1    0    0  501    0  0.00000000000E+00  0.00000000000E+00 -0.12469457238E+04  0.12469457238E+04  0.25500000920E-02 0. -1.
    10030    2    1    2    0    0  0.00000000000E+00  0.00000000000E+00  0.75389271380E+03  0.32477841613E+04  0.31590738729E+04 0.  0.
        5    1    3    3  502    0 -0.15124316139E+03 -0.18515979882E+03 -0.12282291065E+04  0.12512903232E+04  0.46999998093E+01 0. -1.
       -5    1    3    3    0  502  0.15124316139E+03  0.18515979882E+03  0.19821218203E+04  0.19964938381E+04  0.46999998093E+01 0.  1.
</event>
<event>
 5   0  0.6085351E-07  0.3315630E+04  0.7818609E-02  0.8158930E-01
       -1   -1    0    0    0  501  0.00000000000E+00  0.00000000000E+00  0.12001788145E+04  0.12001788145E+04  0.50400001928E-02 0.  1.
        1   -1    0    0  501    0  0.00000000000E+00  0.00000000000E+00 -0.22899512865E+04  0.22899512865E+04  0.50400001928E-02 0. -1.
    10030    2    1    2    0    0  0.00000000000E+00  0.00000000000E+00 -0.10897724720E+04  0.34901301010E+04  0.33156302691E+04 0.  0.
        1    1    3    3  502    0  0.34856380577E+03 -0.63422489878E+03  0.10251250090E+04  0.12548383294E+04  0.50400001928E-02 0.  1.
       -1    1    3    3    0  502 -0.34856380577E+03  0.63422489878E+03 -0.21148974810E+04  0.22352917716E+04  0.50400001928E-02 0. -1.
</event>
<event>
 5   0  0.5858859E-07  0.3302853E+04  0.7818609E-02  0.8162170E-01
       -1   -1    0    0    0  501  0.00000000000E+00  0.00000000000E+00  0.13071848083E+04  0.13071848083E+04  0.50400001928E-02 0.  1.
        1   -1    0    0  501    0  0.00000000000E+00  0.00000000000E+00 -0.20863226148E+04  0.20863226148E+04  0.50400001928E-02 0. -1.
    10030    2    1    2    0    0  0.00000000000E+00  0.00000000000E+00 -0.77913780651E+03  0.33935074231E+04  0.33028528440E+04 0.  0.
        3    1    3    3  502    0  0.58317886741E+03  0.74930384592E+03  0.99868524151E+03  0.13780152636E+04  0.10100000352E+00 0. -1.
       -3    1    3    3    0  502 -0.58317886741E+03 -0.74930384592E+03 -0.17778230480E+04  0.20154921595E+04  0.10100000352E+00 0.  1.
</event>
<event>
 5   0  0.5988516E-07  0.3298236E+04  0.7818609E-02  0.8163344E-01
       -1   -1    0    0    0  501  0.00000000000E+00  0.00000000000E+00  0.17320793369E+04  0.17320793369E+04  0.50400001928E-02 0. -1.
        1   -1    0    0  501    0  0.00000000000E+00  0.00000000000E+00 -0.15701301322E+04  0.15701301322E+04  0.50400001928E-02 0.  1.
    10030    2    1    2    0    0  0.00000000000E+00  0.00000000000E+00  0.16194920468E+03  0.33022094690E+04  0.32982358667E+04 0.  0.
        4    1    3    3  502    0 -0.42969757788E+03 -0.11476520478E+04  0.11858634264E+04  0.17052914444E+04  0.12699999809E+01 0. -1.
       -4    1    3    3    0  502  0.42969757788E+03  0.11476520478E+04 -0.10239142217E+04  0.15969180247E+04  0.12699999809E+01 0.  1.
</event>
<event>
 5   0  0.6023446E-07  0.3302450E+04  0.7818609E-02  0.8162272E-01
       -1   -1    0    0    0  501  0.00000000000E+00  0.00000000000E+00  0.13782887834E+04  0.13782887834E+04  0.50400001928E-02 0.  1.
        1   -1    0    0  501    0  0.00000000000E+00  0.00000000000E+00 -0.19782095102E+04  0.19782095102E+04  0.50400001928E-02 0. -1.
    10030    2    1    2    0    0  0.00000000000E+00  0.00000000000E+00 -0.59992072676E+03  0.33564982936E+04  0.33024499870E+04 0.  0.
        5    1    3    3  502    0  0.97264941592E+03 -0.11742871341E+04 -0.94399070836E+03  0.17933593357E+04  0.46999998093E+01 0. -1.
       -5    1    3    3    0  502 -0.97264941592E+03  0.11742871341E+04  0.34406998160E+03  0.15631389579E+04  0.46999998093E+01 0.  1.
</event>
<event>
 5   0  0.1832626E-06  0.3306435E+04  0.7818609E-02  0.8161260E-01
        2   -1    0    0  501    0  0.00000000000E+00  0.00000000000E+00  0.19512094697E+04  0.19512094697E+04  0.25500000920E-02 0. -1.
       -2   -1    0    0    0  501  0.00000000000E+00  0.00000000000E+00 -0.14007350767E+04  0.14007350767E+04  0.25500000920E-02 0.  1.
    10030    2    1    2    0    0  0.00000000000E+00  0.00000000000E+00  0.55047439293E+03  0.33519445464E+04  0.33064346636E+04 0.  0.
        3    1    3    3  502    0 -0.12539193168E+04  0.32992067777E+03 -0.76453399147E+03  0.15052154467E+04  0.10100000352E+00 0.  1.
       -3    1    3    3    0  502  0.12539193168E+04 -0.32992067777E+03  0.13150083844E+04  0.18467290997E+04  0.10100000352E+00 0. -1.
</event>
<event>
 5   0  0.5985183E-07  0.3288519E+04  0.7818609E-02  0.8165823E-01
       -1   -1    0    0    0  501  0.00000000000E+00  0.00000000000E+00  0.19005637244E+04  0.19005637244E+04  0.50400001928E-02 0.  1.
        1   -1    0    0  501    0  0.00000000000E+00  0.00000000000E+00 -0.14225199791E+04  0.14225199791E+04  0.50400001928E-02 0. -1.
    10030    2    1    2    0    0  0.00000000000E+00  0.00000000000E+00  0.47804374524E+03  0.33230837035E+04  0.32885193444E+04 0.  0.
        2    1    3    3  502    0 -0.10510068663E+04 -0.10011065947E+04 -0.54160004450E+03  0.15492451243E+04  0.25500000920E-02 0. -1.
       -2    1    3    3    0  502  0.10510068663E+04  0.10011065947E+04  0.10196437897E+04  0.17738385792E+04  0.25500000920E-02 0.  1.
</event>
<event>
 5   0  0.5988516E-07  0.3279697E+04  0.7818609E-02  0.8168081E-01
        1   -1    0    0  501    0  0.00000000000E+00  0.00000000000E+00  0.25137670090E+04  0.25137670090E+04  0.50400001928E-02 0.  1.
       -1   -1    0    0    0  501  0.00000000000E+00  0.00000000000E+00 -0.10697501612E+04  0.10697501612E+04  0.50400001928E-02 0. -1.
    10030    2    1    2    0    0  0.00000000000E+00  0.00000000000E+00  0.14440168478E+04  0.35835171703E+04  0.32796967318E+04 0.  0.
        4    1    3    3  502    0  0.12067045333E+03 -0.16212253241E+04  0.48723604881E+03  0.16971545275E+04  0.12699999809E+01 0. -1.
       -4    1    3    3    0  502 -0.12067045333E+03  0.16212253241E+04  0.95678079901E+03  0.18863626428E+04  0.12699999809E+01 0.  1.
</event>
<event>
 5   0  0.5858859E-07  0.3320976E+04  0.7818609E-02  0.8157578E-01
        1   -1    0    0  501    0  0.00000000000E+00  0.00000000000E+00  0.16049939775E+04  0.16049939775E+04  0.50400001928E-02 0. -1.
       -1   -1    0    0    0  501  0.00000000000E+00  0.00000000000E+00 -0.17179006536E+04  0.17179006537E+04  0.50400001928E-02 0.  1.
    10030    2    1    2    0    0  0.00000000000E+00  0.00000000000E+00 -0.11290667619E+03  0.33228946311E+04  0.33209758825E+04 0.  0.
        3    1    3    3  502    0  0.84306176416E+03  0.77798360831E+03  0.11447437336E+04  0.16206325490E+04  0.10100000352E+00 0. -1.
       -3    1    3    3    0  502 -0.84306176416E+03 -0.77798360831E+03 -0.12576504098E+04  0.17022620822E+04  0.10100000352E+00 0.  1.
</event>
<event>
 5   0  0.5988516E-07  0.3306531E+04  0.7818609E-02  0.8161236E-01
       -1   -1    0    0    0  501  0.00000000000E+00  0.00000000000E+00  0.17859372383E+04  0.17859372383E+04  0.50400001928E-02 0. -1.
        1   -1    0    0  501    0  0.00000000000E+00  0.00000000000E+00 -0.15304494769E+04  0.15304494769E+04  0.50400001928E-02 0.  1.
    10030    2    1    2    0    0  0.00000000000E+00  0.00000000000E+00  0.25548776140E+03  0.33163867152E+04  0.33065309386E+04 0.  0.
        4    1    3    3  502    0 -0.15801613375E+04  0.13909430448E+03 -0.33950737946E+03  0.16221972604E+04  0.12699999809E+01 0.  1.
       -4    1    3    3    0  502  0.15801613375E+04 -0.13909430448E+03  0.59499514086E+03  0.16941894548E+04  0.12699999809E+01 0. -1.
</event>
<event>
 5   0  0.1784626E-06  0.3289760E+04  0.7818609E-02  0.8165506E-01
        2   -1    0    0  501    0  0.00000000000E+00  0.00000000000E+00  0.23507488497E+04  0.23507488497E+04  0.25500000920E-02 0. -1.
       -2   -1    0    0    0  501  0.00000000000E+00  0.00000000000E+00 -0.11509654809E+04  0.11509654809E+04  0.25500000920E-02 0.  1.
    10030    2    1    2    0    0  0.00000000000E+00  0.00000000000E+00  0.11997833687E+04  0.35017143306E+04  0.32897603440E+04 0.  0.
        2    1    3    3  502    0 -0.48750211104E+02  0.14721520284E+04  0.13791976555E+04  0.20178687645E+04  0.25500000920E-02 0. -1.
       -2    1    3    3    0  502  0.48750211104E+02 -0.14721520284E+04 -0.17941428671E+03  0.14838455661E+04  0.25500000920E-02 0.  1.
</event>
<event>
 5   0  0.1743810E-06  0.3296662E+04  0.7818609E-02  0.8163745E-01
       -2   -1    0    0    0  501  0.00000000000E+00  0.00000000000E+00  0.81994895095E+03  0.81994895096E+03  0.25500000920E-02 0.  1.
        2   -1    0    0  501    0  0.00000000000E+00  0.00000000000E+00 -0.33136139538E+04  0.33136139538E+04  0.25500000920E-02 0. -1.
    10030    2    1    2    0    0  0.00000000000E+00  0.00000000000E+00 -0.24936650029E+04  0.41335629048E+04  0.32966615145E+04 0.  0.
        5    1    3    3  502    0 -0.87447648821E+03  0.34042258122E+03 -0.29459794578E+04  0.30918301567E+04  0.46999998093E+01 0. -1.
       -5    1    3    3    0  502  0.87447648821E+03 -0.34042258122E+03  0.45231445493E+03  0.10417327481E+04  0.46999998093E+01 0.  1.
</event>
<event>
 5   0  0.1832626E-06  0.3164866E+04  0.7818609E-02  0.8198158E-01
        2   -1    0    0  501    0  0.00000000000E+00  0.00000000000E+00  0.28894565169E+04  0.28894565169E+04  0.25500000920E-02 0. -1.
       -2   -1    0    0    0  501  0.00000000000E+00  0.00000000000E+00 -0.86663136930E+03  0.86663136930E+03  0.25500000920E-02 0.  1.
    10030    2    1    2    0    0  0.00000000000E+00  0.00000000000E+00  0.20228251476E+04  0.37560878862E+04  0.31648656576E+04 0.  0.
        3    1    3    3  502    0 -0.35719533311E+03  0.14583860322E+04  0.41846528688E+03  0.15587147049E+04  0.10100000352E+00 0.  1.
       -3    1    3    3    0  502  0.35719533311E+03 -0.14583860322E+04  0.16043598607E+04  0.21973731812E+04  0.10100000352E+00 0. -1.
</event>
<event>
 5   0  0.1743810E-06  0.3282376E+04  0.7818609E-02  0.8167394E-01
       -2   -1    0    0    0  501  0.00000000000E+00  0.00000000000E+00  0.25945062682E+04  0.25945062682E+04  0.25500000920E-02 0. -1.
        2   -1    0    0  501    0  0.00000000000E+00  0.00000000000E+00 -0.10381542928E+04  0.10381542928E+04  0.25500000920E-02 0.  1.
    10030    2    1    2    0    0  0.00000000000E+00  0.00000000000E+00  0.15563519754E+04  0.36326605610E+04  0.32823758591E+04 0.  0.
        5    1    3    3  502    0  0.81936506034E+03  0.11024699410E+04  0.17721756893E+04  0.22421926404E+04  0.46999998093E+01 0. -1.
       -5    1    3    3    0  502 -0.81936506034E+03 -0.11024699410E+04 -0.21582371388E+03  0.13904679206E+04  0.46999998093E+01 0.  1.
</event>
<event>
 5   0  0.5988516E-07  0.3130889E+04  0.7818609E-02  0.8207312E-01
       -1   -1    0    0    0  501  0.00000000000E+00  0.00000000000E+00  0.22015446457E+04  0.22015446457E+04  0.50400001928E-02 0.  1.
        1   -1    0    0  501    0  0.00000000000E+00  0.00000000000E+00 -0.11131349712E+04  0.11131349712E+04  0.50400001928E-02 0. -1.
    10030    2    1    2    0    0  0.00000000000E+00  0.00000000000E+00  0.10884096745E+04  0.33146796169E+04  0.31308889062E+04 0.  0.
        4    1    3    3  502    0 -0.10024283852E+04  0.21339553759E+03  0.17969743323E+04  0.20686997575E+04  0.12699999809E+01 0.  1.
       -4    1    3    3    0  502  0.10024283852E+04 -0.21339553759E+03 -0.70856465778E+03  0.12459798594E+04  0.12699999809E+01 0. -1.
</event>
<event>
 5   0  0.6023446E-07  0.2903138E+04  0.7818609E-02  0.8271944E-01
       -1   -1    0    0    0  501  0.00000000000E+00  0.00000000000E+00  0.15447910491E+04  0.15447910492E+04  0.50400001928E-02 0.  1.
        1   -1    0    0  501    0  0.00000000000E+00  0.00000000000E+00 -0.13639725358E+04  0.13639725359E+04  0.50400001928E-02 0. -1.
    10030    2    1    2    0    0  0.00000000000E+00  0.00000000000E+00  0.18081851330E+03  0.29087635850E+04  0.29031380020E+04 0.  0.
        5    1    3    3  502    0 -0.32683427308E+03 -0.84765140165E+03  0.12247235813E+04  0.15248945804E+04  0.46999998093E+01 0.  1.
       -5    1    3    3    0  502  0.32683427308E+03  0.84765140165E+03 -0.10439050680E+04  0.13838690046E+04  0.46999998093E+01 0. -1.
</event>
<event>
 5   0  0.5858859E-07  0.3321835E+04  0.7818609E-02  0.8157361E-01
        1   -1    0    0  501    0  0.00000000000E+00  0.00000000000E+00  0.16067586317E+04  0.16067586317E+04  0.50400001928E-02 0.  1.
       -1   -1    0    0    0  501  0.00000000000E+00  0.00000000000E+00 -0.17169023658E+04  0.17169023658E+04  0.50400001928E-02 0. -1.
    10030    2    1    2    0    0  0.00000000000E+00  0.00000000000E+00 -0.11014373416E+03  0.33236609975E+04  0.33218354541E+04 0.  0.
        3    1    3    3  502    0  0.14261937285E+04  0.84278152029E+03  0.64737179256E+02  0.16578601132E+04  0.10100000352E+00 0.  1.
       -3    1    3    3    0  502 -0.14261937285E+04 -0.84278152029E+03 -0.17488091341E+03  0.16658008843E+04  0.10100000352E+00 0. -1.
</event>
<event>
 5   0  0.6023446E-07  0.2994250E+04  0.7818609E-02  0.8245375E-01
        1   -1    0    0  501    0  0.00000000000E+00  0.00000000000E+00  0.19532276693E+04  0.19532276693E+04  0.50400001928E-02 0.  1.
       -1   -1    0    0    0  501  0.00000000000E+00  0.00000000000E+00 -0.11475280236E+04  0.11475280236E+04  0.50400001928E-02 0. -1.
    10030    2    1    2    0    0  0.00000000000E+00  0.00000000000E+00  0.80569964572E+03  0.31007556930E+04  0.29942501479E+04 0.  0.
        5    1    3    3  502    0 -0.28897365260E+03  0.30124188016E+03 -0.10860351760E+04  0.11635063110E+04  0.46999998093E+01 0. -1.
       -5    1    3    3    0  502  0.28897365260E+03 -0.30124188016E+03  0.18917348217E+04  0.19372493820E+04  0.46999998093E+01 0.  1.
</event>
<event>
 5   0  0.1784626E-06  0.3288292E+04  0.7818609E-02  0.8165881E-01
       -2   -1    0    0    0  501  0.00000000000E+00  0.00000000000E+00  0.12558922095E+04  0.12558922095E+04  0.25500000920E-02 0.  1.
        2   -1    0    0  501    0  0.00000000000E+00  0.00000000000E+00 -0.21524262626E+04  0.21524262626E+04  0.25500000920E-02 0. -1.
    10030    2    1    2    0    0  0.00000000000E+00  0.00000000000E+00 -0.89653405309E+03  0.34083184721E+04  0.32882915775E+04 0.  0.
        2    1    3    3  502    0 -0.93712678008E+03  0.19801046299E+03 -0.18333836263E+04  0.20685043550E+04  0.25500000920E-02 0. -1.
       -2    1    3    3    0  502  0.93712678008E+03 -0.19801046299E+03  0.93684957322E+03  0.13398141171E+04  0.25500000920E-02 0.  1.
</event>
<event>
 5   0  0.1832626E-06  0.3297513E+04  0.7818609E-02  0.8163529E-01
       -2   -1    0    0    0  501  0.00000000000E+00  0.00000000000E+00  0.15109778472E+04  0.15109778472E+04  0.25500000920E-02 0.  1.
        2   -1    0    0  501    0  0.00000000000E+00  0.00000000000E+00 -0.17990981349E+04  0.17990981349E+04  0.25500000920E-02 0. -1.
    10030    2    1    2    0    0  0.00000000000E+00  0.00000000000E+00 -0.28812028774E+03  0.33100759820E+04  0.32975126545E+04 0.  0.
        3    1    3    3  502    0 -0.60343488780E+03 -0.11792121118E+03  0.13915913678E+04  0.15213696530E+04  0.10100000352E+00 0.  1.
       -3    1    3    3    0  502  0.60343488780E+03  0.11792121118E+03 -0.16797116555E+04  0.17887063291E+04  0.10100000352E+00 0. -1.
</event>
<event>
 5   0  0.1832626E-06  0.3313593E+04  0.7818609E-02  0.8159445E-01
        2   -1    0    0  501    0  0.00000000000E+00  0.00000000000E+00  0.21959950050E+04  0.21959950050E+04  0.25500000920E-02 0. -1.
       -2   -1    0    0    0  501  0.00000000000E+00  0.00000000000E+00 -0.12499909754E+04  0.12499909754E+04  0.25500000920E-02 0.  1.
    10030    2    1    2    0    0  0.00000000000E+00  0.00000000000E+00  0.94600402957E+03  0.34459859804E+04  0.33135925750E+04 0.  0.
        3    1    3    3  502    0 -0.19340668668E+03 -0.28653803524E+03 -0.12120659021E+04  0.12604022982E+04  0.10100000352E+00 0.  1.
       -3    1    3    3    0  502  0.19340668668E+03  0.28653803524E+03  0.21580699316E+04  0.21855836822E+04  0.10100000352E+00 0. -1.
</event>
<event>
 5   0  0.5985183E-07  0.3336761E+04  0.7818609E-02  0.8153604E-01
        1   -1    0    0  501    0  0.00000000000E+00  0.00000000000E+00  0.15794253009E+04  0.15794253009E+04  0.50400001928E-02 0. -1.
       -1   -1    0    0    0  501  0.00000000000E+00  0.00000000000E+00 -0.17623461291E+04  0.17623461291E+04  0.50400001928E-02 0.  1.
    10030    2    1    2    0    0  0.00000000000E+00  0.00000000000E+00 -0.18292082815E+03  0.33417714300E+04  0.33367613431E+04 0.  0.
        2    1    3    3  502    0  0.26571696024E+03 -0.16410330429E+04 -0.23273644026E+03  0.16786188375E+04  0.25500000920E-02 0. -1.
       -2    1    3    3    0  502 -0.26571696024E+03  0.16410330429E+04  0.49815612119E+02  0.16631525925E+04  0.25500000920E-02 0.  1.
</event>
<event>
 5   0  0.1696681E-06  0.3291101E+04  0.7818609E-02  0.8165163E-01
        2   -1    0    0  501    0  0.00000000000E+00  0.00000000000E+00  0.19385154050E+04  0.19385154050E+04  0.25500000920E-02 0.  1.
       -2   -1    0    0    0  501  0.00000000000E+00  0.00000000000E+00 -0.13968612606E+04  0.13968612606E+04  0.25500000920E-02 0. -1.
    10030    2    1    2    0    0  0.00000000000E+00  0.00000000000E+00  0.54165414439E+03  0.33353766655E+04  0.32911013793E+04 0.  0.
        4    1    3    3  502    0 -0.95624789389E+03  0.13303033927E+04  0.42690643373E+03  0.16930351051E+04  0.12699999809E+01 0. -1.
       -4    1    3    3    0  502  0.95624789389E+03 -0.13303033927E+04  0.11474771066E+03  0.16423415604E+04  0.12699999809E+01 0.  1.
</event>
<event>
 5   0  0.1832626E-06  0.3197248E+04  0.7818609E-02  0.8189544E-01
        2   -1    0    0  501    0  0.00000000000E+00  0.00000000000E+00  0.21263638922E+04  0.21263638922E+04  0.25500000920E-02 0.  1.
       -2   -1    0    0    0  501  0.00000000000E+00  0.00000000000E+00 -0.12018631601E+04  0.12018631601E+04  0.25500000920E-02 0. -1.
    10030    2    1    2    0    0  0.00000000000E+00  0.00000000000E+00  0.92450073207E+03  0.33282270523E+04  0.31972478334E+04 0.  0.
        3    1    3    3  502    0 -0.75932235440E+03 -0.10795552876E+04  0.14011928888E+04  0.19249289802E+04  0.10100000352E+00 0.  1.
       -3    1    3    3    0  502  0.75932235440E+03  0.10795552876E+04 -0.47669215675E+03  0.14032980721E+04  0.10100000352E+00 0. -1.
</event>
<event>
 5   0  0.1832626E-06  0.3291368E+04  0.7818609E-02  0.8165095E-01
       -2   -1    0    0    0  501  0.00000000000E+00  0.00000000000E+00  0.13624734218E+04  0.13624734218E+04  0.25500000920E-02 0. -1.
        2   -1    0    0  501    0  0.00000000000E+00  0.00000000000E+00 -0.19877641734E+04  0.19877641734E+04  0.25500000920E-02 0.  1.
    10030    2    1    2    0    0  0.00000000000E+00  0.00000000000E+00 -0.62529075160E+03  0.33502375952E+04  0.32913680166E+04 0.  0.
        3    1    3    3  502    0 -0.14861869045E+04 -0.35184866632E+03 -0.93657452595E+03  0.17915693824E+04  0.10100000352E+00 0. -1.
       -3    1    3    3    0  502  0.14861869045E+04  0.35184866632E+03  0.31128377435E+03  0.15586682128E+04  0.10100000352E+00 0.  1.
</event>
<event>
 5   0  0.1832626E-06  0.3259363E+04  0.7818609E-02  0.8173313E-01
       -2   -1    0    0    0  501  0.00000000000E+00  0.00000000000E+00  0.14543659075E+04  0.14543659076E+04  0.25500000920E-02 0.  1.
        2   -1    0    0  501    0  0.00000000000E+00  0.00000000000E+00 -0.18261305374E+04  0.18261305374E+04  0.25500000920E-02 0. -1.
    10030    2    1    2    0    0  0.00000000000E+00  0.00000000000E+00 -0.37176462984E+03  0.32804964449E+04  0.32593631257E+04 0.  0.
        3    1    3    3  502    0  0.63256742997E+03  0.12732201710E+04  0.61592018530E+03  0.15493833748E+04  0.10100000352E+00 0. -1.
       -3    1    3    3    0  502 -0.63256742997E+03 -0.12732201710E+04 -0.98768481513E+03  0.17311130701E+04  0.10100000352E+00 0.  1.
</event>
<event>
 5   0  0.1743810E-06  0.3319736E+04  0.7818609E-02  0.8157892E-01
       -2   -1    0    0    0  501  0.00000000000E+00  0.00000000000E+00  0.12581355581E+04  0.12581355581E+04  0.25500000920E-02 0.  1.
        2   -1    0    0  501    0  0.00000000000E+00  0.00000000000E+00 -0.21898763549E+04  0.21898763549E+04  0.25500000920E-02 0. -1.
    10030    2    1    2    0    0  0.00000000000E+00  0.00000000000E+00 -0.93174079681E+03  0.34480119130E+04  0.33197357183E+04 0.  0.
        5    1    3    3  502    0 -0.96648817878E+03  0.12667232198E+04  0.17350994346E+02  0.15934272065E+04  0.46999998093E+01 0.  1.
       -5    1    3    3    0  502  0.96648817878E+03 -0.12667232198E+04 -0.94909179116E+03  0.18545847065E+04  0.46999998093E+01 0. -1.
</event>
<event>
 5   0  0.5858859E-07  0.3342209E+04  0.7818609E-02  0.8152238E-01
       -1   -1    0    0    0  501  0.00000000000E+00  0.00000000000E+00  0.14518286416E+04  0.14518286416E+04  0.50400001928E-02 0.  1.
        1   -1    0    0  501    0  0.00000000000E+00  0.00000000000E+00 -0.19234986172E+04  0.19234986172E+04  0.50400001928E-02 0. -1.
    10030    2    1    2    0    0  0.00000000000E+00  0.00000000000E+00 -0.47166997555E+03  0.33753272588E+04  0.33422090805E+04 0.  0.
        3    1    3    3  502    0 -0.70076894396E+03 -0.48233328282E+03 -0.16884437146E+04  0.18906519236E+04  0.10100000352E+00 0. -1.
       -3    1    3    3    0  502  0.70076894396E+03  0.48233328282E+03  0.12167737391E+04  0.14846753352E+04  0.10100000352E+00 0.  1.
</event>
<event>
 5   0  0.5985183E-07  0.3265879E+04  0.7818609E-02  0.8171632E-01
       -1   -1    0    0    0  501  0.00000000000E+00  0.00000000000E+00  0.13173426534E+04  0.13173426534E+04  0.50400001928E-02 0. -1.
        1   -1    0    0  501    0  0.00000000000E+00  0.00000000000E+00 -0.20241444060E+04  0.20241444060E+04  0.50400001928E-02 0.  1.
    10030    2    1    2    0    0  0.00000000000E+00  0.00000000000E+00 -0.70680175256E+03  0.33414870595E+04  0.32658792156E+04 0.  0.
        2    1    3    3  502    0  0.16129355524E+03  0.44224490018E+03  0.12464143438E+04  0.13323456305E+04  0.25500000920E-02 0. -1.
       -2    1    3    3    0  502 -0.16129355524E+03 -0.44224490018E+03 -0.19532160963E+04  0.20091414290E+04  0.25500000920E-02 0.  1.
</event>
<event>
 5   0  0.5988516E-07  0.3311914E+04  0.7818609E-02  0.8159870E-01
       -1   -1    0    0    0  501  0.00000000000E+00  0.00000000000E+00  0.14719289360E+04  0.14719289360E+04  0.50400001928E-02 0.  1.
        1   -1    0    0  501    0  0.00000000000E+00  0.00000000000E+00 -0.18629930978E+04  0.18629930978E+04  0.50400001928E-02 0. -1.
    10030    2    1    2    0    0  0.00000000000E+00  0.00000000000E+00 -0.39106416183E+03  0.33349220338E+04  0.33119139169E+04 0.  0.
        4    1    3    3  502    0 -0.99457717791E+03 -0.64854750167E+03  0.96678070033E+03  0.15311643152E+04  0.12699999809E+01 0.  1.
       -4    1    3    3    0  502  0.99457717791E+03  0.64854750167E+03 -0.13578448622E+04  0.18037577186E+04  0.12699999809E+01 0. -1.
</event>
<event>
 5   0  0.1832626E-06  0.3295257E+04  0.7818609E-02  0.8164103E-01
        2   -1    0    0  501    0  0.00000000000E+00  0.00000000000E+00  0.22947522042E+04  0.22947522042E+04  0.25500000920E-02 0. -1.
       -2   -1    0    0    0  501  0.00000000000E+00  0.00000000000E+00 -0.11829946120E+04  0.11829946120E+04  0.25500000920E-02 0.  1.
    10030    2    1    2    0    0  0.00000000000E+00  0.00000000000E+00  0.11117575922E+04  0.34777468163E+04  0.32952568905E+04 0.  0.
        3    1    3    3  502    0 -0.25055692526E+03  0.12955253802E+04  0.15971885627E+04  0.20717567662E+04  0.10100000352E+00 0. -1.
       -3    1    3    3    0  502  0.25055692526E+03 -0.12955253802E+04 -0.48543097050E+03  0.14059900500E+04  0.10100000352E+00 0.  1.
</event>
<event>
 5   0  0.1832626E-06  0.3272185E+04  0.7818609E-02  0.8170009E-01
       -2   -1    0    0    0  501  0.00000000000E+00  0.00000000000E+00  0.14866618095E+04  0.14866618095E+04  0.25500000920E-02 0.  1.
        2   -1    0    0  501    0  0.00000000000E+00  0.00000000000E+00 -0.18005428416E+04  0.18005428416E+04  0.25500000920E-02 0. -1.
    10030    2    1    2    0    0  0.00000000000E+00  0.00000000000E+00 -0.31388103211E+03  0.32872046512E+04  0.32721847620E+04 0.  0.
        3    1    3    3  502    0 -0.76726006612E+03  0.94223614080E+03 -0.12575520654E+04  0.17486949881E+04  0.10100000352E+00 0. -1.
       -3    1    3    3    0  502  0.76726006612E+03 -0.94223614080E+03  0.94367103329E+03  0.15385096631E+04  0.10100000352E+00 0.  1.
</event>
<event>
 5   0  0.1728937E-06  0.3274736E+04  0.7818609E-02  0.8169354E-01
        2   -1    0    0  501    0  0.00000000000E+00  0.00000000000E+00  0.14755092984E+04  0.14755092984E+04  0.25500000920E-02 0.  1.
       -2   -1    0    0    0  501  0.00000000000E+00  0.00000000000E+00 -0.18169821916E+04  0.18169821916E+04  0.25500000920E-02 0. -1.
    10030    2    1    2    0    0  0.00000000000E+00  0.00000000000E+00 -0.34147289318E+03  0.32924914900E+04  0.32747360924E+04 0.  0.
        1    1    3    3  502    0  0.49997425633E+02  0.59024875121E+03 -0.17054730256E+04  0.18054172847E+04  0.50400001928E-02 0. -1.
       -1    1    3    3    0  502 -0.49997425633E+02 -0.59024875121E+03  0.13640001324E+04  0.14870742053E+04  0.50400001928E-02 0.  1.
</event>
<event>
 5   0  0.6085351E-07  0.3300974E+04  0.7818609E-02  0.8162648E-01
        1   -1    0    0  501    0  0.00000000000E+00  0.00000000000E+00  0.15519195541E+04  0.15519195541E+04  0.50400001928E-02 0.  1.
       -1   -1    0    0    0  501  0.00000000000E+00  0.00000000000E+00 -0.17553145679E+04  0.17553145679E+04  0.50400001928E-02 0. -1.
    10030    2    1    2    0    0  0.00000000000E+00  0.00000000000E+00 -0.20339501385E+03  0.33072341220E+04  0.33009737966E+04 0.  0.
        1    1    3    3  502    0 -0.45609378196E+03 -0.44198836555E+03  0.14245864349E+04  0.15597505453E+04  0.50400001928E-02 0.  1.
       -1    1    3    3    0  502  0.45609378196E+03  0.44198836555E+03 -0.16279814487E+04  0.17474835767E+04  0.50400001928E-02 0. -1.
</event>
<event>
 5   0  0.1784626E-06  0.3332008E+04  0.7818609E-02  0.8154798E-01
       -2   -1    0    0    0  501  0.00000000000E+00  0.00000000000E+00  0.17163109002E+04  0.17163109002E+04  0.25500000920E-02 0.  1.
        2   -1    0    0  501    0  0.00000000000E+00  0.00000000000E+00 -0.16171718872E+04  0.16171718872E+04  0.25500000920E-02 0. -1.
    10030    2    1    2    0    0  0.00000000000E+00  0.00000000000E+00  0.99139012991E+02  0.33334827873E+04  0.33320082457E+04 0.  0.
        2    1    3    3  502    0 -0.94865192512E+03 -0.41836271530E+03  0.13542178871E+04  0.17055421198E+04  0.25500000920E-02 0.  1.
       -2    1    3    3    0  502  0.94865192512E+03  0.41836271530E+03 -0.12550788742E+04  0.16279406675E+04  0.25500000920E-02 0. -1.
</event>
<event>
 5   0  0.1832626E-06  0.3348285E+04  0.7818609E-02  0.8150717E-01
        2   -1    0    0  501    0  0.00000000000E+00  0.00000000000E+00  0.22419362152E+04  0.22419362152E+04  0.25500000920E-02 0. -1.
       -2   -1    0    0    0  501  0.00000000000E+00  0.00000000000E+00 -0.12501485112E+04  0.12501485112E+04  0.25500000920E-02 0.  1.
    10030    2    1    2    0    0  0.00000000000E+00  0.00000000000E+00  0.99178770402E+03  0.34920847264E+04  0.33482850665E+04 0.  0.
        3    1    3    3  502    0  0.95524447695E+03  0.13562945268E+04  0.73079177909E+03  0.18127557720E+04  0.10100000352E+00 0. -1.
       -3    1    3    3    0  502 -0.95524447695E+03 -0.13562945268E+04  0.26099592493E+03  0.16793289545E+04  0.10100000352E+00 0.  1.
</event>
<event>
 5   0  0.6085351E-07  0.3389024E+04  0.7818609E-02  0.8140605E-01
       -1   -1    0    0    0  501  0.00000000000E+00  0.00000000000E+00  0.17454068889E+04  0.17454068889E+04  0.50400001928E-02 0. -1.
        1   -1    0    0  501    0  0.00000000000E+00  0.00000000000E+00 -0.16451011560E+04  0.16451011560E+04  0.50400001928E-02 0.  1.
    10030    2    1    2    0    0  0.00000000000E+00  0.00000000000E+00  0.10030573285E+03  0.33905080449E+04  0.33890239838E+04 0.  0.
        1    1    3    3  502    0 -0.32267610027E+03  0.33803899695E+03  0.16796634256E+04  0.17434619160E+04  0.50400001928E-02 0. -1.
       -1    1    3    3    0  502  0.32267610027E+03 -0.33803899695E+03 -0.15793576928E+04  0.16470461289E+04  0.50400001928E-02 0.  1.
</event>
<event>
 5   0  0.1696681E-06  0.3295000E+04  0.7818609E-02  0.8164169E-01
       -2   -1    0    0    0  501  0.00000000000E+00  0.00000000000E+00  0.21935402369E+04  0.21935402369E+04  0.25500000920E-02 0. -1.
        2   -1    0    0  501    0  0.00000000000E+00  0.00000000000E+00 -0.12373861646E+04  0.12373861646E+04  0.25500000920E-02 0.  1.
    10030    2    1    2    0    0  0.00000000000E+00  0.00000000000E+00  0.95615407236E+03  0.34309264015E+04  0.32950000550E+04 0.  0.
        4    1    3    3  502    0  0.60863065873E+03  0.48864976723E+03 -0.10326522656E+04  0.12944428100E+04  0.12699999809E+01 0.  1.
       -4    1    3    3    0  502 -0.60863065873E+03 -0.48864976723E+03  0.19888063380E+04  0.21364835915E+04  0.12699999809E+01 0. -1.
</event>
<event>
 5   0  0.5685000E-07  0.3307725E+04  0.7818609E-02  0.8160933E-01
       -3   -1    0    0    0  501  0.00000000000E+00  0.00000000000E+00  0.26190225484E+04  0.26190225504E+04  0.10100000352E+00 0. -1.
        3   -1    0    0  501    0  0.00000000000E+00  0.00000000000E+00 -0.10443821391E+04  0.10443821440E+04  0.10100000352E+00 0.  1.
    10030    2    1    2    0    0  0.00000000000E+00  0.00000000000E+00  0.15746404093E+04  0.36634046943E+04  0.33077245254E+04 0.  0.
        4    1    3    3  502    0  0.90917830844E+03 -0.48579981615E+03  0.22197006253E+04  0.24473820987E+04  0.12699999809E+01 0. -1.
       -4    1    3    3    0  502 -0.90917830844E+03  0.48579981615E+03 -0.64506021604E+03  0.12160225956E+04  0.12699999809E+01 0.  1.
</event>
<event>
 5   0  0.1743810E-06  0.3302531E+04  0.7818609E-02  0.8162252E-01
       -2   -1    0    0    0  501  0.00000000000E+00  0.00000000000E+00  0.14929764745E+04  0.14929764745E+04  0.25500000920E-02 0.  1.
        2   -1    0    0  501    0  0.00000000000E+00  0.00000000000E+00 -0.18263362909E+04  0.18263362909E+04  0.25500000920E-02 0. -1.
    10030    2    1    2    0    0  0.00000000000E+00  0.00000000000E+00 -0.33335981640E+03  0.33193127654E+04  0.33025306157E+04 0.  0.
        5    1    3    3  502    0 -0.13158676962E+04 -0.26893230223E+02 -0.11689554202E+04  0.17603152854E+04  0.46999998093E+01 0. -1.
       -5    1    3    3    0  502  0.13158676962E+04  0.26893230223E+02  0.83559560379E+03  0.15589974800E+04  0.46999998093E+01 0.  1.
</event>
<event>
 5   0  0.1696681E-06  0.3288812E+04  0.7818609E-02  0.8165748E-01
        2   -1    0    0  501    0  0.00000000000E+00  0.00000000000E+00  0.21020823941E+04  0.21020823941E+04  0.25500000920E-02 0.  1.
       -2   -1    0    0    0  501  0.00000000000E+00  0.00000000000E+00 -0.12863769713E+04  0.12863769713E+04  0.25500000920E-02 0. -1.
    10030    2    1    2    0    0  0.00000000000E+00  0.00000000000E+00  0.81570542276E+03  0.33884593654E+04  0.32888115686E+04 0.  0.
        4    1    3    3  502    0  0.12245734727E+04  0.73979964540E+03 -0.42737930436E+03  0.14931638852E+04  0.12699999809E+01 0. -1.
       -4    1    3    3    0  502 -0.12245734727E+04 -0.73979964540E+03  0.12430847271E+04  0.18952954802E+04  0.12699999809E+01 0.  1.
</event>
<event>
 5   0  0.1832626E-06  0.3246077E+04  0.7818609E-02  0.8176753E-01
        2   -1    0    0  501    0  0.00000000000E+00  0.00000000000E+00  0.14693572492E+04  0.14693572492E+04  0.25500000920E-02 0. -1.
       -2   -1    0    0    0  501  0.00000000000E+00  0.00000000000E+00 -0.17927937217E+04  0.17927937217E+04  0.25500000920E-02 0.  1.
    10030    2    1    2    0    0  0.00000000000E+00  0.00000000000E+00 -0.32343647242E+03  0.32621509709E+04  0.32460772950E+04 0.  0.
        3    1    3    3  502    0  0.13870066984E+04  0.15160099232E+03  0.67153401640E+03  0.15484600052E+04  0.10100000352E+00 0. -1.
       -3    1    3    3    0  502 -0.13870066984E+04 -0.15160099232E+03 -0.99497048882E+03  0.17136909657E+04  0.10100000352E+00 0.  1.
</event>
<event>
 5   0  0.1832626E-06  0.3275781E+04  0.7818609E-02  0.8169085E-01
       -2   -1    0    0    0  501  0.00000000000E+00  0.00000000000E+00  0.21870169515E+04  0.21870169515E+04  0.25500000920E-02 0. -1.
        2   -1    0    0  501    0  0.00000000000E+00  0.00000000000E+00 -0.12266415623E+04  0.12266415623E+04  0.25500000920E-02 0.  1.
    10030    2    1    2    0    0  0.00000000000E+00  0.00000000000E+00  0.96037538916E+03  0.34136585138E+04  0.32757813664E+04 0.  0.
        3    1    3    3  502    0 -0.10699262724E+03  0.73859085785E+03 -0.10391642984E+04  0.12793851363E+04  0.10100000352E+00 0.  1.
       -3    1    3    3    0  502  0.10699262724E+03 -0.73859085785E+03  0.19995396876E+04  0.21342733775E+04  0.10100000352E+00 0. -1.
</event>
<event>
 5   0  0.1696681E-06  0.3302955E+04  0.7818609E-02  0.8162144E-01
        2   -1    0    0  501    0  0.00000000000E+00  0.00000000000E+00  0.25677096448E+04  0.25677096448E+04  0.25500000920E-02 0.  1.
       -2   -1    0    0    0  501  0.00000000000E+00  0.00000000000E+00 -0.10621834168E+04  0.10621834168E+04  0.25500000920E-02 0. -1.
    10030    2    1    2    0    0  0.00000000000E+00  0.00000000000E+00  0.15055262280E+04  0.36298930616E+04  0.33029554062E+04 0.  0.
        4    1    3    3  502    0  0.11853992442E+04 -0.84553284778E+03  0.16091806424E+04  0.21701523259E+04  0.12699999809E+01 0. -1.
       -4    1    3    3    0  502 -0.11853992442E+04  0.84553284778E+03 -0.10365441448E+03  0.14597407357E+04  0.12699999809E+01 0.  1.
</event>
<event>
 5   0  0.1832626E-06  0.3302213E+04  0.7818609E-02  0.8162332E-01
       -2   -1    0    0    0  501  0.00000000000E+00  0.00000000000E+00  0.18796958071E+04  0.18796958071E+04  0.25500000920E-02 0.  1.
        2   -1    0    0  501    0  0.00000000000E+00  0.00000000000E+00 -0.14503160595E+04  0.14503160595E+04  0.25500000920E-02 0. -1.
    10030    2    1    2    0    0  0.00000000000E+00  0.00000000000E+00  0.42937974755E+03  0.33300118666E+04  0.33022132070E+04 0.  0.
        3    1    3    3  502    0  0.83585484612E+03  0.13866564059E+04 -0.11158241623E+03  0.16229355987E+04  0.10100000352E+00 0.  1.
       -3    1    3    3    0  502 -0.83585484612E+03 -0.13866564059E+04  0.54096216378E+03  0.17070762679E+04  0.10100000352E+00 0. -1.
</event>
<event>
 5   0  0.6023446E-07  0.3331758E+04  0.7818609E-02  0.8154861E-01
       -1   -1    0    0    0  501  0.00000000000E+00  0.00000000000E+00  0.13947164907E+04  0.13947164907E+04  0.50400001928E-02 0.  1.
        1   -1    0    0  501    0  0.00000000000E+00  0.00000000000E+00 -0.19897616376E+04  0.19897616376E+04  0.50400001928E-02 0. -1.
    10030    2    1    2    0    0  0.00000000000E+00  0.00000000000E+00 -0.59504514689E+03  0.33844781283E+04  0.33317583157E+04 0.  0.
        5    1    3    3  502    0  0.13911932539E+04  0.67713234942E+03  0.32966460037E+03  0.15819695721E+04  0.46999998093E+01 0.  1.
       -5    1    3    3    0  502 -0.13911932539E+04 -0.67713234942E+03 -0.92470974726E+03  0.18025085562E+04  0.46999998093E+01 0. -1.
</event>
<event>
 5   0  0.1728937E-06  0.3309243E+04  0.7818609E-02  0.8160547E-01
       -2   -1    0    0    0  501  0.00000000000E+00  0.00000000000E+00  0.20778338302E+04  0.20778338302E+04  0.25500000920E-02 0. -1.
        2   -1    0    0  501    0  0.00000000000E+00  0.00000000000E+00 -0.13176088578E+04  0.13176088578E+04  0.25500000920E-02 0.  1.
    10030    2    1    2    0    0  0.00000000000E+00  0.00000000000E+00  0.76022497244E+03  0.33954426880E+04  0.33092429706E+04 0.  0.
        1    1    3    3  502    0 -0.39903683882E+03 -0.11902382387E+04  0.14860928461E+04  0.19453455762E+04  0.50400001928E-02 0. -1.
       -1    1    3    3    0  502  0.39903683882E+03  0.11902382387E+04 -0.72586787370E+03  0.14500971118E+04  0.50400001928E-02 0.  1.
</event>
<event>
 5   0  0.5858859E-07  0.3284228E+04  0.7818609E-02  0.8166920E-01
       -1   -1    0    0    0  501  0.00000000000E+00  0.00000000000E+00  0.11765418277E+04  0.11765418277E+04  0.50400001928E-02 0. -1.
        1   -1    0    0  501    0  0.00000000000E+00  0.00000000000E+00 -0.22919192393E+04  0.22919192393E+04  0.50400001928E-02 0.  1.
    10030    2    1    2    0    0  0.00000000000E+00  0.00000000000E+00 -0.11153774115E+04  0.34684610670E+04  0.32842282812E+04 0.  0.
        3    1    3    3  502    0  0.55915204178E+03  0.12043942430E+04  0.46259116499E+03  0.14061319620E+04  0.10100000352E+00 0. -1.
       -3    1    3    3    0  502 -0.55915204178E+03 -0.12043942430E+04 -0.15779685765E+04  0.20623291050E+04  0.10100000352E+00 0.  1.
</event>
<event>
 5   0  0.1696681E-06  0.3324584E+04  0.7818609E-02  0.8156668E-01
        2   -1    0    0  501    0  0.00000000000E+00  0.00000000000E+00  0.13604846919E+04  0.13604846919E+04  0.25500000920E-02 0. -1.
       -2   -1    0    0    0  501  0.00000000000E+00  0.00000000000E+00 -0.20310515488E+04  0.20310515488E+04  0.25500000920E-02 0.  1.
    10030    2    1    2    0    0  0.00000000000E+00  0.00000000000E+00 -0.67056685688E+03  0.33915362407E+04  0.33245839082E+04 0.  0.
        4    1    3    3  502    0 -0.30805717289E+02 -0.35048841683E+03  0.13220640192E+04  0.13680811402E+04  0.12699999809E+01 0. -1.
       -4    1    3    3    0  502  0.30805717289E+02  0.35048841683E+03 -0.19926308760E+04  0.20234551005E+04  0.12699999809E+01 0.  1.
</event>
<event>
 5   0  0.1696681E-06  0.3266756E+04  0.7818609E-02  0.8171406E-01
       -2   -1    0    0    0  501  0.00000000000E+00  0.00000000000E+00  0.11366253924E+04  0.11366253924E+04  0.25500000920E-02 0.  1.
        2   -1    0    0  501    0  0.00000000000E+00  0.00000000000E+00 -0.23472321230E+04  0.23472321230E+04  0.25500000920E-02 0. -1.
    10030    2    1    2    0    0  0.00000000000E+00  0.00000000000E+00 -0.12106067306E+04  0.34838575153E+04  0.32667559644E+04 0.  0.
        4    1    3    3  502    0 -0.56072924270E+01  0.16324535721E+04 -0.54702836765E+03  0.17216787606E+04  0.12699999809E+01 0.  1.
       -4    1    3    3    0  502  0.56072924270E+01 -0.16324535721E+04 -0.66357836292E+03  0.17621787547E+04  0.12699999809E+01 0. -1.
</event>
<event>
 5   0  0.1696681E-06  0.3132122E+04  0.7818609E-02  0.8206977E-01
        2   -1    0    0  501    0  0.00000000000E+00  0.00000000000E+00  0.17402978872E+04  0.17402978872E+04  0.25500000920E-02 0. -1.
       -2   -1    0    0    0  501  0.00000000000E+00  0.00000000000E+00 -0.14092688844E+04  0.14092688844E+04  0.25500000920E-02 0.  1.
    10030    2    1    2    0    0  0.00000000000E+00  0.00000000000E+00  0.33102900282E+03  0.31495667716E+04  0.31321223872E+04 0.  0.
        4    1    3    3  502    0  0.10990426534E+04 -0.16563867889E+03 -0.94390492434E+03  0.14581800455E+04  0.12699999809E+01 0.  1.
       -4    1    3    3    0  502 -0.10990426534E+04  0.16563867889E+03  0.12749339272E+04  0.16913867262E+04  0.12699999809E+01 0. -1.
</event>
<event>
 5   0  0.1728937E-06  0.3316677E+04  0.7818609E-02  0.8158665E-01
        2   -1    0    0  501    0  0.00000000000E+00  0.00000000000E+00  0.16995071416E+04  0.16995071416E+04  0.25500000920E-02 0. -1.
       -2   -1    0    0    0  501  0.00000000000E+00  0.00000000000E+00 -0.16181674576E+04  0.16181674576E+04  0.25500000920E-02 0.  1.
    10030    2    1    2    0    0  0.00000000000E+00  0.00000000000E+00  0.81339683947E+02  0.33176745992E+04  0.33166773437E+04 0.  0.
        1    1    3    3  502    0 -0.40699894200E+02  0.19667190967E+03 -0.16059571968E+04  0.16184668176E+04  0.50400001928E-02 0.  1.
       -1    1    3    3    0  502  0.40699894200E+02 -0.19667190967E+03  0.16872968808E+04  0.16992077817E+04  0.50400001928E-02 0. -1.
</event>
<event>
 5   0  0.5988516E-07  0.3346638E+04  0.7818609E-02  0.8151129E-01
       -1   -1    0    0    0  501  0.00000000000E+00  0.00000000000E+00  0.14178412176E+04  0.14178412176E+04  0.50400001928E-02 0.  1.
        1   -1    0    0  501    0  0.00000000000E+00  0.00000000000E+00 -0.19748312713E+04  0.19748312713E+04  0.50400001928E-02 0. -1.
    10030    2    1    2    0    0  0.00000000000E+00  0.00000000000E+00 -0.55699005368E+03  0.33926724889E+04  0.33466384175E+04 0.  0.
        4    1    3    3  502    0 -0.53372417860E+03 -0.55003307743E+03  0.12294460472E+04  0.14487708863E+04  0.12699999809E+01 0.  1.
       -4    1    3    3    0  502  0.53372417860E+03  0.55003307743E+03 -0.17864361009E+04  0.19439016026E+04  0.12699999809E+01 0. -1.
</event>
<event>
 5   0  0.6023446E-07  0.3308796E+04  0.7818609E-02  0.8160661E-01
       -1   -1    0    0    0  501  0.00000000000E+00  0.00000000000E+00  0.15610312573E+04  0.15610312573E+04  0.50400001928E-02 0.  1.
        1   -1    0    0  501    0  0.00000000000E+00  0.00000000000E+00 -0.17533493580E+04  0.17533493580E+04  0.50400001928E-02 0. -1.
    10030    2    1    2    0    0  0.00000000000E+00  0.00000000000E+00 -0.19231810068E+03  0.33143806154E+04  0.33087962481E+04 0.  0.
        5    1    3    3  502    0  0.14696462504E+04 -0.17484904018E+03  0.64439836842E+03  0.16142192030E+04  0.46999998093E+01 0.  1.
       -5    1    3    3    0  502 -0.14696462504E+04  0.17484904018E+03 -0.83671646910E+03  0.17001614123E+04  0.46999998093E+01 0. -1.
</event>
<event>
 5   0  0.1696681E-06  0.3341531E+04  0.7818609E-02  0.8152407E-01
       -2   -1    0    0    0  501  0.00000000000E+00  0.00000000000E+00  0.10897476581E+04  0.10897476581E+04  0.25500000920E-02 0. -1.
        2   -1    0    0  501    0  0.00000000000E+00  0.00000000000E+00 -0.25615635008E+04  0.25615635008E+04  0.25500000920E-02 0.  1.
    10030    2    1    2    0    0  0.00000000000E+00  0.00000000000E+00 -0.14718158427E+04  0.36513111590E+04  0.33415312814E+04 0.  0.
        4    1    3    3  502    0 -0.14619832910E+04 -0.62659701975E+03 -0.17719715229E+03  0.16004435048E+04  0.12699999809E+01 0. -1.
       -4    1    3    3    0  502  0.14619832910E+04  0.62659701975E+03 -0.12946186904E+04  0.20508676542E+04  0.12699999809E+01 0.  1.
</event>
<event>
 5   0  0.1728937E-06  0.3303901E+04  0.7818609E-02  0.8161903E-01
       -2   -1    0    0    0  501  0.00000000000E+00  0.00000000000E+00  0.12858968103E+04  0.12858968104E+04  0.25500000920E-02 0. -1.
        2   -1    0    0  501    0  0.00000000000E+00  0.00000000000E+00 -0.21222081314E+04  0.21222081314E+04  0.25500000920E-02 0.  1.
    10030    2    1    2    0    0  0.00000000000E+00  0.00000000000E+00 -0.83631132106E+03  0.34081049418E+04  0.33039011287E+04 0.  0.
        1    1    3    3  502    0  0.12886492832E+04 -0.94361612754E+03  0.16944154622E+02  0.15972837805E+04  0.50400001928E-02 0. -1.
       -1    1    3    3    0  502 -0.12886492832E+04  0.94361612754E+03 -0.85325547568E+03  0.18108211612E+04  0.50400001928E-02 0.  1.
</event>
<event>
 5   0  0.1784626E-06  0.3227682E+04  0.7818609E-02  0.8181544E-01
        2   -1    0    0  501    0  0.00000000000E+00  0.00000000000E+00  0.20701826821E+04  0.20701826821E+04  0.25500000920E-02 0.  1.
       -2   -1    0    0    0  501  0.00000000000E+00  0.00000000000E+00 -0.12580935422E+04  0.12580935422E+04  0.25500000920E-02 0. -1.
    10030    2    1    2    0    0  0.00000000000E+00  0.00000000000E+00  0.81208913987E+03  0.33282762243E+04  0.32276824277E+04 0.  0.
        2    1    3    3  502    0  0.75571994677E+03 -0.58736753407E+03  0.17459137718E+04  0.19910620675E+04  0.25500000920E-02 0.  1.
       -2    1    3    3    0  502 -0.75571994677E+03  0.58736753407E+03 -0.93382463194E+03  0.13372141568E+04  0.25500000920E-02 0. -1.
</event>
<event>
 5   0  0.1743810E-06  0.3312318E+04  0.7818609E-02  0.8159768E-01
        2   -1    0    0  501    0  0.00000000000E+00  0.00000000000E+00  0.23016629004E+04  0.23016629004E+04  0.25500000920E-02 0.  1.
       -2   -1    0    0    0  501  0.00000000000E+00  0.00000000000E+00 -0.11916871848E+04  0.11916871848E+04  0.25500000920E-02 0. -1.
    10030    2    1    2    0    0  0.00000000000E+00  0.00000000000E+00  0.11099757156E+04  0.34933500852E+04  0.33123177276E+04 0.  0.
        5    1    3    3  502    0  0.14407702360E+04  0.76874891793E+03  0.26415114726E+03  0.16542646978E+04  0.46999998093E+01 0. -1.
       -5    1    3    3    0  502 -0.14407702360E+04 -0.76874891793E+03  0.84582456830E+03  0.18390853874E+04  0.46999998093E+01 0.  1.
</event>
<event>
 5   0  0.1784626E-06  0.3232381E+04  0.7818609E-02  0.8180317E-01
       -2   -1    0    0    0  501  0.00000000000E+00  0.00000000000E+00  0.12970969651E+04  0.12970969651E+04  0.25500000920E-02 0.  1.
        2   -1    0    0  501    0  0.00000000000E+00  0.00000000000E+00 -0.20137831089E+04  0.20137831089E+04  0.25500000920E-02 0. -1.
    10030    2    1    2    0    0  0.00000000000E+00  0.00000000000E+00 -0.71668614376E+03  0.33108800740E+04  0.32323811402E+04 0.  0.
        2    1    3    3  502    0 -0.95224665632E+03 -0.74163378840E+03  0.74259796521E+03  0.14171260030E+04  0.25500000920E-02 0.  1.
       -2    1    3    3    0  502  0.95224665632E+03  0.74163378840E+03 -0.14592841090E+04  0.18937540710E+04  0.25500000920E-02 0. -1.
</event>
<event>
 5   0  0.5858859E-07  0.3274036E+04  0.7818609E-02  0.8169534E-01
       -1   -1    0    0    0  501  0.00000000000E+00  0.00000000000E+00  0.12941366910E+04  0.12941366910E+04  0.50400001928E-02 0.  1.
        1   -1    0    0  501    0  0.00000000000E+00  0.00000000000E+00 -0.20707452685E+04  0.20707452685E+04  0.50400001928E-02 0. -1.
    10030    2    1    2    0    0  0.00000000000E+00  0.00000000000E+00 -0.77660857751E+03  0.33648819595E+04  0.32740356930E+04 0.  0.
        3    1    3    3  502    0 -0.45669845657E+03 -0.12010505636E+04  0.65410300030E+03  0.14418552916E+04  0.10100000352E+00 0.  1.
       -3    1    3    3    0  502  0.45669845657E+03  0.12010505636E+04 -0.14307115778E+04  0.19230266680E+04  0.10100000352E+00 0. -1.
</event>
<event>
 5   0  0.1728937E-06  0.2845934E+04  0.7818609E-02  0.8289148E-01
       -2   -1    0    0    0  501  0.00000000000E+00  0.00000000000E+00  0.14158833214E+04  0.14158833214E+04  0.25500000920E-02 0. -1.
        2   -1    0    0  501    0  0.00000000000E+00  0.00000000000E+00 -0.14300856182E+04  0.14300856183E+04  0.25500000920E-02 0.  1.
    10030    2    1    2    0    0  0.00000000000E+00  0.00000000000E+00 -0.14202296855E+02  0.28459689396E+04  0.28459335024E+04 0.  0.
        1    1    3    3  502    0 -0.28350589771E+03 -0.15378260312E+03  0.13788488967E+04  0.14160681350E+04  0.50400001928E-02 0. -1.
       -1    1    3    3    0  502  0.28350589771E+03  0.15378260312E+03 -0.13930511936E+04  0.14299008046E+04  0.50400001928E-02 0.  1.
</event>
<event>
 5   0  0.5985183E-07  0.3300651E+04  0.7818609E-02  0.8162730E-01
       -1   -1    0    0    0  501  0.00000000000E+00  0.00000000000E+00  0.15757763565E+04  0.15757763565E+04  0.50400001928E-02 0.  1.
        1   -1    0    0  501    0  0.00000000000E+00  0.00000000000E+00 -0.17284010545E+04  0.17284010545E+04  0.50400001928E-02 0. -1.
    10030    2    1    2    0    0  0.00000000000E+00  0.00000000000E+00 -0.15262469800E+03  0.33041774110E+04  0.33006505517E+04 0.  0.
        2    1    3    3  502    0  0.14347205599E+04 -0.81719543911E+02 -0.88864251584E+03  0.16896114020E+04  0.25500000920E-02 0. -1.
       -2    1    3    3    0  502 -0.14347205599E+04  0.81719543911E+02  0.73601781783E+03  0.16145660089E+04  0.25500000920E-02 0.  1.
</event>
<event>
 5   0  0.5988516E-07  0.3230248E+04  0.7818609E-02  0.8180874E-01
        1   -1    0    0  501    0  0.00000000000E+00  0.00000000000E+00  0.10032595905E+04  0.10032595905E+04  0.50400001928E-02 0.  1.
       -1   -1    0    0    0  501  0.00000000000E+00  0.00000000000E+00 -0.26001505461E+04  0.26001505461E+04  0.50400001928E-02 0. -1.
    10030    2    1    2    0    0  0.00000000000E+00  0.00000000000E+00 -0.15968909556E+04  0.36034101366E+04  0.32302482704E+04 0.  0.
        4    1    3    3  502    0 -0.48035337750E+03 -0.11263645550E+04  0.37639892245E+03  0.12810598112E+04  0.12699999809E+01 0.  1.
       -4    1    3    3    0  502  0.48035337750E+03  0.11263645550E+04 -0.19732898781E+04  0.23223503254E+04  0.12699999809E+01 0. -1.
</event>
<event>
 5   0  0.1832626E-06  0.3283515E+04  0.7818609E-02  0.8167103E-01
       -2   -1    0    0    0  501  0.00000000000E+00  0.00000000000E+00  0.11749848599E+04  0.11749848600E+04  0.25500000920E-02 0. -1.
        2   -1    0    0  501    0  0.00000000000E+00  0.00000000000E+00 -0.22939592095E+04  0.22939592095E+04  0.25500000920E-02 0.  1.
    10030    2    1    2    0    0  0.00000000000E+00  0.00000000000E+00 -0.11189743496E+04  0.34689440695E+04  0.32835147879E+04 0.  0.
        3    1    3    3  502    0 -0.58021126139E+03  0.14995649790E+04 -0.20905163279E+03  0.16214323389E+04  0.10100000352E+00 0. -1.
       -3    1    3    3    0  502  0.58021126139E+03 -0.14995649790E+04 -0.90992271680E+03  0.18475117306E+04  0.10100000352E+00 0.  1.
</event>
<event>
 5   0  0.1743810E-06  0.3310210E+04  0.7818609E-02  0.8160302E-01
       -2   -1    0    0    0  501  0.00000000000E+00  0.00000000000E+00  0.12135927710E+04  0.12135927710E+04  0.25500000920E-02 0.  1.
        2   -1    0    0  501    0  0.00000000000E+00  0.00000000000E+00 -0.22572415221E+04  0.22572415221E+04  0.25500000920E-02 0. -1.
    10030    2    1    2    0    0  0.00000000000E+00  0.00000000000E+00 -0.10436487511E+04  0.34708342931E+04  0.33102096572E+04 0.  0.
        5    1    3    3  502    0  0.20134850609E+03  0.13020714544E+04  0.52849034955E+03  0.14195969262E+04  0.46999998093E+01 0.  1.
       -5    1    3    3    0  502 -0.20134850609E+03 -0.13020714544E+04 -0.15721391007E+04  0.20512373669E+04  0.46999998093E+01 0. -1.
</event>
<event>
 5   0  0.1743810E-06  0.3288796E+04  0.7818609E-02  0.8165752E-01
       -2   -1    0    0    0  501  0.00000000000E+00  0.00000000000E+00  0.13609889944E+04  0.13609889944E+04  0.25500000920E-02 0. -1.
        2   -1    0    0  501    0  0.00000000000E+00  0.00000000000E+00 -0.19868236169E+04  0.19868236169E+04  0.25500000920E-02 0.  1.
    10030    2    1    2    0    0  0.00000000000E+00  0.00000000000E+00 -0.62583462251E+03  0.33478126113E+04  0.32887961788E+04 0.  0.
        5    1    3    3  502    0 -0.97495516798E+03  0.13097391898E+04 -0.11430416727E+03  0.16367778889E+04  0.46999998093E+01 0. -1.
       -5    1    3    3    0  502  0.97495516798E+03 -0.13097391898E+04 -0.51153045524E+03  0.17110347224E+04  0.46999998093E+01 0.  1.
</event>
<event>
 5   0  0.1728937E-06  0.3650535E+04  0.7818609E-02  0.8079013E-01
       -2   -1    0    0    0  501  0.00000000000E+00  0.00000000000E+00  0.11119594410E+04  0.11119594410E+04  0.25500000920E-02 0. -1.
        2   -1    0    0  501    0  0.00000000000E+00  0.00000000000E+00 -0.29961540554E+04  0.29961540554E+04  0.25500000920E-02 0.  1.
    10030    2    1    2    0    0  0.00000000000E+00  0.00000000000E+00 -0.18841946144E+04  0.41081134964E+04  0.36505351873E+04 0.  0.
        1    1    3    3  502    0  0.86880513479E+03  0.15656496480E+04 -0.54339990306E+03  0.18711933725E+04  0.50400001928E-02 0.  1.
       -1    1    3    3    0  502 -0.86880513479E+03 -0.15656496480E+04 -0.13407947113E+04  0.22369201239E+04  0.50400001928E-02 0. -1.
</event>
<event>
 5   0  0.5988516E-07  0.3166998E+04  0.7818609E-02  0.8197588E-01
        1   -1    0    0  501    0  0.00000000000E+00  0.00000000000E+00  0.11091086758E+04  0.11091086758E+04  0.50400001928E-02 0. -1.
       -1   -1    0    0    0  501  0.00000000000E+00  0.00000000000E+00 -0.22607959034E+04  0.22607959034E+04  0.50400001928E-02 0.  1.
    10030    2    1    2    0    0  0.00000000000E+00  0.00000000000E+00 -0.11516872276E+04  0.33699045792E+04  0.31669975375E+04 0.  0.
        4    1    3    3  502    0  0.36949344074E+03  0.95880767350E+03 -0.18578722409E+04  0.21230940709E+04  0.12699999809E+01 0.  1.
       -4    1    3    3    0  502 -0.36949344074E+03 -0.95880767350E+03  0.70618501334E+03  0.12468105082E+04  0.12699999809E+01 0. -1.
</event>
<event>
 5   0  0.5685000E-07  0.3291126E+04  0.7818609E-02  0.8165157E-01
       -3   -1    0    0    0  501  0.00000000000E+00  0.00000000000E+00  0.24572759171E+04  0.24572759192E+04  0.10100000352E+00 0.  1.
        3   -1    0    0  501    0  0.00000000000E+00  0.00000000000E+00 -0.11019836117E+04  0.11019836163E+04  0.10100000352E+00 0. -1.
    10030    2    1    2    0    0  0.00000000000E+00  0.00000000000E+00  0.13552923054E+04  0.35592595355E+04  0.32911261307E+04 0.  0.
        4    1    3    3  502    0 -0.52332437421E+03 -0.27567514470E+03  0.23383341399E+04  0.24119853542E+04  0.12699999809E+01 0.  1.
       -4    1    3    3    0  502  0.52332437421E+03  0.27567514470E+03 -0.98304183445E+03  0.11472741814E+04  0.12699999809E+01 0. -1.
</event>
<event>
 5   0  0.1743810E-06  0.3307710E+04  0.7818609E-02  0.8160936E-01
        2   -1    0    0  501    0  0.00000000000E+00  0.00000000000E+00  0.20519903520E+04  0.20519903520E+04  0.25500000920E-02 0. -1.
       -2   -1    0    0    0  501  0.00000000000E+00  0.00000000000E+00 -0.13329672280E+04  0.13329672280E+04  0.25500000920E-02 0.  1.
    10030    2    1    2    0    0  0.00000000000E+00  0.00000000000E+00  0.71902312404E+03  0.33849575800E+04  0.33077097160E+04 0.  0.
        5    1    3    3  502    0  0.78157135715E+03  0.72196979178E+03  0.16552245385E+04  0.19677104791E+04  0.46999998093E+01 0. -1.
       -5    1    3    3    0  502 -0.78157135715E+03 -0.72196979178E+03 -0.93620141450E+03  0.14172471009E+04  0.46999998093E+01 0.  1.
</event>
<event>
 5   0  0.1784626E-06  0.3181174E+04  0.7818609E-02  0.8193807E-01
       -2   -1    0    0    0  501  0.00000000000E+00  0.00000000000E+00  0.18808287559E+04  0.18808287559E+04  0.25500000920E-02 0.  1.
        2   -1    0    0  501    0  0.00000000000E+00  0.00000000000E+00 -0.13451342925E+04  0.13451342925E+04  0.25500000920E-02 0. -1.
    10030    2    1    2    0    0  0.00000000000E+00  0.00000000000E+00  0.53569446341E+03  0.32259630483E+04  0.31811741592E+04 0.  0.
        2    1    3    3  502    0 -0.50461548393E+03  0.10203810964E+03  0.17940008503E+04  0.18664103550E+04  0.25500000920E-02 0.  1.
       -2    1    3    3    0  502  0.50461548393E+03 -0.10203810964E+03 -0.12583063869E+04  0.13595526933E+04  0.25500000920E-02 0. -1.
</event>
<event>
 5   0  0.1832626E-06  0.3282730E+04  0.7818609E-02  0.8167304E-01
        2   -1    0    0  501    0  0.00000000000E+00  0.00000000000E+00  0.16978094211E+04  0.16978094211E+04  0.25500000920E-02 0.  1.
       -2   -1    0    0    0  501  0.00000000000E+00  0.00000000000E+00 -0.15867969997E+04  0.15867969997E+04  0.25500000920E-02 0. -1.
    10030    2    1    2    0    0  0.00000000000E+00  0.00000000000E+00  0.11101242139E+03  0.32846064208E+04  0.32827298978E+04 0.  0.
        3    1    3    3  502    0  0.94256528372E+03 -0.60956663650E+02  0.13986348500E+04  0.16876979833E+04  0.10100000352E+00 0.  1.
       -3    1    3    3    0  502 -0.94256528372E+03  0.60956663650E+02 -0.12876224286E+04  0.15969084375E+04  0.10100000352E+00 0. -1.
</event>
<event>
 5   0  0.6085351E-07  0.3305630E+04  0.7818609E-02  0.8161464E-01
        1   -1    0    0  501    0  0.00000000000E+00  0.00000000000E+00  0.14294040400E+04  0.14294040400E+04  0.50400001928E-02 0. -1.
       -1   -1    0    0    0  501  0.00000000000E+00  0.00000000000E+00 -0.19111446302E+04  0.19111446302E+04  0.50400001928E-02 0.  1.
    10030    2    1    2    0    0  0.00000000000E+00  0.00000000000E+00 -0.48174059017E+03  0.33405486702E+04  0.33056302609E+04 0.  0.
        1    1    3    3  502    0 -0.34095177485E+03  0.94913327825E+03 -0.15641664951E+04  0.18611069064E+04  0.50400001928E-02 0.  1.
       -1    1    3    3    0  502  0.34095177485E+03 -0.94913327825E+03  0.10824259049E+04  0.14794417638E+04  0.50400001928E-02 0. -1.
</event>
<event>
 5   0  0.1832626E-06  0.3323771E+04  0.7818609E-02  0.8156873E-01
       -2   -1    0    0    0  501  0.00000000000E+00  0.00000000000E+00  0.90930648888E+03  0.90930648888E+03  0.25500000920E-02 0. -1.
        2   -1    0    0  501    0  0.00000000000E+00  0.00000000000E+00 -0.30373290041E+04  0.30373290041E+04  0.25500000920E-02 0.  1.
    10030    2    1    2    0    0  0.00000000000E+00  0.00000000000E+00 -0.21280225152E+04  0.39466354929E+04  0.33237707335E+04 0.  0.
        3    1    3    3  502    0  0.20783327955E+02  0.56756493684E+03  0.79049652352E+03  0.97336872158E+03  0.10100000352E+00 0. -1.
       -3    1    3    3    0  502 -0.20783327955E+02 -0.56756493684E+03 -0.29185190387E+04  0.29732667714E+04  0.10100000352E+00 0.  1.
</event>
<event>
 5   0  0.1743810E-06  0.3341036E+04  0.7818609E-02  0.8152532E-01
        2   -1    0    0  501    0  0.00000000000E+00  0.00000000000E+00  0.15812462463E+04  0.15812462463E+04  0.25500000920E-02 0.  1.
       -2   -1    0    0    0  501  0.00000000000E+00  0.00000000000E+00 -0.17648292511E+04  0.17648292511E+04  0.25500000920E-02 0. -1.
    10030    2    1    2    0    0  0.00000000000E+00  0.00000000000E+00 -0.18358300471E+03  0.33460754974E+04  0.33410355452E+04 0.  0.
        5    1    3    3  502    0 -0.12469313029E+04  0.66249317961E+03  0.80223233944E+03  0.16239869776E+04  0.46999998093E+01 0.  1.
       -5    1    3    3    0  502  0.12469313029E+04 -0.66249317961E+03 -0.98581534415E+03  0.17220885198E+04  0.46999998093E+01 0. -1.
</event>
<event>
 5   0  0.6085351E-07  0.3320188E+04  0.7818609E-02  0.8157778E-01
       -1   -1    0    0    0  501  0.00000000000E+00  0.00000000000E+00  0.13755643985E+04  0.13755643985E+04  0.50400001928E-02 0.  1.
        1   -1    0    0  501    0  0.00000000000E+00  0.00000000000E+00 -0.20034767698E+04  0.20034767698E+04  0.50400001928E-02 0. -1.
    10030    2    1    2    0    0  0.00000000000E+00  0.00000000000E+00 -0.62791237130E+03  0.33790411683E+04  0.33201875355E+04 0.  0.
        1    1    3    3  502    0  0.15187048854E+04 -0.43249272278E+03 -0.83528311969E+03  0.17863964773E+04  0.50400001928E-02 0. -1.
       -1    1    3    3    0  502 -0.15187048854E+04  0.43249272278E+03  0.20737074838E+03  0.15926446909E+04  0.50400001928E-02 0.  1.
</event>
<event>
 5   0  0.5985183E-07  0.3336153E+04  0.7818609E-02  0.8153757E-01
        1   -1    0    0  501    0  0.00000000000E+00  0.00000000000E+00  0.20449879989E+04  0.20449879989E+04  0.50400001928E-02 0. -1.
       -1   -1    0    0    0  501  0.00000000000E+00  0.00000000000E+00 -0.13606335776E+04  0.13606335776E+04  0.50400001928E-02 0.  1.
    10030    2    1    2    0    0  0.00000000000E+00  0.00000000000E+00  0.68435442126E+03  0.34056215765E+04  0.33361530763E+04 0.  0.
        2    1    3    3  502    0  0.24495823342E+03 -0.20952117875E+03  0.20128922401E+04  0.20385384055E+04  0.25500000920E-02 0. -1.
       -2    1    3    3    0  502 -0.24495823342E+03  0.20952117875E+03 -0.13285378188E+04  0.13670831710E+04  0.25500000920E-02 0.  1.
</event>
<event>
 5   0  0.1696681E-06  0.3277213E+04  0.7818609E-02  0.8168718E-01
        2   -1    0    0  501    0  0.00000000000E+00  0.00000000000E+00  0.23001457685E+04  0.23001457685E+04  0.25500000920E-02 0. -1.
       -2   -1    0    0    0  501  0.00000000000E+00  0.00000000000E+00 -0.11673307782E+04  0.11673307782E+04  0.25500000920E-02 0.  1.
    10030    2    1    2    0    0  0.00000000000E+00  0.00000000000E+00  0.11328149903E+04  0.34674765467E+04  0.32772128096E+04 0.  0.
        4    1    3    3  502    0 -0.70820074688E+03 -0.11889390134E+04  0.14947911293E+04  0.20370386370E+04  0.12699999809E+01 0. -1.
       -4    1    3    3    0  502  0.70820074688E+03  0.11889390134E+04 -0.36197613897E+03  0.14304379097E+04  0.12699999809E+01 0.  1.
</event>
<event>
 5   0  0.1696681E-06  0.3296572E+04  0.7818609E-02  0.8163768E-01
       -2   -1    0    0    0  501  0.00000000000E+00  0.00000000000E+00  0.79652520605E+03  0.79652520605E+03  0.25500000920E-02 0. -1.
        2   -1    0    0  501    0  0.00000000000E+00  0.00000000000E+00 -0.34108745339E+04  0.34108745339E+04  0.25500000920E-02 0.  1.
    10030    2    1    2    0    0  0.00000000000E+00  0.00000000000E+00 -0.26143493278E+04  0.42073997399E+04  0.32965724872E+04 0.  0.
        4    1    3    3  502    0 -0.18844482931E+03  0.35534588757E+03 -0.33472773062E+04  0.33713571646E+04  0.12699999809E+01 0.  1.
       -4    1    3    3    0  502  0.18844482931E+03 -0.35534588757E+03  0.73292797835E+03  0.83604257539E+03  0.12699999809E+01 0. -1.
</event>
<event>
 5   0  0.1784626E-06  0.3368038E+04  0.7818609E-02  0.8145796E-01
       -2   -1    0    0    0  501  0.00000000000E+00  0.00000000000E+00  0.33048315361E+04  0.33048315361E+04  0.25500000920E-02 0.  1.
        2   -1    0    0  501    0  0.00000000000E+00  0.00000000000E+00 -0.85811349562E+03  0.85811349562E+03  0.25500000920E-02 0. -1.
    10030    2    1    2    0    0  0.00000000000E+00  0.00000000000E+00  0.24467180405E+04  0.41629450317E+04  0.33680383263E+04 0.  0.
        2    1    3    3  502    0  0.64225106285E+03  0.14827807025E+04  0.18093857973E+04  0.24259023070E+04  0.25500000920E-02 0. -1.
       -2    1    3    3    0  502 -0.64225106285E+03 -0.14827807025E+04  0.63733224315E+03  0.17370427247E+04  0.25500000920E-02 0.  1.
</event>
<event>
 5   0  0.1728937E-06  0.2713564E+04  0.7818609E-02  0.8330617E-01
       -2   -1    0    0    0  501  0.00000000000E+00  0.00000000000E+00  0.86216901781E+03  0.86216901781E+03  0.25500000920E-02 0.  1.
        2   -1    0    0  501    0  0.00000000000E+00  0.00000000000E+00 -0.21351467244E+04  0.21351467244E+04  0.25500000920E-02 0. -1.
    10030    2    1    2    0    0  0.00000000000E+00  0.00000000000E+00 -0.12729777066E+04  0.29973157422E+04  0.27135639696E+04 0.  0.
        1    1    3    3  502    0  0.19407625388E+03 -0.55153871117E+03  0.71587260529E+03  0.92430196866E+03  0.50400001928E-02 0.  1.
       -1    1    3    3    0  502 -0.19407625388E+03  0.55153871117E+03 -0.19888503119E+04  0.20730137736E+04  0.50400001928E-02 0. -1.
</event>
<event>
 5   0  0.1696681E-06  0.3311282E+04  0.7818609E-02  0.8160031E-01
        2   -1    0    0  501    0  0.00000000000E+00  0.00000000000E+00  0.19787708948E+04  0.19787708948E+04  0.25500000920E-02 0. -1.
       -2   -1    0    0    0  501  0.00000000000E+00  0.00000000000E+00 -0.13852777499E+04  0.13852777499E+04  0.25500000920E-02 0.  1.
    10030    2    1    2    0    0  0.00000000000E+00  0.00000000000E+00  0.59349314484E+03  0.33640486447E+04  0.33112821038E+04 0.  0.
        4    1    3    3  502    0 -0.27984848859E+03 -0.29239215472E+03  0.19277381462E+04  0.19697675807E+04  0.12699999809E+01 0. -1.
       -4    1    3    3    0  502  0.27984848859E+03  0.29239215472E+03 -0.13342450014E+04  0.13942810640E+04  0.12699999809E+01 0.  1.
</event>
<event>
 5   0  0.1832626E-06  0.3283649E+04  0.7818609E-02  0.8167068E-01
        2   -1    0    0  501    0  0.00000000000E+00  0.00000000000E+00  0.23353128646E+04  0.23353128646E+04  0.25500000920E-02 0. -1.
       -2   -1    0    0    0  501  0.00000000000E+00  0.00000000000E+00 -0.11542727922E+04  0.11542727922E+04  0.25500000920E-02 0.  1.
    10030    2    1    2    0    0  0.00000000000E+00  0.00000000000E+00  0.11810400724E+04  0.34895856568E+04  0.32836492510E+04 0.  0.
        3    1    3    3  502    0  0.82113175073E+03  0.30642998971E+03  0.20659091243E+04  0.22441339556E+04  0.10100000352E+00 0. -1.
       -3    1    3    3    0  502 -0.82113175073E+03 -0.30642998971E+03 -0.88486905193E+03  0.12454517012E+04  0.10100000352E+00 0.  1.
</event>
<event>
 5   0  0.5858859E-07  0.3305365E+04  0.7818609E-02  0.8161532E-01
        1   -1    0    0  501    0  0.00000000000E+00  0.00000000000E+00  0.23905060966E+04  0.23905060966E+04  0.50400001928E-02 0. -1.
       -1   -1    0    0    0  501  0.00000000000E+00  0.00000000000E+00 -0.11425862626E+04  0.11425862626E+04  0.50400001928E-02 0.  1.
    10030    2    1    2    0    0  0.00000000000E+00  0.00000000000E+00  0.12479198340E+04  0.35330923592E+04  0.33053649885E+04 0.  0.
        3    1    3    3  502    0 -0.82099745577E+03  0.58587986815E+03 -0.77546470979E+03  0.12722568800E+04  0.10100000352E+00 0.  1.
       -3    1    3    3    0  502  0.82099745577E+03 -0.58587986815E+03  0.20233845438E+04  0.22608354793E+04  0.10100000352E+00 0. -1.
</event>
<event>
 5   0  0.5858859E-07  0.3286256E+04  0.7818609E-02  0.8166401E-01
       -1   -1    0    0    0  501  0.00000000000E+00  0.00000000000E+00  0.14241646318E+04  0.14241646318E+04  0.50400001928E-02 0. -1.
        1   -1    0    0  501    0  0.00000000000E+00  0.00000000000E+00 -0.18957568623E+04  0.18957568623E+04  0.50400001928E-02 0.  1.
    10030    2    1    2    0    0  0.00000000000E+00  0.00000000000E+00 -0.47159223043E+03  0.33199214941E+04  0.32862561518E+04 0.  0.
        3    1    3    3  502    0  0.39811148991E+03 -0.53401276482E+03 -0.17532514563E+04  0.18755140817E+04  0.10100000352E+00 0.  1.
       -3    1    3    3    0  502 -0.39811148991E+03  0.53401276482E+03  0.12816592259E+04  0.14444074124E+04  0.10100000352E+00 0. -1.
</event>
<event>
 5   0  0.5988516E-07  0.3285893E+04  0.7818609E-02  0.8166494E-01
       -1   -1    0    0    0  501  0.00000000000E+00  0.00000000000E+00  0.95786564088E+03  0.95786564090E+03  0.50400001928E-02 0.  1.
        1   -1    0    0  501    0  0.00000000000E+00  0.00000000000E+00 -0.28180086393E+04  0.28180086394E+04  0.50400001928E-02 0. -1.
    10030    2    1    2    0    0  0.00000000000E+00  0.00000000000E+00 -0.18601429985E+04  0.37758742802E+04  0.32858932736E+04 0.  0.
        4    1    3    3  502    0 -0.14456335946E+03  0.16122573240E+04 -0.60709044013E+03  0.17288240683E+04  0.12699999809E+01 0.  1.
       -4    1    3    3    0  502  0.14456335946E+03 -0.16122573240E+04 -0.12530525583E+04  0.20470502120E+04  0.12699999809E+01 0. -1.
</event>
<event>
 5   0  0.6085351E-07  0.3281348E+04  0.7818609E-02  0.8167658E-01
       -1   -1    0    0    0  501  0.00000000000E+00  0.00000000000E+00  0.15916476105E+04  0.15916476105E+04  0.50400001928E-02 0. -1.
        1   -1    0    0  501    0  0.00000000000E+00  0.00000000000E+00 -0.16912105700E+04  0.16912105700E+04  0.50400001928E-02 0.  1.
    10030    2    1    2    0    0  0.00000000000E+00  0.00000000000E+00 -0.99562959577E+02  0.32828581805E+04  0.32813480538E+04 0.  0.
        1    1    3    3  502    0 -0.51941622604E+03  0.11926654602E+04  0.95046218589E+03  0.16110935673E+04  0.50400001928E-02 0. -1.
       -1    1    3    3    0  502  0.51941622604E+03 -0.11926654602E+04 -0.10500251455E+04  0.16717646132E+04  0.50400001928E-02 0.  1.
</event>
<event>
 5   0  0.1728937E-06  0.3272970E+04  0.7818609E-02  0.8169807E-01
       -2   -1    0    0    0  501  0.00000000000E+00  0.00000000000E+00  0.18046491273E+04  0.18046491273E+04  0.25500000920E-02 0.  1.
        2   -1    0    0  501    0  0.00000000000E+00  0.00000000000E+00 -0.14839912397E+04  0.14839912397E+04  0.25500000920E-02 0. -1.
    10030    2    1    2    0    0  0.00000000000E+00  0.00000000000E+00  0.32065788761E+03  0.32886403671E+04  0.32729702081E+04 0.  0.
        1    1    3    3  502    0  0.14656382652E+04  0.65347227059E+03 -0.16208419957E+03  0.16128833872E+04  0.50400001928E-02 0. -1.
       -1    1    3    3    0  502 -0.14656382652E+04 -0.65347227059E+03  0.48274208718E+03  0.16757569799E+04  0.50400001928E-02 0.  1.
</event>
<event>
 5   0  0.1696681E-06  0.3246931E+04  0.7818609E-02  0.8176532E-01
       -2   -1    0    0    0  501  0.00000000000E+00  0.00000000000E+00  0.16745063558E+04  0.16745063558E+04  0.25500000920E-02 0. -1.
        2   -1    0    0  501    0  0.00000000000E+00  0.00000000000E+00 -0.15739805653E+04  0.15739805654E+04  0.25500000920E-02 0.  1.
    10030    2    1    2    0    0  0.00000000000E+00  0.00000000000E+00  0.10052579048E+03  0.32484869212E+04  0.32469311423E+04 0.  0.
        4    1    3    3  502    0 -0.10834873500E+04  0.40705101904E+03 -0.10887040688E+04  0.15889976501E+04  0.12699999809E+01 0.  1.
       -4    1    3    3    0  502  0.10834873500E+04 -0.40705101904E+03  0.11892298593E+04  0.16594892711E+04  0.12699999809E+01 0. -1.
</event>
<event>
 5   0  0.1784626E-06  0.3287229E+04  0.7818609E-02  0.8166153E-01
       -2   -1    0    0    0  501  0.00000000000E+00  0.00000000000E+00  0.20466498922E+04  0.20466498922E+04  0.25500000920E-02 0.  1.
        2   -1    0    0  501    0  0.00000000000E+00  0.00000000000E+00 -0.13199463544E+04  0.13199463544E+04  0.25500000920E-02 0. -1.
    10030    2    1    2    0    0  0.00000000000E+00  0.00000000000E+00  0.72670353782E+03  0.33665962466E+04  0.32872286589E+04 0.  0.
        2    1    3    3  502    0 -0.11944118214E+04 -0.11279170808E+04  0.31061556488E+03  0.16719146418E+04  0.25500000920E-02 0.  1.
       -2    1    3    3    0  502  0.11944118214E+04  0.11279170808E+04  0.41608797294E+03  0.16946816048E+04  0.25500000920E-02 0. -1.
</event>
<event>
 5   0  0.6023446E-07  0.3298270E+04  0.7818609E-02  0.8163336E-01
        1   -1    0    0  501    0  0.00000000000E+00  0.00000000000E+00  0.15381839328E+04  0.15381839328E+04  0.50400001928E-02 0. -1.
       -1   -1    0    0    0  501  0.00000000000E+00  0.00000000000E+00 -0.17680887298E+04  0.17680887298E+04  0.50400001928E-02 0.  1.
    10030    2    1    2    0    0  0.00000000000E+00  0.00000000000E+00 -0.22990479700E+03  0.33062726626E+04  0.32982696530E+04 0.  0.
        5    1    3    3  502    0  0.52958076330E+03 -0.11446187154E+04 -0.11800821525E+04  0.17272011362E+04  0.46999998093E+01 0.  1.
       -5    1    3    3    0  502 -0.52958076330E+03  0.11446187154E+04  0.95017735548E+03  0.15790715263E+04  0.46999998093E+01 0. -1.
</event>
<event>
 5   0  0.5858859E-07  0.3265756E+04  0.7818609E-02  0.8171664E-01
        1   -1    0    0  501    0  0.00000000000E+00  0.00000000000E+00  0.30612785837E+04  0.30612785837E+04  0.50400001928E-02 0. -1.
       -1   -1    0    0    0  501  0.00000000000E+00  0.00000000000E+00 -0.87097272962E+03  0.87097272963E+03  0.50400001928E-02 0.  1.
    10030    2    1    2    0    0  0.00000000000E+00  0.00000000000E+00  0.21903058541E+04  0.39322513134E+04  0.32657557558E+04 0.  0.
        3    1    3    3  502    0 -0.72243283164E+03  0.63061056853E+02 -0.66643963787E+03  0.98489983970E+03  0.10100000352E+00 0.  1.
       -3    1    3    3    0  502  0.72243283164E+03 -0.63061056853E+02  0.28567454920E+04  0.29473514737E+04  0.10100000352E+00 0. -1.
</event>
<event>
 5   0  0.1728937E-06  0.3281542E+04  0.7818609E-02  0.8167608E-01
       -2   -1    0    0    0  501  0.00000000000E+00  0.00000000000E+00  0.14138763609E+04  0.14138763609E+04  0.25500000920E-02 0.  1.
        2   -1    0    0  501    0  0.00000000000E+00  0.00000000000E+00 -0.19040768342E+04  0.19040768342E+04  0.25500000920E-02 0. -1.
    10030    2    1    2    0    0  0.00000000000E+00  0.00000000000E+00 -0.49020047321E+03  0.33179531951E+04  0.32815418481E+04 0.  0.
        1    1    3    3  502    0 -0.77682847175E+03 -0.26167886522E+03 -0.16822052881E+04  0.18712971262E+04  0.50400001928E-02 0. -1.
       -1    1    3    3    0  502  0.77682847175E+03  0.26167886522E+03  0.11920048149E+04  0.14466560689E+04  0.50400001928E-02 0.  1.
</event>
<event>
 5   0  0.5988516E-07  0.3302364E+04  0.7818609E-02  0.8162294E-01
        1   -1    0    0  501    0  0.00000000000E+00  0.00000000000E+00  0.17125117778E+04  0.17125117778E+04  0.50400001928E-02 0. -1.
       -1   -1    0    0    0  501  0.00000000000E+00  0.00000000000E+00 -0.15920481814E+04  0.15920481814E+04  0.50400001928E-02 0.  1.
    10030    2    1    2    0    0  0.00000000000E+00  0.00000000000E+00  0.12046359637E+03  0.33045599592E+04  0.33023635544E+04 0.  0.
        4    1    3    3  502    0 -0.53746186461E+03 -0.13705806760E+04  0.80842087212E+03  0.16795542756E+04  0.12699999809E+01 0. -1.
       -4    1    3    3    0  502  0.53746186461E+03  0.13705806760E+04 -0.68795727575E+03  0.16250056835E+04  0.12699999809E+01 0.  1.
</event>
<event>
 5   0  0.5858859E-07  0.3149524E+04  0.7818609E-02  0.8202276E-01
       -1   -1    0    0    0  501  0.00000000000E+00  0.00000000000E+00  0.11384475124E+04  0.11384475124E+04  0.50400001928E-02 0. -1.
        1   -1    0    0  501    0  0.00000000000E+00  0.00000000000E+00 -0.21782963713E+04  0.21782963713E+04  0.50400001928E-02 0.  1.
    10030    2    1    2    0    0  0.00000000000E+00  0.00000000000E+00 -0.10398488590E+04  0.33167438837E+04  0.31495244626E+04 0.  0.
        3    1    3    3  502    0 -0.45599455901E+03  0.90006580272E+03  0.75332907254E+03  0.12591879085E+04  0.10100000352E+00 0. -1.
       -3    1    3    3    0  502  0.45599455901E+03 -0.90006580272E+03 -0.17931779315E+04  0.20575559753E+04  0.10100000352E+00 0.  1.
</event>
<event>
 5   0  0.6085351E-07  0.3269604E+04  0.7818609E-02  0.8170673E-01
        1   -1    0    0  501    0  0.00000000000E+00  0.00000000000E+00  0.18587167636E+04  0.18587167636E+04  0.50400001928E-02 0.  1.
       -1   -1    0    0    0  501  0.00000000000E+00  0.00000000000E+00 -0.14378612286E+04  0.14378612286E+04  0.50400001928E-02 0. -1.
    10030    2    1    2    0    0  0.00000000000E+00  0.00000000000E+00  0.42085553500E+03  0.32965779923E+04  0.32696035047E+04 0.  0.
        1    1    3    3  502    0  0.77860169831E+03 -0.12442890095E+04  0.93615846025E+03  0.17409389440E+04  0.50400001928E-02 0.  1.
       -1    1    3    3    0  502 -0.77860169831E+03  0.12442890095E+04 -0.51530292525E+03  0.15556390483E+04  0.50400001928E-02 0. -1.
</event>
<event>
 5   0  0.6023446E-07  0.3319739E+04  0.7818609E-02  0.8157891E-01
       -1   -1    0    0    0  501  0.00000000000E+00  0.00000000000E+00  0.13777053007E+04  0.13777053007E+04  0.50400001928E-02 0.  1.
        1   -1    0    0  501    0  0.00000000000E+00  0.00000000000E+00 -0.19998228481E+04  0.19998228481E+04  0.50400001928E-02 0. -1.
    10030    2    1    2    0    0  0.00000000000E+00  0.00000000000E+00 -0.62211754741E+03  0.33775281488E+04  0.33197388682E+04 0.  0.
        5    1    3    3  502    0 -0.16062989518E+04  0.36232232739E+03 -0.52367182242E+03  0.17279259415E+04  0.46999998093E+01 0.  1.
       -5    1    3    3    0  502  0.16062989518E+04 -0.36232232739E+03 -0.98445724994E+02  0.16496022073E+04  0.46999998093E+01 0. -1.
</event>
<event>
 5   0  0.5858859E-07  0.3264715E+04  0.7818609E-02  0.8171932E-01
        1   -1    0    0  501    0  0.00000000000E+00  0.00000000000E+00  0.26268815150E+04  0.26268815150E+04  0.50400001928E-02 0. -1.
       -1   -1    0    0    0  501  0.00000000000E+00  0.00000000000E+00 -0.10143554550E+04  0.10143554550E+04  0.50400001928E-02 0.  1.
    10030    2    1    2    0    0  0.00000000000E+00  0.00000000000E+00  0.16125260600E+04  0.36412369700E+04  0.32647153594E+04 0.  0.
        3    1    3    3  502    0  0.15108344009E+04 -0.26053806642E+03  0.14313368464E+04  0.20974331572E+04  0.10100000352E+00 0.  1.
       -3    1    3    3    0  502 -0.15108344009E+04  0.26053806642E+03  0.18118921365E+03  0.15438038128E+04  0.10100000352E+00 0. -1.
</event>
<event>
 5   0  0.1696681E-06  0.3620367E+04  0.7818609E-02  0.8085842E-01
       -2   -1    0    0    0  501  0.00000000000E+00  0.00000000000E+00  0.12375073586E+04  0.12375073586E+04  0.25500000920E-02 0.  1.
        2   -1    0    0  501    0  0.00000000000E+00  0.00000000000E+00 -0.26478739357E+04  0.26478739357E+04  0.25500000920E-02 0. -1.
    10030    2    1    2    0    0  0.00000000000E+00  0.00000000000E+00 -0.14103665771E+04  0.38853812943E+04  0.36203665451E+04 0.  0.
        4    1    3    3  502    0  0.50714834851E+02 -0.18086282738E+04 -0.76448811408E+03  0.19642178893E+04  0.12699999809E+01 0. -1.
       -4    1    3    3    0  502 -0.50714834851E+02  0.18086282738E+04 -0.64587846297E+03  0.19211634051E+04  0.12699999809E+01 0.  1.
</event>
<event>
 5   0  0.1728937E-06  0.3309009E+04  0.7818609E-02  0.8160607E-01
       -2   -1    0    0    0  501  0.00000000000E+00  0.00000000000E+00  0.17128510047E+04  0.17128510047E+04  0.25500000920E-02 0. -1.
        2   -1    0    0  501    0  0.00000000000E+00  0.00000000000E+00 -0.15981453413E+04  0.15981453413E+04  0.25500000920E-02 0.  1.
    10030    2    1    2    0    0  0.00000000000E+00  0.00000000000E+00  0.11470566342E+03  0.33109963460E+04  0.33090088266E+04 0.  0.
        1    1    3    3  502    0 -0.46610364815E+03  0.14436020556E+04  0.71816251460E+03  0.16783911651E+04  0.50400001928E-02 0. -1.
       -1    1    3    3    0  502  0.46610364815E+03 -0.14436020556E+04 -0.60345685118E+03  0.16326051810E+04  0.50400001928E-02 0.  1.
</event>
<event>
 5   0  0.5988516E-07  0.3285851E+04  0.7818609E-02  0.8166505E-01
        1   -1    0    0  501    0  0.00000000000E+00  0.00000000000E+00  0.14317241007E+04  0.14317241007E+04  0.50400001928E-02 0. -1.
       -1   -1    0    0    0  501  0.00000000000E+00  0.00000000000E+00 -0.18852821134E+04  0.18852821134E+04  0.50400001928E-02 0.  1.
    10030    2    1    2    0    0  0.00000000000E+00  0.00000000000E+00 -0.45355801268E+03  0.33170062141E+04  0.32858507807E+04 0.  0.
        4    1    3    3  502    0  0.23531084753E+02  0.16434285174E+03  0.14232341679E+04  0.14328849900E+04  0.12699999809E+01 0. -1.
       -4    1    3    3    0  502 -0.23531084753E+02 -0.16434285174E+03 -0.18767921806E+04  0.18841212241E+04  0.12699999809E+01 0.  1.
</event>
<event>
 5   0  0.1743810E-06  0.3323461E+04  0.7818609E-02  0.8156951E-01
        2   -1    0    0  501    0  0.00000000000E+00  0.00000000000E+00  0.18216657455E+04  0.18216657455E+04  0.25500000920E-02 0. -1.
       -2   -1    0    0    0  501  0.00000000000E+00  0.00000000000E+00 -0.15158365271E+04  0.15158365271E+04  0.25500000920E-02 0.  1.
    10030    2    1    2    0    0  0.00000000000E+00  0.00000000000E+00  0.30582921836E+03  0.33375022726E+04  0.33234605322E+04 0.  0.
        5    1    3    3  502    0 -0.19521032172E+02 -0.26117498073E+02  0.18213377810E+04  0.18216356927E+04  0.46999998093E+01 0. -1.
       -5    1    3    3    0  502  0.19521032172E+02  0.26117498073E+02 -0.15155085627E+04  0.15158665799E+04  0.46999998093E+01 0.  1.
</event>
<event>
 5   0  0.5988516E-07  0.3280592E+04  0.7818609E-02  0.8167851E-01
        1   -1    0    0  501    0  0.00000000000E+00  0.00000000000E+00  0.26116316222E+04  0.26116316222E+04  0.50400001928E-02 0. -1.
       -1   -1    0    0    0  501  0.00000000000E+00  0.00000000000E+00 -0.10302262680E+04  0.10302262680E+04  0.50400001928E-02 0.  1.
    10030    2    1    2    0    0  0.00000000000E+00  0.00000000000E+00  0.15814053542E+04  0.36418578903E+04  0.32805923244E+04 0.  0.
        4    1    3    3  502    0 -0.35220477762E+03  0.85145979267E+03  0.22971746687E+04  0.24750848582E+04  0.12699999809E+01 0. -1.
       -4    1    3    3    0  502  0.35220477762E+03 -0.85145979267E+03 -0.71576931449E+03  0.11667730321E+04  0.12699999809E+01 0.  1.
</event>
<event>
 5   0  0.6085351E-07  0.3250565E+04  0.7818609E-02  0.8175589E-01
        1   -1    0    0  501    0  0.00000000000E+00  0.00000000000E+00  0.17000368048E+04  0.17000368048E+04  0.50400001928E-02 0.  1.
       -1   -1    0    0    0  501  0.00000000000E+00  0.00000000000E+00 -0.15538151050E+04  0.15538151050E+04  0.50400001928E-02 0. -1.
    10030    2    1    2    0    0  0.00000000000E+00  0.00000000000E+00  0.14622169976E+03  0.32538519098E+04  0.32505647918E+04 0.  0.
        1    1    3    3  502    0 -0.93669109546E+03  0.13276267348E+04  0.11264649914E+03  0.16287026092E+04  0.50400001928E-02 0.  1.
       -1    1    3    3    0  502  0.93669109546E+03 -0.13276267348E+04  0.33575200625E+02  0.16251493007E+04  0.50400001928E-02 0. -1.
</event>
<event>
 5   0  0.6085351E-07  0.3145773E+04  0.7818609E-02  0.8203287E-01
       -1   -1    0    0    0  501  0.00000000000E+00  0.00000000000E+00  0.13031241590E+04  0.13031241590E+04  0.50400001928E-02 0. -1.
        1   -1    0    0  501    0  0.00000000000E+00  0.00000000000E+00 -0.18984925541E+04  0.18984925541E+04  0.50400001928E-02 0.  1.
    10030    2    1    2    0    0  0.00000000000E+00  0.00000000000E+00 -0.59536839515E+03  0.32016167131E+04  0.31457727273E+04 0.  0.
        1    1    3    3  502    0  0.21001580575E+03  0.14519168774E+04  0.27966230233E+03  0.14934457676E+04  0.50400001928E-02 0. -1.
       -1    1    3    3    0  502 -0.21001580575E+03 -0.14519168774E+04 -0.87503069748E+03  0.17081709455E+04  0.50400001928E-02 0.  1.
</event>
<event>
 5   0  0.5858859E-07  0.3294625E+04  0.7818609E-02  0.8164264E-01
        1   -1    0    0  501    0  0.00000000000E+00  0.00000000000E+00  0.14040039780E+04  0.14040039780E+04  0.50400001928E-02 0. -1.
       -1   -1    0    0    0  501  0.00000000000E+00  0.00000000000E+00 -0.19327856099E+04  0.19327856099E+04  0.50400001928E-02 0.  1.
    10030    2    1    2    0    0  0.00000000000E+00  0.00000000000E+00 -0.52878163196E+03  0.33367895879E+04  0.32946251289E+04 0.  0.
        3    1    3    3  502    0 -0.91897013078E+03 -0.90647268667E+03  0.77215227149E+03  0.15041336289E+04  0.10100000352E+00 0. -1.
       -3    1    3    3    0  502  0.91897013078E+03  0.90647268667E+03 -0.13009339035E+04  0.18326559591E+04  0.10100000352E+00 0.  1.
</event>
<event>
 5   0  0.1743810E-06  0.3268075E+04  0.7818609E-02  0.8171067E-01
        2   -1    0    0  501    0  0.00000000000E+00  0.00000000000E+00  0.18529178572E+04  0.18529178572E+04  0.25500000920E-02 0. -1.
       -2   -1    0    0    0  501  0.00000000000E+00  0.00000000000E+00 -0.14410125867E+04  0.14410125867E+04  0.25500000920E-02 0.  1.
    10030    2    1    2    0    0  0.00000000000E+00  0.00000000000E+00  0.41190527050E+03  0.32939304439E+04  0.32680746346E+04 0.  0.
        5    1    3    3  502    0 -0.12396680605E+04 -0.42731979710E+03  0.11886932287E+04  0.17698567149E+04  0.46999998093E+01 0. -1.
       -5    1    3    3    0  502  0.12396680605E+04  0.42731979710E+03 -0.77678795825E+03  0.15240737290E+04  0.46999998093E+01 0.  1.
</event>
<event>
 5   0  0.1728937E-06  0.3294042E+04  0.7818609E-02  0.8164413E-01
        2   -1    0    0  501    0  0.00000000000E+00  0.00000000000E+00  0.27440841998E+04  0.27440841998E+04  0.25500000920E-02 0.  1.
       -2   -1    0    0    0  501  0.00000000000E+00  0.00000000000E+00 -0.98855505892E+03  0.98855505892E+03  0.25500000920E-02 0. -1.
    10030    2    1    2    0    0  0.00000000000E+00  0.00000000000E+00  0.17555291409E+04  0.37326392587E+04  0.32940420870E+04 0.  0.
        1    1    3    3  502    0 -0.89618217016E+03 -0.20453046977E+03  0.24263700735E+04  0.25946573818E+04  0.50400001928E-02 0.  1.
       -1    1    3    3    0  502  0.89618217016E+03  0.20453046977E+03 -0.67084093267E+03  0.11379818769E+04  0.50400001928E-02 0. -1.
</event>
<event>
 5   0  0.5988516E-07  0.3304608E+04  0.7818609E-02  0.8161724E-01
       -1   -1    0    0    0  501  0.00000000000E+00  0.00000000000E+00  0.11039465800E+04  0.11039465801E+04  0.50400001928E-02 0.  1.
        1   -1    0    0  501    0  0.00000000000E+00  0.00000000000E+00 -0.24730443037E+04  0.24730443037E+04  0.50400001928E-02 0. -1.
    10030    2    1    2    0    0  0.00000000000E+00  0.00000000000E+00 -0.13690977237E+04  0.35769908838E+04  0.33046081773E+04 0.  0.
        4    1    3    3  502    0 -0.16191904452E+04 -0.16402718409E+03 -0.99341877532E+03  0.19067157866E+04  0.12699999809E+01 0. -1.
       -4    1    3    3    0  502  0.16191904452E+04  0.16402718409E+03 -0.37567894835E+03  0.16702750971E+04  0.12699999809E+01 0.  1.
</event>
<event>
 5   0  0.5858859E-07  0.3281578E+04  0.7818609E-02  0.8167599E-01
       -1   -1    0    0    0  501  0.00000000000E+00  0.00000000000E+00  0.11373322705E+04  0.11373322705E+04  0.50400001928E-02 0.  1.
        1   -1    0    0  501    0  0.00000000000E+00  0.00000000000E+00 -0.23671084744E+04  0.23671084744E+04  0.50400001928E-02 0. -1.
    10030    2    1    2    0    0  0.00000000000E+00  0.00000000000E+00 -0.12297762039E+04  0.35044407449E+04  0.32815781908E+04 0.  0.
        3    1    3    3  502    0  0.69153709396E+03 -0.71908410396E+03 -0.20059996563E+04  0.22403883887E+04  0.10100000352E+00 0. -1.
       -3    1    3    3    0  502 -0.69153709396E+03  0.71908410396E+03  0.77622345238E+03  0.12640523562E+04  0.10100000352E+00 0.  1.
</event>
<event>
 5   0  0.1743810E-06  0.3274691E+04  0.7818609E-02  0.8169365E-01
        2   -1    0    0  501    0  0.00000000000E+00  0.00000000000E+00  0.20332861748E+04  0.20332861748E+04  0.25500000920E-02 0.  1.
       -2   -1    0    0    0  501  0.00000000000E+00  0.00000000000E+00 -0.13185063060E+04  0.13185063060E+04  0.25500000920E-02 0. -1.
    10030    2    1    2    0    0  0.00000000000E+00  0.00000000000E+00  0.71477986876E+03  0.33517924808E+04  0.32746912181E+04 0.  0.
        5    1    3    3  502    0  0.35905199442E+03 -0.13053219293E+04 -0.58521343490E+03  0.14748832253E+04  0.46999998093E+01 0.  1.
       -5    1    3    3    0  502 -0.35905199442E+03  0.13053219293E+04  0.12999933037E+04  0.18769092555E+04  0.46999998093E+01 0. -1.
</event>
<event>
 5   0  0.5858859E-07  0.3281820E+04  0.7818609E-02  0.8167537E-01
        1   -1    0    0  501    0  0.00000000000E+00  0.00000000000E+00  0.27641791704E+04  0.27641791704E+04  0.50400001928E-02 0. -1.
       -1   -1    0    0    0  501  0.00000000000E+00  0.00000000000E+00 -0.97409952597E+03  0.97409952598E+03  0.50400001928E-02 0.  1.
    10030    2    1    2    0    0  0.00000000000E+00  0.00000000000E+00  0.17900796444E+04  0.37382786963E+04  0.32818199948E+04 0.  0.
        3    1    3    3  502    0 -0.12705833038E+04 -0.96904273521E+03  0.13199664067E+04  0.20726159991E+04  0.10100000352E+00 0.  1.
       -3    1    3    3    0  502  0.12705833038E+04  0.96904273521E+03  0.47011323772E+03  0.16656626973E+04  0.10100000352E+00 0. -1.
</event>
<event>
 5   0  0.5858859E-07  0.3289831E+04  0.7818609E-02  0.8165488E-01
        1   -1    0    0  501    0  0.00000000000E+00  0.00000000000E+00  0.22700239681E+04  0.22700239681E+04  0.50400001928E-02 0. -1.
       -1   -1    0    0    0  501  0.00000000000E+00  0.00000000000E+00 -0.11919463391E+04  0.11919463391E+04  0.50400001928E-02 0.  1.
    10030    2    1    2    0    0  0.00000000000E+00  0.00000000000E+00  0.10780776290E+04  0.34619703072E+04  0.32898308518E+04 0.  0.
        3    1    3    3  502    0  0.20131841547E+03 -0.76132292185E+03  0.20587666032E+04  0.22042371996E+04  0.10100000352E+00 0. -1.
       -3    1    3    3    0  502 -0.20131841547E+03  0.76132292185E+03 -0.98068897412E+03  0.12577331076E+04  0.10100000352E+00 0.  1.
</event>
<event>
 5   0  0.1696681E-06  0.3274624E+04  0.7818609E-02  0.8169382E-01
       -2   -1    0    0    0  501  0.00000000000E+00  0.00000000000E+00  0.11542565048E+04  0.11542565048E+04  0.25500000920E-02 0.  1.
        2   -1    0    0  501    0  0.00000000000E+00  0.00000000000E+00 -0.23225257835E+04  0.23225257835E+04  0.25500000920E-02 0. -1.
    10030    2    1    2    0    0  0.00000000000E+00  0.00000000000E+00 -0.11682692787E+04  0.34767822884E+04  0.32746239437E+04 0.  0.
        4    1    3    3  502    0 -0.95278268015E+02 -0.77462342655E+03  0.94405164478E+03  0.12248895959E+04  0.12699999809E+01 0.  1.
       -4    1    3    3    0  502  0.95278268015E+02  0.77462342655E+03 -0.21123209235E+04  0.22518926924E+04  0.12699999809E+01 0. -1.
</event>
<event>
 5   0  0.1784626E-06  0.3354068E+04  0.7818609E-02  0.8149272E-01
       -2   -1    0    0    0  501  0.00000000000E+00  0.00000000000E+00  0.18537066196E+04  0.18537066196E+04  0.25500000920E-02 0. -1.
        2   -1    0    0  501    0  0.00000000000E+00  0.00000000000E+00 -0.15171995600E+04  0.15171995600E+04  0.25500000920E-02 0.  1.
    10030    2    1    2    0    0  0.00000000000E+00  0.00000000000E+00  0.33650705966E+03  0.33709061796E+04  0.33540678989E+04 0.  0.
        2    1    3    3  502    0  0.75501397336E+03 -0.14484703172E+04 -0.21356226018E+03  0.16473376093E+04  0.25500000920E-02 0. -1.
       -2    1    3    3    0  502 -0.75501397336E+03  0.14484703172E+04  0.55006931984E+03  0.17235685703E+04  0.25500000920E-02 0.  1.
</event>
<event>
 5   0  0.5985183E-07  0.3276490E+04  0.7818609E-02  0.8168903E-01
       -1   -1    0    0    0  501  0.00000000000E+00  0.00000000000E+00  0.17450628692E+04  0.17450628692E+04  0.50400001928E-02 0. -1.
        1   -1    0    0  501    0  0.00000000000E+00  0.00000000000E+00 -0.15379654710E+04  0.15379654710E+04  0.50400001928E-02 0.  1.
    10030    2    1    2    0    0  0.00000000000E+00  0.00000000000E+00  0.20709739825E+03  0.32830283402E+04  0.32764898520E+04 0.  0.
        2    1    3    3  502    0 -0.39018863794E+03 -0.71007896057E+03 -0.13231561837E+04  0.15515159006E+04  0.25500000920E-02 0.  1.
       -2    1    3    3    0  502  0.39018863794E+03  0.71007896057E+03  0.15302535820E+04  0.17315124396E+04  0.25500000920E-02 0. -1.
</event>
<event>
 5   0  0.1784626E-06  0.3281501E+04  0.7818609E-02  0.8167618E-01
       -2   -1    0    0    0  501  0.00000000000E+00  0.00000000000E+00  0.13425788245E+04  0.13425788245E+04  0.25500000920E-02 0.  1.
        2   -1    0    0  501    0  0.00000000000E+00  0.00000000000E+00 -0.20051429882E+04  0.20051429882E+04  0.25500000920E-02 0. -1.
    10030    2    1    2    0    0  0.00000000000E+00  0.00000000000E+00 -0.66256416364E+03  0.33477218127E+04  0.32815011907E+04 0.  0.
        2    1    3    3  502    0  0.12313571746E+04 -0.69851195024E+03 -0.11774185685E+04  0.18413239588E+04  0.25500000920E-02 0. -1.
       -2    1    3    3    0  502 -0.12313571746E+04  0.69851195024E+03  0.51485440484E+03  0.15063978539E+04  0.25500000920E-02 0.  1.
</event>
<event>
 5   0  0.5985183E-07  0.3323106E+04  0.7818609E-02  0.8157041E-01
        1   -1    0    0  501    0  0.00000000000E+00  0.00000000000E+00  0.26003182779E+04  0.26003182779E+04  0.50400001928E-02 0. -1.
       -1   -1    0    0    0  501  0.00000000000E+00  0.00000000000E+00 -0.10617002610E+04  0.10617002610E+04  0.50400001928E-02 0.  1.
    10030    2    1    2    0    0  0.00000000000E+00  0.00000000000E+00  0.15386180169E+04  0.36620185389E+04  0.33231061340E+04 0.  0.
        2    1    3    3  502    0  0.47954416130E+02 -0.10986995537E+04  0.21418545980E+04  0.24076921428E+04  0.25500000920E-02 0. -1.
       -2    1    3    3    0  502 -0.47954416130E+02  0.10986995537E+04 -0.60323658108E+03  0.12543263962E+04  0.25500000920E-02 0.  1.
</event>
<event>
 5   0  0.6085351E-07  0.3340743E+04  0.7818609E-02  0.8152605E-01
        1   -1    0    0  501    0  0.00000000000E+00  0.00000000000E+00  0.15257317953E+04  0.15257317953E+04  0.50400001928E-02 0. -1.
       -1   -1    0    0    0  501  0.00000000000E+00  0.00000000000E+00 -0.18287232595E+04  0.18287232595E+04  0.50400001928E-02 0.  1.
    10030    2    1    2    0    0  0.00000000000E+00  0.00000000000E+00 -0.30299146416E+03  0.33544550548E+04  0.33407431639E+04 0.  0.
        1    1    3    3  502    0  0.11311346365E+03 -0.95304359799E+03 -0.15242407228E+04  0.18012208461E+04  0.50400001928E-02 0.  1.
       -1    1    3    3    0  502 -0.11311346365E+03  0.95304359799E+03  0.12212492587E+04  0.15532342087E+04  0.50400001928E-02 0. -1.
</event>
<event>
 5   0  0.1784626E-06  0.3272574E+04  0.7818609E-02  0.8169909E-01
       -2   -1    0    0    0  501  0.00000000000E+00  0.00000000000E+00  0.16722052159E+04  0.16722052159E+04  0.25500000920E-02 0.  1.
        2   -1    0    0  501    0  0.00000000000E+00  0.00000000000E+00 -0.16011407233E+04  0.16011407233E+04  0.25500000920E-02 0. -1.
    10030    2    1    2    0    0  0.00000000000E+00  0.00000000000E+00  0.71064492563E+02  0.32733459393E+04  0.32725744416E+04 0.  0.
        2    1    3    3  502    0 -0.75196822105E+03 -0.27219781245E+03  0.14634149366E+04  0.16676723692E+04  0.25500000920E-02 0.  1.
       -2    1    3    3    0  502  0.75196822105E+03  0.27219781245E+03 -0.13923504440E+04  0.16056735700E+04  0.25500000920E-02 0. -1.
</event>
<event>
 5   0  0.1696681E-06  0.3316392E+04  0.7818609E-02  0.8158737E-01
       -2   -1    0    0    0  501  0.00000000000E+00  0.00000000000E+00  0.11373884136E+04  0.11373884136E+04  0.25500000920E-02 0. -1.
        2   -1    0    0  501    0  0.00000000000E+00  0.00000000000E+00 -0.24174801748E+04  0.24174801748E+04  0.25500000920E-02 0.  1.
    10030    2    1    2    0    0  0.00000000000E+00  0.00000000000E+00 -0.12800917612E+04  0.35548685884E+04  0.33163919798E+04 0.  0.
        4    1    3    3  502    0  0.12478736538E+04  0.10874307280E+04 -0.53329497103E+03  0.17389937847E+04  0.12699999809E+01 0.  1.
       -4    1    3    3    0  502 -0.12478736538E+04 -0.10874307280E+04 -0.74679679017E+03  0.18158748037E+04  0.12699999809E+01 0. -1.
</event>
<event>
 5   0  0.1728937E-06  0.3331243E+04  0.7818609E-02  0.8154991E-01
        2   -1    0    0  501    0  0.00000000000E+00  0.00000000000E+00  0.15845043135E+04  0.15845043135E+04  0.25500000920E-02 0. -1.
       -2   -1    0    0    0  501  0.00000000000E+00  0.00000000000E+00 -0.17508917528E+04  0.17508917528E+04  0.25500000920E-02 0.  1.
    10030    2    1    2    0    0  0.00000000000E+00  0.00000000000E+00 -0.16638743932E+03  0.33353960663E+04  0.33312433323E+04 0.  0.
        1    1    3    3  502    0  0.12611027191E+04  0.10042127238E+04  0.33622258046E+03  0.16467752993E+04  0.50400001928E-02 0. -1.
       -1    1    3    3    0  502 -0.12611027191E+04 -0.10042127238E+04 -0.50261001978E+03  0.16886207670E+04  0.50400001928E-02 0.  1.
</event>
<event>
 5   0  0.1728937E-06  0.3281844E+04  0.7818609E-02  0.8167531E-01
       -2   -1    0    0    0  501  0.00000000000E+00  0.00000000000E+00  0.16631742466E+04  0.16631742466E+04  0.25500000920E-02 0.  1.
        2   -1    0    0  501    0  0.00000000000E+00  0.00000000000E+00 -0.16189675904E+04  0.16189675904E+04  0.25500000920E-02 0. -1.
    10030    2    1    2    0    0  0.00000000000E+00  0.00000000000E+00  0.44206656181E+02  0.32821418370E+04  0.32818441172E+04 0.  0.
        1    1    3    3  502    0 -0.29898648770E+03 -0.15930107623E+04  0.27815193148E+03  0.16445195972E+04  0.50400001928E-02 0.  1.
       -1    1    3    3    0  502  0.29898648770E+03  0.15930107623E+04 -0.23394527530E+03  0.16376222398E+04  0.50400001928E-02 0. -1.
</event>
<event>
 5   0  0.5985183E-07  0.3248087E+04  0.7818609E-02  0.8176232E-01
       -1   -1    0    0    0  501  0.00000000000E+00  0.00000000000E+00  0.17215868056E+04  0.17215868056E+04  0.50400001928E-02 0. -1.
        1   -1    0    0  501    0  0.00000000000E+00  0.00000000000E+00 -0.15320266265E+04  0.15320266265E+04  0.50400001928E-02 0.  1.
    10030    2    1    2    0    0  0.00000000000E+00  0.00000000000E+00  0.18956017905E+03  0.32536134321E+04  0.32480867144E+04 0.  0.
        2    1    3    3  502    0 -0.87130109434E+03 -0.69882188034E+03  0.12757684401E+04  0.16956127890E+04  0.25500000920E-02 0. -1.
       -2    1    3    3    0  502  0.87130109434E+03  0.69882188034E+03 -0.10862082611E+04  0.15580006431E+04  0.25500000920E-02 0.  1.
</event>
<event>
 5   0  0.5985183E-07  0.3298550E+04  0.7818609E-02  0.8163264E-01
       -1   -1    0    0    0  501  0.00000000000E+00  0.00000000000E+00  0.23462390603E+04  0.23462390603E+04  0.50400001928E-02 0. -1.
        1   -1    0    0  501    0  0.00000000000E+00  0.00000000000E+00 -0.11593483427E+04  0.11593483427E+04  0.50400001928E-02 0.  1.
    10030    2    1    2    0    0  0.00000000000E+00  0.00000000000E+00  0.11868907176E+04  0.35055874029E+04  0.32985502064E+04 0.  0.
        2    1    3    3  502    0  0.10825723073E+04  0.52313841056E+03 -0.60633793598E+03  0.13465817056E+04  0.25500000920E-02 0.  1.
       -2    1    3    3    0  502 -0.10825723073E+04 -0.52313841056E+03  0.17932286536E+04  0.21590056973E+04  0.25500000920E-02 0. -1.
</event>
<event>
 5   0  0.1728937E-06  0.3285562E+04  0.7818609E-02  0.8166579E-01
        2   -1    0    0  501    0  0.00000000000E+00  0.00000000000E+00  0.23753259858E+04  0.23753259858E+04  0.25500000920E-02 0. -1.
       -2   -1    0    0    0  501  0.00000000000E+00  0.00000000000E+00 -0.11361515180E+04  0.11361515180E+04  0.25500000920E-02 0.  1.
    10030    2    1    2    0    0  0.00000000000E+00  0.00000000000E+00  0.12391744678E+04  0.35114775038E+04  0.32855624934E+04 0.  0.
        1    1    3    3  502    0 -0.14009504549E+04 -0.40038031397E+03 -0.19137808201E+03  0.14695550834E+04  0.50400001928E-02 0.  1.
       -1    1    3    3    0  502  0.14009504549E+04  0.40038031397E+03  0.14305525499E+04  0.20419224204E+04  0.50400001928E-02 0. -1.
</event>
<event>
 5   0  0.1743810E-06  0.3291499E+04  0.7818609E-02  0.8165062E-01
        2   -1    0    0  501    0  0.00000000000E+00  0.00000000000E+00  0.25266918369E+04  0.25266918369E+04  0.25500000920E-02 0. -1.
       -2   -1    0    0    0  501  0.00000000000E+00  0.00000000000E+00 -0.10719518500E+04  0.10719518500E+04  0.25500000920E-02 0.  1.
    10030    2    1    2    0    0  0.00000000000E+00  0.00000000000E+00  0.14547399869E+04  0.35986436868E+04  0.32914993476E+04 0.  0.
        5    1    3    3  502    0  0.53929815162E+03  0.13322245120E+03 -0.96634278319E+03  0.11146439712E+04  0.46999998093E+01 0.  1.
       -5    1    3    3    0  502 -0.53929815162E+03 -0.13322245120E+03  0.24210827701E+04  0.24839997157E+04  0.46999998093E+01 0. -1.
</event>
<event>
 5   0  0.1696681E-06  0.3382012E+04  0.7818609E-02  0.8142335E-01
        2   -1    0    0  501    0  0.00000000000E+00  0.00000000000E+00  0.28378638585E+04  0.28378638585E+04  0.25500000920E-02 0. -1.
       -2   -1    0    0    0  501  0.00000000000E+00  0.00000000000E+00 -0.10076246806E+04  0.10076246806E+04  0.25500000920E-02 0.  1.
    10030    2    1    2    0    0  0.00000000000E+00  0.00000000000E+00  0.18302391779E+04  0.38454885391E+04  0.33820122199E+04 0.  0.
        4    1    3    3  502    0  0.39156108232E+03  0.16329011299E+04  0.11419981951E+04  0.20307258977E+04  0.12699999809E+01 0.  1.
       -4    1    3    3    0  502 -0.39156108232E+03 -0.16329011299E+04  0.68824098288E+03  0.18147626414E+04  0.12699999809E+01 0. -1.
</event>
<event>
 5   0  0.6085351E-07  0.3339666E+04  0.7818609E-02  0.8152875E-01
       -1   -1    0    0    0  501  0.00000000000E+00  0.00000000000E+00  0.10537754606E+04  0.10537754606E+04  0.50400001928E-02 0. -1.
        1   -1    0    0  501    0  0.00000000000E+00  0.00000000000E+00 -0.26460501586E+04  0.26460501586E+04  0.50400001928E-02 0.  1.
    10030    2    1    2    0    0  0.00000000000E+00  0.00000000000E+00 -0.15922746980E+04  0.36998256192E+04  0.33396662855E+04 0.  0.
        1    1    3    3  502    0 -0.10270818933E+04  0.13038066368E+04 -0.99900804896E+03  0.19372212170E+04  0.50400001928E-02 0. -1.
       -1    1    3    3    0  502  0.10270818933E+04 -0.13038066368E+04 -0.59326664901E+03  0.17626044022E+04  0.50400001928E-02 0.  1.
</event>
<event>
 5   0  0.1832626E-06  0.2978431E+04  0.7818609E-02  0.8249917E-01
        2   -1    0    0  501    0  0.00000000000E+00  0.00000000000E+00  0.17345309406E+04  0.17345309406E+04  0.25500000920E-02 0. -1.
       -2   -1    0    0    0  501  0.00000000000E+00  0.00000000000E+00 -0.12785955161E+04  0.12785955161E+04  0.25500000920E-02 0.  1.
    10030    2    1    2    0    0  0.00000000000E+00  0.00000000000E+00  0.45593542442E+03  0.30131264567E+04  0.29784314551E+04 0.  0.
        3    1    3    3  502    0 -0.27957019360E+03 -0.85450905664E+03 -0.97305078085E+03  0.13248294431E+04  0.10100000352E+00 0.  1.
       -3    1    3    3    0  502  0.27957019360E+03  0.85450905664E+03  0.14289862053E+04  0.16882970136E+04  0.10100000352E+00 0. -1.
</event>
<event>
 5   0  0.1728937E-06  0.2918157E+04  0.7818609E-02  0.8267496E-01
       -2   -1    0    0    0  501  0.00000000000E+00  0.00000000000E+00  0.13245621079E+04  0.13245621079E+04  0.25500000920E-02 0. -1.
        2   -1    0    0  501    0  0.00000000000E+00  0.00000000000E+00 -0.16072553370E+04  0.16072553370E+04  0.25500000920E-02 0.  1.
    10030    2    1    2    0    0  0.00000000000E+00  0.00000000000E+00 -0.28269322908E+03  0.29318174449E+04  0.29181566217E+04 0.  0.
        1    1    3    3  502    0  0.83325511404E+03 -0.74199182989E+03  0.80329083473E+03  0.13748243982E+04  0.50400001928E-02 0. -1.
       -1    1    3    3    0  502 -0.83325511404E+03  0.74199182989E+03 -0.10859840638E+04  0.15569930467E+04  0.50400001928E-02 0.  1.
</event>
<event>
 5   0  0.5988516E-07  0.3292425E+04  0.7818609E-02  0.8164826E-01
        1   -1    0    0  501    0  0.00000000000E+00  0.00000000000E+00  0.23205752541E+04  0.23205752541E+04  0.50400001928E-02 0.  1.
       -1   -1    0    0    0  501  0.00000000000E+00  0.00000000000E+00 -0.11678203552E+04  0.11678203552E+04  0.50400001928E-02 0. -1.
    10030    2    1    2    0    0  0.00000000000E+00  0.00000000000E+00  0.11527548989E+04  0.34883956093E+04  0.32924246492E+04 0.  0.
        4    1    3    3  502    0  0.28675925710E+03  0.15583162121E+04  0.10321690322E+03  0.15878399260E+04  0.12699999809E+01 0.  1.
       -4    1    3    3    0  502 -0.28675925710E+03 -0.15583162121E+04  0.10495379956E+04  0.19005556834E+04  0.12699999809E+01 0. -1.
</event>
<event>
 5   0  0.1832626E-06  0.3323151E+04  0.7818609E-02  0.8157030E-01
        2   -1    0    0  501    0  0.00000000000E+00  0.00000000000E+00  0.16504719493E+04  0.16504719493E+04  0.25500000920E-02 0. -1.
       -2   -1    0    0    0  501  0.00000000000E+00  0.00000000000E+00 -0.16727534699E+04  0.16727534699E+04  0.25500000920E-02 0.  1.
    10030    2    1    2    0    0  0.00000000000E+00  0.00000000000E+00 -0.22281520581E+02  0.33232254192E+04  0.33231507220E+04 0.  0.
        3    1    3    3  502    0  0.17746797550E+03  0.14269183996E+04  0.82148931003E+03  0.16560301018E+04  0.10100000352E+00 0. -1.
       -3    1    3    3    0  502 -0.17746797550E+03 -0.14269183996E+04 -0.84377083061E+03  0.16671953174E+04  0.10100000352E+00 0.  1.
</event>
<event>
 5   0  0.1728937E-06  0.3290509E+04  0.7818609E-02  0.8165315E-01
       -2   -1    0    0    0  501  0.00000000000E+00  0.00000000000E+00  0.10415776401E+04  0.10415776401E+04  0.25500000920E-02 0.  1.
        2   -1    0    0  501    0  0.00000000000E+00  0.00000000000E+00 -0.25988093602E+04  0.25988093602E+04  0.25500000920E-02 0. -1.
    10030    2    1    2    0    0  0.00000000000E+00  0.00000000000E+00 -0.15572317202E+04  0.36403870003E+04  0.32905086053E+04 0.  0.
        1    1    3    3  502    0  0.11009708679E+04 -0.12016531941E+04 -0.52937360582E+03  0.17135762794E+04  0.50400001928E-02 0. -1.
       -1    1    3    3    0  502 -0.11009708679E+04  0.12016531941E+04 -0.10278581144E+04  0.19268107209E+04  0.50400001928E-02 0.  1.
</event>
<event>
 5   0  0.5985183E-07  0.3323232E+04  0.7818609E-02  0.8157009E-01
       -1   -1    0    0    0  501  0.00000000000E+00  0.00000000000E+00  0.16104970700E+04  0.16104970700E+04  0.50400001928E-02 0. -1.
        1   -1    0    0  501    0  0.00000000000E+00  0.00000000000E+00 -0.17143576294E+04  0.17143576294E+04  0.50400001928E-02 0.  1.
    10030    2    1    2    0    0  0.00000000000E+00  0.00000000000E+00 -0.10386055946E+03  0.33248546994E+04  0.33232321249E+04 0.  0.
        2    1    3    3  502    0  0.16355222342E+04  0.24745492658E+03  0.10563000697E+03  0.16575055408E+04  0.25500000920E-02 0.  1.
       -2    1    3    3    0  502 -0.16355222342E+04 -0.24745492658E+03 -0.20949056643E+03  0.16673491586E+04  0.25500000920E-02 0. -1.
</event>
<event>
 5   0  0.1743810E-06  0.3300010E+04  0.7818609E-02  0.8162893E-01
       -2   -1    0    0    0  501  0.00000000000E+00  0.00000000000E+00  0.94960693959E+03  0.94960693959E+03  0.25500000920E-02 0.  1.
        2   -1    0    0  501    0  0.00000000000E+00  0.00000000000E+00 -0.28669936365E+04  0.28669936365E+04  0.25500000920E-02 0. -1.
    10030    2    1    2    0    0  0.00000000000E+00  0.00000000000E+00 -0.19173866969E+04  0.38166005761E+04  0.33000103351E+04 0.  0.
        5    1    3    3  502    0 -0.90135445233E+03  0.91732309034E+03  0.23684525444E+03  0.13076846965E+04  0.46999998093E+01 0.  1.
       -5    1    3    3    0  502  0.90135445233E+03 -0.91732309034E+03 -0.21542319513E+04  0.25089158796E+04  0.46999998093E+01 0. -1.
</event>
<event>
 5   0  0.6085351E-07  0.2731998E+04  0.7818609E-02  0.8324697E-01
       -1   -1    0    0    0  501  0.00000000000E+00  0.00000000000E+00  0.12202044939E+04  0.12202044939E+04  0.50400001928E-02 0.  1.
        1   -1    0    0  501    0  0.00000000000E+00  0.00000000000E+00 -0.15292131646E+04  0.15292131646E+04  0.50400001928E-02 0. -1.
    10030    2    1    2    0    0  0.00000000000E+00  0.00000000000E+00 -0.30900867074E+03  0.27494176586E+04  0.27319976396E+04 0.  0.
        1    1    3    3  502    0  0.38565898763E+03 -0.12113722178E+04  0.34847974812E+03  0.13181781518E+04  0.50400001928E-02 0.  1.
       -1    1    3    3    0  502 -0.38565898763E+03  0.12113722178E+04 -0.65748841886E+03  0.14312395068E+04  0.50400001928E-02 0. -1.
</event>
<event>
 5   0  0.1728937E-06  0.3290230E+04  0.7818609E-02  0.8165386E-01
        2   -1    0    0  501    0  0.00000000000E+00  0.00000000000E+00  0.25144845556E+04  0.25144845556E+04  0.25500000920E-02 0.  1.
       -2   -1    0    0    0  501  0.00000000000E+00  0.00000000000E+00 -0.10763251866E+04  0.10763251866E+04  0.25500000920E-02 0. -1.
    10030    2    1    2    0    0  0.00000000000E+00  0.00000000000E+00  0.14381593691E+04  0.35908097422E+04  0.32902298147E+04 0.  0.
        1    1    3    3  502    0  0.11799140561E+04  0.68739072143E+03 -0.28217553397E+03  0.13943909838E+04  0.50400001928E-02 0. -1.
       -1    1    3    3    0  502 -0.11799140561E+04 -0.68739072143E+03  0.17203349030E+04  0.21964187584E+04  0.50400001928E-02 0.  1.
</event>
<event>
 5   0  0.1784626E-06  0.3343895E+04  0.7818609E-02  0.8151815E-01
        2   -1    0    0  501    0  0.00000000000E+00  0.00000000000E+00  0.18432257141E+04  0.18432257141E+04  0.25500000920E-02 0.  1.
       -2   -1    0    0    0  501  0.00000000000E+00  0.00000000000E+00 -0.15165850406E+04  0.15165850406E+04  0.25500000920E-02 0. -1.
    10030    2    1    2    0    0  0.00000000000E+00  0.00000000000E+00  0.32664067349E+03  0.33598107547E+04  0.33438950608E+04 0.  0.
        2    1    3    3  502    0 -0.13767722008E+03 -0.14422555357E+04 -0.67512884412E+03  0.15983913800E+04  0.25500000920E-02 0. -1.
       -2    1    3    3    0  502  0.13767722008E+03  0.14422555357E+04  0.10017695176E+04  0.17614193748E+04  0.25500000920E-02 0.  1.
</event>
<event>
 5   0  0.6023446E-07  0.3259649E+04  0.7818609E-02  0.8173239E-01
        1   -1    0    0  501    0  0.00000000000E+00  0.00000000000E+00  0.17390055539E+04  0.17390055539E+04  0.50400001928E-02 0.  1.
       -1   -1    0    0    0  501  0.00000000000E+00  0.00000000000E+00 -0.15274985775E+04  0.15274985775E+04  0.50400001928E-02 0. -1.
    10030    2    1    2    0    0  0.00000000000E+00  0.00000000000E+00  0.21150697642E+03  0.32665041314E+04  0.32596493736E+04 0.  0.
        5    1    3    3  502    0  0.75694396791E+03  0.39866016326E+03 -0.12843956317E+04  0.15432395553E+04  0.46999998093E+01 0. -1.
       -5    1    3    3    0  502 -0.75694396791E+03 -0.39866016326E+03  0.14959026081E+04  0.17232645761E+04  0.46999998093E+01 0.  1.
</event>
<event>
 5   0  0.5858859E-07  0.3185911E+04  0.7818609E-02  0.8192548E-01
       -1   -1    0    0    0  501  0.00000000000E+00  0.00000000000E+00  0.12269160719E+04  0.12269160719E+04  0.50400001928E-02 0.  1.
        1   -1    0    0  501    0  0.00000000000E+00  0.00000000000E+00 -0.20681993168E+04  0.20681993169E+04  0.50400001928E-02 0. -1.
    10030    2    1    2    0    0  0.00000000000E+00  0.00000000000E+00 -0.84128324494E+03  0.32951153888E+04  0.31859108473E+04 0.  0.
        3    1    3    3  502    0  0.27577489548E+03  0.10010657942E+04 -0.16700736699E+04  0.19665529717E+04  0.10100000352E+00 0. -1.
       -3    1    3    3    0  502 -0.27577489548E+03 -0.10010657942E+04  0.82879042497E+03  0.13285624171E+04  0.10100000352E+00 0.  1.
</event>
<event>
 5   0  0.1832626E-06  0.3235291E+04  0.7818609E-02  0.8179558E-01
       -2   -1    0    0    0  501  0.00000000000E+00  0.00000000000E+00  0.22195135621E+04  0.22195135621E+04  0.25500000920E-02 0. -1.
        2   -1    0    0  501    0  0.00000000000E+00  0.00000000000E+00 -0.11789869913E+04  0.11789869913E+04  0.25500000920E-02 0.  1.
    10030    2    1    2    0    0  0.00000000000E+00  0.00000000000E+00  0.10405265708E+04  0.33985005534E+04  0.32352914037E+04 0.  0.
        3    1    3    3  502    0 -0.14680199863E+04 -0.23028562551E+03  0.11917800253E+04  0.19048500698E+04  0.10100000352E+00 0.  1.
       -3    1    3    3    0  502  0.14680199863E+04  0.23028562551E+03 -0.15125345445E+03  0.14936504836E+04  0.10100000352E+00 0. -1.
</event>
<event>
 5   0  0.1743810E-06  0.3199904E+04  0.7818609E-02  0.8188843E-01
       -2   -1    0    0    0  501  0.00000000000E+00  0.00000000000E+00  0.13636287709E+04  0.13636287709E+04  0.25500000920E-02 0.  1.
        2   -1    0    0  501    0  0.00000000000E+00  0.00000000000E+00 -0.18772307657E+04  0.18772307657E+04  0.25500000920E-02 0. -1.
    10030    2    1    2    0    0  0.00000000000E+00  0.00000000000E+00 -0.51360199481E+03  0.32408595366E+04  0.31999036746E+04 0.  0.
        5    1    3    3  502    0  0.12243760439E+04 -0.10080909999E+04 -0.47040229650E+03  0.16542806810E+04  0.46999998093E+01 0. -1.
       -5    1    3    3    0  502 -0.12243760439E+04  0.10080909999E+04 -0.43199698303E+02  0.15865788556E+04  0.46999998093E+01 0.  1.
</event>
<event>
 5   0  0.6023446E-07  0.3248709E+04  0.7818609E-02  0.8176071E-01
       -1   -1    0    0    0  501  0.00000000000E+00  0.00000000000E+00  0.92225194674E+03  0.92225194675E+03  0.50400001928E-02 0.  1.
        1   -1    0    0  501    0  0.00000000000E+00  0.00000000000E+00 -0.28609609729E+04  0.28609609729E+04  0.50400001928E-02 0. -1.
    10030    2    1    2    0    0  0.00000000000E+00  0.00000000000E+00 -0.19387090261E+04  0.37832129196E+04  0.32487085599E+04 0.  0.
        5    1    3    3  502    0 -0.76970520116E+03 -0.14090385437E+04 -0.68251859741E+03  0.17446172761E+04  0.46999998093E+01 0. -1.
       -5    1    3    3    0  502  0.76970520116E+03  0.14090385437E+04 -0.12561904287E+04  0.20385956435E+04  0.46999998093E+01 0.  1.
</event>
<event>
 5   0  0.1728937E-06  0.3048132E+04  0.7818609E-02  0.8230119E-01
        2   -1    0    0  501    0  0.00000000000E+00  0.00000000000E+00  0.19211747649E+04  0.19211747649E+04  0.25500000920E-02 0.  1.
       -2   -1    0    0    0  501  0.00000000000E+00  0.00000000000E+00 -0.12090399709E+04  0.12090399709E+04  0.25500000920E-02 0. -1.
    10030    2    1    2    0    0  0.00000000000E+00  0.00000000000E+00  0.71213479398E+03  0.31302147359E+04  0.30481319407E+04 0.  0.
        1    1    3    3  502    0  0.51209413679E+03  0.98762136142E+03 -0.71368532649E+03  0.13217348841E+04  0.50400001928E-02 0. -1.
       -1    1    3    3    0  502 -0.51209413679E+03 -0.98762136142E+03  0.14258201205E+04  0.18084798518E+04  0.50400001928E-02 0.  1.
</event>
<event>
 5   0  0.6085351E-07  0.3318633E+04  0.7818609E-02  0.8158170E-01
        1   -1    0    0  501    0  0.00000000000E+00  0.00000000000E+00  0.14296504784E+04  0.14296504784E+04  0.50400001928E-02 0.  1.
       -1   -1    0    0    0  501  0.00000000000E+00  0.00000000000E+00 -0.19258767398E+04  0.19258767398E+04  0.50400001928E-02 0. -1.
    10030    2    1    2    0    0  0.00000000000E+00  0.00000000000E+00 -0.49622626133E+03  0.33555272182E+04  0.33186326114E+04 0.  0.
        1    1    3    3  502    0 -0.13099730408E+04  0.10179514840E+03 -0.12727592730E+04  0.18292916079E+04  0.50400001928E-02 0. -1.
       -1    1    3    3    0  502  0.13099730408E+04 -0.10179514840E+03  0.77653301170E+03  0.15262356103E+04  0.50400001928E-02 0.  1.
</event>
<event>
 5   0  0.1832626E-06  0.3301438E+04  0.7818609E-02  0.8162530E-01
        2   -1    0    0  501    0  0.00000000000E+00  0.00000000000E+00  0.21584474234E+04  0.21584474234E+04  0.25500000920E-02 0.  1.
       -2   -1    0    0    0  501  0.00000000000E+00  0.00000000000E+00 -0.12624226605E+04  0.12624226605E+04  0.25500000920E-02 0. -1.
    10030    2    1    2    0    0  0.00000000000E+00  0.00000000000E+00  0.89602476294E+03  0.34208700839E+04  0.33014378315E+04 0.  0.
        3    1    3    3  502    0 -0.12237695893E+04  0.11058849597E+04  0.38022892357E+03  0.16926805949E+04  0.10100000352E+00 0.  1.
       -3    1    3    3    0  502  0.12237695893E+04 -0.11058849597E+04  0.51579583938E+03  0.17281894890E+04  0.10100000352E+00 0. -1.
</event>
<event>
 5   0  0.1696681E-06  0.3297328E+04  0.7818609E-02  0.8163576E-01
        2   -1    0    0  501    0  0.00000000000E+00  0.00000000000E+00  0.18461301814E+04  0.18461301814E+04  0.25500000920E-02 0.  1.
       -2   -1    0    0    0  501  0.00000000000E+00  0.00000000000E+00 -0.14723191032E+04  0.14723191032E+04  0.25500000920E-02 0. -1.
    10030    2    1    2    0    0  0.00000000000E+00  0.00000000000E+00  0.37381107824E+03  0.33184492845E+04  0.32973278472E+04 0.  0.
        4    1    3    3  502    0  0.31713260466E+03 -0.13639076022E+04  0.10626947718E+04  0.17578790707E+04  0.12699999809E+01 0.  1.
       -4    1    3    3    0  502 -0.31713260466E+03  0.13639076022E+04 -0.68888369352E+03  0.15605702139E+04  0.12699999809E+01 0. -1.
</event>
<event>
 5   0  0.1784626E-06  0.3311782E+04  0.7818609E-02  0.8159904E-01
       -2   -1    0    0    0  501  0.00000000000E+00  0.00000000000E+00  0.16721292930E+04  0.16721292930E+04  0.25500000920E-02 0.  1.
        2   -1    0    0  501    0  0.00000000000E+00  0.00000000000E+00 -0.16398106563E+04  0.16398106563E+04  0.25500000920E-02 0. -1.
    10030    2    1    2    0    0  0.00000000000E+00  0.00000000000E+00  0.32318636729E+02  0.33119399493E+04  0.33117822594E+04 0.  0.
        2    1    3    3  502    0 -0.21752161747E+03  0.38921927951E+03 -0.15786479811E+04  0.16404074951E+04  0.25500000920E-02 0. -1.
       -2    1    3    3    0  502  0.21752161747E+03 -0.38921927951E+03  0.16109666179E+04  0.16715324542E+04  0.25500000920E-02 0.  1.
</event>
<event>
 5   0  0.1696681E-06  0.3495635E+04  0.7818609E-02  0.8114825E-01
        2   -1    0    0  501    0  0.00000000000E+00  0.00000000000E+00  0.20955878515E+04  0.20955878515E+04  0.25500000920E-02 0.  1.
       -2   -1    0    0    0  501  0.00000000000E+00  0.00000000000E+00 -0.14577613055E+04  0.14577613055E+04  0.25500000920E-02 0. -1.
    10030    2    1    2    0    0  0.00000000000E+00  0.00000000000E+00  0.63782654601E+03  0.35533491570E+04  0.34956354971E+04 0.  0.
        4    1    3    3  502    0  0.17227600508E+03  0.80419511398E+03 -0.12487736892E+04  0.14952746045E+04  0.12699999809E+01 0. -1.
       -4    1    3    3    0  502 -0.17227600508E+03 -0.80419511398E+03  0.18866002352E+04  0.20580745525E+04  0.12699999809E+01 0.  1.
</event>
<event>
 5   0  0.1728937E-06  0.3283062E+04  0.7818609E-02  0.8167219E-01
       -2   -1    0    0    0  501  0.00000000000E+00  0.00000000000E+00  0.13995539996E+04  0.13995539996E+04  0.25500000920E-02 0. -1.
        2   -1    0    0  501    0  0.00000000000E+00  0.00000000000E+00 -0.19253448595E+04  0.19253448595E+04  0.25500000920E-02 0.  1.
    10030    2    1    2    0    0  0.00000000000E+00  0.00000000000E+00 -0.52579085993E+03  0.33248988592E+04  0.32830620456E+04 0.  0.
        1    1    3    3  502    0  0.13594823533E+04  0.87860121109E+03  0.13514354641E+02  0.16187387050E+04  0.50400001928E-02 0. -1.
       -1    1    3    3    0  502 -0.13594823533E+04 -0.87860121109E+03 -0.53930521457E+03  0.17061601542E+04  0.50400001928E-02 0.  1.
</event>
<event>
 5   0  0.6023446E-07  0.3286805E+04  0.7818609E-02  0.8166261E-01
       -1   -1    0    0    0  501  0.00000000000E+00  0.00000000000E+00  0.91397608085E+03  0.91397608086E+03  0.50400001928E-02 0.  1.
        1   -1    0    0  501    0  0.00000000000E+00  0.00000000000E+00 -0.29549691171E+04  0.29549691171E+04  0.50400001928E-02 0. -1.
    10030    2    1    2    0    0  0.00000000000E+00  0.00000000000E+00 -0.20409930362E+04  0.38689451979E+04  0.32868045836E+04 0.  0.
        5    1    3    3  502    0 -0.10100126726E+04  0.88927971530E+03 -0.21308624111E+04  0.25202263224E+04  0.46999998093E+01 0. -1.
       -5    1    3    3    0  502  0.10100126726E+04 -0.88927971530E+03  0.89869374907E+02  0.13487188756E+04  0.46999998093E+01 0.  1.
</event>
<event>
 5   0  0.6085351E-07  0.3482518E+04  0.7818609E-02  0.8117945E-01
        1   -1    0    0  501    0  0.00000000000E+00  0.00000000000E+00  0.19493886936E+04  0.19493886936E+04  0.50400001928E-02 0.  1.
       -1   -1    0    0    0  501  0.00000000000E+00  0.00000000000E+00 -0.15553508755E+04  0.15553508755E+04  0.50400001928E-02 0. -1.
    10030    2    1    2    0    0  0.00000000000E+00  0.00000000000E+00  0.39403781804E+03  0.35047395691E+04  0.34825182907E+04 0.  0.
        1    1    3    3  502    0  0.14697018395E+04  0.79745273453E+03  0.68594709612E+03  0.18073399734E+04  0.50400001928E-02 0. -1.
       -1    1    3    3    0  502 -0.14697018395E+04 -0.79745273453E+03 -0.29190927809E+03  0.16973995957E+04  0.50400001928E-02 0.  1.
</event>
<event>
 5   0  0.1728937E-06  0.3300936E+04  0.7818609E-02  0.8162657E-01
        2   -1    0    0  501    0  0.00000000000E+00  0.00000000000E+00  0.13938775768E+04  0.13938775768E+04  0.25500000920E-02 0.  1.
       -2   -1    0    0    0  501  0.00000000000E+00  0.00000000000E+00 -0.19542924652E+04  0.19542924652E+04  0.25500000920E-02 0. -1.
    10030    2    1    2    0    0  0.00000000000E+00  0.00000000000E+00 -0.56041488846E+03  0.33481700420E+04  0.33009358950E+04 0.  0.
        1    1    3    3  502    0  0.58768804681E+02  0.67558687529E+02 -0.19518268998E+04  0.19538797802E+04  0.50400001928E-02 0. -1.
       -1    1    3    3    0  502 -0.58768804681E+02 -0.67558687529E+02  0.13914120114E+04  0.13942902618E+04  0.50400001928E-02 0.  1.
</event>
<event>
 5   0  0.5985183E-07  0.3351245E+04  0.7818609E-02  0.8149977E-01
       -1   -1    0    0    0  501  0.00000000000E+00  0.00000000000E+00  0.15628852882E+04  0.15628852882E+04  0.50400001928E-02 0.  1.
        1   -1    0    0  501    0  0.00000000000E+00  0.00000000000E+00 -0.17964913895E+04  0.17964913895E+04  0.50400001928E-02 0. -1.
    10030    2    1    2    0    0  0.00000000000E+00  0.00000000000E+00 -0.23360610132E+03  0.33593766777E+04  0.33512445228E+04 0.  0.
        2    1    3    3  502    0  0.96010045777E+03 -0.57219720281E+03 -0.13682343846E+04  0.17667110288E+04  0.25500000920E-02 0. -1.
       -2    1    3    3    0  502 -0.96010045777E+03  0.57219720281E+03  0.11346282833E+04  0.15926656489E+04  0.25500000920E-02 0.  1.
</event>
<event>
 5   0  0.5858859E-07  0.3300614E+04  0.7818609E-02  0.8162739E-01
       -1   -1    0    0    0  501  0.00000000000E+00  0.00000000000E+00  0.26265618578E+04  0.26265618578E+04  0.50400001928E-02 0.  1.
        1   -1    0    0  501    0  0.00000000000E+00  0.00000000000E+00 -0.10369118718E+04  0.10369118718E+04  0.50400001928E-02 0. -1.
    10030    2    1    2    0    0  0.00000000000E+00  0.00000000000E+00  0.15896499860E+04  0.36634737296E+04  0.33006139867E+04 0.  0.
        3    1    3    3  502    0 -0.82997706146E+03  0.30270657249E+03 -0.75234123901E+03  0.11603924085E+04  0.10100000352E+00 0. -1.
       -3    1    3    3    0  502  0.82997706146E+03 -0.30270657249E+03  0.23419912250E+04  0.25030813211E+04  0.10100000352E+00 0.  1.
</event>
<event>
 5   0  0.5988516E-07  0.3316257E+04  0.7818609E-02  0.8158771E-01
       -1   -1    0    0    0  501  0.00000000000E+00  0.00000000000E+00  0.16737241641E+04  0.16737241641E+04  0.50400001928E-02 0. -1.
        1   -1    0    0  501    0  0.00000000000E+00  0.00000000000E+00 -0.16426783967E+04  0.16426783967E+04  0.50400001928E-02 0.  1.
    10030    2    1    2    0    0  0.00000000000E+00  0.00000000000E+00  0.31045767420E+02  0.33164025608E+04  0.33162572436E+04 0.  0.
        4    1    3    3  502    0 -0.12638734775E+04  0.10311296365E+04 -0.28245731703E+03  0.16554118048E+04  0.12699999809E+01 0.  1.
       -4    1    3    3    0  502  0.12638734775E+04 -0.10311296365E+04  0.31350308445E+03  0.16609907560E+04  0.12699999809E+01 0. -1.
</event>
<event>
 5   0  0.1728937E-06  0.3268177E+04  0.7818609E-02  0.8171040E-01
       -2   -1    0    0    0  501  0.00000000000E+00  0.00000000000E+00  0.13813921460E+04  0.13813921460E+04  0.25500000920E-02 0.  1.
        2   -1    0    0  501    0  0.00000000000E+00  0.00000000000E+00 -0.19330104186E+04  0.19330104186E+04  0.25500000920E-02 0. -1.
    10030    2    1    2    0    0  0.00000000000E+00  0.00000000000E+00 -0.55161827258E+03  0.33144025647E+04  0.32681771130E+04 0.  0.
        1    1    3    3  502    0 -0.10929338016E+04  0.87782019073E+03  0.57581401075E+03  0.15154650629E+04  0.50400001928E-02 0.  1.
       -1    1    3    3    0  502  0.10929338016E+04 -0.87782019073E+03 -0.11274322833E+04  0.17989375018E+04  0.50400001928E-02 0. -1.
</event>
<event>
 5   0  0.5985183E-07  0.3282931E+04  0.7818609E-02  0.8167252E-01
        1   -1    0    0  501    0  0.00000000000E+00  0.00000000000E+00  0.24184232404E+04  0.24184232404E+04  0.50400001928E-02 0. -1.
       -1   -1    0    0    0  501  0.00000000000E+00  0.00000000000E+00 -0.11141181081E+04  0.11141181081E+04  0.50400001928E-02 0.  1.
    10030    2    1    2    0    0  0.00000000000E+00  0.00000000000E+00  0.13043051323E+04  0.35325413486E+04  0.32829310838E+04 0.  0.
        2    1    3    3  502    0 -0.72270236506E+03  0.10242418514E+04  0.17924625223E+04  0.21873024419E+04  0.25500000920E-02 0. -1.
       -2    1    3    3    0  502  0.72270236506E+03 -0.10242418514E+04 -0.48815739001E+03  0.13452389067E+04  0.25500000920E-02 0.  1.
</event>
<event>
 5   0  0.6023446E-07  0.3306317E+04  0.7818609E-02  0.8161290E-01
       -1   -1    0    0    0  501  0.00000000000E+00  0.00000000000E+00  0.12902764913E+04  0.12902764913E+04  0.50400001928E-02 0.  1.
        1   -1    0    0  501    0  0.00000000000E+00  0.00000000000E+00 -0.21180987388E+04  0.21180987388E+04  0.50400001928E-02 0. -1.
    10030    2    1    2    0    0  0.00000000000E+00  0.00000000000E+00 -0.82782224752E+03  0.34083752301E+04  0.33063169896E+04 0.  0.
        5    1    3    3  502    0  0.20929004400E+03  0.19431354173E+03 -0.20924697406E+04  0.21118739973E+04  0.46999998093E+01 0. -1.
       -5    1    3    3    0  502 -0.20929004400E+03 -0.19431354173E+03  0.12646474931E+04  0.12965012328E+04  0.46999998093E+01 0.  1.
</event>
<event>
 5   0  0.6023446E-07  0.3532423E+04  0.7818609E-02  0.8106149E-01
        1   -1    0    0  501    0  0.00000000000E+00  0.00000000000E+00  0.21943670033E+04  0.21943670033E+04  0.50400001928E-02 0.  1.
       -1   -1    0    0    0  501  0.00000000000E+00  0.00000000000E+00 -0.14215959014E+04  0.14215959014E+04  0.50400001928E-02 0. -1.
    10030    2    1    2    0    0  0.00000000000E+00  0.00000000000E+00  0.77277110187E+03  0.36159629047E+04  0.35324230427E+04 0.  0.
        5    1    3    3  502    0 -0.10381161202E+04  0.12891515334E+04  0.10173093737E+04  0.19428168228E+04  0.46999998093E+01 0.  1.
       -5    1    3    3    0  502  0.10381161202E+04 -0.12891515334E+04 -0.24453827181E+03  0.16731460819E+04  0.46999998093E+01 0. -1.
</event>
<event>
 5   0  0.1728937E-06  0.3281172E+04  0.7818609E-02  0.8167703E-01
        2   -1    0    0  501    0  0.00000000000E+00  0.00000000000E+00  0.12461968159E+04  0.12461968159E+04  0.25500000920E-02 0. -1.
       -2   -1    0    0    0  501  0.00000000000E+00  0.00000000000E+00 -0.21597892394E+04  0.21597892394E+04  0.25500000920E-02 0.  1.
    10030    2    1    2    0    0  0.00000000000E+00  0.00000000000E+00 -0.91359242358E+03  0.34059860553E+04  0.32811720303E+04 0.  0.
        1    1    3    3  502    0  0.32473287047E+03 -0.39243629771E+03 -0.20756269223E+04  0.21372142629E+04  0.50400001928E-02 0.  1.
       -1    1    3    3    0  502 -0.32473287047E+03  0.39243629771E+03  0.11620344987E+04  0.12687717924E+04  0.50400001928E-02 0. -1.
</event>
<event>
 5   0  0.6023446E-07  0.3267772E+04  0.7818609E-02  0.8171144E-01
        1   -1    0    0  501    0  0.00000000000E+00  0.00000000000E+00  0.11037989820E+04  0.11037989820E+04  0.50400001928E-02 0.  1.
       -1   -1    0    0    0  501  0.00000000000E+00  0.00000000000E+00 -0.24185416742E+04  0.24185416742E+04  0.50400001928E-02 0. -1.
    10030    2    1    2    0    0  0.00000000000E+00  0.00000000000E+00 -0.13147426922E+04  0.35223406563E+04  0.32677722307E+04 0.  0.
        5    1    3    3  502    0  0.28634129366E+03 -0.20354724579E+03 -0.23773403736E+04  0.24031629491E+04  0.46999998093E+01 0. -1.
       -5    1    3    3    0  502 -0.28634129366E+03  0.20354724579E+03  0.10625976814E+04  0.11191777072E+04  0.46999998093E+01 0.  1.
</event>
<event>
 5   0  0.1784626E-06  0.3306964E+04  0.7818609E-02  0.8161126E-01
        2   -1    0    0  501    0  0.00000000000E+00  0.00000000000E+00  0.13980005732E+04  0.13980005732E+04  0.25500000920E-02 0. -1.
       -2   -1    0    0    0  501  0.00000000000E+00  0.00000000000E+00 -0.19556519704E+04  0.19556519704E+04  0.25500000920E-02 0.  1.
    10030    2    1    2    0    0  0.00000000000E+00  0.00000000000E+00 -0.55765139723E+03  0.33536525435E+04  0.33069639100E+04 0.  0.
        2    1    3    3  502    0  0.85101638611E+03 -0.10748671601E+04 -0.12162321552E+04  0.18326999091E+04  0.25500000920E-02 0.  1.
       -2    1    3    3    0  502 -0.85101638611E+03  0.10748671601E+04  0.65858075801E+03  0.15209526344E+04  0.25500000920E-02 0. -1.
</event>
<event>
 5   0  0.5985183E-07  0.3166429E+04  0.7818609E-02  0.8197740E-01
       -1   -1    0    0    0  501  0.00000000000E+00  0.00000000000E+00  0.11028942909E+04  0.11028942909E+04  0.50400001928E-02 0. -1.
        1   -1    0    0  501    0  0.00000000000E+00  0.00000000000E+00 -0.22727182538E+04  0.22727182538E+04  0.50400001928E-02 0.  1.
    10030    2    1    2    0    0  0.00000000000E+00  0.00000000000E+00 -0.11698239629E+04  0.33756125447E+04  0.31664288952E+04 0.  0.
        2    1    3    3  502    0  0.10765284329E+04  0.27790542804E+03 -0.17865040195E+04  0.21042199280E+04  0.25500000920E-02 0.  1.
       -2    1    3    3    0  502 -0.10765284329E+04 -0.27790542804E+03  0.61668005660E+03  0.12713926168E+04  0.25500000920E-02 0. -1.
</event>
<event>
 5   0  0.1743810E-06  0.3206307E+04  0.7818609E-02  0.8187154E-01
       -2   -1    0    0    0  501  0.00000000000E+00  0.00000000000E+00  0.10303235524E+04  0.10303235524E+04  0.25500000920E-02 0.  1.
        2   -1    0    0  501    0  0.00000000000E+00  0.00000000000E+00 -0.24944597535E+04  0.24944597535E+04  0.25500000920E-02 0. -1.
    10030    2    1    2    0    0  0.00000000000E+00  0.00000000000E+00 -0.14641362011E+04  0.35247833059E+04  0.32063066819E+04 0.  0.
        5    1    3    3  502    0  0.11486084371E+03 -0.17053308828E+03  0.10157613825E+04  0.10363724349E+04  0.46999998093E+01 0.  1.
       -5    1    3    3    0  502 -0.11486084371E+03  0.17053308828E+03 -0.24798975836E+04  0.24884108710E+04  0.46999998093E+01 0. -1.
</event>
<event>
 5   0  0.1696681E-06  0.3383411E+04  0.7818609E-02  0.8141990E-01
       -2   -1    0    0    0  501  0.00000000000E+00  0.00000000000E+00  0.16717892580E+04  0.16717892580E+04  0.25500000920E-02 0. -1.
        2   -1    0    0  501    0  0.00000000000E+00  0.00000000000E+00 -0.17118586202E+04  0.17118586202E+04  0.25500000920E-02 0.  1.
    10030    2    1    2    0    0  0.00000000000E+00  0.00000000000E+00 -0.40069362180E+02  0.33836478782E+04  0.33834106180E+04 0.  0.
        4    1    3    3  502    0 -0.58987596509E+03  0.28017531228E+03 -0.15807252194E+04  0.17103057305E+04  0.12699999809E+01 0.  1.
       -4    1    3    3    0  502  0.58987596509E+03 -0.28017531228E+03  0.15406558572E+04  0.16733421476E+04  0.12699999809E+01 0. -1.
</event>
<event>
 5   0  0.1696681E-06  0.3341169E+04  0.7818609E-02  0.8152498E-01
        2   -1    0    0  501    0  0.00000000000E+00  0.00000000000E+00  0.22049044864E+04  0.22049044864E+04  0.25500000920E-02 0.  1.
       -2   -1    0    0    0  501  0.00000000000E+00  0.00000000000E+00 -0.12657476381E+04  0.12657476381E+04  0.25500000920E-02 0. -1.
    10030    2    1    2    0    0  0.00000000000E+00  0.00000000000E+00  0.93915684833E+03  0.34706521245E+04  0.33411690444E+04 0.  0.
        4    1    3    3  502    0 -0.42541726703E+03  0.11354866967E+04  0.16632603125E+04  0.20583358252E+04  0.12699999809E+01 0.  1.
       -4    1    3    3    0  502  0.42541726703E+03 -0.11354866967E+04 -0.72410346413E+03  0.14123162993E+04  0.12699999809E+01 0. -1.
</event>
<event>
 5   0  0.6023446E-07  0.3303154E+04  0.7818609E-02  0.8162093E-01
       -1   -1    0    0    0  501  0.00000000000E+00  0.00000000000E+00  0.11754179653E+04  0.11754179653E+04  0.50400001928E-02 0. -1.
        1   -1    0    0  501    0  0.00000000000E+00  0.00000000000E+00 -0.23206265100E+04  0.23206265100E+04  0.50400001928E-02 0.  1.
    10030    2    1    2    0    0  0.00000000000E+00  0.00000000000E+00 -0.11452085447E+04  0.34960444753E+04  0.33031536995E+04 0.  0.
        5    1    3    3  502    0  0.16328780974E+04 -0.78227219990E+02 -0.82143678671E+03  0.18295329632E+04  0.46999998093E+01 0.  1.
       -5    1    3    3    0  502 -0.16328780974E+04  0.78227219990E+02 -0.32377175795E+03  0.16665115121E+04  0.46999998093E+01 0. -1.
</event>
<event>
 5   0  0.5685000E-07  0.2936503E+04  0.7818609E-02  0.8262099E-01
       -3   -1    0    0    0  501  0.00000000000E+00  0.00000000000E+00  0.18497104391E+04  0.18497104419E+04  0.10100000352E+00 0.  1.
        3   -1    0    0  501    0  0.00000000000E+00  0.00000000000E+00 -0.11654592475E+04  0.11654592519E+04  0.10100000352E+00 0. -1.
    10030    2    1    2    0    0  0.00000000000E+00  0.00000000000E+00  0.68425119160E+03  0.30151696938E+04  0.29365027821E+04 0.  0.
        1    1    3    3  502    0 -0.19817704288E+03  0.14029130891E+04  0.73756997305E+03  0.15973254963E+04  0.50400001928E-02 0.  1.
       -1    1    3    3    0  502  0.19817704288E+03 -0.14029130891E+04 -0.53318781455E+02  0.14178441975E+04  0.50400001928E-02 0. -1.
</event>
<event>
 5   0  0.6023446E-07  0.3294269E+04  0.7818609E-02  0.8164355E-01
        1   -1    0    0  501    0  0.00000000000E+00  0.00000000000E+00  0.23159343058E+04  0.23159343058E+04  0.50400001928E-02 0. -1.
       -1   -1    0    0    0  501  0.00000000000E+00  0.00000000000E+00 -0.11714719049E+04  0.11714719049E+04  0.50400001928E-02 0.  1.
    10030    2    1    2    0    0  0.00000000000E+00  0.00000000000E+00  0.11444624009E+04  0.34874062108E+04  0.32942689465E+04 0.  0.
        5    1    3    3  502    0 -0.12651009053E+04 -0.10541587072E+04  0.61038593573E+03  0.17562243482E+04  0.46999998093E+01 0. -1.
       -5    1    3    3    0  502  0.12651009053E+04  0.10541587072E+04  0.53407646518E+03  0.17311818626E+04  0.46999998093E+01 0.  1.
</event>
<event>
 5   0  0.1696681E-06  0.3011587E+04  0.7818609E-02  0.8240430E-01
        2   -1    0    0  501    0  0.00000000000E+00  0.00000000000E+00  0.20700194731E+04  0.20700194731E+04  0.25500000920E-02 0.  1.
       -2   -1    0    0    0  501  0.00000000000E+00  0.00000000000E+00 -0.10953590044E+04  0.10953590044E+04  0.25500000920E-02 0. -1.
    10030    2    1    2    0    0  0.00000000000E+00  0.00000000000E+00  0.97466046869E+03  0.31653784775E+04  0.30115872686E+04 0.  0.
        4    1    3    3  502    0 -0.52707713105E+03  0.98980715433E+01  0.19698574151E+04  0.20391782959E+04  0.12699999809E+01 0.  1.
       -4    1    3    3    0  502  0.52707713105E+03 -0.98980715433E+01 -0.99519694639E+03  0.11262001815E+04  0.12699999809E+01 0. -1.
</event>
<event>
 5   0  0.1743810E-06  0.3292191E+04  0.7818609E-02  0.8164885E-01
       -2   -1    0    0    0  501  0.00000000000E+00  0.00000000000E+00  0.18414875661E+04  0.18414875661E+04  0.25500000920E-02 0. -1.
        2   -1    0    0  501    0  0.00000000000E+00  0.00000000000E+00 -0.14714359240E+04  0.14714359240E+04  0.25500000920E-02 0.  1.
    10030    2    1    2    0    0  0.00000000000E+00  0.00000000000E+00  0.37005164212E+03  0.33129234901E+04  0.32921913422E+04 0.  0.
        5    1    3    3  502    0  0.16086607042E+03  0.11893586255E+04 -0.94863729913E+03  0.15298322287E+04  0.46999998093E+01 0.  1.
       -5    1    3    3    0  502 -0.16086607042E+03 -0.11893586255E+04  0.13186889413E+04  0.17830912614E+04  0.46999998093E+01 0. -1.
</event>
<event>
 5   0  0.5858859E-07  0.2702249E+04  0.7818609E-02  0.8334276E-01
        1   -1    0    0  501    0  0.00000000000E+00  0.00000000000E+00  0.18495420734E+04  0.18495420734E+04  0.50400001928E-02 0.  1.
       -1   -1    0    0    0  501  0.00000000000E+00  0.00000000000E+00 -0.98702119539E+03  0.98702119540E+03  0.50400001928E-02 0. -1.
    10030    2    1    2    0    0  0.00000000000E+00  0.00000000000E+00  0.86252087799E+03  0.28365632688E+04  0.27022488621E+04 0.  0.
        3    1    3    3  502    0 -0.88204864961E+03  0.78042407267E+03  0.11263406548E+04  0.16296364117E+04  0.10100000352E+00 0.  1.
       -3    1    3    3    0  502  0.88204864961E+03 -0.78042407267E+03 -0.26381977683E+03  0.12069268571E+04  0.10100000352E+00 0. -1.
</event>
<event>
 5   0  0.1696681E-06  0.3254813E+04  0.7818609E-02  0.8174489E-01
        2   -1    0    0  501    0  0.00000000000E+00  0.00000000000E+00  0.12413906521E+04  0.12413906521E+04  0.25500000920E-02 0. -1.
       -2   -1    0    0    0  501  0.00000000000E+00  0.00000000000E+00 -0.21334554236E+04  0.21334554236E+04  0.25500000920E-02 0.  1.
    10030    2    1    2    0    0  0.00000000000E+00  0.00000000000E+00 -0.89206477145E+03  0.33748460757E+04  0.32548128177E+04 0.  0.
        4    1    3    3  502    0  0.12291504709E+04  0.85264734909E+03 -0.11104699060E+04  0.18630521751E+04  0.12699999809E+01 0. -1.
       -4    1    3    3    0  502 -0.12291504709E+04 -0.85264734909E+03  0.21840513459E+03  0.15117939006E+04  0.12699999809E+01 0.  1.
</event>
<event>
 5   0  0.1728937E-06  0.3305791E+04  0.7818609E-02  0.8161423E-01
       -2   -1    0    0    0  501  0.00000000000E+00  0.00000000000E+00  0.11453057430E+04  0.11453057430E+04  0.25500000920E-02 0.  1.
        2   -1    0    0  501    0  0.00000000000E+00  0.00000000000E+00 -0.23854445804E+04  0.23854445804E+04  0.25500000920E-02 0. -1.
    10030    2    1    2    0    0  0.00000000000E+00  0.00000000000E+00 -0.12401388373E+04  0.35307503234E+04  0.33057909054E+04 0.  0.
        1    1    3    3  502    0  0.27283425676E+03 -0.85613185101E+03  0.86166028457E+03  0.12449332207E+04  0.50400001928E-02 0.  1.
       -1    1    3    3    0  502 -0.27283425676E+03  0.85613185101E+03 -0.21017991219E+04  0.22858171027E+04  0.50400001928E-02 0. -1.
</event>
<event>
 5   0  0.5858859E-07  0.3329990E+04  0.7818609E-02  0.8155306E-01
        1   -1    0    0  501    0  0.00000000000E+00  0.00000000000E+00  0.16352296757E+04  0.16352296757E+04  0.50400001928E-02 0. -1.
       -1   -1    0    0    0  501  0.00000000000E+00  0.00000000000E+00 -0.16953022811E+04  0.16953022811E+04  0.50400001928E-02 0.  1.
    10030    2    1    2    0    0  0.00000000000E+00  0.00000000000E+00 -0.60072605392E+02  0.33305319569E+04  0.33299901498E+04 0.  0.
        3    1    3    3  502    0  0.12883679805E+04  0.24809318918E+02 -0.10845801958E+04  0.16842867235E+04  0.10100000352E+00 0.  1.
       -3    1    3    3    0  502 -0.12883679805E+04 -0.24809318918E+02  0.10245075904E+04  0.16462452334E+04  0.10100000352E+00 0. -1.
</event>
<event>
 5   0  0.1832626E-06  0.3304907E+04  0.7818609E-02  0.8161648E-01
       -2   -1    0    0    0  501  0.00000000000E+00  0.00000000000E+00  0.12435042911E+04  0.12435042911E+04  0.25500000920E-02 0.  1.
        2   -1    0    0  501    0  0.00000000000E+00  0.00000000000E+00 -0.21958926902E+04  0.21958926902E+04  0.25500000920E-02 0. -1.
    10030    2    1    2    0    0  0.00000000000E+00  0.00000000000E+00 -0.95238839911E+03  0.34393969813E+04  0.33049066450E+04 0.  0.
        3    1    3    3  502    0  0.87942481439E+03 -0.12501364863E+04  0.17735238630E+03  0.15387277594E+04  0.10100000352E+00 0.  1.
       -3    1    3    3    0  502 -0.87942481439E+03  0.12501364863E+04 -0.11297407854E+04  0.19006692219E+04  0.10100000352E+00 0. -1.
</event>
<event>
 5   0  0.5858859E-07  0.3302377E+04  0.7818609E-02  0.8162291E-01
       -1   -1    0    0    0  501  0.00000000000E+00  0.00000000000E+00  0.13265068040E+04  0.13265068040E+04  0.50400001928E-02 0. -1.
        1   -1    0    0  501    0  0.00000000000E+00  0.00000000000E+00 -0.20553406388E+04  0.20553406388E+04  0.50400001928E-02 0.  1.
    10030    2    1    2    0    0  0.00000000000E+00  0.00000000000E+00 -0.72883383475E+03  0.33818474428E+04  0.33023769269E+04 0.  0.
        3    1    3    3  502    0  0.87165695797E+03 -0.14021329192E+04 -0.33809315411E+03  0.16852505946E+04  0.10100000352E+00 0.  1.
       -3    1    3    3    0  502 -0.87165695797E+03  0.14021329192E+04 -0.39074068065E+03  0.16965968482E+04  0.10100000352E+00 0. -1.
</event>
<event>
 5   0  0.6023446E-07  0.3327948E+04  0.7818609E-02  0.8155820E-01
        1   -1    0    0  501    0  0.00000000000E+00  0.00000000000E+00  0.30758222544E+04  0.30758222544E+04  0.50400001928E-02 0.  1.
       -1   -1    0    0    0  501  0.00000000000E+00  0.00000000000E+00 -0.90018517711E+03  0.90018517712E+03  0.50400001928E-02 0. -1.
    10030    2    1    2    0    0  0.00000000000E+00  0.00000000000E+00  0.21756370773E+04  0.39760074315E+04  0.33279480770E+04 0.  0.
        5    1    3    3  502    0  0.87293554501E+03  0.40013664204E+03 -0.53572641522E+03  0.10996138777E+04  0.46999998093E+01 0. -1.
       -5    1    3    3    0  502 -0.87293554501E+03 -0.40013664204E+03  0.27113634925E+04  0.28763935538E+04  0.46999998093E+01 0.  1.
</event>
<event>
 5   0  0.6085351E-07  0.3337001E+04  0.7818609E-02  0.8153544E-01
       -1   -1    0    0    0  501  0.00000000000E+00  0.00000000000E+00  0.10698014030E+04  0.10698014030E+04  0.50400001928E-02 0.  1.
        1   -1    0    0  501    0  0.00000000000E+00  0.00000000000E+00 -0.26022529387E+04  0.26022529387E+04  0.50400001928E-02 0. -1.
    10030    2    1    2    0    0  0.00000000000E+00  0.00000000000E+00 -0.15324515358E+04  0.36720543417E+04  0.33370009558E+04 0.  0.
        1    1    3    3  502    0  0.63203664243E+03 -0.21906040993E+03 -0.24482402050E+04  0.25379790941E+04  0.50400001928E-02 0. -1.
       -1    1    3    3    0  502 -0.63203664243E+03  0.21906040993E+03  0.91578866923E+03  0.11340752476E+04  0.50400001928E-02 0.  1.
</event>
<event>
 5   0  0.6085351E-07  0.3265708E+04  0.7818609E-02  0.8171676E-01
        1   -1    0    0  501    0  0.00000000000E+00  0.00000000000E+00  0.16812905584E+04  0.16812905584E+04  0.50400001928E-02 0. -1.
       -1   -1    0    0    0  501  0.00000000000E+00  0.00000000000E+00 -0.15858124130E+04  0.15858124130E+04  0.50400001928E-02 0.  1.
    10030    2    1    2    0    0  0.00000000000E+00  0.00000000000E+00  0.95478145456E+02  0.32671029714E+04  0.32657075419E+04 0.  0.
        1    1    3    3  502    0  0.11477684504E+04  0.16062054385E+03 -0.11029872058E+04  0.15999225453E+04  0.50400001928E-02 0.  1.
       -1    1    3    3    0  502 -0.11477684504E+04 -0.16062054385E+03  0.11984653512E+04  0.16671804261E+04  0.50400001928E-02 0. -1.
</event>
<event>
 5   0  0.1832626E-06  0.3208631E+04  0.7818609E-02  0.8186541E-01
        2   -1    0    0  501    0  0.00000000000E+00  0.00000000000E+00  0.17748008575E+04  0.17748008575E+04  0.25500000920E-02 0.  1.
       -2   -1    0    0    0  501  0.00000000000E+00  0.00000000000E+00 -0.14502066689E+04  0.14502066689E+04  0.25500000920E-02 0. -1.
    10030    2    1    2    0    0  0.00000000000E+00  0.00000000000E+00  0.32459418862E+03  0.32250075264E+04  0.32086308853E+04 0.  0.
        3    1    3    3  502    0 -0.64166502814E+03 -0.27648250952E+03  0.16138465527E+04  0.17586009474E+04  0.10100000352E+00 0.  1.
       -3    1    3    3    0  502  0.64166502814E+03  0.27648250952E+03 -0.12892523641E+04  0.14664065790E+04  0.10100000352E+00 0. -1.
</event>
<event>
 5   0  0.6085351E-07  0.3074395E+04  0.7818609E-02  0.8222800E-01
       -1   -1    0    0    0  501  0.00000000000E+00  0.00000000000E+00  0.13867504621E+04  0.13867504621E+04  0.50400001928E-02 0.  1.
        1   -1    0    0  501    0  0.00000000000E+00  0.00000000000E+00 -0.17039660688E+04  0.17039660688E+04  0.50400001928E-02 0. -1.
    10030    2    1    2    0    0  0.00000000000E+00  0.00000000000E+00 -0.31721560666E+03  0.30907165309E+04  0.30743947264E+04 0.  0.
        1    1    3    3  502    0 -0.38073008023E+03  0.39125936182E+03  0.12860097708E+04  0.13970899802E+04  0.50400001928E-02 0.  1.
       -1    1    3    3    0  502  0.38073008023E+03 -0.39125936182E+03 -0.16032253775E+04  0.16936265507E+04  0.50400001928E-02 0. -1.
</event>
<event>
 5   0  0.5985183E-07  0.3355121E+04  0.7818609E-02  0.8149010E-01
        1   -1    0    0  501    0  0.00000000000E+00  0.00000000000E+00  0.16559043458E+04  0.16559043458E+04  0.50400001928E-02 0.  1.
       -1   -1    0    0    0  501  0.00000000000E+00  0.00000000000E+00 -0.16994994582E+04  0.16994994582E+04  0.50400001928E-02 0. -1.
    10030    2    1    2    0    0  0.00000000000E+00  0.00000000000E+00 -0.43595112385E+02  0.33554038039E+04  0.33551205871E+04 0.  0.
        2    1    3    3  502    0  0.90448032654E+03 -0.13664084450E+04 -0.38106573903E+03  0.16823696969E+04  0.25500000920E-02 0. -1.
       -2    1    3    3    0  502 -0.90448032654E+03  0.13664084450E+04  0.33747062664E+03  0.16730341071E+04  0.25500000920E-02 0.  1.
</event>
<event>
 5   0  0.6023446E-07  0.3279971E+04  0.7818609E-02  0.8168011E-01
       -1   -1    0    0    0  501  0.00000000000E+00  0.00000000000E+00  0.12539020738E+04  0.12539020739E+04  0.50400001928E-02 0.  1.
        1   -1    0    0  501    0  0.00000000000E+00  0.00000000000E+00 -0.21449460840E+04  0.21449460840E+04  0.50400001928E-02 0. -1.
    10030    2    1    2    0    0  0.00000000000E+00  0.00000000000E+00 -0.89104401014E+03  0.33988481579E+04  0.32799709407E+04 0.  0.
        5    1    3    3  502    0 -0.57429776406E+03 -0.23576630735E+03 -0.20184720637E+04  0.21117895813E+04  0.46999998093E+01 0. -1.
       -5    1    3    3    0  502  0.57429776406E+03  0.23576630735E+03  0.11274280536E+04  0.12870585766E+04  0.46999998093E+01 0.  1.
</event>
<event>
 5   0  0.1696681E-06  0.3313779E+04  0.7818609E-02  0.8159398E-01
       -2   -1    0    0    0  501  0.00000000000E+00  0.00000000000E+00  0.29116807652E+04  0.29116807652E+04  0.25500000920E-02 0.  1.
        2   -1    0    0  501    0  0.00000000000E+00  0.00000000000E+00 -0.94285131668E+03  0.94285131668E+03  0.25500000920E-02 0. -1.
    10030    2    1    2    0    0  0.00000000000E+00  0.00000000000E+00  0.19688294485E+04  0.38545320819E+04  0.33137785341E+04 0.  0.
        4    1    3    3  502    0 -0.10949615969E+04 -0.10983461469E+04  0.16626366881E+04  0.22736902882E+04  0.12699999809E+01 0.  1.
       -4    1    3    3    0  502  0.10949615969E+04  0.10983461469E+04  0.30619276043E+03  0.15808417937E+04  0.12699999809E+01 0. -1.
</event>
<event>
 5   0  0.1832626E-06  0.3306381E+04  0.7818609E-02  0.8161274E-01
       -2   -1    0    0    0  501  0.00000000000E+00  0.00000000000E+00  0.14860596597E+04  0.14860596597E+04  0.25500000920E-02 0.  1.
        2   -1    0    0  501    0  0.00000000000E+00  0.00000000000E+00 -0.18391176570E+04  0.18391176570E+04  0.25500000920E-02 0. -1.
    10030    2    1    2    0    0  0.00000000000E+00  0.00000000000E+00 -0.35305799728E+03  0.33251773167E+04  0.33063808368E+04 0.  0.
        3    1    3    3  502    0 -0.15396688282E+04  0.57088825264E+03 -0.36878337006E+03  0.16830016880E+04  0.10100000352E+00 0.  1.
       -3    1    3    3    0  502  0.15396688282E+04 -0.57088825264E+03  0.15725372778E+02  0.16421756286E+04  0.10100000352E+00 0. -1.
</event>
<event>
 5   0  0.6085351E-07  0.3279403E+04  0.7818609E-02  0.8168156E-01
       -1   -1    0    0    0  501  0.00000000000E+00  0.00000000000E+00  0.17542967407E+04  0.17542967407E+04  0.50400001928E-02 0.  1.
        1   -1    0    0  501    0  0.00000000000E+00  0.00000000000E+00 -0.15325916676E+04  0.15325916676E+04  0.50400001928E-02 0. -1.
    10030    2    1    2    0    0  0.00000000000E+00  0.00000000000E+00  0.22170507310E+03  0.32868884083E+04  0.32794027305E+04 0.  0.
        1    1    3    3  502    0 -0.48460962786E+03 -0.37963427406E+03  0.16340754717E+04  0.17461876533E+04  0.50400001928E-02 0.  1.
       -1    1    3    3    0  502  0.48460962786E+03  0.37963427406E+03 -0.14123703986E+04  0.15407007549E+04  0.50400001928E-02 0. -1.
</event>
<event>
 5   0  0.5985183E-07  0.3304967E+04  0.7818609E-02  0.8161633E-01
        1   -1    0    0  501    0  0.00000000000E+00  0.00000000000E+00  0.13965251655E+04  0.13965251655E+04  0.50400001928E-02 0.  1.
       -1   -1    0    0    0  501  0.00000000000E+00  0.00000000000E+00 -0.19553539679E+04  0.19553539679E+04  0.50400001928E-02 0. -1.
    10030    2    1    2    0    0  0.00000000000E+00  0.00000000000E+00 -0.55882880236E+03  0.33518791334E+04  0.33049665799E+04 0.  0.
        2    1    3    3  502    0 -0.32630565890E+03 -0.15514032885E+03  0.13559746035E+04  0.14032857977E+04  0.25500000920E-02 0.  1.
       -2    1    3    3    0  502  0.32630565890E+03  0.15514032885E+03 -0.19148034059E+04  0.19485933357E+04  0.25500000920E-02 0. -1.
</event>
<event>
 5   0  0.5988516E-07  0.3349395E+04  0.7818609E-02  0.8150439E-01
       -1   -1    0    0    0  501  0.00000000000E+00  0.00000000000E+00  0.31915889254E+04  0.31915889254E+04  0.50400001928E-02 0. -1.
        1   -1    0    0  501    0  0.00000000000E+00  0.00000000000E+00 -0.87875105937E+03  0.87875105939E+03  0.50400001928E-02 0.  1.
    10030    2    1    2    0    0  0.00000000000E+00  0.00000000000E+00  0.23128378660E+04  0.40703399848E+04  0.33493952584E+04 0.  0.
        4    1    3    3  502    0  0.16677042190E+04  0.14388781114E+02  0.13413845898E+04  0.21402706908E+04  0.12699999809E+01 0.  1.
       -4    1    3    3    0  502 -0.16677042190E+04 -0.14388781114E+02  0.97145327618E+03  0.19300692940E+04  0.12699999809E+01 0. -1.
</event>
<event>
 5   0  0.5858859E-07  0.2897073E+04  0.7818609E-02  0.8273749E-01
        1   -1    0    0  501    0  0.00000000000E+00  0.00000000000E+00  0.36300103336E+04  0.36300103336E+04  0.50400001928E-02 0.  1.
       -1   -1    0    0    0  501  0.00000000000E+00  0.00000000000E+00 -0.57803084548E+03  0.57803084551E+03  0.50400001928E-02 0. -1.
    10030    2    1    2    0    0  0.00000000000E+00  0.00000000000E+00  0.30519794881E+04  0.42080411791E+04  0.28970729658E+04 0.  0.
        3    1    3    3  502    0  0.62762409534E+03 -0.78765532115E+03  0.30382417708E+04  0.32008164549E+04  0.10100000352E+00 0.  1.
       -3    1    3    3    0  502 -0.62762409534E+03  0.78765532115E+03  0.13737717331E+02  0.10072247242E+04  0.10100000352E+00 0. -1.
</event>
<event>
 5   0  0.6085351E-07  0.3305540E+04  0.7818609E-02  0.8161487E-01
       -1   -1    0    0    0  501  0.00000000000E+00  0.00000000000E+00  0.17684265227E+04  0.17684265227E+04  0.50400001928E-02 0. -1.
        1   -1    0    0  501    0  0.00000000000E+00  0.00000000000E+00 -0.15446773367E+04  0.15446773367E+04  0.50400001928E-02 0.  1.
    10030    2    1    2    0    0  0.00000000000E+00  0.00000000000E+00  0.22374918594E+03  0.33131038594E+04  0.33055398175E+04 0.  0.
        1    1    3    3  502    0 -0.32821408161E+03 -0.11222831367E+04  0.12826247398E+04  0.17356180874E+04  0.50400001928E-02 0. -1.
       -1    1    3    3    0  502  0.32821408161E+03  0.11222831367E+04 -0.10588755538E+04  0.15774857720E+04  0.50400001928E-02 0.  1.
</event>
<event>
 5   0  0.1696681E-06  0.3313272E+04  0.7818609E-02  0.8159527E-01
       -2   -1    0    0    0  501  0.00000000000E+00  0.00000000000E+00  0.14376652343E+04  0.14376652343E+04  0.25500000920E-02 0.  1.
        2   -1    0    0  501    0  0.00000000000E+00  0.00000000000E+00 -0.19089578646E+04  0.19089578646E+04  0.25500000920E-02 0. -1.
    10030    2    1    2    0    0  0.00000000000E+00  0.00000000000E+00 -0.47129263023E+03  0.33466230989E+04  0.33132717098E+04 0.  0.
        4    1    3    3  502    0 -0.58908615640E+03 -0.63892070754E+03 -0.16602328052E+04  0.18739308287E+04  0.12699999809E+01 0. -1.
       -4    1    3    3    0  502  0.58908615640E+03  0.63892070754E+03  0.11889401750E+04  0.14726922702E+04  0.12699999809E+01 0.  1.
</event>
<event>
 5   0  0.1696681E-06  0.3330591E+04  0.7818609E-02  0.8155155E-01
        2   -1    0    0  501    0  0.00000000000E+00  0.00000000000E+00  0.17628794258E+04  0.17628794258E+04  0.25500000920E-02 0. -1.
       -2   -1    0    0    0  501  0.00000000000E+00  0.00000000000E+00 -0.15731135625E+04  0.15731135625E+04  0.25500000920E-02 0.  1.
    10030    2    1    2    0    0  0.00000000000E+00  0.00000000000E+00  0.18976586336E+03  0.33359929883E+04  0.33305912591E+04 0.  0.
        4    1    3    3  502    0 -0.14020356756E+04 -0.78561079847E+03 -0.34208091113E+03  0.16431400807E+04  0.12699999809E+01 0.  1.
       -4    1    3    3    0  502  0.14020356756E+04  0.78561079847E+03  0.53184677448E+03  0.16928529076E+04  0.12699999809E+01 0. -1.
</event>
<event>
 5   0  0.6085351E-07  0.3315937E+04  0.7818609E-02  0.8158852E-01
       -1   -1    0    0    0  501  0.00000000000E+00  0.00000000000E+00  0.11978402715E+04  0.11978402715E+04  0.50400001928E-02 0. -1.
        1   -1    0    0  501    0  0.00000000000E+00  0.00000000000E+00 -0.22948465339E+04  0.22948465339E+04  0.50400001928E-02 0.  1.
    10030    2    1    2    0    0  0.00000000000E+00  0.00000000000E+00 -0.10970062624E+04  0.34926868054E+04  0.33159370290E+04 0.  0.
        1    1    3    3  502    0  0.15332902479E+04 -0.17387754382E+03 -0.11871620871E+04  0.19469376481E+04  0.50400001928E-02 0. -1.
       -1    1    3    3    0  502 -0.15332902479E+04  0.17387754382E+03  0.90155824668E+02  0.15457491573E+04  0.50400001928E-02 0.  1.
</event>
<event>
 5   0  0.5988516E-07  0.3294596E+04  0.7818609E-02  0.8164272E-01
       -1   -1    0    0    0  501  0.00000000000E+00  0.00000000000E+00  0.89597859980E+03  0.89597859981E+03  0.50400001928E-02 0. -1.
        1   -1    0    0  501    0  0.00000000000E+00  0.00000000000E+00 -0.30286327954E+04  0.30286327954E+04  0.50400001928E-02 0.  1.
    10030    2    1    2    0    0  0.00000000000E+00  0.00000000000E+00 -0.21326541956E+04  0.39246113952E+04  0.32945956786E+04 0.  0.
        4    1    3    3  502    0 -0.17251560380E+03 -0.14341025501E+04 -0.20097133189E+04  0.24749466651E+04  0.12699999809E+01 0.  1.
       -4    1    3    3    0  502  0.17251560380E+03  0.14341025501E+04 -0.12294087664E+03  0.14496647301E+04  0.12699999809E+01 0. -1.
</event>
<event>
 5   0  0.1696681E-06  0.3301606E+04  0.7818609E-02  0.8162487E-01
       -2   -1    0    0    0  501  0.00000000000E+00  0.00000000000E+00  0.19217142597E+04  0.19217142597E+04  0.25500000920E-02 0.  1.
        2   -1    0    0  501    0  0.00000000000E+00  0.00000000000E+00 -0.14180833345E+04  0.14180833345E+04  0.25500000920E-02 0. -1.
    10030    2    1    2    0    0  0.00000000000E+00  0.00000000000E+00  0.50363092512E+03  0.33397975942E+04  0.33016062548E+04 0.  0.
        4    1    3    3  502    0 -0.58864393333E+03 -0.13725123561E+04 -0.45978291512E+03  0.15625920100E+04  0.12699999809E+01 0. -1.
       -4    1    3    3    0  502  0.58864393333E+03  0.13725123561E+04  0.96341384024E+03  0.17772055842E+04  0.12699999809E+01 0.  1.
</event>
<event>
 5   0  0.1696681E-06  0.3162757E+04  0.7818609E-02  0.8198723E-01
       -2   -1    0    0    0  501  0.00000000000E+00  0.00000000000E+00  0.94310512229E+03  0.94310512230E+03  0.25500000920E-02 0.  1.
        2   -1    0    0  501    0  0.00000000000E+00  0.00000000000E+00 -0.26516223897E+04  0.26516223897E+04  0.25500000920E-02 0. -1.
    10030    2    1    2    0    0  0.00000000000E+00  0.00000000000E+00 -0.17085172674E+04  0.35947275120E+04  0.31627574413E+04 0.  0.
        4    1    3    3  502    0 -0.13270087938E+04  0.15382997386E+03  0.10757369941E+03  0.13402200242E+04  0.12699999809E+01 0.  1.
       -4    1    3    3    0  502  0.13270087938E+04 -0.15382997386E+03 -0.18160909668E+04  0.22545074877E+04  0.12699999809E+01 0. -1.
</event>
<event>
 5   0  0.1743810E-06  0.3511080E+04  0.7818609E-02  0.8111169E-01
       -2   -1    0    0    0  501  0.00000000000E+00  0.00000000000E+00  0.19933755972E+04  0.19933755972E+04  0.25500000920E-02 0. -1.
        2   -1    0    0  501    0  0.00000000000E+00  0.00000000000E+00 -0.15460810712E+04  0.15460810712E+04  0.25500000920E-02 0.  1.
    10030    2    1    2    0    0  0.00000000000E+00  0.00000000000E+00  0.44729452595E+03  0.35394566684E+04  0.35110797647E+04 0.  0.
        5    1    3    3  502    0  0.81343284290E+03 -0.80371477498E+03 -0.11191346552E+04  0.16000359046E+04  0.46999998093E+01 0.  1.
       -5    1    3    3    0  502 -0.81343284290E+03  0.80371477498E+03  0.15664291812E+04  0.19394207638E+04  0.46999998093E+01 0. -1.
</event>
<event>
 5   0  0.1728937E-06  0.3445576E+04  0.7818609E-02  0.8126810E-01
       -2   -1    0    0    0  501  0.00000000000E+00  0.00000000000E+00  0.11301636436E+04  0.11301636436E+04  0.25500000920E-02 0. -1.
        2   -1    0    0  501    0  0.00000000000E+00  0.00000000000E+00 -0.26261673181E+04  0.26261673181E+04  0.25500000920E-02 0.  1.
    10030    2    1    2    0    0  0.00000000000E+00  0.00000000000E+00 -0.14960036745E+04  0.37563309618E+04  0.34455761928E+04 0.  0.
        1    1    3    3  502    0  0.69057073404E+03  0.65824791925E+03 -0.23118901832E+04  0.25010026952E+04  0.50400001928E-02 0.  1.
       -1    1    3    3    0  502 -0.69057073404E+03 -0.65824791925E+03  0.81588650869E+03  0.12553282666E+04  0.50400001928E-02 0. -1.
</event>
<event>
 5   0  0.6023446E-07  0.3232376E+04  0.7818609E-02  0.8180319E-01
        1   -1    0    0  501    0  0.00000000000E+00  0.00000000000E+00  0.17117339350E+04  0.17117339350E+04  0.50400001928E-02 0. -1.
       -1   -1    0    0    0  501  0.00000000000E+00  0.00000000000E+00 -0.15259749763E+04  0.15259749764E+04  0.50400001928E-02 0.  1.
    10030    2    1    2    0    0  0.00000000000E+00  0.00000000000E+00  0.18575895864E+03  0.32377089113E+04  0.32323756904E+04 0.  0.
        5    1    3    3  502    0  0.15868084451E+04  0.42224129533E+02 -0.21142622717E+03  0.16013953472E+04  0.46999998093E+01 0.  1.
       -5    1    3    3    0  502 -0.15868084451E+04 -0.42224129533E+02  0.39718518581E+03  0.16363135642E+04  0.46999998093E+01 0. -1.
</event>
<event>
 5   0  0.1743810E-06  0.3303933E+04  0.7818609E-02  0.8161895E-01
        2   -1    0    0  501    0  0.00000000000E+00  0.00000000000E+00  0.14035659886E+04  0.14035659886E+04  0.25500000920E-02 0.  1.
       -2   -1    0    0    0  501  0.00000000000E+00  0.00000000000E+00 -0.19443289849E+04  0.19443289849E+04  0.25500000920E-02 0. -1.
    10030    2    1    2    0    0  0.00000000000E+00  0.00000000000E+00 -0.54076299630E+03  0.33478949735E+04  0.33039334339E+04 0.  0.
        5    1    3    3  502    0  0.10984809610E+04 -0.12311885861E+04 -0.18877301623E+03  0.16607658166E+04  0.46999998093E+01 0.  1.
       -5    1    3    3    0  502 -0.10984809610E+04  0.12311885861E+04 -0.35198998007E+03  0.16871291569E+04  0.46999998093E+01 0. -1.
</event>
<event>
 5   0  0.5985183E-07  0.3300665E+04  0.7818609E-02  0.8162726E-01
       -1   -1    0    0    0  501  0.00000000000E+00  0.00000000000E+00  0.23320931264E+04  0.23320931264E+04  0.50400001928E-02 0.  1.
        1   -1    0    0  501    0  0.00000000000E+00  0.00000000000E+00 -0.11678764611E+04  0.11678764611E+04  0.50400001928E-02 0. -1.
    10030    2    1    2    0    0  0.00000000000E+00  0.00000000000E+00  0.11642166653E+04  0.34999695875E+04  0.33006645800E+04 0.  0.
        2    1    3    3  502    0  0.48156766667E+03  0.15134078825E+04  0.10578481271E+04  0.19082330823E+04  0.25500000920E-02 0.  1.
       -2    1    3    3    0  502 -0.48156766667E+03 -0.15134078825E+04  0.10636853824E+03  0.15917365053E+04  0.25500000920E-02 0. -1.
</event>
<event>
 5   0  0.1743810E-06  0.3254745E+04  0.7818609E-02  0.8174507E-01
        2   -1    0    0  501    0  0.00000000000E+00  0.00000000000E+00  0.13173155693E+04  0.13173155693E+04  0.25500000920E-02 0.  1.
       -2   -1    0    0    0  501  0.00000000000E+00  0.00000000000E+00 -0.20104070694E+04  0.20104070694E+04  0.25500000920E-02 0. -1.
    10030    2    1    2    0    0  0.00000000000E+00  0.00000000000E+00 -0.69309150009E+03  0.33277226387E+04  0.32547445572E+04 0.  0.
        5    1    3    3  502    0  0.96973147163E+03 -0.65854867063E+03 -0.15006845413E+04  0.19042430678E+04  0.46999998093E+01 0. -1.
       -5    1    3    3    0  502 -0.96973147163E+03  0.65854867063E+03  0.80759304123E+03  0.14234795709E+04  0.46999998093E+01 0.  1.
</event>
<event>
 5   0  0.5858859E-07  0.3264559E+04  0.7818609E-02  0.8171972E-01
        1   -1    0    0  501    0  0.00000000000E+00  0.00000000000E+00  0.18119862925E+04  0.18119862925E+04  0.50400001928E-02 0. -1.
       -1   -1    0    0    0  501  0.00000000000E+00  0.00000000000E+00 -0.14703958642E+04  0.14703958642E+04  0.50400001928E-02 0.  1.
    10030    2    1    2    0    0  0.00000000000E+00  0.00000000000E+00  0.34159042828E+03  0.32823821567E+04  0.32645594805E+04 0.  0.
        3    1    3    3  502    0  0.62632627882E+03  0.14446360061E+04  0.60335240013E+03  0.16862063713E+04  0.10100000352E+00 0. -1.
       -3    1    3    3    0  502 -0.62632627882E+03 -0.14446360061E+04 -0.26176197185E+03  0.15961757854E+04  0.10100000352E+00 0.  1.
</event>
<event>
 5   0  0.5988516E-07  0.3296518E+04  0.7818609E-02  0.8163782E-01
       -1   -1    0    0    0  501  0.00000000000E+00  0.00000000000E+00  0.95748928731E+03  0.95748928732E+03  0.50400001928E-02 0.  1.
        1   -1    0    0  501    0  0.00000000000E+00  0.00000000000E+00 -0.28373759142E+04  0.28373759142E+04  0.50400001928E-02 0. -1.
    10030    2    1    2    0    0  0.00000000000E+00  0.00000000000E+00 -0.18798866269E+04  0.37948652015E+04  0.32965175819E+04 0.  0.
        4    1    3    3  502    0  0.14193355601E+03 -0.85242607679E+03 -0.25556847937E+04  0.26978327836E+04  0.12699999809E+01 0. -1.
       -4    1    3    3    0  502 -0.14193355601E+03  0.85242607679E+03  0.67579816682E+03  0.10970324179E+04  0.12699999809E+01 0.  1.
</event>
<event>
 5   0  0.5858859E-07  0.3316507E+04  0.7818609E-02  0.8158708E-01
        1   -1    0    0  501    0  0.00000000000E+00  0.00000000000E+00  0.12027259978E+04  0.12027259978E+04  0.50400001928E-02 0. -1.
       -1   -1    0    0    0  501  0.00000000000E+00  0.00000000000E+00 -0.22863098977E+04  0.22863098977E+04  0.50400001928E-02 0.  1.
    10030    2    1    2    0    0  0.00000000000E+00  0.00000000000E+00 -0.10835838999E+04  0.34890358955E+04  0.33165068086E+04 0.  0.
        3    1    3    3  502    0 -0.13883825494E+04 -0.16738300827E+03  0.39573624308E+03  0.14533514232E+04  0.10100000352E+00 0. -1.
       -3    1    3    3    0  502  0.13883825494E+04  0.16738300827E+03 -0.14793201430E+04  0.20356844723E+04  0.10100000352E+00 0.  1.
</event>
<event>
 5   0  0.5858859E-07  0.3275368E+04  0.7818609E-02  0.8169191E-01
        1   -1    0    0  501    0  0.00000000000E+00  0.00000000000E+00  0.13266376073E+04  0.13266376073E+04  0.50400001928E-02 0.  1.
       -1   -1    0    0    0  501  0.00000000000E+00  0.00000000000E+00 -0.20216594609E+04  0.20216594609E+04  0.50400001928E-02 0. -1.
    10030    2    1    2    0    0  0.00000000000E+00  0.00000000000E+00 -0.69502185361E+03  0.33482970683E+04  0.32753683580E+04 0.  0.
        3    1    3    3  502    0 -0.13310337440E+03 -0.17661237092E+03  0.13113026997E+04  0.13298207466E+04  0.10100000352E+00 0.  1.
       -3    1    3    3    0  502  0.13310337440E+03  0.17661237092E+03 -0.20063245533E+04  0.20184763217E+04  0.10100000352E+00 0. -1.
</event>
<event>
 5   0  0.1784626E-06  0.3297736E+04  0.7818609E-02  0.8163472E-01
        2   -1    0    0  501    0  0.00000000000E+00  0.00000000000E+00  0.12613951636E+04  0.12613951636E+04  0.25500000920E-02 0.  1.
       -2   -1    0    0    0  501  0.00000000000E+00  0.00000000000E+00 -0.21553641602E+04  0.21553641602E+04  0.25500000920E-02 0. -1.
    10030    2    1    2    0    0  0.00000000000E+00  0.00000000000E+00 -0.89396899660E+03  0.34167593238E+04  0.32977361492E+04 0.  0.
        2    1    3    3  502    0  0.12135373472E+04  0.18711915882E+03 -0.15871943828E+04  0.20067068748E+04  0.25500000920E-02 0. -1.
       -2    1    3    3    0  502 -0.12135373472E+04 -0.18711915882E+03  0.69322538618E+03  0.14100524489E+04  0.25500000920E-02 0.  1.
</event>
<event>
 5   0  0.6023446E-07  0.3302554E+04  0.7818609E-02  0.8162246E-01
       -1   -1    0    0    0  501  0.00000000000E+00  0.00000000000E+00  0.15160026800E+04  0.15160026800E+04  0.50400001928E-02 0. -1.
        1   -1    0    0  501    0  0.00000000000E+00  0.00000000000E+00 -0.17986223225E+04  0.17986223225E+04  0.50400001928E-02 0.  1.
    10030    2    1    2    0    0  0.00000000000E+00  0.00000000000E+00 -0.28261964246E+03  0.33146250025E+04  0.33025543213E+04 0.  0.
        5    1    3    3  502    0  0.56227803767E+03  0.26123960410E+03  0.13947385731E+04  0.15263421961E+04  0.46999998093E+01 0. -1.
       -5    1    3    3    0  502 -0.56227803767E+03 -0.26123960410E+03 -0.16773582155E+04  0.17882828064E+04  0.46999998093E+01 0.  1.
</event>
<event>
 5   0  0.5985183E-07  0.3241995E+04  0.7818609E-02  0.8177814E-01
        1   -1    0    0  501    0  0.00000000000E+00  0.00000000000E+00  0.14217096915E+04  0.14217096915E+04  0.50400001928E-02 0. -1.
       -1   -1    0    0    0  501  0.00000000000E+00  0.00000000000E+00 -0.18482199339E+04  0.18482199339E+04  0.50400001928E-02 0.  1.
    10030    2    1    2    0    0  0.00000000000E+00  0.00000000000E+00 -0.42651024241E+03  0.32699296253E+04  0.32419945663E+04 0.  0.
        2    1    3    3  502    0  0.12085594508E+04 -0.35005773471E+02  0.87576635135E+03  0.14929193054E+04  0.25500000920E-02 0. -1.
       -2    1    3    3    0  502 -0.12085594508E+04  0.35005773471E+02 -0.13022765938E+04  0.17770103199E+04  0.25500000920E-02 0.  1.
</event>
<event>
 5   0  0.5858859E-07  0.3291096E+04  0.7818609E-02  0.8165165E-01
        1   -1    0    0  501    0  0.00000000000E+00  0.00000000000E+00  0.14591322162E+04  0.14591322162E+04  0.50400001928E-02 0.  1.
       -1   -1    0    0    0  501  0.00000000000E+00  0.00000000000E+00 -0.18557797574E+04  0.18557797574E+04  0.50400001928E-02 0. -1.
    10030    2    1    2    0    0  0.00000000000E+00  0.00000000000E+00 -0.39664754119E+03  0.33149119736E+04  0.32910958845E+04 0.  0.
        3    1    3    3  502    0 -0.34333967299E+03 -0.11361422115E+04  0.94971678436E+03  0.15200865885E+04  0.10100000352E+00 0.  1.
       -3    1    3    3    0  502  0.34333967299E+03  0.11361422115E+04 -0.13463643255E+04  0.17948253851E+04  0.10100000352E+00 0. -1.
</event>
<event>
 5   0  0.1728937E-06  0.3329187E+04  0.7818609E-02  0.8155508E-01
       -2   -1    0    0    0  501  0.00000000000E+00  0.00000000000E+00  0.13502239341E+04  0.13502239341E+04  0.25500000920E-02 0. -1.
        2   -1    0    0  501    0  0.00000000000E+00  0.00000000000E+00 -0.20521569407E+04  0.20521569407E+04  0.25500000920E-02 0.  1.
    10030    2    1    2    0    0  0.00000000000E+00  0.00000000000E+00 -0.70193300659E+03  0.34023808747E+04  0.33291869384E+04 0.  0.
        1    1    3    3  502    0  0.58706831122E+03  0.34525650066E+03 -0.19032478604E+04  0.20214360419E+04  0.50400001928E-02 0.  1.
       -1    1    3    3    0  502 -0.58706831122E+03 -0.34525650066E+03  0.12013148538E+04  0.13809448328E+04  0.50400001928E-02 0. -1.
</event>
<event>
 5   0  0.1784626E-06  0.3313069E+04  0.7818609E-02  0.8159578E-01
        2   -1    0    0  501    0  0.00000000000E+00  0.00000000000E+00  0.18509944153E+04  0.18509944153E+04  0.25500000920E-02 0. -1.
       -2   -1    0    0    0  501  0.00000000000E+00  0.00000000000E+00 -0.14825039541E+04  0.14825039541E+04  0.25500000920E-02 0.  1.
    10030    2    1    2    0    0  0.00000000000E+00  0.00000000000E+00  0.36849046115E+03  0.33334983694E+04  0.33130689940E+04 0.  0.
        2    1    3    3  502    0 -0.15652894260E+02  0.61258242361E+03 -0.13642719342E+04  0.14955735185E+04  0.25500000920E-02 0.  1.
       -2    1    3    3    0  502  0.15652894260E+02 -0.61258242361E+03  0.17327623954E+04  0.18379248509E+04  0.25500000920E-02 0. -1.
</event>
<event>
 5   0  0.5858859E-07  0.3297949E+04  0.7818609E-02  0.8163417E-01
        1   -1    0    0  501    0  0.00000000000E+00  0.00000000000E+00  0.12723965525E+04  0.12723965525E+04  0.50400001928E-02 0.  1.
       -1   -1    0    0    0  501  0.00000000000E+00  0.00000000000E+00 -0.21370040849E+04  0.21370040849E+04  0.50400001928E-02 0. -1.
    10030    2    1    2    0    0  0.00000000000E+00  0.00000000000E+00 -0.86460753241E+03  0.34094006374E+04  0.32979488354E+04 0.  0.
        3    1    3    3  502    0  0.38226241194E+03 -0.31366083568E+03 -0.20585541567E+04  0.21171095621E+04  0.10100000352E+00 0. -1.
       -3    1    3    3    0  502 -0.38226241194E+03  0.31366083568E+03  0.11939466243E+04  0.12922910753E+04  0.10100000352E+00 0.  1.
</event>
<event>
 5   0  0.1728937E-06  0.3224073E+04  0.7818609E-02  0.8182488E-01
       -2   -1    0    0    0  501  0.00000000000E+00  0.00000000000E+00  0.11644717239E+04  0.11644717239E+04  0.25500000920E-02 0.  1.
        2   -1    0    0  501    0  0.00000000000E+00  0.00000000000E+00 -0.22316227866E+04  0.22316227866E+04  0.25500000920E-02 0. -1.
    10030    2    1    2    0    0  0.00000000000E+00  0.00000000000E+00 -0.10671510627E+04  0.33960945105E+04  0.32240729727E+04 0.  0.
        1    1    3    3  502    0  0.57260037600E+03 -0.13918203100E+04  0.74846992908E+02  0.15068633111E+04  0.50400001928E-02 0.  1.
       -1    1    3    3    0  502 -0.57260037600E+03  0.13918203100E+04 -0.11419980556E+04  0.18892311994E+04  0.50400001928E-02 0. -1.
</event>
<event>
 5   0  0.6085351E-07  0.3286950E+04  0.7818609E-02  0.8166224E-01
        1   -1    0    0  501    0  0.00000000000E+00  0.00000000000E+00  0.21058140774E+04  0.21058140774E+04  0.50400001928E-02 0. -1.
       -1   -1    0    0    0  501  0.00000000000E+00  0.00000000000E+00 -0.12826440185E+04  0.12826440185E+04  0.50400001928E-02 0.  1.
    10030    2    1    2    0    0  0.00000000000E+00  0.00000000000E+00  0.82317005890E+03  0.33884580959E+04  0.32869498508E+04 0.  0.
        1    1    3    3  502    0  0.56767350251E+03 -0.12683020589E+04  0.13162782933E+04  0.19140093687E+04  0.50400001928E-02 0. -1.
       -1    1    3    3    0  502 -0.56767350251E+03  0.12683020589E+04 -0.49310823439E+03  0.14744487272E+04  0.50400001928E-02 0.  1.
</event>
<event>
 5   0  0.5858859E-07  0.3298760E+04  0.7818609E-02  0.8163211E-01
       -1   -1    0    0    0  501  0.00000000000E+00  0.00000000000E+00  0.12262162444E+04  0.12262162444E+04  0.50400001928E-02 0. -1.
        1   -1    0    0  501    0  0.00000000000E+00  0.00000000000E+00 -0.22185767630E+04  0.22185767630E+04  0.50400001928E-02 0.  1.
    10030    2    1    2    0    0  0.00000000000E+00  0.00000000000E+00 -0.99236051858E+03  0.34447930075E+04  0.32987602922E+04 0.  0.
        3    1    3    3  502    0  0.21895177474E+03 -0.12372603780E+04  0.61962576771E+03  0.14009601082E+04  0.10100000352E+00 0. -1.
       -3    1    3    3    0  502 -0.21895177474E+03  0.12372603780E+04 -0.16119862863E+04  0.20438328992E+04  0.10100000352E+00 0.  1.
</event>
<event>
 5   0  0.1696681E-06  0.3303886E+04  0.7818609E-02  0.8161907E-01
       -2   -1    0    0    0  501  0.00000000000E+00  0.00000000000E+00  0.22802447798E+04  0.22802447798E+04  0.25500000920E-02 0. -1.
        2   -1    0    0  501    0  0.00000000000E+00  0.00000000000E+00 -0.11967644002E+04  0.11967644002E+04  0.25500000920E-02 0.  1.
    10030    2    1    2    0    0  0.00000000000E+00  0.00000000000E+00  0.10834803796E+04  0.34770091800E+04  0.33038860611E+04 0.  0.
        4    1    3    3  502    0  0.80285671569E+03 -0.23428883850E+02  0.20609136667E+04  0.22118984093E+04  0.12699999809E+01 0. -1.
       -4    1    3    3    0  502 -0.80285671569E+03  0.23428883850E+02 -0.97743328710E+03  0.12651107707E+04  0.12699999809E+01 0.  1.
</event>
<event>
 5   0  0.1743810E-06  0.3061582E+04  0.7818609E-02  0.8226361E-01
       -2   -1    0    0    0  501  0.00000000000E+00  0.00000000000E+00  0.12258001808E+04  0.12258001808E+04  0.25500000920E-02 0. -1.
        2   -1    0    0  501    0  0.00000000000E+00  0.00000000000E+00 -0.19116661015E+04  0.19116661015E+04  0.25500000920E-02 0.  1.
    10030    2    1    2    0    0  0.00000000000E+00  0.00000000000E+00 -0.68586592063E+03  0.31374662823E+04  0.30615817173E+04 0.  0.
        5    1    3    3  502    0 -0.10043317231E+04  0.81688221943E+03  0.49421112756E+03  0.13857292301E+04  0.46999998093E+01 0. -1.
       -5    1    3    3    0  502  0.10043317231E+04 -0.81688221943E+03 -0.11800770482E+04  0.17517370522E+04  0.46999998093E+01 0.  1.
</event>
<event>
 5   0  0.1728937E-06  0.3266265E+04  0.7818609E-02  0.8171533E-01
       -2   -1    0    0    0  501  0.00000000000E+00  0.00000000000E+00  0.12884357017E+04  0.12884357017E+04  0.25500000920E-02 0.  1.
        2   -1    0    0  501    0  0.00000000000E+00  0.00000000000E+00 -0.20700467223E+04  0.20700467223E+04  0.25500000920E-02 0. -1.
    10030    2    1    2    0    0  0.00000000000E+00  0.00000000000E+00 -0.78161102067E+03  0.33584824240E+04  0.32662652073E+04 0.  0.
        1    1    3    3  502    0  0.10116821338E+04  0.21595048082E+03  0.90859278191E+03  0.13768355724E+04  0.50400001928E-02 0.  1.
       -1    1    3    3    0  502 -0.10116821338E+04 -0.21595048082E+03 -0.16902038026E+04  0.19816468516E+04  0.50400001928E-02 0. -1.
</event>
<event>
 5   0  0.1743810E-06  0.3291697E+04  0.7818609E-02  0.8165011E-01
        2   -1    0    0  501    0  0.00000000000E+00  0.00000000000E+00  0.17484012429E+04  0.17484012429E+04  0.25500000920E-02 0.  1.
       -2   -1    0    0    0  501  0.00000000000E+00  0.00000000000E+00 -0.15493114021E+04  0.15493114021E+04  0.25500000920E-02 0. -1.
    10030    2    1    2    0    0  0.00000000000E+00  0.00000000000E+00  0.19908984082E+03  0.32977126450E+04  0.32916974229E+04 0.  0.
        5    1    3    3  502    0  0.36494571033E+03 -0.14432778039E+04  0.80265340739E+03  0.16913044591E+04  0.46999998093E+01 0.  1.
       -5    1    3    3    0  502 -0.36494571033E+03  0.14432778039E+04 -0.60356356657E+03  0.16064081859E+04  0.46999998093E+01 0. -1.
</event>
<event>
 5   0  0.1696681E-06  0.3305241E+04  0.7818609E-02  0.8161563E-01
       -2   -1    0    0    0  501  0.00000000000E+00  0.00000000000E+00  0.27627854399E+04  0.27627854399E+04  0.25500000920E-02 0. -1.
        2   -1    0    0  501    0  0.00000000000E+00  0.00000000000E+00 -0.98855093964E+03  0.98855093964E+03  0.25500000920E-02 0.  1.
    10030    2    1    2    0    0  0.00000000000E+00  0.00000000000E+00  0.17742345002E+04  0.37513363795E+04  0.33052407735E+04 0.  0.
        4    1    3    3  502    0  0.49975361242E+03  0.24375440644E+03  0.26534333222E+04  0.27110661910E+04  0.12699999809E+01 0. -1.
       -4    1    3    3    0  502 -0.49975361242E+03 -0.24375440644E+03 -0.87919882193E+03  0.10402701885E+04  0.12699999809E+01 0.  1.
</event>
<event>
 5   0  0.5858859E-07  0.3297844E+04  0.7818609E-02  0.8163444E-01
       -1   -1    0    0    0  501  0.00000000000E+00  0.00000000000E+00  0.16505201594E+04  0.16505201594E+04  0.50400001928E-02 0.  1.
        1   -1    0    0  501    0  0.00000000000E+00  0.00000000000E+00 -0.16473258753E+04  0.16473258753E+04  0.50400001928E-02 0. -1.
    10030    2    1    2    0    0  0.00000000000E+00  0.00000000000E+00  0.31942841638E+01  0.32978460347E+04  0.32978444877E+04 0.  0.
        3    1    3    3  502    0  0.11375888219E+04  0.17302288908E+03  0.11826562502E+04  0.16500669878E+04  0.10100000352E+00 0.  1.
       -3    1    3    3    0  502 -0.11375888219E+04 -0.17302288908E+03 -0.11794619661E+04  0.16477790469E+04  0.10100000352E+00 0. -1.
</event>
<event>
 5   0  0.5858859E-07  0.3291303E+04  0.7818609E-02  0.8165112E-01
        1   -1    0    0  501    0  0.00000000000E+00  0.00000000000E+00  0.18568199829E+04  0.18568199829E+04  0.50400001928E-02 0.  1.
       -1   -1    0    0    0  501  0.00000000000E+00  0.00000000000E+00 -0.14584979176E+04  0.14584979176E+04  0.50400001928E-02 0. -1.
    10030    2    1    2    0    0  0.00000000000E+00  0.00000000000E+00  0.39832206527E+03  0.33153179005E+04  0.32913025254E+04 0.  0.
        3    1    3    3  502    0 -0.46330289016E+03 -0.15777032854E+04  0.13256628045E+03  0.16496578596E+04  0.10100000352E+00 0.  1.
       -3    1    3    3    0  502  0.46330289016E+03  0.15777032854E+04  0.26575578482E+03  0.16656600410E+04  0.10100000352E+00 0. -1.
</event>
<event>
 5   0  0.1832626E-06  0.3175494E+04  0.7818609E-02  0.8195319E-01
       -2   -1    0    0    0  501  0.00000000000E+00  0.00000000000E+00  0.13435281502E+04  0.13435281502E+04  0.25500000920E-02 0.  1.
        2   -1    0    0  501    0  0.00000000000E+00  0.00000000000E+00 -0.18763586756E+04  0.18763586757E+04  0.25500000920E-02 0. -1.
    10030    2    1    2    0    0  0.00000000000E+00  0.00000000000E+00 -0.53283052549E+03  0.32198868258E+04  0.31754941036E+04 0.  0.
        3    1    3    3  502    0 -0.11307155878E+04 -0.58722459031E+03 -0.12270722700E+04  0.17689140245E+04  0.10100000352E+00 0. -1.
       -3    1    3    3    0  502  0.11307155878E+04  0.58722459031E+03  0.69424174456E+03  0.14509728013E+04  0.10100000352E+00 0.  1.
</event>
<event>
 5   0  0.1696681E-06  0.3302899E+04  0.7818609E-02  0.8162158E-01
       -2   -1    0    0    0  501  0.00000000000E+00  0.00000000000E+00  0.10734451794E+04  0.10734451794E+04  0.25500000920E-02 0.  1.
        2   -1    0    0  501    0  0.00000000000E+00  0.00000000000E+00 -0.25406845424E+04  0.25406845424E+04  0.25500000920E-02 0. -1.
    10030    2    1    2    0    0  0.00000000000E+00  0.00000000000E+00 -0.14672393629E+04  0.36141297218E+04  0.33028990748E+04 0.  0.
        4    1    3    3  502    0  0.10019562922E+04 -0.12419217567E+04 -0.11991470319E+04  0.19960564317E+04  0.12699999809E+01 0. -1.
       -4    1    3    3    0  502 -0.10019562922E+04  0.12419217567E+04 -0.26809233104E+03  0.16180732902E+04  0.12699999809E+01 0.  1.
</event>
<event>
 5   0  0.5985183E-07  0.3363854E+04  0.7818609E-02  0.8146835E-01
       -1   -1    0    0    0  501  0.00000000000E+00  0.00000000000E+00  0.22766744118E+04  0.22766744118E+04  0.50400001928E-02 0. -1.
        1   -1    0    0  501    0  0.00000000000E+00  0.00000000000E+00 -0.12425483514E+04  0.12425483514E+04  0.50400001928E-02 0.  1.
    10030    2    1    2    0    0  0.00000000000E+00  0.00000000000E+00  0.10341260604E+04  0.35192227633E+04  0.33638537644E+04 0.  0.
        2    1    3    3  502    0 -0.81254534399E+03 -0.14717755165E+04  0.46449347142E+03  0.17441637802E+04  0.25500000920E-02 0. -1.
       -2    1    3    3    0  502  0.81254534399E+03  0.14717755165E+04  0.56963258897E+03  0.17750589831E+04  0.25500000920E-02 0.  1.
</event>
<event>
 5   0  0.6085351E-07  0.3304934E+04  0.7818609E-02  0.8161641E-01
       -1   -1    0    0    0  501  0.00000000000E+00  0.00000000000E+00  0.22620890967E+04  0.22620890967E+04  0.50400001928E-02 0. -1.
        1   -1    0    0  501    0  0.00000000000E+00  0.00000000000E+00 -0.12071349500E+04  0.12071349500E+04  0.50400001928E-02 0.  1.
    10030    2    1    2    0    0  0.00000000000E+00  0.00000000000E+00  0.10549541467E+04  0.34692240467E+04  0.33049337716E+04 0.  0.
        1    1    3    3  502    0  0.12305690634E+03 -0.13796786462E+04 -0.41842265002E+03  0.14469739746E+04  0.50400001928E-02 0.  1.
       -1    1    3    3    0  502 -0.12305690634E+03  0.13796786462E+04  0.14733767968E+04  0.20222500721E+04  0.50400001928E-02 0. -1.
</event>
<event>
 5   0  0.5985183E-07  0.3304170E+04  0.7818609E-02  0.8161835E-01
        1   -1    0    0  501    0  0.00000000000E+00  0.00000000000E+00  0.18813904922E+04  0.18813904922E+04  0.50400001928E-02 0.  1.
       -1   -1    0    0    0  501  0.00000000000E+00  0.00000000000E+00 -0.14507278964E+04  0.14507278964E+04  0.50400001928E-02 0. -1.
    10030    2    1    2    0    0  0.00000000000E+00  0.00000000000E+00  0.43066259587E+03  0.33321183886E+04  0.33041704986E+04 0.  0.
        2    1    3    3  502    0 -0.71824994655E+03 -0.14668544015E+04  0.46611291539E+03  0.16984716868E+04  0.25500000920E-02 0.  1.
       -2    1    3    3    0  502  0.71824994655E+03  0.14668544015E+04 -0.35450319520E+02  0.16336467018E+04  0.25500000920E-02 0. -1.
</event>
<event>
 5   0  0.1696681E-06  0.3163664E+04  0.7818609E-02  0.8198480E-01
        2   -1    0    0  501    0  0.00000000000E+00  0.00000000000E+00  0.20057430814E+04  0.20057430814E+04  0.25500000920E-02 0. -1.
       -2   -1    0    0    0  501  0.00000000000E+00  0.00000000000E+00 -0.12475141944E+04  0.12475141944E+04  0.25500000920E-02 0.  1.
    10030    2    1    2    0    0  0.00000000000E+00  0.00000000000E+00  0.75822888697E+03  0.32532572758E+04  0.31636643086E+04 0.  0.
        4    1    3    3  502    0 -0.29579445438E+03  0.65204699646E+02  0.19756428808E+04  0.19987276997E+04  0.12699999809E+01 0. -1.
       -4    1    3    3    0  502  0.29579445438E+03 -0.65204699646E+02 -0.12174139938E+04  0.12545295761E+04  0.12699999809E+01 0.  1.
</event>
<event>
 5   0  0.1696681E-06  0.3201595E+04  0.7818609E-02  0.8188396E-01
       -2   -1    0    0    0  501  0.00000000000E+00  0.00000000000E+00  0.16117220029E+04  0.16117220029E+04  0.25500000920E-02 0.  1.
        2   -1    0    0  501    0  0.00000000000E+00  0.00000000000E+00 -0.15899474323E+04  0.15899474323E+04  0.25500000920E-02 0. -1.
    10030    2    1    2    0    0  0.00000000000E+00  0.00000000000E+00  0.21774570558E+02  0.32016694353E+04  0.32015953899E+04 0.  0.
        4    1    3    3  502    0  0.27220581248E+03  0.12883482626E+04  0.92119092994E+03  0.16070256975E+04  0.12699999809E+01 0.  1.
       -4    1    3    3    0  502 -0.27220581248E+03 -0.12883482626E+04 -0.89941635938E+03  0.15946437378E+04  0.12699999809E+01 0. -1.
</event>
<event>
 5   0  0.1743810E-06  0.3321490E+04  0.7818609E-02  0.8157449E-01
        2   -1    0    0  501    0  0.00000000000E+00  0.00000000000E+00  0.17622707597E+04  0.17622707597E+04  0.25500000920E-02 0.  1.
       -2   -1    0    0    0  501  0.00000000000E+00  0.00000000000E+00 -0.15650678339E+04  0.15650678339E+04  0.25500000920E-02 0. -1.
    10030    2    1    2    0    0  0.00000000000E+00  0.00000000000E+00  0.19720292575E+03  0.33273385936E+04  0.33214895939E+04 0.  0.
        5    1    3    3  502    0  0.64887006089E+02 -0.77192807598E+03 -0.13729877396E+04  0.15764519343E+04  0.46999998093E+01 0. -1.
       -5    1    3    3    0  502 -0.64887006089E+02  0.77192807598E+03  0.15701906654E+04  0.17508866593E+04  0.46999998093E+01 0.  1.
</event>
<event>
 5   0  0.5858859E-07  0.3313680E+04  0.7818609E-02  0.8159423E-01
        1   -1    0    0  501    0  0.00000000000E+00  0.00000000000E+00  0.27252921364E+04  0.27252921364E+04  0.50400001928E-02 0.  1.
       -1   -1    0    0    0  501  0.00000000000E+00  0.00000000000E+00 -0.10072748444E+04  0.10072748444E+04  0.50400001928E-02 0. -1.
    10030    2    1    2    0    0  0.00000000000E+00  0.00000000000E+00  0.17180172920E+04  0.37325669808E+04  0.33136796541E+04 0.  0.
        3    1    3    3  502    0 -0.12113780578E+04  0.55888225894E+03  0.19657227522E+04  0.23756792980E+04  0.10100000352E+00 0.  1.
       -3    1    3    3    0  502  0.12113780578E+04 -0.55888225894E+03 -0.24770546022E+03  0.13568876827E+04  0.10100000352E+00 0. -1.
</event>
<event>
 5   0  0.5985183E-07  0.3334228E+04  0.7818609E-02  0.8154240E-01
       -1   -1    0    0    0  501  0.00000000000E+00  0.00000000000E+00  0.15317562359E+04  0.15317562359E+04  0.50400001928E-02 0.  1.
        1   -1    0    0  501    0  0.00000000000E+00  0.00000000000E+00 -0.18144327146E+04  0.18144327146E+04  0.50400001928E-02 0. -1.
    10030    2    1    2    0    0  0.00000000000E+00  0.00000000000E+00 -0.28267647873E+03  0.33461889505E+04  0.33342277218E+04 0.  0.
        2    1    3    3  502    0 -0.12241393164E+04  0.10227477251E+04 -0.62757468070E+03  0.17141703401E+04  0.25500000920E-02 0. -1.
       -2    1    3    3    0  502  0.12241393164E+04 -0.10227477251E+04  0.34489820197E+03  0.16320186104E+04  0.25500000920E-02 0.  1.
</event>
<event>
 5   0  0.1728937E-06  0.3304677E+04  0.7818609E-02  0.8161706E-01
        2   -1    0    0  501    0  0.00000000000E+00  0.00000000000E+00  0.22586091726E+04  0.22586091726E+04  0.25500000920E-02 0.  1.
       -2   -1    0    0    0  501  0.00000000000E+00  0.00000000000E+00 -0.12088071311E+04  0.12088071311E+04  0.25500000920E-02 0. -1.
    10030    2    1    2    0    0  0.00000000000E+00  0.00000000000E+00  0.10498020415E+04  0.34674163037E+04  0.33046772152E+04 0.  0.
        1    1    3    3  502    0 -0.13764244812E+04 -0.58423119394E+02 -0.43231029587E+03  0.14439008987E+04  0.50400001928E-02 0. -1.
       -1    1    3    3    0  502  0.13764244812E+04  0.58423119394E+02  0.14821123374E+04  0.20235154050E+04  0.50400001928E-02 0.  1.
</event>
<event>
 5   0  0.5988516E-07  0.3328916E+04  0.7818609E-02  0.8155576E-01
        1   -1    0    0  501    0  0.00000000000E+00  0.00000000000E+00  0.19061397691E+04  0.19061397691E+04  0.50400001928E-02 0.  1.
       -1   -1    0    0    0  501  0.00000000000E+00  0.00000000000E+00 -0.14534193984E+04  0.14534193984E+04  0.50400001928E-02 0. -1.
    10030    2    1    2    0    0  0.00000000000E+00  0.00000000000E+00  0.45272037075E+03  0.33595591675E+04  0.33289160497E+04 0.  0.
        4    1    3    3  502    0  0.13266652893E+04  0.70990884925E+03  0.94453394440E+03  0.17765577246E+04  0.12699999809E+01 0.  1.
       -4    1    3    3    0  502 -0.13266652893E+04 -0.70990884925E+03 -0.49181357365E+03  0.15830014429E+04  0.12699999809E+01 0. -1.
</event>
<event>
 5   0  0.1696681E-06  0.3297958E+04  0.7818609E-02  0.8163415E-01
       -2   -1    0    0    0  501  0.00000000000E+00  0.00000000000E+00  0.12903690629E+04  0.12903690629E+04  0.25500000920E-02 0.  1.
        2   -1    0    0  501    0  0.00000000000E+00  0.00000000000E+00 -0.21072517147E+04  0.21072517147E+04  0.25500000920E-02 0. -1.
    10030    2    1    2    0    0  0.00000000000E+00  0.00000000000E+00 -0.81688265180E+03  0.33976207776E+04  0.32979584112E+04 0.  0.
        4    1    3    3  502    0  0.11588970672E+04 -0.98872856528E+03  0.24190724651E+03  0.15424484811E+04  0.12699999809E+01 0.  1.
       -4    1    3    3    0  502 -0.11588970672E+04  0.98872856528E+03 -0.10587898983E+04  0.18551722965E+04  0.12699999809E+01 0. -1.
</event>
<event>
 5   0  0.1784626E-06  0.3295091E+04  0.7818609E-02  0.8164146E-01
        2   -1    0    0  501    0  0.00000000000E+00  0.00000000000E+00  0.22164312137E+04  0.22164312137E+04  0.25500000920E-02 0.  1.
       -2   -1    0    0    0  501  0.00000000000E+00  0.00000000000E+00 -0.12246744251E+04  0.12246744251E+04  0.25500000920E-02 0. -1.
    10030    2    1    2    0    0  0.00000000000E+00  0.00000000000E+00  0.99175678858E+03  0.34411056388E+04  0.32950912718E+04 0.  0.
        2    1    3    3  502    0  0.82216173415E+03  0.11546863387E+04  0.13728251181E+04  0.19732965471E+04  0.25500000920E-02 0.  1.
       -2    1    3    3    0  502 -0.82216173415E+03 -0.11546863387E+04 -0.38106832956E+03  0.14678090917E+04  0.25500000920E-02 0. -1.
</event>
<event>
 5   0  0.5988516E-07  0.3396490E+04  0.7818609E-02  0.8138768E-01
       -1   -1    0    0    0  501  0.00000000000E+00  0.00000000000E+00  0.12457961934E+04  0.12457961935E+04  0.50400001928E-02 0. -1.
        1   -1    0    0  501    0  0.00000000000E+00  0.00000000000E+00 -0.23150147551E+04  0.23150147551E+04  0.50400001928E-02 0.  1.
    10030    2    1    2    0    0  0.00000000000E+00  0.00000000000E+00 -0.10692185617E+04  0.35608109486E+04  0.33964902884E+04 0.  0.
        4    1    3    3  502    0 -0.13632181071E+04 -0.68082434631E+03  0.25143041071E+03  0.15443782770E+04  0.12699999809E+01 0. -1.
       -4    1    3    3    0  502  0.13632181071E+04  0.68082434631E+03 -0.13206489724E+04  0.20164326716E+04  0.12699999809E+01 0.  1.
</event>
<event>
 5   0  0.1696681E-06  0.3314639E+04  0.7818609E-02  0.8159180E-01
        2   -1    0    0  501    0  0.00000000000E+00  0.00000000000E+00  0.10619545266E+04  0.10619545266E+04  0.25500000920E-02 0. -1.
       -2   -1    0    0    0  501  0.00000000000E+00  0.00000000000E+00 -0.25864653770E+04  0.25864653770E+04  0.25500000920E-02 0.  1.
    10030    2    1    2    0    0  0.00000000000E+00  0.00000000000E+00 -0.15245108504E+04  0.36484199036E+04  0.33146394163E+04 0.  0.
        4    1    3    3  502    0  0.43592881822E+03 -0.15982005070E+04 -0.81649438748E+03  0.18468739786E+04  0.12699999809E+01 0.  1.
       -4    1    3    3    0  502 -0.43592881822E+03  0.15982005070E+04 -0.70801646288E+03  0.18015459250E+04  0.12699999809E+01 0. -1.
</event>
<event>
 5   0  0.5858859E-07  0.3271576E+04  0.7818609E-02  0.8170166E-01
        1   -1    0    0  501    0  0.00000000000E+00  0.00000000000E+00  0.28435929613E+04  0.28435929613E+04  0.50400001928E-02 0.  1.
       -1   -1    0    0    0  501  0.00000000000E+00  0.00000000000E+00 -0.94099368719E+03  0.94099368721E+03  0.50400001928E-02 0. -1.
    10030    2    1    2    0    0  0.00000000000E+00  0.00000000000E+00  0.19025992741E+04  0.37845866485E+04  0.32715763941E+04 0.  0.
        3    1    3    3  502    0 -0.11730308584E+04 -0.71331941724E+03  0.19801289340E+04  0.24095096164E+04  0.10100000352E+00 0.  1.
       -3    1    3    3    0  502  0.11730308584E+04  0.71331941724E+03 -0.77529659963E+02  0.13750770321E+04  0.10100000352E+00 0. -1.
</event>
<event>
 5   0  0.1743810E-06  0.3135402E+04  0.7818609E-02  0.8206089E-01
       -2   -1    0    0    0  501  0.00000000000E+00  0.00000000000E+00  0.17548963495E+04  0.17548963495E+04  0.25500000920E-02 0.  1.
        2   -1    0    0  501    0  0.00000000000E+00  0.00000000000E+00 -0.14004741327E+04  0.14004741327E+04  0.25500000920E-02 0. -1.
    10030    2    1    2    0    0  0.00000000000E+00  0.00000000000E+00  0.35442221685E+03  0.31553704822E+04  0.31354023302E+04 0.  0.
        5    1    3    3  502    0 -0.34315815792E+03  0.44351552690E+03  0.16505022061E+04  0.17431704352E+04  0.46999998093E+01 0.  1.
       -5    1    3    3    0  502  0.34315815792E+03 -0.44351552690E+03 -0.12960799893E+04  0.14122000469E+04  0.46999998093E+01 0. -1.
</event>
<event>
 5   0  0.1743810E-06  0.3451266E+04  0.7818609E-02  0.8125437E-01
       -2   -1    0    0    0  501  0.00000000000E+00  0.00000000000E+00  0.13187142798E+04  0.13187142798E+04  0.25500000920E-02 0. -1.
        2   -1    0    0  501    0  0.00000000000E+00  0.00000000000E+00 -0.22581160644E+04  0.22581160644E+04  0.25500000920E-02 0.  1.
    10030    2    1    2    0    0  0.00000000000E+00  0.00000000000E+00 -0.93940178457E+03  0.35768303442E+04  0.34512663760E+04 0.  0.
        5    1    3    3  502    0 -0.12608150226E+04  0.97345941537E+03  0.21815549427E+03  0.16077598279E+04  0.46999998093E+01 0. -1.
       -5    1    3    3    0  502  0.12608150226E+04 -0.97345941537E+03 -0.11575572788E+04  0.19690705163E+04  0.46999998093E+01 0.  1.
</event>
<event>
 5   0  0.1728937E-06  0.3301819E+04  0.7818609E-02  0.8162433E-01
       -2   -1    0    0    0  501  0.00000000000E+00  0.00000000000E+00  0.18729238658E+04  0.18729238658E+04  0.25500000920E-02 0.  1.
        2   -1    0    0  501    0  0.00000000000E+00  0.00000000000E+00 -0.14552126033E+04  0.14552126033E+04  0.25500000920E-02 0. -1.
    10030    2    1    2    0    0  0.00000000000E+00  0.00000000000E+00  0.41771126251E+03  0.33281364690E+04  0.33018191437E+04 0.  0.
        1    1    3    3  502    0  0.13449818929E+04 -0.59525140834E+02  0.11719728820E+04  0.17849481703E+04  0.50400001928E-02 0.  1.
       -1    1    3    3    0  502 -0.13449818929E+04  0.59525140834E+02 -0.75426161949E+03  0.15431882987E+04  0.50400001928E-02 0. -1.
</event>
<event>
 5   0  0.5988516E-07  0.3269351E+04  0.7818609E-02  0.8170738E-01
       -1   -1    0    0    0  501  0.00000000000E+00  0.00000000000E+00  0.11901906624E+04  0.11901906625E+04  0.50400001928E-02 0. -1.
        1   -1    0    0  501    0  0.00000000000E+00  0.00000000000E+00 -0.22451565584E+04  0.22451565584E+04  0.50400001928E-02 0.  1.
    10030    2    1    2    0    0  0.00000000000E+00  0.00000000000E+00 -0.10549658959E+04  0.34353472208E+04  0.32693512332E+04 0.  0.
        4    1    3    3  502    0 -0.38744787346E+03  0.23974753756E+03  0.11221201495E+04  0.12110945377E+04  0.12699999809E+01 0. -1.
       -4    1    3    3    0  502  0.38744787346E+03 -0.23974753756E+03 -0.21770860454E+04  0.22242526831E+04  0.12699999809E+01 0.  1.
</event>
<event>
 5   0  0.5858859E-07  0.3187735E+04  0.7818609E-02  0.8192064E-01
        1   -1    0    0  501    0  0.00000000000E+00  0.00000000000E+00  0.14456890483E+04  0.14456890483E+04  0.50400001928E-02 0.  1.
       -1   -1    0    0    0  501  0.00000000000E+00  0.00000000000E+00 -0.17572335476E+04  0.17572335476E+04  0.50400001928E-02 0. -1.
    10030    2    1    2    0    0  0.00000000000E+00  0.00000000000E+00 -0.31154449924E+03  0.32029225959E+04  0.31877348040E+04 0.  0.
        3    1    3    3  502    0  0.14112702113E+04  0.16397203551E+01 -0.90006265244E+03  0.16738575467E+04  0.10100000352E+00 0. -1.
       -3    1    3    3    0  502 -0.14112702113E+04 -0.16397203551E+01  0.58851815321E+03  0.15290650493E+04  0.10100000352E+00 0.  1.
</event>
<event>
 5   0  0.5858859E-07  0.2899729E+04  0.7818609E-02  0.8272958E-01
       -1   -1    0    0    0  501  0.00000000000E+00  0.00000000000E+00  0.25785072978E+04  0.25785072978E+04  0.50400001928E-02 0. -1.
        1   -1    0    0  501    0  0.00000000000E+00  0.00000000000E+00 -0.81524194898E+03  0.81524194900E+03  0.50400001928E-02 0.  1.
    10030    2    1    2    0    0  0.00000000000E+00  0.00000000000E+00  0.17632653488E+04  0.33937492468E+04  0.28997291701E+04 0.  0.
        3    1    3    3  502    0 -0.12328355159E+04  0.50783900435E+03  0.21511528778E+03  0.13505770844E+04  0.10100000352E+00 0.  1.
       -3    1    3    3    0  502  0.12328355159E+04 -0.50783900435E+03  0.15481500610E+04  0.20431721624E+04  0.10100000352E+00 0. -1.
</event>
<event>
 5   0  0.1696681E-06  0.3098055E+04  0.7818609E-02  0.8216272E-01
       -2   -1    0    0    0  501  0.00000000000E+00  0.00000000000E+00  0.16488017394E+04  0.16488017394E+04  0.25500000920E-02 0.  1.
        2   -1    0    0  501    0  0.00000000000E+00  0.00000000000E+00 -0.14552906227E+04  0.14552906227E+04  0.25500000920E-02 0. -1.
    10030    2    1    2    0    0  0.00000000000E+00  0.00000000000E+00  0.19351111667E+03  0.31040923621E+04  0.30980546865E+04 0.  0.
        4    1    3    3  502    0 -0.16895758883E+03 -0.11619997191E+04  0.11090185381E+04  0.16151513070E+04  0.12699999809E+01 0.  1.
       -4    1    3    3    0  502  0.16895758883E+03  0.11619997191E+04 -0.91550742141E+03  0.14889410551E+04  0.12699999809E+01 0. -1.
</event>
<event>
 5   0  0.6023446E-07  0.3284604E+04  0.7818609E-02  0.8166824E-01
       -1   -1    0    0    0  501  0.00000000000E+00  0.00000000000E+00  0.15773951045E+04  0.15773951045E+04  0.50400001928E-02 0. -1.
        1   -1    0    0  501    0  0.00000000000E+00  0.00000000000E+00 -0.17098791863E+04  0.17098791863E+04  0.50400001928E-02 0.  1.
    10030    2    1    2    0    0  0.00000000000E+00  0.00000000000E+00 -0.13248408179E+03  0.32872742909E+04  0.32846035121E+04 0.  0.
        5    1    3    3  502    0  0.57294911510E+03  0.10447181727E+04 -0.11973938728E+04  0.16892249481E+04  0.46999998093E+01 0.  1.
       -5    1    3    3    0  502 -0.57294911510E+03 -0.10447181727E+04  0.10649097910E+04  0.15980493427E+04  0.46999998093E+01 0. -1.
</event>
<event>
 5   0  0.5988516E-07  0.3403902E+04  0.7818609E-02  0.8136949E-01
       -1   -1    0    0    0  501  0.00000000000E+00  0.00000000000E+00  0.98155756925E+03  0.98155756926E+03  0.50400001928E-02 0.  1.
        1   -1    0    0  501    0  0.00000000000E+00  0.00000000000E+00 -0.29510622527E+04  0.29510622527E+04  0.50400001928E-02 0. -1.
    10030    2    1    2    0    0  0.00000000000E+00  0.00000000000E+00 -0.19695046835E+04  0.39326198220E+04  0.34039021675E+04 0.  0.
        4    1    3    3  502    0 -0.56967755017E+03  0.15625726444E+04 -0.14020638771E+04  0.21753046932E+04  0.12699999809E+01 0. -1.
       -4    1    3    3    0  502  0.56967755017E+03 -0.15625726444E+04 -0.56744080637E+03  0.17573151287E+04  0.12699999809E+01 0.  1.
</event>
<event>
 5   0  0.5985183E-07  0.3343047E+04  0.7818609E-02  0.8152028E-01
        1   -1    0    0  501    0  0.00000000000E+00  0.00000000000E+00  0.24094769047E+04  0.24094769047E+04  0.50400001928E-02 0. -1.
       -1   -1    0    0    0  501  0.00000000000E+00  0.00000000000E+00 -0.11595840584E+04  0.11595840585E+04  0.50400001928E-02 0.  1.
    10030    2    1    2    0    0  0.00000000000E+00  0.00000000000E+00  0.12498928463E+04  0.35690609632E+04  0.33430471178E+04 0.  0.
        2    1    3    3  502    0  0.51920377474E+03  0.13301506917E+04 -0.30277751045E+03  0.14596395593E+04  0.25500000920E-02 0.  1.
       -2    1    3    3    0  502 -0.51920377474E+03 -0.13301506917E+04  0.15526703567E+04  0.21094214038E+04  0.25500000920E-02 0. -1.
</event>
<event>
 5   0  0.1832626E-06  0.3306246E+04  0.7818609E-02  0.8161308E-01
       -2   -1    0    0    0  501  0.00000000000E+00  0.00000000000E+00  0.13344004286E+04  0.13344004286E+04  0.25500000920E-02 0.  1.
        2   -1    0    0  501    0  0.00000000000E+00  0.00000000000E+00 -0.20479722098E+04  0.20479722098E+04  0.25500000920E-02 0. -1.
    10030    2    1    2    0    0  0.00000000000E+00  0.00000000000E+00 -0.71357178121E+03  0.33823726384E+04  0.33062456016E+04 0.  0.
        3    1    3    3  502    0  0.10623191503E+04  0.12183407984E+04 -0.24900771673E+01  0.16164413039E+04  0.10100000352E+00 0.  1.
       -3    1    3    3    0  502 -0.10623191503E+04 -0.12183407984E+04 -0.71108170404E+03  0.17659313345E+04  0.10100000352E+00 0. -1.
</event>
<event>
 5   0  0.1696681E-06  0.3124754E+04  0.7818609E-02  0.8208977E-01
       -2   -1    0    0    0  501  0.00000000000E+00  0.00000000000E+00  0.18208960932E+04  0.18208960932E+04  0.25500000920E-02 0.  1.
        2   -1    0    0  501    0  0.00000000000E+00  0.00000000000E+00 -0.13405604779E+04  0.13405604779E+04  0.25500000920E-02 0. -1.
    10030    2    1    2    0    0  0.00000000000E+00  0.00000000000E+00  0.48033561531E+03  0.31614565711E+04  0.31247536460E+04 0.  0.
        4    1    3    3  502    0  0.80997528464E+03 -0.12498860606E+04  0.71766962290E+03  0.16532774803E+04  0.12699999809E+01 0.  1.
       -4    1    3    3    0  502 -0.80997528464E+03  0.12498860606E+04 -0.23733400759E+03  0.15081790909E+04  0.12699999809E+01 0. -1.
</event>
<event>
 5   0  0.1728937E-06  0.3291923E+04  0.7818609E-02  0.8164954E-01
        2   -1    0    0  501    0  0.00000000000E+00  0.00000000000E+00  0.20165963905E+04  0.20165963905E+04  0.25500000920E-02 0.  1.
       -2   -1    0    0    0  501  0.00000000000E+00  0.00000000000E+00 -0.13434461355E+04  0.13434461355E+04  0.25500000920E-02 0. -1.
    10030    2    1    2    0    0  0.00000000000E+00  0.00000000000E+00  0.67315025506E+03  0.33600425260E+04  0.32919226161E+04 0.  0.
        1    1    3    3  502    0 -0.85174885330E+03 -0.14002389698E+04  0.18163356686E+03  0.16489803014E+04  0.50400001928E-02 0. -1.
       -1    1    3    3    0  502  0.85174885330E+03  0.14002389698E+04  0.49151668820E+03  0.17110622246E+04  0.50400001928E-02 0.  1.
</event>
<event>
 5   0  0.1832626E-06  0.3316763E+04  0.7818609E-02  0.8158643E-01
       -2   -1    0    0    0  501  0.00000000000E+00  0.00000000000E+00  0.92519392346E+03  0.92519392347E+03  0.25500000920E-02 0.  1.
        2   -1    0    0  501    0  0.00000000000E+00  0.00000000000E+00 -0.29725976754E+04  0.29725976754E+04  0.25500000920E-02 0. -1.
    10030    2    1    2    0    0  0.00000000000E+00  0.00000000000E+00 -0.20474037519E+04  0.38977915988E+04  0.33167630643E+04 0.  0.
        3    1    3    3  502    0 -0.62696700047E+03  0.83853582765E+03 -0.25350754798E+04  0.27427791841E+04  0.10100000352E+00 0. -1.
       -3    1    3    3    0  502  0.62696700047E+03 -0.83853582765E+03  0.48767172790E+03  0.11550124148E+04  0.10100000352E+00 0.  1.
</event>
<event>
 5   0  0.6023446E-07  0.3308212E+04  0.7818609E-02  0.8160809E-01
        1   -1    0    0  501    0  0.00000000000E+00  0.00000000000E+00  0.90396981073E+03  0.90396981074E+03  0.50400001928E-02 0.  1.
       -1   -1    0    0    0  501  0.00000000000E+00  0.00000000000E+00 -0.30267239876E+04  0.30267239876E+04  0.50400001928E-02 0. -1.
    10030    2    1    2    0    0  0.00000000000E+00  0.00000000000E+00 -0.21227541769E+04  0.39306937984E+04  0.33082122727E+04 0.  0.
        5    1    3    3  502    0 -0.16439037181E+04 -0.18329821688E+03 -0.10675907842E+04  0.19687025787E+04  0.46999998093E+01 0. -1.
       -5    1    3    3    0  502  0.16439037181E+04  0.18329821688E+03 -0.10551633928E+04  0.19619912197E+04  0.46999998093E+01 0.  1.
</event>
<event>
 5   0  0.5988516E-07  0.3357072E+04  0.7818609E-02  0.8148523E-01
       -1   -1    0    0    0  501  0.00000000000E+00  0.00000000000E+00  0.15561105539E+04  0.15561105539E+04  0.50400001928E-02 0. -1.
        1   -1    0    0  501    0  0.00000000000E+00  0.00000000000E+00 -0.18105932529E+04  0.18105932529E+04  0.50400001928E-02 0.  1.
    10030    2    1    2    0    0  0.00000000000E+00  0.00000000000E+00 -0.25448269902E+03  0.33667038068E+04  0.33570720991E+04 0.  0.
        4    1    3    3  502    0  0.22198234265E+03 -0.58117850130E+03  0.14362174085E+04  0.15651730474E+04  0.12699999809E+01 0. -1.
       -4    1    3    3    0  502 -0.22198234265E+03  0.58117850130E+03 -0.16907001075E+04  0.18015307594E+04  0.12699999809E+01 0.  1.
</event>
<event>
 5   0  0.6023446E-07  0.3283236E+04  0.7818609E-02  0.8167174E-01
       -1   -1    0    0    0  501  0.00000000000E+00  0.00000000000E+00  0.13422491247E+04  0.13422491247E+04  0.50400001928E-02 0.  1.
        1   -1    0    0  501    0  0.00000000000E+00  0.00000000000E+00 -0.20077562486E+04  0.20077562486E+04  0.50400001928E-02 0. -1.
    10030    2    1    2    0    0  0.00000000000E+00  0.00000000000E+00 -0.66550712390E+03  0.33500053733E+04  0.32832356402E+04 0.  0.
        5    1    3    3  502    0 -0.31712993554E+03  0.14736703854E+04 -0.99605958255E+03  0.18067740819E+04  0.46999998093E+01 0. -1.
       -5    1    3    3    0  502  0.31712993554E+03 -0.14736703854E+04  0.33055245865E+03  0.15432312914E+04  0.46999998093E+01 0.  1.
</event>
<event>
 5   0  0.6085351E-07  0.3289095E+04  0.7818609E-02  0.8165676E-01
        1   -1    0    0  501    0  0.00000000000E+00  0.00000000000E+00  0.21298210476E+04  0.21298210476E+04  0.50400001928E-02 0. -1.
       -1   -1    0    0    0  501  0.00000000000E+00  0.00000000000E+00 -0.12698419855E+04  0.12698419855E+04  0.50400001928E-02 0.  1.
    10030    2    1    2    0    0  0.00000000000E+00  0.00000000000E+00  0.85997906210E+03  0.33996630331E+04  0.32890948225E+04 0.  0.
        1    1    3    3  502    0 -0.62585838321E+03  0.38985472685E+03 -0.10894095723E+04  0.13154841847E+04  0.50400001928E-02 0.  1.
       -1    1    3    3    0  502  0.62585838321E+03 -0.38985472685E+03  0.19493886344E+04  0.20841788484E+04  0.50400001928E-02 0. -1.
</event>
<event>
 5   0  0.1696681E-06  0.3313500E+04  0.7818609E-02  0.8159469E-01
       -2   -1    0    0    0  501  0.00000000000E+00  0.00000000000E+00  0.15691662365E+04  0.15691662366E+04  0.25500000920E-02 0. -1.
        2   -1    0    0  501    0  0.00000000000E+00  0.00000000000E+00 -0.17492221928E+04  0.17492221928E+04  0.25500000920E-02 0.  1.
    10030    2    1    2    0    0  0.00000000000E+00  0.00000000000E+00 -0.18005595625E+03  0.33183884294E+04  0.33134999050E+04 0.  0.
        4    1    3    3  502    0 -0.14862009304E+03  0.28440547398E+03  0.15377451482E+04  0.15708711467E+04  0.12699999809E+01 0. -1.
       -4    1    3    3    0  502  0.14862009304E+03 -0.28440547398E+03 -0.17178011045E+04  0.17475172827E+04  0.12699999809E+01 0.  1.
</event>
<event>
 5   0  0.1728937E-06  0.3302590E+04  0.7818609E-02  0.8162237E-01
       -2   -1    0    0    0  501  0.00000000000E+00  0.00000000000E+00  0.16365729601E+04  0.16365729601E+04  0.25500000920E-02 0. -1.
        2   -1    0    0  501    0  0.00000000000E+00  0.00000000000E+00 -0.16661491356E+04  0.16661491356E+04  0.25500000920E-02 0.  1.
    10030    2    1    2    0    0  0.00000000000E+00  0.00000000000E+00 -0.29576175459E+02  0.33027220957E+04  0.33025896644E+04 0.  0.
        1    1    3    3  502    0  0.16892982568E+03 -0.14280912593E+04 -0.82648108824E+03  0.16586298322E+04  0.50400001928E-02 0.  1.
       -1    1    3    3    0  502 -0.16892982568E+03  0.14280912593E+04  0.79690491278E+03  0.16440922635E+04  0.50400001928E-02 0. -1.
</event>
<event>
 5   0  0.1784626E-06  0.3286051E+04  0.7818609E-02  0.8166454E-01
        2   -1    0    0  501    0  0.00000000000E+00  0.00000000000E+00  0.24219062581E+04  0.24219062581E+04  0.25500000920E-02 0. -1.
       -2   -1    0    0    0  501  0.00000000000E+00  0.00000000000E+00 -0.11146312381E+04  0.11146312381E+04  0.25500000920E-02 0.  1.
    10030    2    1    2    0    0  0.00000000000E+00  0.00000000000E+00  0.13072750200E+04  0.35365374963E+04  0.32860507429E+04 0.  0.
        2    1    3    3  502    0 -0.15995831135E+04  0.36912370774E+03  0.72674117417E+03  0.17952913922E+04  0.25500000920E-02 0.  1.
       -2    1    3    3    0  502  0.15995831135E+04 -0.36912370774E+03  0.58053384580E+03  0.17412461040E+04  0.25500000920E-02 0. -1.
</event>
<event>
 5   0  0.5858859E-07  0.3298186E+04  0.7818609E-02  0.8163357E-01
        1   -1    0    0  501    0  0.00000000000E+00  0.00000000000E+00  0.16262021888E+04  0.16262021888E+04  0.50400001928E-02 0. -1.
       -1   -1    0    0    0  501  0.00000000000E+00  0.00000000000E+00 -0.16723061213E+04  0.16723061213E+04  0.50400001928E-02 0.  1.
    10030    2    1    2    0    0  0.00000000000E+00  0.00000000000E+00 -0.46103932447E+02  0.32985083101E+04  0.32981860923E+04 0.  0.
        3    1    3    3  502    0 -0.95271009311E+03  0.13459893699E+04 -0.35857872157E+02  0.16494331459E+04  0.10100000352E+00 0.  1.
       -3    1    3    3    0  502  0.95271009311E+03 -0.13459893699E+04 -0.10246060289E+02  0.16490751643E+04  0.10100000352E+00 0. -1.
</event>
<event>
 5   0  0.1832626E-06  0.3283209E+04  0.7818609E-02  0.8167181E-01
        2   -1    0    0  501    0  0.00000000000E+00  0.00000000000E+00  0.27500171076E+04  0.27500171076E+04  0.25500000920E-02 0. -1.
       -2   -1    0    0    0  501  0.00000000000E+00  0.00000000000E+00 -0.97994473177E+03  0.97994473178E+03  0.25500000920E-02 0.  1.
    10030    2    1    2    0    0  0.00000000000E+00  0.00000000000E+00  0.17700723758E+04  0.37299618394E+04  0.32832086604E+04 0.  0.
        3    1    3    3  502    0  0.33947118566E+03 -0.10921473802E+03  0.27054818695E+04  0.27288826837E+04  0.10100000352E+00 0. -1.
       -3    1    3    3    0  502 -0.33947118566E+03  0.10921473802E+03 -0.93540949368E+03  0.10010791557E+04  0.10100000352E+00 0.  1.
</event>
<event>
 5   0  0.1743810E-06  0.3305778E+04  0.7818609E-02  0.8161427E-01
       -2   -1    0    0    0  501  0.00000000000E+00  0.00000000000E+00  0.10313788147E+04  0.10313788147E+04  0.25500000920E-02 0. -1.
        2   -1    0    0  501    0  0.00000000000E+00  0.00000000000E+00 -0.26489215681E+04  0.26489215681E+04  0.25500000920E-02 0.  1.
    10030    2    1    2    0    0  0.00000000000E+00  0.00000000000E+00 -0.16175427534E+04  0.36803003827E+04  0.33057777221E+04 0.  0.
        5    1    3    3  502    0 -0.22533214498E+03 -0.15561642028E+04 -0.13760026957E+04  0.20894561757E+04  0.46999998093E+01 0.  1.
       -5    1    3    3    0  502  0.22533214498E+03  0.15561642028E+04 -0.24154005772E+03  0.15908442070E+04  0.46999998093E+01 0. -1.
</event>
<event>
 5   0  0.1728937E-06  0.3329288E+04  0.7818609E-02  0.8155483E-01
       -2   -1    0    0    0  501  0.00000000000E+00  0.00000000000E+00  0.10594406320E+04  0.10594406320E+04  0.25500000920E-02 0.  1.
        2   -1    0    0  501    0  0.00000000000E+00  0.00000000000E+00 -0.26155680134E+04  0.26155680134E+04  0.25500000920E-02 0. -1.
    10030    2    1    2    0    0  0.00000000000E+00  0.00000000000E+00 -0.15561273815E+04  0.36750086454E+04  0.33292876290E+04 0.  0.
        1    1    3    3  502    0  0.12182434582E+04 -0.99622890809E+03 -0.13770442546E+04  0.20911336734E+04  0.50400001928E-02 0. -1.
       -1    1    3    3    0  502 -0.12182434582E+04  0.99622890809E+03 -0.17908312686E+03  0.15838749720E+04  0.50400001928E-02 0.  1.
</event>
<event>
 5   0  0.5858859E-07  0.3194703E+04  0.7818609E-02  0.8190217E-01
        1   -1    0    0  501    0  0.00000000000E+00  0.00000000000E+00  0.21891440390E+04  0.21891440390E+04  0.50400001928E-02 0.  1.
       -1   -1    0    0    0  501  0.00000000000E+00  0.00000000000E+00 -0.11655385766E+04  0.11655385766E+04  0.50400001928E-02 0. -1.
    10030    2    1    2    0    0  0.00000000000E+00  0.00000000000E+00  0.10236054625E+04  0.33546826156E+04  0.31947030079E+04 0.  0.
        3    1    3    3  502    0  0.88817789111E+03  0.62248353987E+03 -0.71960445410E+03  0.13016052797E+04  0.10100000352E+00 0. -1.
       -3    1    3    3    0  502 -0.88817789111E+03 -0.62248353987E+03  0.17432099166E+04  0.20530773359E+04  0.10100000352E+00 0.  1.
</event>
<event>
 5   0  0.5988516E-07  0.3316122E+04  0.7818609E-02  0.8158805E-01
       -1   -1    0    0    0  501  0.00000000000E+00  0.00000000000E+00  0.10516950421E+04  0.10516950421E+04  0.50400001928E-02 0.  1.
        1   -1    0    0  501    0  0.00000000000E+00  0.00000000000E+00 -0.26140339341E+04  0.26140339341E+04  0.50400001928E-02 0. -1.
    10030    2    1    2    0    0  0.00000000000E+00  0.00000000000E+00 -0.15623388920E+04  0.36657289762E+04  0.33161221500E+04 0.  0.
        4    1    3    3  502    0 -0.10335429087E+04 -0.74758910938E+02  0.64964910440E+03  0.12230475913E+04  0.12699999809E+01 0.  1.
       -4    1    3    3    0  502  0.10335429087E+04  0.74758910938E+02 -0.22119879964E+04  0.24426813849E+04  0.12699999809E+01 0. -1.
</event>
<event>
 5   0  0.5858859E-07  0.3277342E+04  0.7818609E-02  0.8168685E-01
        1   -1    0    0  501    0  0.00000000000E+00  0.00000000000E+00  0.14477040598E+04  0.14477040598E+04  0.50400001928E-02 0. -1.
       -1   -1    0    0    0  501  0.00000000000E+00  0.00000000000E+00 -0.18548286052E+04  0.18548286052E+04  0.50400001928E-02 0.  1.
    10030    2    1    2    0    0  0.00000000000E+00  0.00000000000E+00 -0.40712454533E+03  0.33025326650E+04  0.32773421561E+04 0.  0.
        3    1    3    3  502    0 -0.52075327250E+03 -0.12619095105E+04  0.70985032886E+03  0.15386640579E+04  0.10100000352E+00 0. -1.
       -3    1    3    3    0  502  0.52075327250E+03  0.12619095105E+04 -0.11169748742E+04  0.17638686071E+04  0.10100000352E+00 0.  1.
</event>
<event>
 5   0  0.1696681E-06  0.3307074E+04  0.7818609E-02  0.8161098E-01
       -2   -1    0    0    0  501  0.00000000000E+00  0.00000000000E+00  0.16481480791E+04  0.16481480791E+04  0.25500000920E-02 0. -1.
        2   -1    0    0  501    0  0.00000000000E+00  0.00000000000E+00 -0.16589437615E+04  0.16589437615E+04  0.25500000920E-02 0.  1.
    10030    2    1    2    0    0  0.00000000000E+00  0.00000000000E+00 -0.10795682415E+02  0.33070918406E+04  0.33070742198E+04 0.  0.
        4    1    3    3  502    0  0.85310147661E+03  0.91271451654E+03 -0.10886180158E+04  0.16570819881E+04  0.12699999809E+01 0.  1.
       -4    1    3    3    0  502 -0.85310147661E+03 -0.91271451654E+03  0.10778223334E+04  0.16500098525E+04  0.12699999809E+01 0. -1.
</event>
<event>
 5   0  0.1743810E-06  0.3330418E+04  0.7818609E-02  0.8155198E-01
       -2   -1    0    0    0  501  0.00000000000E+00  0.00000000000E+00  0.18621102030E+04  0.18621102030E+04  0.25500000920E-02 0.  1.
        2   -1    0    0  501    0  0.00000000000E+00  0.00000000000E+00 -0.14891282222E+04  0.14891282222E+04  0.25500000920E-02 0. -1.
    10030    2    1    2    0    0  0.00000000000E+00  0.00000000000E+00  0.37298198085E+03  0.33512384252E+04  0.33304179054E+04 0.  0.
        5    1    3    3  502    0 -0.33505430541E+03 -0.48575064166E+03 -0.13803832472E+04  0.15012311856E+04  0.46999998093E+01 0. -1.
       -5    1    3    3    0  502  0.33505430541E+03  0.48575064166E+03  0.17533652281E+04  0.18500072396E+04  0.46999998093E+01 0.  1.
</event>
<event>
 5   0  0.1784626E-06  0.3562833E+04  0.7818609E-02  0.8099059E-01
       -2   -1    0    0    0  501  0.00000000000E+00  0.00000000000E+00  0.12911545801E+04  0.12911545801E+04  0.25500000920E-02 0.  1.
        2   -1    0    0  501    0  0.00000000000E+00  0.00000000000E+00 -0.24578353642E+04  0.24578353642E+04  0.25500000920E-02 0. -1.
    10030    2    1    2    0    0  0.00000000000E+00  0.00000000000E+00 -0.11666807841E+04  0.37489899443E+04  0.35628333599E+04 0.  0.
        2    1    3    3  502    0  0.71646130820E+03  0.14396568256E+04 -0.13898859665E+04  0.21254909036E+04  0.25500000920E-02 0. -1.
       -2    1    3    3    0  502 -0.71646130820E+03 -0.14396568256E+04  0.22320518236E+03  0.16234990407E+04  0.25500000920E-02 0.  1.
</event>
<event>
 5   0  0.1832626E-06  0.3300076E+04  0.7818609E-02  0.8162876E-01
        2   -1    0    0  501    0  0.00000000000E+00  0.00000000000E+00  0.19173233266E+04  0.19173233266E+04  0.25500000920E-02 0. -1.
       -2   -1    0    0    0  501  0.00000000000E+00  0.00000000000E+00 -0.14200134700E+04  0.14200134700E+04  0.25500000920E-02 0.  1.
    10030    2    1    2    0    0  0.00000000000E+00  0.00000000000E+00  0.49730985657E+03  0.33373367967E+04  0.33000757265E+04 0.  0.
        3    1    3    3  502    0 -0.49032171782E+03 -0.15231651439E+04  0.65591462028E+03  0.17293557881E+04  0.10100000352E+00 0. -1.
       -3    1    3    3    0  502  0.49032171782E+03  0.15231651439E+04 -0.15860476371E+03  0.16079810086E+04  0.10100000352E+00 0.  1.
</event>
<event>
 5   0  0.1784626E-06  0.3121273E+04  0.7818609E-02  0.8209924E-01
       -2   -1    0    0    0  501  0.00000000000E+00  0.00000000000E+00  0.19151767376E+04  0.19151767376E+04  0.25500000920E-02 0. -1.
        2   -1    0    0  501    0  0.00000000000E+00  0.00000000000E+00 -0.12717294614E+04  0.12717294614E+04  0.25500000920E-02 0.  1.
    10030    2    1    2    0    0  0.00000000000E+00  0.00000000000E+00  0.64344727621E+03  0.31869061989E+04  0.31212732536E+04 0.  0.
        2    1    3    3  502    0  0.11726653586E+02 -0.85629352109E+03 -0.10103987640E+04  0.13244930242E+04  0.25500000920E-02 0.  1.
       -2    1    3    3    0  502 -0.11726653586E+02  0.85629352109E+03  0.16538460403E+04  0.18624131748E+04  0.25500000920E-02 0. -1.
</event>
<event>
 5   0  0.1832626E-06  0.3274653E+04  0.7818609E-02  0.8169375E-01
        2   -1    0    0  501    0  0.00000000000E+00  0.00000000000E+00  0.26379654455E+04  0.26379654455E+04  0.25500000920E-02 0. -1.
       -2   -1    0    0    0  501  0.00000000000E+00  0.00000000000E+00 -0.10162522108E+04  0.10162522108E+04  0.25500000920E-02 0.  1.
    10030    2    1    2    0    0  0.00000000000E+00  0.00000000000E+00  0.16217132347E+04  0.36542176563E+04  0.32746530907E+04 0.  0.
        3    1    3    3  502    0  0.12962945408E+04  0.15651445884E+03  0.19132727083E+04  0.23163524729E+04  0.10100000352E+00 0. -1.
       -3    1    3    3    0  502 -0.12962945408E+04 -0.15651445884E+03 -0.29155947357E+03  0.13378651834E+04  0.10100000352E+00 0.  1.
</event>
<event>
 5   0  0.1832626E-06  0.3310312E+04  0.7818609E-02  0.8160276E-01
       -2   -1    0    0    0  501  0.00000000000E+00  0.00000000000E+00  0.14838370698E+04  0.14838370699E+04  0.25500000920E-02 0. -1.
        2   -1    0    0  501    0  0.00000000000E+00  0.00000000000E+00 -0.18462550990E+04  0.18462550990E+04  0.25500000920E-02 0.  1.
    10030    2    1    2    0    0  0.00000000000E+00  0.00000000000E+00 -0.36241802914E+03  0.33300921688E+04  0.33103122247E+04 0.  0.
        3    1    3    3  502    0  0.81814221019E+03  0.14385880836E+04 -0.15557350343E+03  0.16622561402E+04  0.10100000352E+00 0.  1.
       -3    1    3    3    0  502 -0.81814221019E+03 -0.14385880836E+04 -0.20684452570E+03  0.16678360286E+04  0.10100000352E+00 0. -1.
</event>
<event>
 5   0  0.1696681E-06  0.3299706E+04  0.7818609E-02  0.8162970E-01
       -2   -1    0    0    0  501  0.00000000000E+00  0.00000000000E+00  0.16169742373E+04  0.16169742373E+04  0.25500000920E-02 0. -1.
        2   -1    0    0  501    0  0.00000000000E+00  0.00000000000E+00 -0.16834001792E+04  0.16834001792E+04  0.25500000920E-02 0.  1.
    10030    2    1    2    0    0  0.00000000000E+00  0.00000000000E+00 -0.66425941930E+02  0.33003744165E+04  0.32997058784E+04 0.  0.
        4    1    3    3  502    0 -0.13780983697E+04  0.77284460277E+03 -0.50825046805E+03  0.16597481881E+04  0.12699999809E+01 0.  1.
       -4    1    3    3    0  502  0.13780983697E+04 -0.77284460277E+03  0.44182452612E+03  0.16406262285E+04  0.12699999809E+01 0. -1.
</event>
<event>
 5   0  0.6023446E-07  0.3303991E+04  0.7818609E-02  0.8161881E-01
       -1   -1    0    0    0  501  0.00000000000E+00  0.00000000000E+00  0.20889254762E+04  0.20889254762E+04  0.50400001928E-02 0.  1.
        1   -1    0    0  501    0  0.00000000000E+00  0.00000000000E+00 -0.13064560344E+04  0.13064560344E+04  0.50400001928E-02 0. -1.
    10030    2    1    2    0    0  0.00000000000E+00  0.00000000000E+00  0.78246944186E+03  0.33953815106E+04  0.33039910979E+04 0.  0.
        5    1    3    3  502    0  0.41193325066E+03 -0.29422750914E+03 -0.12247786218E+04  0.13252786849E+04  0.46999998093E+01 0. -1.
       -5    1    3    3    0  502 -0.41193325066E+03  0.29422750914E+03  0.20072480637E+04  0.20701028258E+04  0.46999998093E+01 0.  1.
</event>
<event>
 5   0  0.5985183E-07  0.3339897E+04  0.7818609E-02  0.8152817E-01
       -1   -1    0    0    0  501  0.00000000000E+00  0.00000000000E+00  0.20897848247E+04  0.20897848247E+04  0.50400001928E-02 0. -1.
        1   -1    0    0  501    0  0.00000000000E+00  0.00000000000E+00 -0.13344570662E+04  0.13344570662E+04  0.50400001928E-02 0.  1.
    10030    2    1    2    0    0  0.00000000000E+00  0.00000000000E+00  0.75532775852E+03  0.34242418910E+04  0.33398970800E+04 0.  0.
        2    1    3    3  502    0 -0.34518954389E+03 -0.53894557605E+03 -0.12037247453E+04  0.13632943254E+04  0.25500000920E-02 0.  1.
       -2    1    3    3    0  502  0.34518954389E+03  0.53894557605E+03  0.19590525039E+04  0.20609475656E+04  0.25500000920E-02 0. -1.
</event>
<event>
 5   0  0.5985183E-07  0.3296189E+04  0.7818609E-02  0.8163866E-01
        1   -1    0    0  501    0  0.00000000000E+00  0.00000000000E+00  0.16114216208E+04  0.16114216208E+04  0.50400001928E-02 0. -1.
       -1   -1    0    0    0  501  0.00000000000E+00  0.00000000000E+00 -0.16856016566E+04  0.16856016566E+04  0.50400001928E-02 0.  1.
    10030    2    1    2    0    0  0.00000000000E+00  0.00000000000E+00 -0.74180035781E+02  0.32970232773E+04  0.32961886799E+04 0.  0.
        2    1    3    3  502    0  0.12095986266E+04  0.56415894955E+03 -0.10041909666E+04  0.16702705336E+04  0.25500000920E-02 0.  1.
       -2    1    3    3    0  502 -0.12095986266E+04 -0.56415894955E+03  0.93001093084E+03  0.16267527438E+04  0.25500000920E-02 0. -1.
</event>
<event>
 5   0  0.5858859E-07  0.3311790E+04  0.7818609E-02  0.8159902E-01
       -1   -1    0    0    0  501  0.00000000000E+00  0.00000000000E+00  0.13271221422E+04  0.13271221422E+04  0.50400001928E-02 0. -1.
        1   -1    0    0  501    0  0.00000000000E+00  0.00000000000E+00 -0.20661156620E+04  0.20661156620E+04  0.50400001928E-02 0.  1.
    10030    2    1    2    0    0  0.00000000000E+00  0.00000000000E+00 -0.73899351977E+03  0.33932378042E+04  0.33117897539E+04 0.  0.
        3    1    3    3  502    0 -0.75552461290E+03  0.35438884187E+03 -0.18349084803E+04  0.20157623951E+04  0.10100000352E+00 0.  1.
       -3    1    3    3    0  502  0.75552461290E+03 -0.35438884187E+03  0.10959149606E+04  0.13774754092E+04  0.10100000352E+00 0. -1.
</event>
<event>
 5   0  0.1728937E-06  0.3323512E+04  0.7818609E-02  0.8156938E-01
       -2   -1    0    0    0  501  0.00000000000E+00  0.00000000000E+00  0.16313975735E+04  0.16313975735E+04  0.25500000920E-02 0. -1.
        2   -1    0    0  501    0  0.00000000000E+00  0.00000000000E+00 -0.16926795660E+04  0.16926795660E+04  0.25500000920E-02 0.  1.
    10030    2    1    2    0    0  0.00000000000E+00  0.00000000000E+00 -0.61281992443E+02  0.33240771395E+04  0.33235122005E+04 0.  0.
        1    1    3    3  502    0 -0.62172710799E+02 -0.68944612450E+03  0.14803215702E+04  0.16341827792E+04  0.50400001928E-02 0. -1.
       -1    1    3    3    0  502  0.62172710799E+02  0.68944612450E+03 -0.15416035627E+04  0.16898943603E+04  0.50400001928E-02 0.  1.
</event>
<event>
 5   0  0.5858859E-07  0.3290195E+04  0.7818609E-02  0.8165395E-01
        1   -1    0    0  501    0  0.00000000000E+00  0.00000000000E+00  0.22695660998E+04  0.22695660998E+04  0.50400001928E-02 0. -1.
       -1   -1    0    0    0  501  0.00000000000E+00  0.00000000000E+00 -0.11924511043E+04  0.11924511043E+04  0.50400001928E-02 0.  1.
    10030    2    1    2    0    0  0.00000000000E+00  0.00000000000E+00  0.10771149955E+04  0.34620172042E+04  0.32901954970E+04 0.  0.
        3    1    3    3  502    0  0.76918791854E+03  0.89486139769E+03  0.17446813786E+04  0.21062621153E+04  0.10100000352E+00 0. -1.
       -3    1    3    3    0  502 -0.76918791854E+03 -0.89486139769E+03 -0.66756638308E+03  0.13557550889E+04  0.10100000352E+00 0.  1.
</event>
<event>
 5   0  0.1832626E-06  0.3084236E+04  0.7818609E-02  0.8220077E-01
        2   -1    0    0  501    0  0.00000000000E+00  0.00000000000E+00  0.14860996178E+04  0.14860996178E+04  0.25500000920E-02 0.  1.
       -2   -1    0    0    0  501  0.00000000000E+00  0.00000000000E+00 -0.16002483290E+04  0.16002483290E+04  0.25500000920E-02 0. -1.
    10030    2    1    2    0    0  0.00000000000E+00  0.00000000000E+00 -0.11414871120E+03  0.30863479467E+04  0.30842363269E+04 0.  0.
        3    1    3    3  502    0 -0.11317445170E+04  0.80268312801E+03  0.61642623439E+03  0.15182645252E+04  0.10100000352E+00 0.  1.
       -3    1    3    3    0  502  0.11317445170E+04 -0.80268312801E+03 -0.73057494558E+03  0.15680834216E+04  0.10100000352E+00 0. -1.
</event>
<event>
 5   0  0.6085351E-07  0.3290171E+04  0.7818609E-02  0.8165401E-01
        1   -1    0    0  501    0  0.00000000000E+00  0.00000000000E+00  0.13574857469E+04  0.13574857469E+04  0.50400001928E-02 0. -1.
       -1   -1    0    0    0  501  0.00000000000E+00  0.00000000000E+00 -0.19936170822E+04  0.19936170822E+04  0.50400001928E-02 0.  1.
    10030    2    1    2    0    0  0.00000000000E+00  0.00000000000E+00 -0.63613133523E+03  0.33511028291E+04  0.32901712867E+04 0.  0.
        1    1    3    3  502    0 -0.27242741154E+03 -0.86963641588E+03  0.10769051633E+04  0.14107476462E+04  0.50400001928E-02 0. -1.
       -1    1    3    3    0  502  0.27242741154E+03  0.86963641588E+03 -0.17130364986E+04  0.19403551829E+04  0.50400001928E-02 0.  1.
</event>
<event>
 5   0  0.1696681E-06  0.3322283E+04  0.7818609E-02  0.8157248E-01
       -2   -1    0    0    0  501  0.00000000000E+00  0.00000000000E+00  0.22665745341E+04  0.22665745341E+04  0.25500000920E-02 0. -1.
        2   -1    0    0  501    0  0.00000000000E+00  0.00000000000E+00 -0.12174281241E+04  0.12174281241E+04  0.25500000920E-02 0.  1.
    10030    2    1    2    0    0  0.00000000000E+00  0.00000000000E+00  0.10491464101E+04  0.34840026582E+04  0.33222833010E+04 0.  0.
        4    1    3    3  502    0  0.11135300163E+04 -0.12326294084E+04  0.53306777443E+03  0.17445593200E+04  0.12699999809E+01 0.  1.
       -4    1    3    3    0  502 -0.11135300163E+04  0.12326294084E+04  0.51607863563E+03  0.17394433382E+04  0.12699999809E+01 0. -1.
</event>
<event>
 5   0  0.1696681E-06  0.3290061E+04  0.7818609E-02  0.8165429E-01
        2   -1    0    0  501    0  0.00000000000E+00  0.00000000000E+00  0.10757799173E+04  0.10757799173E+04  0.25500000920E-02 0.  1.
       -2   -1    0    0    0  501  0.00000000000E+00  0.00000000000E+00 -0.25155014807E+04  0.25155014807E+04  0.25500000920E-02 0. -1.
    10030    2    1    2    0    0  0.00000000000E+00  0.00000000000E+00 -0.14397215633E+04  0.35912813980E+04  0.32900613823E+04 0.  0.
        4    1    3    3  502    0  0.11013494799E+04  0.55441566744E+03 -0.19084914675E+04  0.22721550791E+04  0.12699999809E+01 0. -1.
       -4    1    3    3    0  502 -0.11013494799E+04 -0.55441566744E+03  0.46876990417E+03  0.13191263189E+04  0.12699999809E+01 0.  1.
</event>
<event>
 5   0  0.6023446E-07  0.3308237E+04  0.7818609E-02  0.8160803E-01
        1   -1    0    0  501    0  0.00000000000E+00  0.00000000000E+00  0.22690755258E+04  0.22690755258E+04  0.50400001928E-02 0. -1.
       -1   -1    0    0    0  501  0.00000000000E+00  0.00000000000E+00 -0.12058250084E+04  0.12058250084E+04  0.50400001928E-02 0.  1.
    10030    2    1    2    0    0  0.00000000000E+00  0.00000000000E+00  0.10632505173E+04  0.34749005342E+04  0.33082370018E+04 0.  0.
        5    1    3    3  502    0  0.44573655038E+03 -0.49699440098E+03 -0.10580249265E+04  0.12510488967E+04  0.46999998093E+01 0.  1.
       -5    1    3    3    0  502 -0.44573655038E+03  0.49699440098E+03  0.21212754438E+04  0.22238516375E+04  0.46999998093E+01 0. -1.
</event>
<event>
 5   0  0.5858859E-07  0.3275733E+04  0.7818609E-02  0.8169098E-01
       -1   -1    0    0    0  501  0.00000000000E+00  0.00000000000E+00  0.10508597644E+04  0.10508597644E+04  0.50400001928E-02 0.  1.
        1   -1    0    0  501    0  0.00000000000E+00  0.00000000000E+00 -0.25527738144E+04  0.25527738144E+04  0.50400001928E-02 0. -1.
    10030    2    1    2    0    0  0.00000000000E+00  0.00000000000E+00 -0.15019140500E+04  0.36036335788E+04  0.32757333770E+04 0.  0.
        3    1    3    3  502    0  0.14482312314E+02  0.12051090706E+04  0.46916704689E+03  0.12932963069E+04  0.10100000352E+00 0.  1.
       -3    1    3    3    0  502 -0.14482312314E+02 -0.12051090706E+04 -0.19710810969E+04  0.23103372719E+04  0.10100000352E+00 0. -1.
</event>
<event>
 5   0  0.5985183E-07  0.2790782E+04  0.7818609E-02  0.8306136E-01
       -1   -1    0    0    0  501  0.00000000000E+00  0.00000000000E+00  0.14900070876E+04  0.14900070876E+04  0.50400001928E-02 0. -1.
        1   -1    0    0  501    0  0.00000000000E+00  0.00000000000E+00 -0.13067828958E+04  0.13067828958E+04  0.50400001928E-02 0.  1.
    10030    2    1    2    0    0  0.00000000000E+00  0.00000000000E+00  0.18322419181E+03  0.27967899834E+04  0.27907818092E+04 0.  0.
        2    1    3    3  502    0  0.23297407897E+03  0.90006629097E+03 -0.95116613624E+03  0.13300801737E+04  0.25500000920E-02 0.  1.
       -2    1    3    3    0  502 -0.23297407897E+03 -0.90006629097E+03  0.11343903280E+04  0.14667098097E+04  0.25500000920E-02 0. -1.
</event>
<event>
 5   0  0.1696681E-06  0.3298430E+04  0.7818609E-02  0.8163295E-01
       -2   -1    0    0    0  501  0.00000000000E+00  0.00000000000E+00  0.11405834203E+04  0.11405834203E+04  0.25500000920E-02 0. -1.
        2   -1    0    0  501    0  0.00000000000E+00  0.00000000000E+00 -0.23846663007E+04  0.23846663007E+04  0.25500000920E-02 0.  1.
    10030    2    1    2    0    0  0.00000000000E+00  0.00000000000E+00 -0.12440828803E+04  0.35252497210E+04  0.32984304422E+04 0.  0.
        4    1    3    3  502    0  0.33350172609E+03  0.85119311721E+03  0.84499532642E+03  0.12448983246E+04  0.12699999809E+01 0. -1.
       -4    1    3    3    0  502 -0.33350172609E+03 -0.85119311721E+03 -0.20890782067E+04  0.22803513964E+04  0.12699999809E+01 0.  1.
</event>
<event>
 5   0  0.5858859E-07  0.3283013E+04  0.7818609E-02  0.8167231E-01
       -1   -1    0    0    0  501  0.00000000000E+00  0.00000000000E+00  0.10608329569E+04  0.10608329570E+04  0.50400001928E-02 0.  1.
        1   -1    0    0  501    0  0.00000000000E+00  0.00000000000E+00 -0.25400261459E+04  0.25400261459E+04  0.50400001928E-02 0. -1.
    10030    2    1    2    0    0  0.00000000000E+00  0.00000000000E+00 -0.14791931889E+04  0.36008591028E+04  0.32830129132E+04 0.  0.
        3    1    3    3  502    0  0.16367851504E+04  0.53157453937E+02 -0.61622512700E+03  0.17497499138E+04  0.10100000352E+00 0. -1.
       -3    1    3    3    0  502 -0.16367851504E+04 -0.53157453937E+02 -0.86296806191E+03  0.18511091890E+04  0.10100000352E+00 0.  1.
</event>
<event>
 5   0  0.1784626E-06  0.3302209E+04  0.7818609E-02  0.8162334E-01
       -2   -1    0    0    0  501  0.00000000000E+00  0.00000000000E+00  0.15777366116E+04  0.15777366116E+04  0.25500000920E-02 0.  1.
        2   -1    0    0  501    0  0.00000000000E+00  0.00000000000E+00 -0.17278837850E+04  0.17278837850E+04  0.25500000920E-02 0. -1.
    10030    2    1    2    0    0  0.00000000000E+00  0.00000000000E+00 -0.15014717343E+03  0.33056203966E+04  0.33022086598E+04 0.  0.
        2    1    3    3  502    0 -0.15318454628E+04  0.52126457849E+03  0.25371396395E+03  0.16378760814E+04  0.25500000920E-02 0.  1.
       -2    1    3    3    0  502  0.15318454628E+04 -0.52126457849E+03 -0.40386113738E+03  0.16677443152E+04  0.25500000920E-02 0. -1.
</event>
<event>
 5   0  0.1696681E-06  0.3349454E+04  0.7818609E-02  0.8150425E-01
        2   -1    0    0  501    0  0.00000000000E+00  0.00000000000E+00  0.13755854671E+04  0.13755854671E+04  0.25500000920E-02 0. -1.
       -2   -1    0    0    0  501  0.00000000000E+00  0.00000000000E+00 -0.20389216730E+04  0.20389216730E+04  0.25500000920E-02 0.  1.
    10030    2    1    2    0    0  0.00000000000E+00  0.00000000000E+00 -0.66333620596E+03  0.34145071401E+04  0.33494542970E+04 0.  0.
        4    1    3    3  502    0  0.20220450052E+03  0.71813992939E+03 -0.18601544661E+04  0.20041925728E+04  0.12699999809E+01 0.  1.
       -4    1    3    3    0  502 -0.20220450052E+03 -0.71813992939E+03  0.11968182601E+04  0.14103145673E+04  0.12699999809E+01 0. -1.
</event>
<event>
 5   0  0.6023446E-07  0.3315500E+04  0.7818609E-02  0.8158963E-01
       -1   -1    0    0    0  501  0.00000000000E+00  0.00000000000E+00  0.11202336013E+04  0.11202336013E+04  0.50400001928E-02 0.  1.
        1   -1    0    0  501    0  0.00000000000E+00  0.00000000000E+00 -0.24531797205E+04  0.24531797205E+04  0.50400001928E-02 0. -1.
    10030    2    1    2    0    0  0.00000000000E+00  0.00000000000E+00 -0.13329461192E+04  0.35734133218E+04  0.33154995720E+04 0.  0.
        5    1    3    3  502    0  0.16460920472E+04 -0.18256729041E+03 -0.74391227142E+03  0.18155928511E+04  0.46999998093E+01 0.  1.
       -5    1    3    3    0  502 -0.16460920472E+04  0.18256729041E+03 -0.58903384778E+03  0.17578204707E+04  0.46999998093E+01 0. -1.
</event>
<event>
 5   0  0.5985183E-07  0.3220065E+04  0.7818609E-02  0.8183538E-01
        1   -1    0    0  501    0  0.00000000000E+00  0.00000000000E+00  0.17251456867E+04  0.17251456867E+04  0.50400001928E-02 0.  1.
       -1   -1    0    0    0  501  0.00000000000E+00  0.00000000000E+00 -0.15026008790E+04  0.15026008791E+04  0.50400001928E-02 0. -1.
    10030    2    1    2    0    0  0.00000000000E+00  0.00000000000E+00  0.22254480761E+03  0.32277465657E+04  0.32200654809E+04 0.  0.
        2    1    3    3  502    0  0.15275497063E+04  0.12945317633E+03  0.60442074267E+03  0.16478745899E+04  0.25500000920E-02 0. -1.
       -2    1    3    3    0  502 -0.15275497063E+04 -0.12945317633E+03 -0.38187593506E+03  0.15798719758E+04  0.25500000920E-02 0.  1.
</event>
<event>
 5   0  0.1784626E-06  0.3301445E+04  0.7818609E-02  0.8162528E-01
        2   -1    0    0  501    0  0.00000000000E+00  0.00000000000E+00  0.21954166355E+04  0.21954166355E+04  0.25500000920E-02 0. -1.
       -2   -1    0    0    0  501  0.00000000000E+00  0.00000000000E+00 -0.12411694598E+04  0.12411694598E+04  0.25500000920E-02 0.  1.
    10030    2    1    2    0    0  0.00000000000E+00  0.00000000000E+00  0.95424717575E+03  0.34365860953E+04  0.33014445805E+04 0.  0.
        2    1    3    3  502    0  0.14919828957E+04 -0.22736203515E+03 -0.21896297279E+03  0.15250086031E+04  0.25500000920E-02 0.  1.
       -2    1    3    3    0  502 -0.14919828957E+04  0.22736203515E+03  0.11732101485E+04  0.19115774922E+04  0.25500000920E-02 0. -1.
</event>
<event>
 5   0  0.1832626E-06  0.3302103E+04  0.7818609E-02  0.8162361E-01
        2   -1    0    0  501    0  0.00000000000E+00  0.00000000000E+00  0.17540607983E+04  0.17540607984E+04  0.25500000920E-02 0. -1.
       -2   -1    0    0    0  501  0.00000000000E+00  0.00000000000E+00 -0.15540913855E+04  0.15540913855E+04  0.25500000920E-02 0.  1.
    10030    2    1    2    0    0  0.00000000000E+00  0.00000000000E+00  0.19996941289E+03  0.33081521838E+04  0.33021028308E+04 0.  0.
        3    1    3    3  502    0 -0.13886284570E+04 -0.89309643561E+03  0.10777914459E+03  0.16545472459E+04  0.10100000352E+00 0. -1.
       -3    1    3    3    0  502  0.13886284570E+04  0.89309643561E+03  0.92190268306E+02  0.16536049379E+04  0.10100000352E+00 0.  1.
</event>
<event>
 5   0  0.1743810E-06  0.3295564E+04  0.7818609E-02  0.8164025E-01
       -2   -1    0    0    0  501  0.00000000000E+00  0.00000000000E+00  0.13066192697E+04  0.13066192697E+04  0.25500000920E-02 0.  1.
        2   -1    0    0  501    0  0.00000000000E+00  0.00000000000E+00 -0.20780238814E+04  0.20780238814E+04  0.25500000920E-02 0. -1.
    10030    2    1    2    0    0  0.00000000000E+00  0.00000000000E+00 -0.77140461179E+03  0.33846431511E+04  0.32955643197E+04 0.  0.
        5    1    3    3  502    0 -0.81736721509E+03 -0.14170962524E+04 -0.58829812156E+03  0.17384958219E+04  0.46999998093E+01 0. -1.
       -5    1    3    3    0  502  0.81736721509E+03  0.14170962524E+04 -0.18310649022E+03  0.16461473292E+04  0.46999998093E+01 0.  1.
</event>
<event>
 5   0  0.5985183E-07  0.3312203E+04  0.7818609E-02  0.8159797E-01
        1   -1    0    0  501    0  0.00000000000E+00  0.00000000000E+00  0.18063146715E+04  0.18063146715E+04  0.50400001928E-02 0. -1.
       -1   -1    0    0    0  501  0.00000000000E+00  0.00000000000E+00 -0.15183799454E+04  0.15183799454E+04  0.50400001928E-02 0.  1.
    10030    2    1    2    0    0  0.00000000000E+00  0.00000000000E+00  0.28793472612E+03  0.33246946170E+04  0.33122028757E+04 0.  0.
        2    1    3    3  502    0 -0.10893179232E+04  0.11255238309E+04 -0.39588489590E+03  0.16155934769E+04  0.25500000920E-02 0.  1.
       -2    1    3    3    0  502  0.10893179232E+04 -0.11255238309E+04  0.68381962202E+03  0.17091011401E+04  0.25500000920E-02 0. -1.
</event>
<event>
 5   0  0.1784626E-06  0.3299894E+04  0.7818609E-02  0.8162922E-01
       -2   -1    0    0    0  501  0.00000000000E+00  0.00000000000E+00  0.23519454363E+04  0.23519454363E+04  0.25500000920E-02 0. -1.
        2   -1    0    0  501    0  0.00000000000E+00  0.00000000000E+00 -0.11574780186E+04  0.11574780186E+04  0.25500000920E-02 0.  1.
    10030    2    1    2    0    0  0.00000000000E+00  0.00000000000E+00  0.11944674177E+04  0.35094234549E+04  0.32998940246E+04 0.  0.
        2    1    3    3  502    0 -0.24822609084E+02 -0.17629577991E+03 -0.11472329487E+04  0.11609650307E+04  0.25500000920E-02 0.  1.
       -2    1    3    3    0  502  0.24822609084E+02  0.17629577991E+03  0.23417003664E+04  0.23484584241E+04  0.25500000920E-02 0. -1.
</event>
<event>
 5   0  0.5985183E-07  0.3291398E+04  0.7818609E-02  0.8165088E-01
        1   -1    0    0  501    0  0.00000000000E+00  0.00000000000E+00  0.17179964282E+04  0.17179964282E+04  0.50400001928E-02 0.  1.
       -1   -1    0    0    0  501  0.00000000000E+00  0.00000000000E+00 -0.15764444190E+04  0.15764444190E+04  0.50400001928E-02 0. -1.
    10030    2    1    2    0    0  0.00000000000E+00  0.00000000000E+00  0.14155200920E+03  0.32944408473E+04  0.32913984148E+04 0.  0.
        2    1    3    3  502    0 -0.45976516262E+03  0.85953561267E+03  0.13979505273E+04  0.17042450384E+04  0.25500000920E-02 0.  1.
       -2    1    3    3    0  502  0.45976516262E+03 -0.85953561267E+03 -0.12563985181E+04  0.15901958088E+04  0.25500000920E-02 0. -1.
</event>
<event>
 5   0  0.1743810E-06  0.3346191E+04  0.7818609E-02  0.8151241E-01
        2   -1    0    0  501    0  0.00000000000E+00  0.00000000000E+00  0.22698002322E+04  0.22698002322E+04  0.25500000920E-02 0. -1.
       -2   -1    0    0    0  501  0.00000000000E+00  0.00000000000E+00 -0.12332576494E+04  0.12332576494E+04  0.25500000920E-02 0.  1.
    10030    2    1    2    0    0  0.00000000000E+00  0.00000000000E+00  0.10365425828E+04  0.35030578816E+04  0.33461909683E+04 0.  0.
        5    1    3    3  502    0  0.21102990957E+02 -0.11008010608E+04 -0.80055479907E+03  0.13612929104E+04  0.46999998093E+01 0.  1.
       -5    1    3    3    0  502 -0.21102990957E+02  0.11008010608E+04  0.18370973818E+04  0.21417649712E+04  0.46999998093E+01 0. -1.
</event>
<event>
 5   0  0.6085351E-07  0.3284469E+04  0.7818609E-02  0.8166858E-01
       -1   -1    0    0    0  501  0.00000000000E+00  0.00000000000E+00  0.19972620064E+04  0.19972620064E+04  0.50400001928E-02 0. -1.
        1   -1    0    0  501    0  0.00000000000E+00  0.00000000000E+00 -0.13503159855E+04  0.13503159855E+04  0.50400001928E-02 0.  1.
    10030    2    1    2    0    0  0.00000000000E+00  0.00000000000E+00  0.64694602094E+03  0.33475779919E+04  0.32844694028E+04 0.  0.
        1    1    3    3  502    0  0.89278023296E+03  0.28796430845E+03 -0.10503713919E+04  0.14082826592E+04  0.50400001928E-02 0.  1.
       -1    1    3    3    0  502 -0.89278023296E+03 -0.28796430845E+03  0.16973174128E+04  0.19392953327E+04  0.50400001928E-02 0. -1.
</event>
<event>
 5   0  0.5985183E-07  0.3285084E+04  0.7818609E-02  0.8166701E-01
        1   -1    0    0  501    0  0.00000000000E+00  0.00000000000E+00  0.15299785677E+04  0.15299785677E+04  0.50400001928E-02 0.  1.
       -1   -1    0    0    0  501  0.00000000000E+00  0.00000000000E+00 -0.17633866047E+04  0.17633866047E+04  0.50400001928E-02 0. -1.
    10030    2    1    2    0    0  0.00000000000E+00  0.00000000000E+00 -0.23340803700E+03  0.32933651723E+04  0.32850836894E+04 0.  0.
        2    1    3    3  502    0 -0.13743727862E+04  0.35990821529E+03 -0.94310558468E+03  0.17052514837E+04  0.25500000920E-02 0. -1.
       -2    1    3    3    0  502  0.13743727862E+04 -0.35990821529E+03  0.70969754768E+03  0.15881136886E+04  0.25500000920E-02 0.  1.
</event>
<event>
 5   0  0.6085351E-07  0.3292398E+04  0.7818609E-02  0.8164832E-01
       -1   -1    0    0    0  501  0.00000000000E+00  0.00000000000E+00  0.16050129816E+04  0.16050129816E+04  0.50400001928E-02 0. -1.
        1   -1    0    0  501    0  0.00000000000E+00  0.00000000000E+00 -0.16884417255E+04  0.16884417255E+04  0.50400001928E-02 0.  1.
    10030    2    1    2    0    0  0.00000000000E+00  0.00000000000E+00 -0.83428743869E+02  0.32934547071E+04  0.32923978424E+04 0.  0.
        1    1    3    3  502    0 -0.45722976827E+03  0.15044817239E+04  0.44572694305E+03  0.16343796457E+04  0.50400001928E-02 0. -1.
       -1    1    3    3    0  502  0.45722976827E+03 -0.15044817239E+04 -0.52915568691E+03  0.16590750614E+04  0.50400001928E-02 0.  1.
</event>
<event>
 5   0  0.1743810E-06  0.3295300E+04  0.7818609E-02  0.8164092E-01
       -2   -1    0    0    0  501  0.00000000000E+00  0.00000000000E+00  0.31567062089E+04  0.31567062090E+04  0.25500000920E-02 0.  1.
        2   -1    0    0  501    0  0.00000000000E+00  0.00000000000E+00 -0.85999488229E+03  0.85999488229E+03  0.25500000920E-02 0. -1.
    10030    2    1    2    0    0  0.00000000000E+00  0.00000000000E+00  0.22967113267E+04  0.40167010912E+04  0.32953004018E+04 0.  0.
        5    1    3    3  502    0  0.10144335462E+04  0.50021885014E+03 -0.31202554136E+03  0.11733185186E+04  0.46999998093E+01 0. -1.
       -5    1    3    3    0  502 -0.10144335462E+04 -0.50021885014E+03  0.26087368680E+04  0.28433825726E+04  0.46999998093E+01 0.  1.
</event>
<event>
 5   0  0.6023446E-07  0.3301994E+04  0.7818609E-02  0.8162388E-01
       -1   -1    0    0    0  501  0.00000000000E+00  0.00000000000E+00  0.16856094726E+04  0.16856094726E+04  0.50400001928E-02 0.  1.
        1   -1    0    0  501    0  0.00000000000E+00  0.00000000000E+00 -0.16170950823E+04  0.16170950824E+04  0.50400001928E-02 0. -1.
    10030    2    1    2    0    0  0.00000000000E+00  0.00000000000E+00  0.68514390248E+02  0.33027045550E+04  0.33019938152E+04 0.  0.
        5    1    3    3  502    0 -0.15470649688E+04 -0.33599779248E+03 -0.43431366649E+03  0.16416318056E+04  0.46999998093E+01 0. -1.
       -5    1    3    3    0  502  0.15470649688E+04  0.33599779248E+03  0.50282805673E+03  0.16610727494E+04  0.46999998093E+01 0.  1.
</event>
<event>
 5   0  0.5858859E-07  0.3193315E+04  0.7818609E-02  0.8190585E-01
        1   -1    0    0  501    0  0.00000000000E+00  0.00000000000E+00  0.18491828987E+04  0.18491828987E+04  0.50400001928E-02 0.  1.
       -1   -1    0    0    0  501  0.00000000000E+00  0.00000000000E+00 -0.13786173338E+04  0.13786173338E+04  0.50400001928E-02 0. -1.
    10030    2    1    2    0    0  0.00000000000E+00  0.00000000000E+00  0.47056556494E+03  0.32278002325E+04  0.31933152663E+04 0.  0.
        3    1    3    3  502    0  0.30937310131E+03 -0.15405209830E+04 -0.51326399866E+02  0.15721167337E+04  0.10100000352E+00 0.  1.
       -3    1    3    3    0  502 -0.30937310131E+03  0.15405209830E+04  0.52189196481E+03  0.16556834988E+04  0.10100000352E+00 0. -1.
</event>
<event>
 5   0  0.1728937E-06  0.3173139E+04  0.7818609E-02  0.8195947E-01
        2   -1    0    0  501    0  0.00000000000E+00  0.00000000000E+00  0.11320986588E+04  0.11320986588E+04  0.25500000920E-02 0. -1.
       -2   -1    0    0    0  501  0.00000000000E+00  0.00000000000E+00 -0.22234840003E+04  0.22234840003E+04  0.25500000920E-02 0.  1.
    10030    2    1    2    0    0  0.00000000000E+00  0.00000000000E+00 -0.10913853415E+04  0.33555826592E+04  0.31731393002E+04 0.  0.
        1    1    3    3  502    0  0.14803850682E+03  0.79005473904E+03  0.90083738299E+03  0.12073151539E+04  0.50400001928E-02 0. -1.
       -1    1    3    3    0  502 -0.14803850682E+03 -0.79005473904E+03 -0.19922227245E+04  0.21482675053E+04  0.50400001928E-02 0.  1.
</event>
<event>
 5   0  0.5858859E-07  0.3300803E+04  0.7818609E-02  0.8162691E-01
       -1   -1    0    0    0  501  0.00000000000E+00  0.00000000000E+00  0.10509337715E+04  0.10509337716E+04  0.50400001928E-02 0. -1.
        1   -1    0    0  501    0  0.00000000000E+00  0.00000000000E+00 -0.25918148884E+04  0.25918148884E+04  0.50400001928E-02 0.  1.
    10030    2    1    2    0    0  0.00000000000E+00  0.00000000000E+00 -0.15408811169E+04  0.36427486600E+04  0.33008034148E+04 0.  0.
        3    1    3    3  502    0 -0.94814303772E+03 -0.64894144042E+03  0.53708640366E+03  0.12682909872E+04  0.10100000352E+00 0. -1.
       -3    1    3    3    0  502  0.94814303772E+03  0.64894144042E+03 -0.20779675205E+04  0.23744576728E+04  0.10100000352E+00 0.  1.
</event>
<event>
 5   0  0.1832626E-06  0.3047868E+04  0.7818609E-02  0.8230193E-01
        2   -1    0    0  501    0  0.00000000000E+00  0.00000000000E+00  0.13281676062E+04  0.13281676062E+04  0.25500000920E-02 0.  1.
       -2   -1    0    0    0  501  0.00000000000E+00  0.00000000000E+00 -0.17485550265E+04  0.17485550265E+04  0.25500000920E-02 0. -1.
    10030    2    1    2    0    0  0.00000000000E+00  0.00000000000E+00 -0.42038742023E+03  0.30767226327E+04  0.30478675456E+04 0.  0.
        3    1    3    3  502    0 -0.36741842258E+03 -0.56717648015E+01 -0.17031633178E+04  0.17423529389E+04  0.10100000352E+00 0. -1.
       -3    1    3    3    0  502  0.36741842258E+03  0.56717648015E+01  0.12827758976E+04  0.13343696939E+04  0.10100000352E+00 0.  1.
</event>
<event>
 5   0  0.6085351E-07  0.3328743E+04  0.7818609E-02  0.8155620E-01
       -1   -1    0    0    0  501  0.00000000000E+00  0.00000000000E+00  0.14151489797E+04  0.14151489797E+04  0.50400001928E-02 0. -1.
        1   -1    0    0  501    0  0.00000000000E+00  0.00000000000E+00 -0.19574843100E+04  0.19574843100E+04  0.50400001928E-02 0.  1.
    10030    2    1    2    0    0  0.00000000000E+00  0.00000000000E+00 -0.54233533027E+03  0.33726332897E+04  0.33287426600E+04 0.  0.
        1    1    3    3  502    0  0.77565845343E+03 -0.12892992572E+04 -0.99202131631E+03  0.18022333098E+04  0.50400001928E-02 0.  1.
       -1    1    3    3    0  502 -0.77565845343E+03  0.12892992572E+04  0.44968598604E+03  0.15703999799E+04  0.50400001928E-02 0. -1.
</event>
<event>
 5   0  0.6085351E-07  0.3291942E+04  0.7818609E-02  0.8164949E-01
        1   -1    0    0  501    0  0.00000000000E+00  0.00000000000E+00  0.11365959156E+04  0.11365959156E+04  0.50400001928E-02 0.  1.
       -1   -1    0    0    0  501  0.00000000000E+00  0.00000000000E+00 -0.23836263083E+04  0.23836263083E+04  0.50400001928E-02 0. -1.
    10030    2    1    2    0    0  0.00000000000E+00  0.00000000000E+00 -0.12470303927E+04  0.35202222239E+04  0.32919416315E+04 0.  0.
        1    1    3    3  502    0  0.72652383784E+03  0.70302064002E+03 -0.20124893399E+04  0.22521519155E+04  0.50400001928E-02 0. -1.
       -1    1    3    3    0  502 -0.72652383784E+03 -0.70302064002E+03  0.76545894719E+03  0.12680703084E+04  0.50400001928E-02 0.  1.
</event>
<event>
 5   0  0.1728937E-06  0.3289698E+04  0.7818609E-02  0.8165522E-01
       -2   -1    0    0    0  501  0.00000000000E+00  0.00000000000E+00  0.86557158274E+03  0.86557158274E+03  0.25500000920E-02 0. -1.
        2   -1    0    0  501    0  0.00000000000E+00  0.00000000000E+00 -0.31257125736E+04  0.31257125736E+04  0.25500000920E-02 0.  1.
    10030    2    1    2    0    0  0.00000000000E+00  0.00000000000E+00 -0.22601409909E+04  0.39912841564E+04  0.32896978460E+04 0.  0.
        1    1    3    3  502    0 -0.28299168421E+03  0.34707515640E+03 -0.30503258628E+04  0.30830234068E+04  0.50400001928E-02 0.  1.
       -1    1    3    3    0  502  0.28299168421E+03 -0.34707515640E+03  0.79018487188E+03  0.90826074962E+03  0.50400001928E-02 0. -1.
</event>
<event>
 5   0  0.5858859E-07  0.3333552E+04  0.7818609E-02  0.8154410E-01
       -1   -1    0    0    0  501  0.00000000000E+00  0.00000000000E+00  0.15074773176E+04  0.15074773176E+04  0.50400001928E-02 0.  1.
        1   -1    0    0  501    0  0.00000000000E+00  0.00000000000E+00 -0.18429079800E+04  0.18429079800E+04  0.50400001928E-02 0. -1.
    10030    2    1    2    0    0  0.00000000000E+00  0.00000000000E+00 -0.33543066236E+03  0.33503852976E+04  0.33335518465E+04 0.  0.
        3    1    3    3  502    0  0.66793939977E+03  0.12372290197E+04 -0.10673685957E+04  0.17652632716E+04  0.10100000352E+00 0. -1.
       -3    1    3    3    0  502 -0.66793939977E+03 -0.12372290197E+04  0.73193793331E+03  0.15851220260E+04  0.10100000352E+00 0.  1.
</event>
<event>
 5   0  0.6085351E-07  0.3376461E+04  0.7818609E-02  0.8143708E-01
        1   -1    0    0  501    0  0.00000000000E+00  0.00000000000E+00  0.17259828525E+04  0.17259828525E+04  0.50400001928E-02 0. -1.
       -1   -1    0    0    0  501  0.00000000000E+00  0.00000000000E+00 -0.16513038971E+04  0.16513038971E+04  0.50400001928E-02 0.  1.
    10030    2    1    2    0    0  0.00000000000E+00  0.00000000000E+00  0.74678955379E+02  0.33772867496E+04  0.33764609938E+04 0.  0.
        1    1    3    3  502    0 -0.68652805666E+03 -0.92428287396E+03 -0.11976699840E+04  0.16613347027E+04  0.50400001928E-02 0.  1.
       -1    1    3    3    0  502  0.68652805666E+03  0.92428287396E+03  0.12723489394E+04  0.17159520469E+04  0.50400001928E-02 0. -1.
</event>
<event>
 5   0  0.1832626E-06  0.3123239E+04  0.7818609E-02  0.8209389E-01
       -2   -1    0    0    0  501  0.00000000000E+00  0.00000000000E+00  0.19739512814E+04  0.19739512814E+04  0.25500000920E-02 0.  1.
        2   -1    0    0  501    0  0.00000000000E+00  0.00000000000E+00 -0.12354179258E+04  0.12354179258E+04  0.25500000920E-02 0. -1.
    10030    2    1    2    0    0  0.00000000000E+00  0.00000000000E+00  0.73853335560E+03  0.32093692072E+04  0.31232385741E+04 0.  0.
        3    1    3    3  502    0  0.16764257903E+01 -0.20739190691E+03  0.19597362010E+04  0.19706801367E+04  0.10100000352E+00 0.  1.
       -3    1    3    3    0  502 -0.16764257903E+01  0.20739190691E+03 -0.12212028454E+04  0.12386890705E+04  0.10100000352E+00 0. -1.
</event>
<event>
 5   0  0.1743810E-06  0.3316159E+04  0.7818609E-02  0.8158796E-01
       -2   -1    0    0    0  501  0.00000000000E+00  0.00000000000E+00  0.10217144687E+04  0.10217144687E+04  0.25500000920E-02 0.  1.
        2   -1    0    0  501    0  0.00000000000E+00  0.00000000000E+00 -0.26907989103E+04  0.26907989103E+04  0.25500000920E-02 0. -1.
    10030    2    1    2    0    0  0.00000000000E+00  0.00000000000E+00 -0.16690844416E+04  0.37125133790E+04  0.33161593321E+04 0.  0.
        5    1    3    3  502    0 -0.10176128263E+04  0.10908170795E+04 -0.16447763724E+04  0.22205245260E+04  0.46999998093E+01 0. -1.
       -5    1    3    3    0  502  0.10176128263E+04 -0.10908170795E+04 -0.24308069199E+02  0.14919888530E+04  0.46999998093E+01 0.  1.
</event>
<event>
 5   0  0.1784626E-06  0.3236072E+04  0.7818609E-02  0.8179355E-01
       -2   -1    0    0    0  501  0.00000000000E+00  0.00000000000E+00  0.22941548931E+04  0.22941548931E+04  0.25500000920E-02 0.  1.
        2   -1    0    0  501    0  0.00000000000E+00  0.00000000000E+00 -0.11411788127E+04  0.11411788127E+04  0.25500000920E-02 0. -1.
    10030    2    1    2    0    0  0.00000000000E+00  0.00000000000E+00  0.11529760804E+04  0.34353337058E+04  0.32360722841E+04 0.  0.
        2    1    3    3  502    0  0.34896370267E+03 -0.15137946035E+04  0.96201637291E+02  0.15564718187E+04  0.25500000920E-02 0. -1.
       -2    1    3    3    0  502 -0.34896370267E+03  0.15137946035E+04  0.10567744431E+04  0.18788618871E+04  0.25500000920E-02 0.  1.
</event>
<event>
 5   0  0.1784626E-06  0.3397207E+04  0.7818609E-02  0.8138592E-01
        2   -1    0    0  501    0  0.00000000000E+00  0.00000000000E+00  0.16164917243E+04  0.16164917243E+04  0.25500000920E-02 0. -1.
       -2   -1    0    0    0  501  0.00000000000E+00  0.00000000000E+00 -0.17848859169E+04  0.17848859169E+04  0.25500000920E-02 0.  1.
    10030    2    1    2    0    0  0.00000000000E+00  0.00000000000E+00 -0.16839419254E+03  0.34013776412E+04  0.33972066840E+04 0.  0.
        2    1    3    3  502    0 -0.30312146595E+03 -0.16114580975E+04 -0.52810753432E+03  0.17226657804E+04  0.25500000920E-02 0.  1.
       -2    1    3    3    0  502  0.30312146595E+03  0.16114580975E+04  0.35971334178E+03  0.16787118608E+04  0.25500000920E-02 0. -1.
</event>
<event>
 5   0  0.1832626E-06  0.3349746E+04  0.7818609E-02  0.8150352E-01
        2   -1    0    0  501    0  0.00000000000E+00  0.00000000000E+00  0.17715603461E+04  0.17715603461E+04  0.25500000920E-02 0. -1.
       -2   -1    0    0    0  501  0.00000000000E+00  0.00000000000E+00 -0.15834621929E+04  0.15834621929E+04  0.25500000920E-02 0.  1.
    10030    2    1    2    0    0  0.00000000000E+00  0.00000000000E+00  0.18809815312E+03  0.33550225390E+04  0.33497455608E+04 0.  0.
        3    1    3    3  502    0  0.49537869795E+03 -0.25591211233E+03 -0.14877766716E+04  0.15888267679E+04  0.10100000352E+00 0.  1.
       -3    1    3    3    0  502 -0.49537869795E+03  0.25591211233E+03  0.16758748247E+04  0.17661957711E+04  0.10100000352E+00 0. -1.
</event>
<event>
 5   0  0.5985183E-07  0.3296383E+04  0.7818609E-02  0.8163816E-01
        1   -1    0    0  501    0  0.00000000000E+00  0.00000000000E+00  0.16021643270E+04  0.16021643270E+04  0.50400001928E-02 0.  1.
       -1   -1    0    0    0  501  0.00000000000E+00  0.00000000000E+00 -0.16955409348E+04  0.16955409348E+04  0.50400001928E-02 0. -1.
    10030    2    1    2    0    0  0.00000000000E+00  0.00000000000E+00 -0.93376607747E+02  0.32977052618E+04  0.32963829879E+04 0.  0.
        2    1    3    3  502    0  0.10580880785E+04  0.13462043013E+03  0.12103435440E+04  0.16132589800E+04  0.25500000920E-02 0.  1.
       -2    1    3    3    0  502 -0.10580880785E+04 -0.13462043013E+03 -0.13037201518E+04  0.16844462818E+04  0.25500000920E-02 0. -1.
</event>
<event>
 5   0  0.1728937E-06  0.3298324E+04  0.7818609E-02  0.8163322E-01
        2   -1    0    0  501    0  0.00000000000E+00  0.00000000000E+00  0.14843708962E+04  0.14843708962E+04  0.25500000920E-02 0.  1.
       -2   -1    0    0    0  501  0.00000000000E+00  0.00000000000E+00 -0.18322479508E+04  0.18322479508E+04  0.25500000920E-02 0. -1.
    10030    2    1    2    0    0  0.00000000000E+00  0.00000000000E+00 -0.34787705454E+03  0.33166188470E+04  0.32983241398E+04 0.  0.
        1    1    3    3  502    0 -0.42891523486E+02 -0.14677824808E+04  0.58089853187E+03  0.15791352690E+04  0.50400001928E-02 0.  1.
       -1    1    3    3    0  502  0.42891523486E+02  0.14677824808E+04 -0.92877558641E+03  0.17374835779E+04  0.50400001928E-02 0. -1.
</event>
<event>
 5   0  0.5858859E-07  0.3249961E+04  0.7818609E-02  0.8175746E-01
       -1   -1    0    0    0  501  0.00000000000E+00  0.00000000000E+00  0.25581379467E+04  0.25581379467E+04  0.50400001928E-02 0.  1.
        1   -1    0    0  501    0  0.00000000000E+00  0.00000000000E+00 -0.10322200197E+04  0.10322200197E+04  0.50400001928E-02 0. -1.
    10030    2    1    2    0    0  0.00000000000E+00  0.00000000000E+00  0.15259179270E+04  0.35903579664E+04  0.32499607393E+04 0.  0.
        3    1    3    3  502    0  0.68837947768E+03  0.44302738126E+03 -0.78778185642E+03  0.11361073142E+04  0.10100000352E+00 0. -1.
       -3    1    3    3    0  502 -0.68837947768E+03 -0.44302738126E+03  0.23136997834E+04  0.24542506522E+04  0.10100000352E+00 0.  1.
</event>
<event>
 5   0  0.5858859E-07  0.2751784E+04  0.7818609E-02  0.8318396E-01
        1   -1    0    0  501    0  0.00000000000E+00  0.00000000000E+00  0.18400317385E+04  0.18400317385E+04  0.50400001928E-02 0. -1.
       -1   -1    0    0    0  501  0.00000000000E+00  0.00000000000E+00 -0.10288295946E+04  0.10288295946E+04  0.50400001928E-02 0.  1.
    10030    2    1    2    0    0  0.00000000000E+00  0.00000000000E+00  0.81120214395E+03  0.28688613331E+04  0.27517842267E+04 0.  0.
        3    1    3    3  502    0  0.40732959937E+03  0.39198120506E+03 -0.90216561135E+03  0.10646452311E+04  0.10100000352E+00 0.  1.
       -3    1    3    3    0  502 -0.40732959937E+03 -0.39198120506E+03  0.17133677553E+04  0.18042161020E+04  0.10100000352E+00 0. -1.
</event>
<event>
 5   0  0.5988516E-07  0.3313190E+04  0.7818609E-02  0.8159547E-01
        1   -1    0    0  501    0  0.00000000000E+00  0.00000000000E+00  0.19604268592E+04  0.19604268592E+04  0.50400001928E-02 0. -1.
       -1   -1    0    0    0  501  0.00000000000E+00  0.00000000000E+00 -0.13998520620E+04  0.13998520620E+04  0.50400001928E-02 0.  1.
    10030    2    1    2    0    0  0.00000000000E+00  0.00000000000E+00  0.56057479719E+03  0.33602789211E+04  0.33131903544E+04 0.  0.
        4    1    3    3  502    0  0.42017208252E+03  0.97852278064E+03  0.15672804667E+04  0.18948406491E+04  0.12699999809E+01 0. -1.
       -4    1    3    3    0  502 -0.42017208252E+03 -0.97852278064E+03 -0.10067056695E+04  0.14654382720E+04  0.12699999809E+01 0.  1.
</event>
<event>
 5   0  0.1696681E-06  0.3278377E+04  0.7818609E-02  0.8168419E-01
       -2   -1    0    0    0  501  0.00000000000E+00  0.00000000000E+00  0.14897394722E+04  0.14897394722E+04  0.25500000920E-02 0.  1.
        2   -1    0    0  501    0  0.00000000000E+00  0.00000000000E+00 -0.18036299147E+04  0.18036299147E+04  0.25500000920E-02 0. -1.
    10030    2    1    2    0    0  0.00000000000E+00  0.00000000000E+00 -0.31389044248E+03  0.32933693869E+04  0.32783768405E+04 0.  0.
        4    1    3    3  502    0 -0.15615078416E+04  0.28096459230E+03 -0.57076257724E+03  0.16861255510E+04  0.12699999809E+01 0.  1.
       -4    1    3    3    0  502  0.15615078416E+04 -0.28096459230E+03  0.25687213475E+03  0.16072438359E+04  0.12699999809E+01 0. -1.
</event>
<event>
 5   0  0.5858859E-07  0.3299955E+04  0.7818609E-02  0.8162907E-01
       -1   -1    0    0    0  501  0.00000000000E+00  0.00000000000E+00  0.12616122202E+04  0.12616122202E+04  0.50400001928E-02 0.  1.
        1   -1    0    0  501    0  0.00000000000E+00  0.00000000000E+00 -0.21578937247E+04  0.21578937247E+04  0.50400001928E-02 0. -1.
    10030    2    1    2    0    0  0.00000000000E+00  0.00000000000E+00 -0.89628150447E+03  0.34195059450E+04  0.32999546016E+04 0.  0.
        3    1    3    3  502    0  0.59646582234E+02  0.65137942069E+03 -0.20178031819E+04  0.21211748055E+04  0.10100000352E+00 0. -1.
       -3    1    3    3    0  502 -0.59646582234E+02 -0.65137942069E+03  0.11215216774E+04  0.12983311394E+04  0.10100000352E+00 0.  1.
</event>
<event>
 5   0  0.1743810E-06  0.3305588E+04  0.7818609E-02  0.8161475E-01
        2   -1    0    0  501    0  0.00000000000E+00  0.00000000000E+00  0.17999797700E+04  0.17999797700E+04  0.25500000920E-02 0.  1.
       -2   -1    0    0    0  501  0.00000000000E+00  0.00000000000E+00 -0.15176436381E+04  0.15176436381E+04  0.25500000920E-02 0. -1.
    10030    2    1    2    0    0  0.00000000000E+00  0.00000000000E+00  0.28233613192E+03  0.33176234081E+04  0.33055879033E+04 0.  0.
        5    1    3    3  502    0  0.54787863830E+03  0.96870654044E+03  0.13675591628E+04  0.17631799448E+04  0.46999998093E+01 0.  1.
       -5    1    3    3    0  502 -0.54787863830E+03 -0.96870654044E+03 -0.10852230309E+04  0.15544434633E+04  0.46999998093E+01 0. -1.
</event>
<event>
 5   0  0.5858859E-07  0.3281964E+04  0.7818609E-02  0.8167500E-01
        1   -1    0    0  501    0  0.00000000000E+00  0.00000000000E+00  0.15501589864E+04  0.15501589864E+04  0.50400001928E-02 0. -1.
       -1   -1    0    0    0  501  0.00000000000E+00  0.00000000000E+00 -0.17371258088E+04  0.17371258088E+04  0.50400001928E-02 0.  1.
    10030    2    1    2    0    0  0.00000000000E+00  0.00000000000E+00 -0.18696682241E+03  0.32872847952E+04  0.32819635482E+04 0.  0.
        3    1    3    3  502    0  0.11095078846E+04  0.16105062160E+03 -0.12937067425E+04  0.17119060122E+04  0.10100000352E+00 0.  1.
       -3    1    3    3    0  502 -0.11095078846E+04 -0.16105062160E+03  0.11067399201E+04  0.15753787830E+04  0.10100000352E+00 0. -1.
</event>
<event>
 5   0  0.1728937E-06  0.3324006E+04  0.7818609E-02  0.8156814E-01
       -2   -1    0    0    0  501  0.00000000000E+00  0.00000000000E+00  0.10724105586E+04  0.10724105586E+04  0.25500000920E-02 0. -1.
        2   -1    0    0  501    0  0.00000000000E+00  0.00000000000E+00 -0.25757422683E+04  0.25757422683E+04  0.25500000920E-02 0.  1.
    10030    2    1    2    0    0  0.00000000000E+00  0.00000000000E+00 -0.15033317097E+04  0.36481528269E+04  0.33240055383E+04 0.  0.
        1    1    3    3  502    0  0.13352765388E+04 -0.30014039416E+03 -0.17865991477E+04  0.22505519780E+04  0.50400001928E-02 0.  1.
       -1    1    3    3    0  502 -0.13352765388E+04  0.30014039416E+03  0.28326743800E+03  0.13976008488E+04  0.50400001928E-02 0. -1.
</event>
<event>
 5   0  0.5858859E-07  0.2881618E+04  0.7818609E-02  0.8278368E-01
       -1   -1    0    0    0  501  0.00000000000E+00  0.00000000000E+00  0.14966465051E+04  0.14966465051E+04  0.50400001928E-02 0.  1.
        1   -1    0    0  501    0  0.00000000000E+00  0.00000000000E+00 -0.13870550145E+04  0.13870550145E+04  0.50400001928E-02 0. -1.
    10030    2    1    2    0    0  0.00000000000E+00  0.00000000000E+00  0.10959149065E+03  0.28837015196E+04  0.28816183230E+04 0.  0.
        3    1    3    3  502    0 -0.91962420700E+03  0.15824257620E+03  0.11533970281E+04  0.14836017356E+04  0.10100000352E+00 0.  1.
       -3    1    3    3    0  502  0.91962420700E+03 -0.15824257620E+03 -0.10438055375E+04  0.14000997841E+04  0.10100000352E+00 0. -1.
</event>
<event>
 5   0  0.1743810E-06  0.3307308E+04  0.7818609E-02  0.8161038E-01
        2   -1    0    0  501    0  0.00000000000E+00  0.00000000000E+00  0.25459119939E+04  0.25459119939E+04  0.25500000920E-02 0. -1.
       -2   -1    0    0    0  501  0.00000000000E+00  0.00000000000E+00 -0.10741030856E+04  0.10741030856E+04  0.25500000920E-02 0.  1.
    10030    2    1    2    0    0  0.00000000000E+00  0.00000000000E+00  0.14718089083E+04  0.36200150794E+04  0.33073082276E+04 0.  0.
        5    1    3    3  502    0  0.11941788002E+04 -0.82237136116E+03 -0.13437807780E+03  0.14561721122E+04  0.46999998093E+01 0.  1.
       -5    1    3    3    0  502 -0.11941788002E+04  0.82237136116E+03  0.16061869861E+04  0.21638429672E+04  0.46999998093E+01 0. -1.
</event>
<event>
 5   0  0.1832626E-06  0.3242643E+04  0.7818609E-02  0.8177645E-01
        2   -1    0    0  501    0  0.00000000000E+00  0.00000000000E+00  0.22264387898E+04  0.22264387898E+04  0.25500000920E-02 0. -1.
       -2   -1    0    0    0  501  0.00000000000E+00  0.00000000000E+00 -0.11806675456E+04  0.11806675456E+04  0.25500000920E-02 0.  1.
    10030    2    1    2    0    0  0.00000000000E+00  0.00000000000E+00  0.10457712442E+04  0.34071063354E+04  0.32426433793E+04 0.  0.
        3    1    3    3  502    0  0.97284682151E+03  0.71030715917E+03 -0.61738237948E+03  0.13535613068E+04  0.10100000352E+00 0.  1.
       -3    1    3    3    0  502 -0.97284682151E+03 -0.71030715917E+03  0.16631536237E+04  0.20535450286E+04  0.10100000352E+00 0. -1.
</event>
<event>
 5   0  0.1832626E-06  0.3273819E+04  0.7818609E-02  0.8169589E-01
        2   -1    0    0  501    0  0.00000000000E+00  0.00000000000E+00  0.21787415587E+04  0.21787415587E+04  0.25500000920E-02 0. -1.
       -2   -1    0    0    0  501  0.00000000000E+00  0.00000000000E+00 -0.12298259346E+04  0.12298259346E+04  0.25500000920E-02 0.  1.
    10030    2    1    2    0    0  0.00000000000E+00  0.00000000000E+00  0.94891562412E+03  0.34085674933E+04  0.32738190993E+04 0.  0.
        3    1    3    3  502    0  0.84947873595E+03  0.54223910009E+03 -0.86853105619E+03  0.13304072949E+04  0.10100000352E+00 0.  1.
       -3    1    3    3    0  502 -0.84947873595E+03 -0.54223910009E+03  0.18174466803E+04  0.20781601985E+04  0.10100000352E+00 0. -1.
</event>
<event>
 5   0  0.6085351E-07  0.3280133E+04  0.7818609E-02  0.8167969E-01
       -1   -1    0    0    0  501  0.00000000000E+00  0.00000000000E+00  0.11506062206E+04  0.11506062206E+04  0.50400001928E-02 0. -1.
        1   -1    0    0  501    0  0.00000000000E+00  0.00000000000E+00 -0.23377405135E+04  0.23377405135E+04  0.50400001928E-02 0.  1.
    10030    2    1    2    0    0  0.00000000000E+00  0.00000000000E+00 -0.11871342929E+04  0.34883467341E+04  0.32801333979E+04 0.  0.
        1    1    3    3  502    0  0.72258998845E+03  0.13153255493E+04  0.10993817171E+03  0.15047604440E+04  0.50400001928E-02 0. -1.
       -1    1    3    3    0  502 -0.72258998845E+03 -0.13153255493E+04 -0.12970724646E+04  0.19835862902E+04  0.50400001928E-02 0.  1.
</event>
<event>
 5   0  0.5988516E-07  0.3228895E+04  0.7818609E-02  0.8181227E-01
       -1   -1    0    0    0  501  0.00000000000E+00  0.00000000000E+00  0.14304959882E+04  0.14304959882E+04  0.50400001928E-02 0.  1.
        1   -1    0    0  501    0  0.00000000000E+00  0.00000000000E+00 -0.18220541459E+04  0.18220541459E+04  0.50400001928E-02 0. -1.
    10030    2    1    2    0    0  0.00000000000E+00  0.00000000000E+00 -0.39155815766E+03  0.32525501341E+04  0.32288952576E+04 0.  0.
        4    1    3    3  502    0 -0.13046158970E+04 -0.88482455787E+03 -0.54690465400E+03  0.16685453097E+04  0.12699999809E+01 0. -1.
       -4    1    3    3    0  502  0.13046158970E+04  0.88482455787E+03  0.15534649634E+03  0.15840048244E+04  0.12699999809E+01 0.  1.
</event>
<event>
 5   0  0.6085351E-07  0.3318315E+04  0.7818609E-02  0.8158251E-01
        1   -1    0    0  501    0  0.00000000000E+00  0.00000000000E+00  0.15443052313E+04  0.15443052313E+04  0.50400001928E-02 0. -1.
       -1   -1    0    0    0  501  0.00000000000E+00  0.00000000000E+00 -0.17825516793E+04  0.17825516793E+04  0.50400001928E-02 0.  1.
    10030    2    1    2    0    0  0.00000000000E+00  0.00000000000E+00 -0.23824644798E+03  0.33268569107E+04  0.33183151650E+04 0.  0.
        1    1    3    3  502    0  0.15926871459E+04 -0.46457116338E+03 -0.13720219492E+03  0.16647231460E+04  0.50400001928E-02 0. -1.
       -1    1    3    3    0  502 -0.15926871459E+04  0.46457116338E+03 -0.10104425306E+03  0.16621337647E+04  0.50400001928E-02 0.  1.
</event>
<event>
 5   0  0.5685000E-07  0.3283150E+04  0.7818609E-02  0.8167196E-01
       -3   -1    0    0    0  501  0.00000000000E+00  0.00000000000E+00  0.24500715768E+04  0.24500715789E+04  0.10100000352E+00 0.  1.
        3   -1    0    0  501    0  0.00000000000E+00  0.00000000000E+00 -0.10998732624E+04  0.10998732670E+04  0.10100000352E+00 0. -1.
    10030    2    1    2    0    0  0.00000000000E+00  0.00000000000E+00  0.13501983144E+04  0.35499448459E+04  0.32831498474E+04 0.  0.
        1    1    3    3  502    0  0.52326964641E+03  0.57346499562E+03  0.22390446114E+04  0.23698088522E+04  0.50400001928E-02 0.  1.
       -1    1    3    3    0  502 -0.52326964641E+03 -0.57346499562E+03 -0.88884629694E+03  0.11801359937E+04  0.50400001928E-02 0. -1.
</event>
<event>
 5   0  0.6023446E-07  0.3273603E+04  0.7818609E-02  0.8169645E-01
        1   -1    0    0  501    0  0.00000000000E+00  0.00000000000E+00  0.22548961940E+04  0.22548961940E+04  0.50400001928E-02 0.  1.
       -1   -1    0    0    0  501  0.00000000000E+00  0.00000000000E+00 -0.11881341336E+04  0.11881341336E+04  0.50400001928E-02 0. -1.
    10030    2    1    2    0    0  0.00000000000E+00  0.00000000000E+00  0.10667620604E+04  0.34430303277E+04  0.32736029912E+04 0.  0.
        5    1    3    3  502    0  0.37429528664E+03  0.14821861717E+04 -0.81805418169E+02  0.15309105218E+04  0.46999998093E+01 0. -1.
       -5    1    3    3    0  502 -0.37429528664E+03 -0.14821861717E+04  0.11485674786E+04  0.19121198059E+04  0.46999998093E+01 0.  1.
</event>
<event>
 5   0  0.5988516E-07  0.2982220E+04  0.7818609E-02  0.8248826E-01
       -1   -1    0    0    0  501  0.00000000000E+00  0.00000000000E+00  0.15741231550E+04  0.15741231550E+04  0.50400001928E-02 0.  1.
        1   -1    0    0  501    0  0.00000000000E+00  0.00000000000E+00 -0.14124746190E+04  0.14124746191E+04  0.50400001928E-02 0. -1.
    10030    2    1    2    0    0  0.00000000000E+00  0.00000000000E+00  0.16164853598E+03  0.29865977741E+04  0.29822199810E+04 0.  0.
        4    1    3    3  502    0  0.35009459811E+03  0.12229311178E+04  0.85996418459E+03  0.15354695563E+04  0.12699999809E+01 0.  1.
       -4    1    3    3    0  502 -0.35009459811E+03 -0.12229311178E+04 -0.69831564861E+03  0.14511282178E+04  0.12699999809E+01 0. -1.
</event>
<event>
 5   0  0.5985183E-07  0.3206399E+04  0.7818609E-02  0.8187129E-01
        1   -1    0    0  501    0  0.00000000000E+00  0.00000000000E+00  0.15102398714E+04  0.15102398714E+04  0.50400001928E-02 0. -1.
       -1   -1    0    0    0  501  0.00000000000E+00  0.00000000000E+00 -0.17018806529E+04  0.17018806529E+04  0.50400001928E-02 0.  1.
    10030    2    1    2    0    0  0.00000000000E+00  0.00000000000E+00 -0.19164078153E+03  0.32121205243E+04  0.32063986143E+04 0.  0.
        2    1    3    3  502    0 -0.26653024422E+02  0.15338376162E+04 -0.56235500773E+03  0.16338945411E+04  0.25500000920E-02 0. -1.
       -2    1    3    3    0  502  0.26653024422E+02 -0.15338376162E+04  0.37071422620E+03  0.15782259832E+04  0.25500000920E-02 0.  1.
</event>
<event>
 5   0  0.1784626E-06  0.3211207E+04  0.7818609E-02  0.8185864E-01
        2   -1    0    0  501    0  0.00000000000E+00  0.00000000000E+00  0.14969111477E+04  0.14969111477E+04  0.25500000920E-02 0.  1.
       -2   -1    0    0    0  501  0.00000000000E+00  0.00000000000E+00 -0.17221881635E+04  0.17221881635E+04  0.25500000920E-02 0. -1.
    10030    2    1    2    0    0  0.00000000000E+00  0.00000000000E+00 -0.22527701575E+03  0.32190993112E+04  0.32112070381E+04 0.  0.
        2    1    3    3  502    0  0.93214483929E+03 -0.36176690556E+03  0.11467107041E+04  0.15214186584E+04  0.25500000920E-02 0.  1.
       -2    1    3    3    0  502 -0.93214483929E+03  0.36176690556E+03 -0.13719877198E+04  0.16976806528E+04  0.25500000920E-02 0. -1.
</event>
<event>
 5   0  0.6023446E-07  0.3289055E+04  0.7818609E-02  0.8165686E-01
        1   -1    0    0  501    0  0.00000000000E+00  0.00000000000E+00  0.26907310786E+04  0.26907310786E+04  0.50400001928E-02 0. -1.
       -1   -1    0    0    0  501  0.00000000000E+00  0.00000000000E+00 -0.10051064550E+04  0.10051064550E+04  0.50400001928E-02 0.  1.
    10030    2    1    2    0    0  0.00000000000E+00  0.00000000000E+00  0.16856246236E+04  0.36958375336E+04  0.32890552903E+04 0.  0.
        5    1    3    3  502    0 -0.46570486058E+02 -0.97426162396E+03  0.23306116767E+04  0.25264851869E+04  0.46999998093E+01 0. -1.
       -5    1    3    3    0  502  0.46570486058E+02  0.97426162396E+03 -0.64498705305E+03  0.11693523467E+04  0.46999998093E+01 0.  1.
</event>
<event>
 5   0  0.5858859E-07  0.3337057E+04  0.7818609E-02  0.8153530E-01
        1   -1    0    0  501    0  0.00000000000E+00  0.00000000000E+00  0.17569610704E+04  0.17569610704E+04  0.50400001928E-02 0. -1.
       -1   -1    0    0    0  501  0.00000000000E+00  0.00000000000E+00 -0.15845470658E+04  0.15845470658E+04  0.50400001928E-02 0.  1.
    10030    2    1    2    0    0  0.00000000000E+00  0.00000000000E+00  0.17241400461E+03  0.33415081362E+04  0.33370570920E+04 0.  0.
        3    1    3    3  502    0 -0.14321049273E+04  0.76656225417E+03 -0.29567457820E+03  0.16510498717E+04  0.10100000352E+00 0.  1.
       -3    1    3    3    0  502  0.14321049273E+04 -0.76656225417E+03  0.46808858281E+03  0.16904582645E+04  0.10100000352E+00 0. -1.
</event>
<event>
 5   0  0.1784626E-06  0.3322536E+04  0.7818609E-02  0.8157185E-01
       -2   -1    0    0    0  501  0.00000000000E+00  0.00000000000E+00  0.15519839645E+04  0.15519839645E+04  0.25500000920E-02 0. -1.
        2   -1    0    0  501    0  0.00000000000E+00  0.00000000000E+00 -0.17782473795E+04  0.17782473795E+04  0.25500000920E-02 0.  1.
    10030    2    1    2    0    0  0.00000000000E+00  0.00000000000E+00 -0.22626341499E+03  0.33302313440E+04  0.33225360301E+04 0.  0.
        2    1    3    3  502    0  0.33532103757E+03  0.16127817914E+04 -0.32881865723E+03  0.16797699289E+04  0.25500000920E-02 0. -1.
       -2    1    3    3    0  502 -0.33532103757E+03 -0.16127817914E+04  0.10255524223E+03  0.16504614150E+04  0.25500000920E-02 0.  1.
</event>
<event>
 5   0  0.5985183E-07  0.3281497E+04  0.7818609E-02  0.8167619E-01
        1   -1    0    0  501    0  0.00000000000E+00  0.00000000000E+00  0.17701639090E+04  0.17701639090E+04  0.50400001928E-02 0.  1.
       -1   -1    0    0    0  501  0.00000000000E+00  0.00000000000E+00 -0.15207946584E+04  0.15207946584E+04  0.50400001928E-02 0. -1.
    10030    2    1    2    0    0  0.00000000000E+00  0.00000000000E+00  0.24936925064E+03  0.32909585674E+04  0.32814971079E+04 0.  0.
        2    1    3    3  502    0 -0.12753306833E+04 -0.77851907275E+03 -0.55513082239E+03  0.15939669157E+04  0.25500000920E-02 0. -1.
       -2    1    3    3    0  502  0.12753306833E+04  0.77851907275E+03  0.80450007302E+03  0.16969916517E+04  0.25500000920E-02 0.  1.
</event>
<event>
 5   0  0.6023446E-07  0.3321387E+04  0.7818609E-02  0.8157475E-01
        1   -1    0    0  501    0  0.00000000000E+00  0.00000000000E+00  0.27516503936E+04  0.27516503936E+04  0.50400001928E-02 0. -1.
       -1   -1    0    0    0  501  0.00000000000E+00  0.00000000000E+00 -0.10022723785E+04  0.10022723785E+04  0.50400001928E-02 0.  1.
    10030    2    1    2    0    0  0.00000000000E+00  0.00000000000E+00  0.17493780150E+04  0.37539227721E+04  0.33213871710E+04 0.  0.
        5    1    3    3  502    0 -0.47347277250E+03  0.85251531125E+02 -0.92178132581E+03  0.10397822813E+04  0.46999998093E+01 0.  1.
       -5    1    3    3    0  502  0.47347277250E+03 -0.85251531125E+02  0.26711593409E+04  0.27141404909E+04  0.46999998093E+01 0. -1.
</event>
<event>
 5   0  0.1728937E-06  0.3288558E+04  0.7818609E-02  0.8165813E-01
       -2   -1    0    0    0  501  0.00000000000E+00  0.00000000000E+00  0.13405079997E+04  0.13405079997E+04  0.25500000920E-02 0.  1.
        2   -1    0    0  501    0  0.00000000000E+00  0.00000000000E+00 -0.20168866121E+04  0.20168866121E+04  0.25500000920E-02 0. -1.
    10030    2    1    2    0    0  0.00000000000E+00  0.00000000000E+00 -0.67637861240E+03  0.33573946118E+04  0.32885575184E+04 0.  0.
        1    1    3    3  502    0 -0.25742072804E+03  0.13670044644E+04 -0.12332890500E+04  0.18590235388E+04  0.50400001928E-02 0. -1.
       -1    1    3    3    0  502  0.25742072804E+03 -0.13670044644E+04  0.55691043756E+03  0.14983710730E+04  0.50400001928E-02 0.  1.
</event>
<event>
 5   0  0.1784626E-06  0.3281854E+04  0.7818609E-02  0.8167528E-01
        2   -1    0    0  501    0  0.00000000000E+00  0.00000000000E+00  0.15863310013E+04  0.15863310013E+04  0.25500000920E-02 0.  1.
       -2   -1    0    0    0  501  0.00000000000E+00  0.00000000000E+00 -0.16974015976E+04  0.16974015976E+04  0.25500000920E-02 0. -1.
    10030    2    1    2    0    0  0.00000000000E+00  0.00000000000E+00 -0.11107059628E+03  0.32837325989E+04  0.32818536079E+04 0.  0.
        2    1    3    3  502    0  0.13948910069E+04 -0.50532844734E+03  0.64598166875E+03  0.16181378424E+04  0.25500000920E-02 0.  1.
       -2    1    3    3    0  502 -0.13948910069E+04  0.50532844734E+03 -0.75705226503E+03  0.16655947564E+04  0.25500000920E-02 0. -1.
</event>
<event>
 5   0  0.1696681E-06  0.3368612E+04  0.7818609E-02  0.8145653E-01
       -2   -1    0    0    0  501  0.00000000000E+00  0.00000000000E+00  0.15098003255E+04  0.15098003255E+04  0.25500000920E-02 0.  1.
        2   -1    0    0  501    0  0.00000000000E+00  0.00000000000E+00 -0.18789814038E+04  0.18789814038E+04  0.25500000920E-02 0. -1.
    10030    2    1    2    0    0  0.00000000000E+00  0.00000000000E+00 -0.36918107827E+03  0.33887817292E+04  0.33686120198E+04 0.  0.
        4    1    3    3  502    0  0.70494544794E+03  0.11230090014E+04 -0.12294565940E+04  0.18082207916E+04  0.12699999809E+01 0.  1.
       -4    1    3    3    0  502 -0.70494544794E+03 -0.11230090014E+04  0.86027551573E+03  0.15805609376E+04  0.12699999809E+01 0. -1.
</event>
<event>
 5   0  0.1743810E-06  0.3090777E+04  0.7818609E-02  0.8218274E-01
       -2   -1    0    0    0  501  0.00000000000E+00  0.00000000000E+00  0.77172227620E+03  0.77172227621E+03  0.25500000920E-02 0.  1.
        2   -1    0    0  501    0  0.00000000000E+00  0.00000000000E+00 -0.30946692201E+04  0.30946692201E+04  0.25500000920E-02 0. -1.
    10030    2    1    2    0    0  0.00000000000E+00  0.00000000000E+00 -0.23229469439E+04  0.38663914963E+04  0.30907767145E+04 0.  0.
        5    1    3    3  502    0 -0.54521657467E+02 -0.86630402500E+03  0.43795041344E+03  0.97225404576E+03  0.46999998093E+01 0.  1.
       -5    1    3    3    0  502  0.54521657467E+02  0.86630402500E+03 -0.27608973574E+04  0.28941374506E+04  0.46999998093E+01 0. -1.
</event>
<event>
 5   0  0.1696681E-06  0.3301439E+04  0.7818609E-02  0.8162529E-01
        2   -1    0    0  501    0  0.00000000000E+00  0.00000000000E+00  0.15590408304E+04  0.15590408304E+04  0.25500000920E-02 0.  1.
       -2   -1    0    0    0  501  0.00000000000E+00  0.00000000000E+00 -0.17477894118E+04  0.17477894118E+04  0.25500000920E-02 0. -1.
    10030    2    1    2    0    0  0.00000000000E+00  0.00000000000E+00 -0.18874858136E+03  0.33068302422E+04  0.33014391141E+04 0.  0.
        4    1    3    3  502    0 -0.54819456864E+03  0.10911049702E+04  0.10182258362E+04  0.15899096854E+04  0.12699999809E+01 0.  1.
       -4    1    3    3    0  502  0.54819456864E+03 -0.10911049702E+04 -0.12069744175E+04  0.17169205569E+04  0.12699999809E+01 0. -1.
</event>
<event>
 5   0  0.1728937E-06  0.3318697E+04  0.7818609E-02  0.8158154E-01
        2   -1    0    0  501    0  0.00000000000E+00  0.00000000000E+00  0.32451964899E+04  0.32451964899E+04  0.25500000920E-02 0. -1.
       -2   -1    0    0    0  501  0.00000000000E+00  0.00000000000E+00 -0.84846559583E+03  0.84846559583E+03  0.25500000920E-02 0.  1.
    10030    2    1    2    0    0  0.00000000000E+00  0.00000000000E+00  0.23967308941E+04  0.40936620857E+04  0.33186970777E+04 0.  0.
        1    1    3    3  502    0  0.65017002224E+03  0.39791465943E+03 -0.61971174913E+03  0.98239492367E+03  0.50400001928E-02 0.  1.
       -1    1    3    3    0  502 -0.65017002224E+03 -0.39791465943E+03  0.30164426432E+04  0.31112671621E+04  0.50400001928E-02 0. -1.
</event>
<event>
 5   0  0.5988516E-07  0.3350149E+04  0.7818609E-02  0.8150251E-01
       -1   -1    0    0    0  501  0.00000000000E+00  0.00000000000E+00  0.15972436538E+04  0.15972436538E+04  0.50400001928E-02 0. -1.
        1   -1    0    0  501    0  0.00000000000E+00  0.00000000000E+00 -0.17566981253E+04  0.17566981253E+04  0.50400001928E-02 0.  1.
    10030    2    1    2    0    0  0.00000000000E+00  0.00000000000E+00 -0.15945447149E+03  0.33539417791E+04  0.33501492100E+04 0.  0.
        4    1    3    3  502    0  0.14126855530E+04  0.67896924865E+03 -0.67132225821E+03  0.17050967420E+04  0.12699999809E+01 0. -1.
       -4    1    3    3    0  502 -0.14126855530E+04 -0.67896924865E+03  0.51186778673E+03  0.16488450371E+04  0.12699999809E+01 0.  1.
</event>
<event>
 5   0  0.1784626E-06  0.3292177E+04  0.7818609E-02  0.8164889E-01
       -2   -1    0    0    0  501  0.00000000000E+00  0.00000000000E+00  0.16048176166E+04  0.16048176166E+04  0.25500000920E-02 0.  1.
        2   -1    0    0  501    0  0.00000000000E+00  0.00000000000E+00 -0.16884208090E+04  0.16884208090E+04  0.25500000920E-02 0. -1.
    10030    2    1    2    0    0  0.00000000000E+00  0.00000000000E+00 -0.83603192352E+02  0.32932384256E+04  0.32921770660E+04 0.  0.
        2    1    3    3  502    0 -0.15521786736E+04  0.32787186833E+03 -0.48108877595E+03  0.16577710961E+04  0.25500000920E-02 0. -1.
       -2    1    3    3    0  502  0.15521786736E+04 -0.32787186833E+03  0.39748558360E+03  0.16354673295E+04  0.25500000920E-02 0.  1.
</event>
<event>
 5   0  0.1832626E-06  0.3267159E+04  0.7818609E-02  0.8171302E-01
        2   -1    0    0  501    0  0.00000000000E+00  0.00000000000E+00  0.21851525446E+04  0.21851525446E+04  0.25500000920E-02 0.  1.
       -2   -1    0    0    0  501  0.00000000000E+00  0.00000000000E+00 -0.12212337233E+04  0.12212337233E+04  0.25500000920E-02 0. -1.
    10030    2    1    2    0    0  0.00000000000E+00  0.00000000000E+00  0.96391882136E+03  0.34063862679E+04  0.32671589971E+04 0.  0.
        3    1    3    3  502    0  0.16003348718E+04  0.28541165965E+03  0.31367989927E+03  0.16555744039E+04  0.10100000352E+00 0. -1.
       -3    1    3    3    0  502 -0.16003348718E+04 -0.28541165965E+03  0.65023892208E+03  0.17508118641E+04  0.10100000352E+00 0.  1.
</event>
<event>
 5   0  0.1743810E-06  0.2970661E+04  0.7818609E-02  0.8252159E-01
       -2   -1    0    0    0  501  0.00000000000E+00  0.00000000000E+00  0.15594638022E+04  0.15594638022E+04  0.25500000920E-02 0. -1.
        2   -1    0    0  501    0  0.00000000000E+00  0.00000000000E+00 -0.14147211304E+04  0.14147211304E+04  0.25500000920E-02 0.  1.
    10030    2    1    2    0    0  0.00000000000E+00  0.00000000000E+00  0.14474267184E+03  0.29741849326E+04  0.29706607973E+04 0.  0.
        5    1    3    3  502    0  0.98292409964E+03  0.60072010624E+03  0.10111295981E+04  0.15327783877E+04  0.46999998093E+01 0. -1.
       -5    1    3    3    0  502 -0.98292409964E+03 -0.60072010624E+03 -0.86638692627E+03  0.14414065449E+04  0.46999998093E+01 0.  1.
</event>
<event>
 5   0  0.1728937E-06  0.3311178E+04  0.7818609E-02  0.8160057E-01
       -2   -1    0    0    0  501  0.00000000000E+00  0.00000000000E+00  0.18191671390E+04  0.18191671390E+04  0.25500000920E-02 0. -1.
        2   -1    0    0  501    0  0.00000000000E+00  0.00000000000E+00 -0.15067200470E+04  0.15067200470E+04  0.25500000920E-02 0.  1.
    10030    2    1    2    0    0  0.00000000000E+00  0.00000000000E+00  0.31244709202E+03  0.33258871860E+04  0.33111783988E+04 0.  0.
        1    1    3    3  502    0  0.80562224166E+03  0.10829758821E+04  0.11191853624E+04  0.17534080623E+04  0.50400001928E-02 0.  1.
       -1    1    3    3    0  502 -0.80562224166E+03 -0.10829758821E+04 -0.80673827041E+03  0.15724791237E+04  0.50400001928E-02 0. -1.
</event>
<event>
 5   0  0.6085351E-07  0.3299839E+04  0.7818609E-02  0.8162936E-01
        1   -1    0    0  501    0  0.00000000000E+00  0.00000000000E+00  0.23654676127E+04  0.23654676127E+04  0.50400001928E-02 0. -1.
       -1   -1    0    0    0  501  0.00000000000E+00  0.00000000000E+00 -0.11508228453E+04  0.11508228453E+04  0.50400001928E-02 0.  1.
    10030    2    1    2    0    0  0.00000000000E+00  0.00000000000E+00  0.12146447675E+04  0.35162904581E+04  0.32998388861E+04 0.  0.
        1    1    3    3  502    0 -0.18170081828E+03 -0.21446013952E+03 -0.11251213595E+04  0.11597010013E+04  0.50400001928E-02 0.  1.
       -1    1    3    3    0  502  0.18170081828E+03  0.21446013952E+03  0.23397661269E+04  0.23565894567E+04  0.50400001928E-02 0. -1.
</event>
<event>
 5   0  0.1784626E-06  0.3179847E+04  0.7818609E-02  0.8194160E-01
        2   -1    0    0  501    0  0.00000000000E+00  0.00000000000E+00  0.17043904205E+04  0.17043904205E+04  0.25500000920E-02 0. -1.
       -2   -1    0    0    0  501  0.00000000000E+00  0.00000000000E+00 -0.14831442322E+04  0.14831442322E+04  0.25500000920E-02 0.  1.
    10030    2    1    2    0    0  0.00000000000E+00  0.00000000000E+00  0.22124618832E+03  0.31875346527E+04  0.31798470539E+04 0.  0.
        2    1    3    3  502    0  0.11837514861E+02 -0.13691328036E+04 -0.69953380011E+03  0.15375344868E+04  0.25500000920E-02 0.  1.
       -2    1    3    3    0  502 -0.11837514861E+02  0.13691328036E+04  0.92077998842E+03  0.16500001659E+04  0.25500000920E-02 0. -1.
</event>
<event>
 5   0  0.6023446E-07  0.3302526E+04  0.7818609E-02  0.8162253E-01
       -1   -1    0    0    0  501  0.00000000000E+00  0.00000000000E+00  0.12995236329E+04  0.12995236329E+04  0.50400001928E-02 0.  1.
        1   -1    0    0  501    0  0.00000000000E+00  0.00000000000E+00 -0.20982068420E+04  0.20982068420E+04  0.50400001928E-02 0. -1.
    10030    2    1    2    0    0  0.00000000000E+00  0.00000000000E+00 -0.79868320919E+03  0.33977304749E+04  0.33025259290E+04 0.  0.
        5    1    3    3  502    0  0.13590185823E+04  0.15694618460E+03 -0.13507062260E+04  0.19224965568E+04  0.46999998093E+01 0. -1.
       -5    1    3    3    0  502 -0.13590185823E+04 -0.15694618460E+03  0.55202301680E+03  0.14752339181E+04  0.46999998093E+01 0.  1.
</event>
<event>
 5   0  0.1743810E-06  0.3323847E+04  0.7818609E-02  0.8156854E-01
        2   -1    0    0  501    0  0.00000000000E+00  0.00000000000E+00  0.21786968039E+04  0.21786968039E+04  0.25500000920E-02 0.  1.
       -2   -1    0    0    0  501  0.00000000000E+00  0.00000000000E+00 -0.12677252580E+04  0.12677252580E+04  0.25500000920E-02 0. -1.
    10030    2    1    2    0    0  0.00000000000E+00  0.00000000000E+00  0.91097154588E+03  0.34464220619E+04  0.33238465475E+04 0.  0.
        5    1    3    3  502    0  0.17443989256E+03  0.15398114034E+04 -0.16708860041E+03  0.15586497761E+04  0.46999998093E+01 0.  1.
       -5    1    3    3    0  502 -0.17443989256E+03 -0.15398114034E+04  0.10780601463E+04  0.18877722858E+04  0.46999998093E+01 0. -1.
</event>
<event>
 5   0  0.5988516E-07  0.3276641E+04  0.7818609E-02  0.8168865E-01
       -1   -1    0    0    0  501  0.00000000000E+00  0.00000000000E+00  0.10973330093E+04  0.10973330093E+04  0.50400001928E-02 0.  1.
        1   -1    0    0  501    0  0.00000000000E+00  0.00000000000E+00 -0.24460154045E+04  0.24460154045E+04  0.50400001928E-02 0. -1.
    10030    2    1    2    0    0  0.00000000000E+00  0.00000000000E+00 -0.13486823952E+04  0.35433484138E+04  0.32766406239E+04 0.  0.
        4    1    3    3  502    0 -0.77684944613E+03 -0.14423861770E+04 -0.66255019734E+03  0.17671862727E+04  0.12699999809E+01 0.  1.
       -4    1    3    3    0  502  0.77684944613E+03  0.14423861770E+04 -0.68613219787E+03  0.17761621411E+04  0.12699999809E+01 0. -1.
</event>
<event>
 5   0  0.1696681E-06  0.3167707E+04  0.7818609E-02  0.8197398E-01
        2   -1    0    0  501    0  0.00000000000E+00  0.00000000000E+00  0.18779629784E+04  0.18779629784E+04  0.25500000920E-02 0.  1.
       -2   -1    0    0    0  501  0.00000000000E+00  0.00000000000E+00 -0.13358051133E+04  0.13358051133E+04  0.25500000920E-02 0. -1.
    10030    2    1    2    0    0  0.00000000000E+00  0.00000000000E+00  0.54215786516E+03  0.32137680917E+04  0.31677074039E+04 0.  0.
        4    1    3    3  502    0  0.13967508760E+04  0.27033134233E+03  0.97733254665E+03  0.17260279731E+04  0.12699999809E+01 0.  1.
       -4    1    3    3    0  502 -0.13967508760E+04 -0.27033134233E+03 -0.43517468149E+03  0.14877401186E+04  0.12699999809E+01 0. -1.
</event>
<event>
 5   0  0.6085351E-07  0.3288657E+04  0.7818609E-02  0.8165788E-01
       -1   -1    0    0    0  501  0.00000000000E+00  0.00000000000E+00  0.19315332249E+04  0.19315332249E+04  0.50400001928E-02 0. -1.
        1   -1    0    0  501    0  0.00000000000E+00  0.00000000000E+00 -0.13998291387E+04  0.13998291387E+04  0.50400001928E-02 0.  1.
    10030    2    1    2    0    0  0.00000000000E+00  0.00000000000E+00  0.53170408618E+03  0.33313623636E+04  0.32886571670E+04 0.  0.
        1    1    3    3  502    0  0.15084891843E+04  0.63316009272E+03  0.98218477990E+02  0.16389259262E+04  0.50400001928E-02 0.  1.
       -1    1    3    3    0  502 -0.15084891843E+04 -0.63316009272E+03  0.43348560819E+03  0.16924364374E+04  0.50400001928E-02 0. -1.
</event>
<event>
 5   0  0.1728937E-06  0.2709560E+04  0.7818609E-02  0.8331910E-01
       -2   -1    0    0    0  501  0.00000000000E+00  0.00000000000E+00  0.96681744252E+03  0.96681744252E+03  0.25500000920E-02 0.  1.
        2   -1    0    0  501    0  0.00000000000E+00  0.00000000000E+00 -0.18984238114E+04  0.18984238114E+04  0.25500000920E-02 0. -1.
    10030    2    1    2    0    0  0.00000000000E+00  0.00000000000E+00 -0.93160636888E+03  0.28652412539E+04  0.27095602995E+04 0.  0.
        1    1    3    3  502    0 -0.28254801935E+03  0.10054016918E+04  0.44677800272E+03  0.11359033977E+04  0.50400001928E-02 0.  1.
       -1    1    3    3    0  502  0.28254801935E+03 -0.10054016918E+04 -0.13783843716E+04  0.17293378562E+04  0.50400001928E-02 0. -1.
</event>
<event>
 5   0  0.5988516E-07  0.3284981E+04  0.7818609E-02  0.8166728E-01
        1   -1    0    0  501    0  0.00000000000E+00  0.00000000000E+00  0.12122811320E+04  0.12122811321E+04  0.50400001928E-02 0.  1.
       -1   -1    0    0    0  501  0.00000000000E+00  0.00000000000E+00 -0.22253706284E+04  0.22253706285E+04  0.50400001928E-02 0. -1.
    10030    2    1    2    0    0  0.00000000000E+00  0.00000000000E+00 -0.10130894964E+04  0.34376517605E+04  0.32849808673E+04 0.  0.
        4    1    3    3  502    0  0.14458070016E+04 -0.65820505416E+03 -0.94329178249E+03  0.18475369493E+04  0.12699999809E+01 0.  1.
       -4    1    3    3    0  502 -0.14458070016E+04  0.65820505416E+03 -0.69797713910E+02  0.15901148112E+04  0.12699999809E+01 0. -1.
</event>
<event>
 5   0  0.1832626E-06  0.3345331E+04  0.7818609E-02  0.8151456E-01
        2   -1    0    0  501    0  0.00000000000E+00  0.00000000000E+00  0.21694045147E+04  0.21694045147E+04  0.25500000920E-02 0.  1.
       -2   -1    0    0    0  501  0.00000000000E+00  0.00000000000E+00 -0.12896674795E+04  0.12896674795E+04  0.25500000920E-02 0. -1.
    10030    2    1    2    0    0  0.00000000000E+00  0.00000000000E+00  0.87973703514E+03  0.34590719942E+04  0.33453313453E+04 0.  0.
        3    1    3    3  502    0 -0.13872238591E+04  0.77898839632E+03 -0.94017424922E+02  0.15937541351E+04  0.10100000352E+00 0. -1.
       -3    1    3    3    0  502  0.13872238591E+04 -0.77898839632E+03  0.97375446006E+03  0.18653178591E+04  0.10100000352E+00 0.  1.
</event>
<event>
 5   0  0.5858859E-07  0.3271444E+04  0.7818609E-02  0.8170200E-01
        1   -1    0    0  501    0  0.00000000000E+00  0.00000000000E+00  0.15530680219E+04  0.15530680219E+04  0.50400001928E-02 0. -1.
       -1   -1    0    0    0  501  0.00000000000E+00  0.00000000000E+00 -0.17227747991E+04  0.17227747991E+04  0.50400001928E-02 0.  1.
    10030    2    1    2    0    0  0.00000000000E+00  0.00000000000E+00 -0.16970677718E+03  0.32758428209E+04  0.32714439927E+04 0.  0.
        3    1    3    3  502    0  0.18749780621E+03  0.11170700215E+04  0.10968119937E+04  0.15767046077E+04  0.10100000352E+00 0.  1.
       -3    1    3    3    0  502 -0.18749780621E+03 -0.11170700215E+04 -0.12665187709E+04  0.16991382132E+04  0.10100000352E+00 0. -1.
</event>
<event>
 5   0  0.1728937E-06  0.3304514E+04  0.7818609E-02  0.8161748E-01
        2   -1    0    0  501    0  0.00000000000E+00  0.00000000000E+00  0.18221142814E+04  0.18221142814E+04  0.25500000920E-02 0.  1.
       -2   -1    0    0    0  501  0.00000000000E+00  0.00000000000E+00 -0.14982341903E+04  0.14982341903E+04  0.25500000920E-02 0. -1.
    10030    2    1    2    0    0  0.00000000000E+00  0.00000000000E+00  0.32388009112E+03  0.33203484717E+04  0.33045144364E+04 0.  0.
        1    1    3    3  502    0  0.90981016740E+03  0.12409629856E+04 -0.44278279948E+03  0.16011871471E+04  0.50400001928E-02 0. -1.
       -1    1    3    3    0  502 -0.90981016740E+03 -0.12409629856E+04  0.76666289060E+03  0.17191613247E+04  0.50400001928E-02 0.  1.
</event>
<event>
 5   0  0.5988516E-07  0.3230185E+04  0.7818609E-02  0.8180890E-01
       -1   -1    0    0    0  501  0.00000000000E+00  0.00000000000E+00  0.13803797719E+04  0.13803797719E+04  0.50400001928E-02 0. -1.
        1   -1    0    0  501    0  0.00000000000E+00  0.00000000000E+00 -0.18897149876E+04  0.18897149876E+04  0.50400001928E-02 0.  1.
    10030    2    1    2    0    0  0.00000000000E+00  0.00000000000E+00 -0.50933521572E+03  0.32700947595E+04  0.32301853468E+04 0.  0.
        4    1    3    3  502    0  0.78440977138E+03  0.13050354945E+04  0.29060232347E+03  0.15501185937E+04  0.12699999809E+01 0. -1.
       -4    1    3    3    0  502 -0.78440977138E+03 -0.13050354945E+04 -0.79993753920E+03  0.17199761658E+04  0.12699999809E+01 0.  1.
</event>
<event>
 5   0  0.1832626E-06  0.3118123E+04  0.7818609E-02  0.8210782E-01
        2   -1    0    0  501    0  0.00000000000E+00  0.00000000000E+00  0.20008570571E+04  0.20008570571E+04  0.25500000920E-02 0. -1.
       -2   -1    0    0    0  501  0.00000000000E+00  0.00000000000E+00 -0.12148154468E+04  0.12148154468E+04  0.25500000920E-02 0.  1.
    10030    2    1    2    0    0  0.00000000000E+00  0.00000000000E+00  0.78604161032E+03  0.32156725039E+04  0.31181225504E+04 0.  0.
        3    1    3    3  502    0  0.87577738846E+03  0.50139315423E+03 -0.83255651508E+03  0.13082551319E+04  0.10100000352E+00 0.  1.
       -3    1    3    3    0  502 -0.87577738846E+03 -0.50139315423E+03  0.16185981254E+04  0.19074173720E+04  0.10100000352E+00 0. -1.
</event>
<event>
 5   0  0.5988516E-07  0.3336647E+04  0.7818609E-02  0.8153633E-01
       -1   -1    0    0    0  501  0.00000000000E+00  0.00000000000E+00  0.12595900718E+04  0.12595900719E+04  0.50400001928E-02 0.  1.
        1   -1    0    0  501    0  0.00000000000E+00  0.00000000000E+00 -0.22096903162E+04  0.22096903162E+04  0.50400001928E-02 0. -1.
    10030    2    1    2    0    0  0.00000000000E+00  0.00000000000E+00 -0.95010024432E+03  0.34692803880E+04  0.33366474097E+04 0.  0.
        4    1    3    3  502    0 -0.53943231050E+03  0.51551668512E+03 -0.20265296949E+04  0.21595297838E+04  0.12699999809E+01 0. -1.
       -4    1    3    3    0  502  0.53943231050E+03 -0.51551668512E+03  0.10764294506E+04  0.13097506042E+04  0.12699999809E+01 0.  1.
</event>
<event>
 5   0  0.5685000E-07  0.3331537E+04  0.7818609E-02  0.8154917E-01
       -3   -1    0    0    0  501  0.00000000000E+00  0.00000000000E+00  0.29956120648E+04  0.29956120665E+04  0.10100000352E+00 0. -1.
        3   -1    0    0  501    0  0.00000000000E+00  0.00000000000E+00 -0.92628314423E+03  0.92628314974E+03  0.10100000352E+00 0.  1.
    10030    2    1    2    0    0  0.00000000000E+00  0.00000000000E+00  0.20693289205E+04  0.39218952162E+04  0.33315371686E+04 0.  0.
        1    1    3    3  502    0 -0.10395082789E+04  0.11572081713E+04  0.33318905403E+03  0.15908246790E+04  0.50400001928E-02 0.  1.
       -1    1    3    3    0  502  0.10395082789E+04 -0.11572081713E+04  0.17361398665E+04  0.23310705372E+04  0.50400001928E-02 0. -1.
</event>
<event>
 5   0  0.5988516E-07  0.3246360E+04  0.7818609E-02  0.8176680E-01
        1   -1    0    0  501    0  0.00000000000E+00  0.00000000000E+00  0.12325215571E+04  0.12325215571E+04  0.50400001928E-02 0. -1.
       -1   -1    0    0    0  501  0.00000000000E+00  0.00000000000E+00 -0.21376612156E+04  0.21376612156E+04  0.50400001928E-02 0.  1.
    10030    2    1    2    0    0  0.00000000000E+00  0.00000000000E+00 -0.90513965847E+03  0.33701827727E+04  0.32463601340E+04 0.  0.
        4    1    3    3  502    0 -0.77925378113E+03  0.11822327089E+04  0.37129986644E+03  0.14638223380E+04  0.12699999809E+01 0. -1.
       -4    1    3    3    0  502  0.77925378113E+03 -0.11822327089E+04 -0.12764395249E+04  0.19063604347E+04  0.12699999809E+01 0.  1.
</event>
<event>
 5   0  0.6023446E-07  0.3218877E+04  0.7818609E-02  0.8183849E-01
        1   -1    0    0  501    0  0.00000000000E+00  0.00000000000E+00  0.20350920706E+04  0.20350920706E+04  0.50400001928E-02 0.  1.
       -1   -1    0    0    0  501  0.00000000000E+00  0.00000000000E+00 -0.12728134147E+04  0.12728134147E+04  0.50400001928E-02 0. -1.
    10030    2    1    2    0    0  0.00000000000E+00  0.00000000000E+00  0.76227865585E+03  0.33079054853E+04  0.32188771258E+04 0.  0.
        5    1    3    3  502    0 -0.13087683592E+04  0.81784844788E+03  0.85040872715E+03  0.17620918804E+04  0.46999998093E+01 0. -1.
       -5    1    3    3    0  502  0.13087683592E+04 -0.81784844788E+03 -0.88130071307E+02  0.15458136049E+04  0.46999998093E+01 0.  1.
</event>
<event>
 5   0  0.1784626E-06  0.3242526E+04  0.7818609E-02  0.8177676E-01
       -2   -1    0    0    0  501  0.00000000000E+00  0.00000000000E+00  0.10620602499E+04  0.10620602499E+04  0.25500000920E-02 0.  1.
        2   -1    0    0  501    0  0.00000000000E+00  0.00000000000E+00 -0.24749012812E+04  0.24749012812E+04  0.25500000920E-02 0. -1.
    10030    2    1    2    0    0  0.00000000000E+00  0.00000000000E+00 -0.14128410313E+04  0.35369615311E+04  0.32425263442E+04 0.  0.
        2    1    3    3  502    0  0.89122991033E+02 -0.45446804681E+03  0.98837134622E+03  0.10914953189E+04  0.25500000920E-02 0.  1.
       -2    1    3    3    0  502 -0.89122991033E+02  0.45446804681E+03 -0.24012123775E+04  0.24454662122E+04  0.25500000920E-02 0. -1.
</event>
<event>
 5   0  0.1696681E-06  0.3292871E+04  0.7818609E-02  0.8164712E-01
        2   -1    0    0  501    0  0.00000000000E+00  0.00000000000E+00  0.14063639661E+04  0.14063639661E+04  0.25500000920E-02 0.  1.
       -2   -1    0    0    0  501  0.00000000000E+00  0.00000000000E+00 -0.19274883724E+04  0.19274883724E+04  0.25500000920E-02 0. -1.
    10030    2    1    2    0    0  0.00000000000E+00  0.00000000000E+00 -0.52112440632E+03  0.33338523385E+04  0.32928712043E+04 0.  0.
        4    1    3    3  502    0 -0.47343706306E+03 -0.14543793603E+03 -0.18502800307E+04  0.19154197061E+04  0.12699999809E+01 0. -1.
       -4    1    3    3    0  502  0.47343706306E+03  0.14543793603E+03  0.13291556243E+04  0.14184326324E+04  0.12699999809E+01 0.  1.
</event>
<event>
 5   0  0.1743810E-06  0.3182472E+04  0.7818609E-02  0.8193462E-01
       -2   -1    0    0    0  501  0.00000000000E+00  0.00000000000E+00  0.13686556244E+04  0.13686556244E+04  0.25500000920E-02 0.  1.
        2   -1    0    0  501    0  0.00000000000E+00  0.00000000000E+00 -0.18500137173E+04  0.18500137173E+04  0.25500000920E-02 0. -1.
    10030    2    1    2    0    0  0.00000000000E+00  0.00000000000E+00 -0.48135809297E+03  0.32186693417E+04  0.31824717937E+04 0.  0.
        5    1    3    3  502    0  0.11219103821E+04 -0.26248188735E+03  0.86926879767E+03  0.14433398697E+04  0.46999998093E+01 0.  1.
       -5    1    3    3    0  502 -0.11219103821E+04  0.26248188735E+03 -0.13506268906E+04  0.17753294721E+04  0.46999998093E+01 0. -1.
</event>
<event>
 5   0  0.1743810E-06  0.3265128E+04  0.7818609E-02  0.8171826E-01
       -2   -1    0    0    0  501  0.00000000000E+00  0.00000000000E+00  0.13622331854E+04  0.13622331854E+04  0.25500000920E-02 0. -1.
        2   -1    0    0  501    0  0.00000000000E+00  0.00000000000E+00 -0.19565405902E+04  0.19565405902E+04  0.25500000920E-02 0.  1.
    10030    2    1    2    0    0  0.00000000000E+00  0.00000000000E+00 -0.59430740481E+03  0.33187737756E+04  0.32651275752E+04 0.  0.
        5    1    3    3  502    0 -0.71359389717E+03 -0.13771972550E+04 -0.81478900509E+03  0.17520821163E+04  0.46999998093E+01 0.  1.
       -5    1    3    3    0  502  0.71359389717E+03  0.13771972550E+04  0.22048160028E+03  0.15666916593E+04  0.46999998093E+01 0. -1.
</event>
<event>
 5   0  0.5988516E-07  0.3304608E+04  0.7818609E-02  0.8161724E-01
        1   -1    0    0  501    0  0.00000000000E+00  0.00000000000E+00  0.19754450839E+04  0.19754450839E+04  0.50400001928E-02 0.  1.
       -1   -1    0    0    0  501  0.00000000000E+00  0.00000000000E+00 -0.13820216212E+04  0.13820216212E+04  0.50400001928E-02 0. -1.
    10030    2    1    2    0    0  0.00000000000E+00  0.00000000000E+00  0.59342346271E+03  0.33574667050E+04  0.33046075818E+04 0.  0.
        4    1    3    3  502    0  0.44094564562E+03 -0.14432734244E+04  0.98025477680E+03  0.17995477988E+04  0.12699999809E+01 0. -1.
       -4    1    3    3    0  502 -0.44094564562E+03  0.14432734244E+04 -0.38683131408E+03  0.15579189062E+04  0.12699999809E+01 0.  1.
</event>
<event>
 5   0  0.6085351E-07  0.3295963E+04  0.7818609E-02  0.8163923E-01
        1   -1    0    0  501    0  0.00000000000E+00  0.00000000000E+00  0.16735888880E+04  0.16735888880E+04  0.50400001928E-02 0. -1.
       -1   -1    0    0    0  501  0.00000000000E+00  0.00000000000E+00 -0.16227659276E+04  0.16227659277E+04  0.50400001928E-02 0.  1.
    10030    2    1    2    0    0  0.00000000000E+00  0.00000000000E+00  0.50822960397E+02  0.32963548157E+04  0.32959630000E+04 0.  0.
        1    1    3    3  502    0  0.75011495838E+02  0.16953795234E+03 -0.16123036214E+04  0.16229272347E+04  0.50400001928E-02 0.  1.
       -1    1    3    3    0  502 -0.75011495838E+02 -0.16953795234E+03  0.16631265817E+04  0.16734275810E+04  0.50400001928E-02 0. -1.
</event>
<event>
 5   0  0.1832626E-06  0.3317268E+04  0.7818609E-02  0.8158516E-01
       -2   -1    0    0    0  501  0.00000000000E+00  0.00000000000E+00  0.15126994464E+04  0.15126994464E+04  0.25500000920E-02 0. -1.
        2   -1    0    0  501    0  0.00000000000E+00  0.00000000000E+00 -0.18186468264E+04  0.18186468264E+04  0.25500000920E-02 0.  1.
    10030    2    1    2    0    0  0.00000000000E+00  0.00000000000E+00 -0.30594737997E+03  0.33313462728E+04  0.33172675789E+04 0.  0.
        3    1    3    3  502    0  0.13438631584E+04  0.84278000420E+03 -0.63961228533E+03  0.17103655193E+04  0.10100000352E+00 0.  1.
       -3    1    3    3    0  502 -0.13438631584E+04 -0.84278000420E+03  0.33366490537E+03  0.16209807535E+04  0.10100000352E+00 0. -1.
</event>
<event>
 5   0  0.1728937E-06  0.3260074E+04  0.7818609E-02  0.8173129E-01
        2   -1    0    0  501    0  0.00000000000E+00  0.00000000000E+00  0.24322137770E+04  0.24322137770E+04  0.25500000920E-02 0. -1.
       -2   -1    0    0    0  501  0.00000000000E+00  0.00000000000E+00 -0.10924292031E+04  0.10924292032E+04  0.25500000920E-02 0.  1.
    10030    2    1    2    0    0  0.00000000000E+00  0.00000000000E+00  0.13397845738E+04  0.35246429801E+04  0.32600744521E+04 0.  0.
        1    1    3    3  502    0  0.57451651394E+03  0.76446778138E+03 -0.75728897520E+03  0.12198224484E+04  0.50400001928E-02 0.  1.
       -1    1    3    3    0  502 -0.57451651394E+03 -0.76446778138E+03  0.20970735490E+04  0.23048205317E+04  0.50400001928E-02 0. -1.
</event>
<event>
 5   0  0.1743810E-06  0.3270778E+04  0.7818609E-02  0.8170371E-01
       -2   -1    0    0    0  501  0.00000000000E+00  0.00000000000E+00  0.12312956068E+04  0.12312956068E+04  0.25500000920E-02 0.  1.
        2   -1    0    0  501    0  0.00000000000E+00  0.00000000000E+00 -0.21720997245E+04  0.21720997245E+04  0.25500000920E-02 0. -1.
    10030    2    1    2    0    0  0.00000000000E+00  0.00000000000E+00 -0.94080411769E+03  0.34033953313E+04  0.32707777963E+04 0.  0.
        5    1    3    3  502    0  0.13107893830E+04  0.73777203282E+03 -0.11382984728E+04  0.18863249673E+04  0.46999998093E+01 0. -1.
       -5    1    3    3    0  502 -0.13107893830E+04 -0.73777203282E+03  0.19749435515E+03  0.15170703640E+04  0.46999998093E+01 0.  1.
</event>
<event>
 5   0  0.5858859E-07  0.3296623E+04  0.7818609E-02  0.8163755E-01
       -1   -1    0    0    0  501  0.00000000000E+00  0.00000000000E+00  0.20120361352E+04  0.20120361352E+04  0.50400001928E-02 0.  1.
        1   -1    0    0  501    0  0.00000000000E+00  0.00000000000E+00 -0.13503391523E+04  0.13503391523E+04  0.50400001928E-02 0. -1.
    10030    2    1    2    0    0  0.00000000000E+00  0.00000000000E+00  0.66169698286E+03  0.33623752875E+04  0.32966232234E+04 0.  0.
        3    1    3    3  502    0 -0.27417108943E+03  0.98808159712E+03 -0.98541692274E+03  0.14221538421E+04  0.10100000352E+00 0. -1.
       -3    1    3    3    0  502  0.27417108943E+03 -0.98808159712E+03  0.16471139056E+04  0.19402214454E+04  0.10100000352E+00 0.  1.
</event>
<event>
 5   0  0.1784626E-06  0.3295149E+04  0.7818609E-02  0.8164131E-01
        2   -1    0    0  501    0  0.00000000000E+00  0.00000000000E+00  0.12981999077E+04  0.12981999077E+04  0.25500000920E-02 0. -1.
       -2   -1    0    0    0  501  0.00000000000E+00  0.00000000000E+00 -0.20909736874E+04  0.20909736875E+04  0.25500000920E-02 0.  1.
    10030    2    1    2    0    0  0.00000000000E+00  0.00000000000E+00 -0.79277377974E+03  0.33891735952E+04  0.32951490698E+04 0.  0.
        2    1    3    3  502    0 -0.10806400766E+04  0.33342584166E+03 -0.16287177284E+04  0.19828457342E+04  0.25500000920E-02 0.  1.
       -2    1    3    3    0  502  0.10806400766E+04 -0.33342584166E+03  0.83594394862E+03  0.14063278609E+04  0.25500000920E-02 0. -1.
</event>
<event>
 5   0  0.6085351E-07  0.3298241E+04  0.7818609E-02  0.8163343E-01
        1   -1    0    0  501    0  0.00000000000E+00  0.00000000000E+00  0.22946000762E+04  0.22946000762E+04  0.50400001928E-02 0.  1.
       -1   -1    0    0    0  501  0.00000000000E+00  0.00000000000E+00 -0.11852165438E+04  0.11852165438E+04  0.50400001928E-02 0. -1.
    10030    2    1    2    0    0  0.00000000000E+00  0.00000000000E+00  0.11093835324E+04  0.34798166199E+04  0.32982407260E+04 0.  0.
        1    1    3    3  502    0  0.75478138995E+03 -0.35262837439E+03 -0.94688023812E+03  0.12611993904E+04  0.50400001928E-02 0. -1.
       -1    1    3    3    0  502 -0.75478138995E+03  0.35262837439E+03  0.20562637705E+04  0.22186172295E+04  0.50400001928E-02 0.  1.
</event>
<event>
 5   0  0.1832626E-06  0.2920145E+04  0.7818609E-02  0.8266909E-01
        2   -1    0    0  501    0  0.00000000000E+00  0.00000000000E+00  0.23755052751E+04  0.23755052751E+04  0.25500000920E-02 0. -1.
       -2   -1    0    0    0  501  0.00000000000E+00  0.00000000000E+00 -0.89741412662E+03  0.89741412663E+03  0.25500000920E-02 0.  1.
    10030    2    1    2    0    0  0.00000000000E+00  0.00000000000E+00  0.14780911485E+04  0.32729194017E+04  0.29201451962E+04 0.  0.
        3    1    3    3  502    0 -0.61020573441E+02  0.13644134984E+03 -0.88881712049E+03  0.90129664163E+03  0.10100000352E+00 0.  1.
       -3    1    3    3    0  502  0.61020573441E+02 -0.13644134984E+03  0.23669082690E+04  0.23716227601E+04  0.10100000352E+00 0. -1.
</event>
<event>
 5   0  0.1784626E-06  0.3362943E+04  0.7818609E-02  0.8147062E-01
       -2   -1    0    0    0  501  0.00000000000E+00  0.00000000000E+00  0.16745872063E+04  0.16745872063E+04  0.25500000920E-02 0. -1.
        2   -1    0    0  501    0  0.00000000000E+00  0.00000000000E+00 -0.16883836074E+04  0.16883836074E+04  0.25500000920E-02 0.  1.
    10030    2    1    2    0    0  0.00000000000E+00  0.00000000000E+00 -0.13796401025E+02  0.33629708137E+04  0.33629425141E+04 0.  0.
        2    1    3    3  502    0  0.13314931789E+04 -0.10247607367E+04  0.58957766813E+02  0.16812152364E+04  0.25500000920E-02 0. -1.
       -2    1    3    3    0  502 -0.13314931789E+04  0.10247607367E+04 -0.72754167839E+02  0.16817555773E+04  0.25500000920E-02 0.  1.
</event>
<event>
 5   0  0.6085351E-07  0.3436201E+04  0.7818609E-02  0.8129078E-01
        1   -1    0    0  501    0  0.00000000000E+00  0.00000000000E+00  0.17839696114E+04  0.17839696114E+04  0.50400001928E-02 0.  1.
       -1   -1    0    0    0  501  0.00000000000E+00  0.00000000000E+00 -0.16546630557E+04  0.16546630557E+04  0.50400001928E-02 0. -1.
    10030    2    1    2    0    0  0.00000000000E+00  0.00000000000E+00  0.12930655563E+03  0.34386326671E+04  0.34362005811E+04 0.  0.
        1    1    3    3  502    0  0.20484223543E+03 -0.57904724998E+03 -0.15410423270E+04  0.16589356566E+04  0.50400001928E-02 0. -1.
       -1    1    3    3    0  502 -0.20484223543E+03  0.57904724998E+03  0.16703488827E+04  0.17796970104E+04  0.50400001928E-02 0.  1.
</event>
<event>
 5   0  0.1743810E-06  0.3334688E+04  0.7818609E-02  0.8154125E-01
        2   -1    0    0  501    0  0.00000000000E+00  0.00000000000E+00  0.20412923332E+04  0.20412923332E+04  0.25500000920E-02 0.  1.
       -2   -1    0    0    0  501  0.00000000000E+00  0.00000000000E+00 -0.13618996188E+04  0.13618996188E+04  0.25500000920E-02 0. -1.
    10030    2    1    2    0    0  0.00000000000E+00  0.00000000000E+00  0.67939271436E+03  0.34031919520E+04  0.33346875418E+04 0.  0.
        5    1    3    3  502    0 -0.11263991318E+04  0.82180202315E+03 -0.59334986598E+03  0.15153282558E+04  0.46999998093E+01 0. -1.
       -5    1    3    3    0  502  0.11263991318E+04 -0.82180202315E+03  0.12727425803E+04  0.18878636961E+04  0.46999998093E+01 0.  1.
</event>
<event>
 5   0  0.1784626E-06  0.3369950E+04  0.7818609E-02  0.8145321E-01
       -2   -1    0    0    0  501  0.00000000000E+00  0.00000000000E+00  0.24481947054E+04  0.24481947054E+04  0.25500000920E-02 0.  1.
        2   -1    0    0  501    0  0.00000000000E+00  0.00000000000E+00 -0.11596871673E+04  0.11596871674E+04  0.25500000920E-02 0. -1.
    10030    2    1    2    0    0  0.00000000000E+00  0.00000000000E+00  0.12885075381E+04  0.36078818727E+04  0.33699495444E+04 0.  0.
        2    1    3    3  502    0  0.12844246786E+04 -0.75323248649E+03  0.14886299818E+04  0.21054987904E+04  0.25500000920E-02 0.  1.
       -2    1    3    3    0  502 -0.12844246786E+04  0.75323248649E+03 -0.20012244378E+03  0.15023830823E+04  0.25500000920E-02 0. -1.
</event>
<event>
 5   0  0.1743810E-06  0.3225743E+04  0.7818609E-02  0.8182051E-01
       -2   -1    0    0    0  501  0.00000000000E+00  0.00000000000E+00  0.23124752523E+04  0.23124752523E+04  0.25500000920E-02 0.  1.
        2   -1    0    0  501    0  0.00000000000E+00  0.00000000000E+00 -0.11249223842E+04  0.11249223842E+04  0.25500000920E-02 0. -1.
    10030    2    1    2    0    0  0.00000000000E+00  0.00000000000E+00  0.11875528681E+04  0.34373976365E+04  0.32257434332E+04 0.  0.
        5    1    3    3  502    0 -0.12463140305E+04 -0.97894375427E+03  0.91293371891E+03  0.18289613450E+04  0.46999998093E+01 0. -1.
       -5    1    3    3    0  502  0.12463140305E+04  0.97894375427E+03  0.27461914917E+03  0.16084362914E+04  0.46999998093E+01 0.  1.
</event>
<event>
 5   0  0.6085351E-07  0.3243153E+04  0.7818609E-02  0.8177513E-01
        1   -1    0    0  501    0  0.00000000000E+00  0.00000000000E+00  0.11099151761E+04  0.11099151761E+04  0.50400001928E-02 0.  1.
       -1   -1    0    0    0  501  0.00000000000E+00  0.00000000000E+00 -0.23691099654E+04  0.23691099654E+04  0.50400001928E-02 0. -1.
    10030    2    1    2    0    0  0.00000000000E+00  0.00000000000E+00 -0.12591947894E+04  0.34790251415E+04  0.32431534681E+04 0.  0.
        1    1    3    3  502    0 -0.74156448458E+03 -0.27924705890E+03 -0.21472775815E+04  0.22888201800E+04  0.50400001928E-02 0. -1.
       -1    1    3    3    0  502  0.74156448458E+03  0.27924705890E+03  0.88808279211E+03  0.11902049615E+04  0.50400001928E-02 0.  1.
</event>
<event>
 5   0  0.1696681E-06  0.3300794E+04  0.7818609E-02  0.8162693E-01
       -2   -1    0    0    0  501  0.00000000000E+00  0.00000000000E+00  0.16512289235E+04  0.16512289235E+04  0.25500000920E-02 0.  1.
        2   -1    0    0  501    0  0.00000000000E+00  0.00000000000E+00 -0.16495654965E+04  0.16495654965E+04  0.25500000920E-02 0. -1.
    10030    2    1    2    0    0  0.00000000000E+00  0.00000000000E+00  0.16634270031E+01  0.33007944200E+04  0.33007940009E+04 0.  0.
        4    1    3    3  502    0  0.41669789909E+03  0.31592418683E+03 -0.15645321540E+04  0.16496083489E+04  0.12699999809E+01 0. -1.
       -4    1    3    3    0  502 -0.41669789909E+03 -0.31592418683E+03  0.15661955810E+04  0.16511860712E+04  0.12699999809E+01 0.  1.
</event>
<event>
 5   0  0.1832626E-06  0.3295766E+04  0.7818609E-02  0.8163974E-01
       -2   -1    0    0    0  501  0.00000000000E+00  0.00000000000E+00  0.10473000405E+04  0.10473000405E+04  0.25500000920E-02 0. -1.
        2   -1    0    0  501    0  0.00000000000E+00  0.00000000000E+00 -0.25928753601E+04  0.25928753601E+04  0.25500000920E-02 0.  1.
    10030    2    1    2    0    0  0.00000000000E+00  0.00000000000E+00 -0.15455753196E+04  0.36401754006E+04  0.32957660534E+04 0.  0.
        3    1    3    3  502    0 -0.10171841024E+04  0.45726843155E+03 -0.21127250686E+04  0.23890092387E+04  0.10100000352E+00 0.  1.
       -3    1    3    3    0  502  0.10171841024E+04 -0.45726843155E+03  0.56714974907E+03  0.12511661619E+04  0.10100000352E+00 0. -1.
</event>
<event>
 5   0  0.1743810E-06  0.3259612E+04  0.7818609E-02  0.8173249E-01
       -2   -1    0    0    0  501  0.00000000000E+00  0.00000000000E+00  0.84710884376E+03  0.84710884376E+03  0.25500000920E-02 0.  1.
        2   -1    0    0  501    0  0.00000000000E+00  0.00000000000E+00 -0.31356861808E+04  0.31356861808E+04  0.25500000920E-02 0. -1.
    10030    2    1    2    0    0  0.00000000000E+00  0.00000000000E+00 -0.22885773371E+04  0.39827950246E+04  0.32596119370E+04 0.  0.
        5    1    3    3  502    0 -0.32794242298E+03  0.38849235601E+02 -0.30943699749E+04  0.31119452321E+04  0.46999998093E+01 0. -1.
       -5    1    3    3    0  502  0.32794242298E+03 -0.38849235601E+02  0.80579263784E+03  0.87084979250E+03  0.46999998093E+01 0.  1.
</event>
<event>
 5   0  0.1832626E-06  0.3291294E+04  0.7818609E-02  0.8165114E-01
       -2   -1    0    0    0  501  0.00000000000E+00  0.00000000000E+00  0.93355735743E+03  0.93355735743E+03  0.25500000920E-02 0. -1.
        2   -1    0    0  501    0  0.00000000000E+00  0.00000000000E+00 -0.29008973132E+04  0.29008973132E+04  0.25500000920E-02 0.  1.
    10030    2    1    2    0    0  0.00000000000E+00  0.00000000000E+00 -0.19673399557E+04  0.38344546706E+04  0.32912939886E+04 0.  0.
        3    1    3    3  502    0  0.33923289289E+03 -0.30791385939E+03  0.85776380652E+03  0.97244468141E+03  0.10100000352E+00 0. -1.
       -3    1    3    3    0  502 -0.33923289289E+03  0.30791385939E+03 -0.28251037623E+04  0.28620099892E+04  0.10100000352E+00 0.  1.
</event>
<event>
 5   0  0.5858859E-07  0.3248791E+04  0.7818609E-02  0.8176049E-01
       -1   -1    0    0    0  501  0.00000000000E+00  0.00000000000E+00  0.22625959991E+04  0.22625959991E+04  0.50400001928E-02 0. -1.
        1   -1    0    0  501    0  0.00000000000E+00  0.00000000000E+00 -0.11662092565E+04  0.11662092565E+04  0.50400001928E-02 0.  1.
    10030    2    1    2    0    0  0.00000000000E+00  0.00000000000E+00  0.10963867426E+04  0.34288052556E+04  0.32487907891E+04 0.  0.
        3    1    3    3  502    0 -0.50976352258E+03 -0.12958029611E+04 -0.33463410136E+03  0.14321117816E+04  0.10100000352E+00 0.  1.
       -3    1    3    3    0  502  0.50976352258E+03  0.12958029611E+04  0.14310208440E+04  0.19966934740E+04  0.10100000352E+00 0. -1.
</event>
<event>
 5   0  0.5858859E-07  0.3335587E+04  0.7818609E-02  0.8153899E-01
       -1   -1    0    0    0  501  0.00000000000E+00  0.00000000000E+00  0.10676301043E+04  0.10676301043E+04  0.50400001928E-02 0.  1.
        1   -1    0    0  501    0  0.00000000000E+00  0.00000000000E+00 -0.26053360831E+04  0.26053360831E+04  0.50400001928E-02 0. -1.
    10030    2    1    2    0    0  0.00000000000E+00  0.00000000000E+00 -0.15377059788E+04  0.36729661874E+04  0.33355870452E+04 0.  0.
        3    1    3    3  502    0 -0.73024821489E+02  0.16576191624E+04 -0.58295398004E+03  0.17586555277E+04  0.10100000352E+00 0.  1.
       -3    1    3    3    0  502  0.73024821489E+02 -0.16576191624E+04 -0.95475199878E+03  0.19143106596E+04  0.10100000352E+00 0. -1.
</event>
<event>
 5   0  0.1696681E-06  0.2960487E+04  0.7818609E-02  0.8255105E-01
        2   -1    0    0  501    0  0.00000000000E+00  0.00000000000E+00  0.11698396890E+04  0.11698396890E+04  0.25500000920E-02 0.  1.
       -2   -1    0    0    0  501  0.00000000000E+00  0.00000000000E+00 -0.18730100979E+04  0.18730100979E+04  0.25500000920E-02 0. -1.
    10030    2    1    2    0    0  0.00000000000E+00  0.00000000000E+00 -0.70317040889E+03  0.30428497870E+04  0.29604874940E+04 0.  0.
        4    1    3    3  502    0 -0.83550244718E+03 -0.10279323780E+04 -0.10305776468E+04  0.16783328669E+04  0.12699999809E+01 0. -1.
       -4    1    3    3    0  502  0.83550244718E+03  0.10279323780E+04  0.32740723794E+03  0.13645169201E+04  0.12699999809E+01 0.  1.
</event>
<event>
 5   0  0.6023446E-07  0.3264168E+04  0.7818609E-02  0.8172073E-01
       -1   -1    0    0    0  501  0.00000000000E+00  0.00000000000E+00  0.11637205166E+04  0.11637205167E+04  0.50400001928E-02 0.  1.
        1   -1    0    0  501    0  0.00000000000E+00  0.00000000000E+00 -0.22889507440E+04  0.22889507440E+04  0.50400001928E-02 0. -1.
    10030    2    1    2    0    0  0.00000000000E+00  0.00000000000E+00 -0.11252302274E+04  0.34526712607E+04  0.32641684653E+04 0.  0.
        5    1    3    3  502    0 -0.64976416569E+02 -0.14608342388E+04 -0.13293323727E+04  0.19762098207E+04  0.46999998093E+01 0. -1.
       -5    1    3    3    0  502  0.64976416569E+02  0.14608342388E+04  0.20410214536E+03  0.14764614400E+04  0.46999998093E+01 0.  1.
</event>
<event>
 5   0  0.5858859E-07  0.3326022E+04  0.7818609E-02  0.8156305E-01
       -1   -1    0    0    0  501  0.00000000000E+00  0.00000000000E+00  0.20574429301E+04  0.20574429301E+04  0.50400001928E-02 0. -1.
        1   -1    0    0  501    0  0.00000000000E+00  0.00000000000E+00 -0.13441957919E+04  0.13441957919E+04  0.50400001928E-02 0.  1.
    10030    2    1    2    0    0  0.00000000000E+00  0.00000000000E+00  0.71324713816E+03  0.34016387220E+04  0.33260223263E+04 0.  0.
        3    1    3    3  502    0 -0.68255363311E+03 -0.25085043682E+03  0.18862193354E+04  0.20215411930E+04  0.10100000352E+00 0. -1.
       -3    1    3    3    0  502  0.68255363311E+03  0.25085043682E+03 -0.11729721972E+04  0.13800975289E+04  0.10100000352E+00 0.  1.
</event>
<event>
 5   0  0.5685000E-07  0.3288991E+04  0.7818609E-02  0.8165702E-01
       -3   -1    0    0    0  501  0.00000000000E+00  0.00000000000E+00  0.14708619648E+04  0.14708619682E+04  0.10100000352E+00 0. -1.
        3   -1    0    0  501    0  0.00000000000E+00  0.00000000000E+00 -0.18386259535E+04  0.18386259562E+04  0.10100000352E+00 0.  1.
    10030    2    1    2    0    0  0.00000000000E+00  0.00000000000E+00 -0.36776398870E+03  0.33094879245E+04  0.32889907222E+04 0.  0.
        5    1    3    3  502    0 -0.13114032954E+04 -0.29373994770E+03 -0.11375655492E+04  0.17607212240E+04  0.46999998093E+01 0.  1.
       -5    1    3    3    0  502  0.13114032954E+04  0.29373994770E+03  0.76980156050E+03  0.15487667005E+04  0.46999998093E+01 0. -1.
</event>
<event>
 5   0  0.5858859E-07  0.3286424E+04  0.7818609E-02  0.8166358E-01
       -1   -1    0    0    0  501  0.00000000000E+00  0.00000000000E+00  0.11493708825E+04  0.11493708825E+04  0.50400001928E-02 0.  1.
        1   -1    0    0  501    0  0.00000000000E+00  0.00000000000E+00 -0.23492382682E+04  0.23492382682E+04  0.50400001928E-02 0. -1.
    10030    2    1    2    0    0  0.00000000000E+00  0.00000000000E+00 -0.11998673857E+04  0.34986091507E+04  0.32864242340E+04 0.  0.
        3    1    3    3  502    0 -0.52294248158E+03  0.10719676416E+04 -0.18032031581E+04  0.21619725029E+04  0.10100000352E+00 0. -1.
       -3    1    3    3    0  502  0.52294248158E+03 -0.10719676416E+04  0.60333577243E+03  0.13366366478E+04  0.10100000352E+00 0.  1.
</event>
<event>
 5   0  0.1728937E-06  0.3310261E+04  0.7818609E-02  0.8160289E-01
        2   -1    0    0  501    0  0.00000000000E+00  0.00000000000E+00  0.22573666684E+04  0.22573666684E+04  0.25500000920E-02 0.  1.
       -2   -1    0    0    0  501  0.00000000000E+00  0.00000000000E+00 -0.12135631924E+04  0.12135631924E+04  0.25500000920E-02 0. -1.
    10030    2    1    2    0    0  0.00000000000E+00  0.00000000000E+00  0.10438034760E+04  0.34709298608E+04  0.33102610776E+04 0.  0.
        1    1    3    3  502    0 -0.15106669346E+04 -0.32169609409E+02 -0.18639045538E+03  0.15224621089E+04  0.50400001928E-02 0. -1.
       -1    1    3    3    0  502  0.15106669346E+04  0.32169609409E+02  0.12301939314E+04  0.19484677519E+04  0.50400001928E-02 0.  1.
</event>
<event>
 5   0  0.5985183E-07  0.3296137E+04  0.7818609E-02  0.8163879E-01
        1   -1    0    0  501    0  0.00000000000E+00  0.00000000000E+00  0.16065396082E+04  0.16065396082E+04  0.50400001928E-02 0. -1.
       -1   -1    0    0    0  501  0.00000000000E+00  0.00000000000E+00 -0.16906703988E+04  0.16906703989E+04  0.50400001928E-02 0.  1.
    10030    2    1    2    0    0  0.00000000000E+00  0.00000000000E+00 -0.84130790627E+02  0.32972100071E+04  0.32961365022E+04 0.  0.
        2    1    3    3  502    0 -0.13692795473E+04 -0.77568270741E+03 -0.53163138680E+03  0.16610966476E+04  0.25500000920E-02 0.  1.
       -2    1    3    3    0  502  0.13692795473E+04  0.77568270741E+03  0.44750059618E+03  0.16361133594E+04  0.25500000920E-02 0. -1.
</event>
<event>
 5   0  0.5858859E-07  0.3368739E+04  0.7818609E-02  0.8145622E-01
        1   -1    0    0  501    0  0.00000000000E+00  0.00000000000E+00  0.22813272160E+04  0.22813272160E+04  0.50400001928E-02 0. -1.
       -1   -1    0    0    0  501  0.00000000000E+00  0.00000000000E+00 -0.12436181936E+04  0.12436181937E+04  0.50400001928E-02 0.  1.
    10030    2    1    2    0    0  0.00000000000E+00  0.00000000000E+00  0.10377090224E+04  0.35249454097E+04  0.33687386551E+04 0.  0.
        3    1    3    3  502    0 -0.13012550129E+04  0.35494511178E+03  0.15745212391E+04  0.20732505357E+04  0.10100000352E+00 0. -1.
       -3    1    3    3    0  502  0.13012550129E+04 -0.35494511178E+03 -0.53681221672E+03  0.14516948740E+04  0.10100000352E+00 0.  1.
</event>
<event>
 5   0  0.5985183E-07  0.3288584E+04  0.7818609E-02  0.8165806E-01
       -1   -1    0    0    0  501  0.00000000000E+00  0.00000000000E+00  0.10562436671E+04  0.10562436671E+04  0.50400001928E-02 0. -1.
        1   -1    0    0  501    0  0.00000000000E+00  0.00000000000E+00 -0.25597269656E+04  0.25597269656E+04  0.50400001928E-02 0.  1.
    10030    2    1    2    0    0  0.00000000000E+00  0.00000000000E+00 -0.15034832985E+04  0.36159706328E+04  0.32885835231E+04 0.  0.
        2    1    3    3  502    0 -0.11506453857E+03 -0.71303693547E+03 -0.23759687880E+04  0.24833222104E+04  0.25500000920E-02 0.  1.
       -2    1    3    3    0  502  0.11506453857E+03  0.71303693547E+03  0.87248548946E+03  0.11326484224E+04  0.25500000920E-02 0. -1.
</event>
<event>
 5   0  0.5858859E-07  0.3289593E+04  0.7818609E-02  0.8165549E-01
       -1   -1    0    0    0  501  0.00000000000E+00  0.00000000000E+00  0.10312517772E+04  0.10312517773E+04  0.50400001928E-02 0.  1.
        1   -1    0    0  501    0  0.00000000000E+00  0.00000000000E+00 -0.26233700598E+04  0.26233700598E+04  0.50400001928E-02 0. -1.
    10030    2    1    2    0    0  0.00000000000E+00  0.00000000000E+00 -0.15921182825E+04  0.36546218371E+04  0.32895927022E+04 0.  0.
        3    1    3    3  502    0 -0.12621276429E+04 -0.48774650295E+03 -0.18349699928E+04  0.22799073935E+04  0.10100000352E+00 0.  1.
       -3    1    3    3    0  502  0.12621276429E+04  0.48774650295E+03  0.24285171029E+03  0.13747144436E+04  0.10100000352E+00 0. -1.
</event>
<event>
 5   0  0.1743810E-06  0.3306486E+04  0.7818609E-02  0.8161247E-01
       -2   -1    0    0    0  501  0.00000000000E+00  0.00000000000E+00  0.19235424047E+04  0.19235424047E+04  0.25500000920E-02 0. -1.
        2   -1    0    0  501    0  0.00000000000E+00  0.00000000000E+00 -0.14209265006E+04  0.14209265006E+04  0.25500000920E-02 0.  1.
    10030    2    1    2    0    0  0.00000000000E+00  0.00000000000E+00  0.50261590415E+03  0.33444689053E+04  0.33064859763E+04 0.  0.
        5    1    3    3  502    0 -0.71272655628E+03 -0.64970974062E+03 -0.11069085000E+04  0.14681179818E+04  0.46999998093E+01 0.  1.
       -5    1    3    3    0  502  0.71272655628E+03  0.64970974062E+03  0.16095244041E+04  0.18763509236E+04  0.46999998093E+01 0. -1.
</event>
<event>
 5   0  0.1728937E-06  0.3318178E+04  0.7818609E-02  0.8158285E-01
       -2   -1    0    0    0  501  0.00000000000E+00  0.00000000000E+00  0.20503028964E+04  0.20503028964E+04  0.25500000920E-02 0. -1.
        2   -1    0    0  501    0  0.00000000000E+00  0.00000000000E+00 -0.13425216170E+04  0.13425216170E+04  0.25500000920E-02 0.  1.
    10030    2    1    2    0    0  0.00000000000E+00  0.00000000000E+00  0.70778127939E+03  0.33928245133E+04  0.33181777889E+04 0.  0.
        1    1    3    3  502    0  0.25678111141E+03  0.16366587145E+04  0.44527500030E+03  0.17154760601E+04  0.50400001928E-02 0.  1.
       -1    1    3    3    0  502 -0.25678111141E+03 -0.16366587145E+04  0.26250627909E+03  0.16773484532E+04  0.50400001928E-02 0. -1.
</event>
<event>
 5   0  0.6085351E-07  0.3315963E+04  0.7818609E-02  0.8158845E-01
        1   -1    0    0  501    0  0.00000000000E+00  0.00000000000E+00  0.22857337660E+04  0.22857337660E+04  0.50400001928E-02 0. -1.
       -1   -1    0    0    0  501  0.00000000000E+00  0.00000000000E+00 -0.12026348244E+04  0.12026348244E+04  0.50400001928E-02 0.  1.
    10030    2    1    2    0    0  0.00000000000E+00  0.00000000000E+00  0.10830989416E+04  0.34883685904E+04  0.33159632243E+04 0.  0.
        1    1    3    3  502    0  0.77654183228E+03 -0.19789232891E+02  0.20824561369E+04  0.22226183643E+04  0.50400001928E-02 0. -1.
       -1    1    3    3    0  502 -0.77654183228E+03  0.19789232891E+02 -0.99935719533E+03  0.12657502261E+04  0.50400001928E-02 0.  1.
</event>
<event>
 5   0  0.1784626E-06  0.3258038E+04  0.7818609E-02  0.8173655E-01
        2   -1    0    0  501    0  0.00000000000E+00  0.00000000000E+00  0.16808729989E+04  0.16808729990E+04  0.25500000920E-02 0.  1.
       -2   -1    0    0    0  501  0.00000000000E+00  0.00000000000E+00 -0.15787646902E+04  0.15787646902E+04  0.25500000920E-02 0. -1.
    10030    2    1    2    0    0  0.00000000000E+00  0.00000000000E+00  0.10210830874E+03  0.32596376892E+04  0.32580380228E+04 0.  0.
        2    1    3    3  502    0  0.51476943305E+03 -0.15454657510E+04  0.35203944391E+02  0.16293223360E+04  0.25500000920E-02 0. -1.
       -2    1    3    3    0  502 -0.51476943305E+03  0.15454657510E+04  0.66904364349E+02  0.16303153532E+04  0.25500000920E-02 0.  1.
</event>
<event>
 5   0  0.1743810E-06  0.3311617E+04  0.7818609E-02  0.8159946E-01
        2   -1    0    0  501    0  0.00000000000E+00  0.00000000000E+00  0.16760656683E+04  0.16760656683E+04  0.25500000920E-02 0. -1.
       -2   -1    0    0    0  501  0.00000000000E+00  0.00000000000E+00 -0.16357959094E+04  0.16357959094E+04  0.25500000920E-02 0.  1.
    10030    2    1    2    0    0  0.00000000000E+00  0.00000000000E+00  0.40269758896E+02  0.33118615778E+04  0.33116167436E+04 0.  0.
        5    1    3    3  502    0 -0.16389187220E+04  0.88185546834E+02 -0.19862316374E+03  0.16532708547E+04  0.46999998093E+01 0.  1.
       -5    1    3    3    0  502  0.16389187220E+04 -0.88185546834E+02  0.23889292263E+03  0.16585907230E+04  0.46999998093E+01 0. -1.
</event>
<event>
 5   0  0.5985183E-07  0.3323621E+04  0.7818609E-02  0.8156911E-01
        1   -1    0    0  501    0  0.00000000000E+00  0.00000000000E+00  0.10420256279E+04  0.10420256280E+04  0.50400001928E-02 0.  1.
       -1   -1    0    0    0  501  0.00000000000E+00  0.00000000000E+00 -0.26502354977E+04  0.26502354977E+04  0.50400001928E-02 0. -1.
    10030    2    1    2    0    0  0.00000000000E+00  0.00000000000E+00 -0.16082098698E+04  0.36922611257E+04  0.33236205010E+04 0.  0.
        2    1    3    3  502    0 -0.28190420754E+03  0.11478200675E+04  0.49364795112E+03  0.12808782882E+04  0.25500000920E-02 0.  1.
       -2    1    3    3    0  502  0.28190420754E+03 -0.11478200675E+04 -0.21018578209E+04  0.24113828374E+04  0.25500000920E-02 0. -1.
</event>
<event>
 5   0  0.1784626E-06  0.3298007E+04  0.7818609E-02  0.8163403E-01
       -2   -1    0    0    0  501  0.00000000000E+00  0.00000000000E+00  0.13040261594E+04  0.13040261594E+04  0.25500000920E-02 0.  1.
        2   -1    0    0  501    0  0.00000000000E+00  0.00000000000E+00 -0.20852435041E+04  0.20852435041E+04  0.25500000920E-02 0. -1.
    10030    2    1    2    0    0  0.00000000000E+00  0.00000000000E+00 -0.78121734461E+03  0.33892696635E+04  0.32980067181E+04 0.  0.
        2    1    3    3  502    0 -0.91674860370E+03  0.12009283470E+04 -0.10696155321E+04  0.18511440472E+04  0.25500000920E-02 0. -1.
       -2    1    3    3    0  502  0.91674860370E+03 -0.12009283470E+04  0.28839818747E+03  0.15381256163E+04  0.25500000920E-02 0.  1.
</event>
<event>
 5   0  0.1832626E-06  0.3274282E+04  0.7818609E-02  0.8169470E-01
       -2   -1    0    0    0  501  0.00000000000E+00  0.00000000000E+00  0.13594845188E+04  0.13594845188E+04  0.25500000920E-02 0.  1.
        2   -1    0    0  501    0  0.00000000000E+00  0.00000000000E+00 -0.19715051674E+04  0.19715051674E+04  0.25500000920E-02 0. -1.
    10030    2    1    2    0    0  0.00000000000E+00  0.00000000000E+00 -0.61202064860E+03  0.33309896863E+04  0.32742820611E+04 0.  0.
        3    1    3    3  502    0  0.65942774529E+03 -0.58053801205E+03  0.10993494291E+04  0.14072805378E+04  0.10100000352E+00 0.  1.
       -3    1    3    3    0  502 -0.65942774529E+03  0.58053801205E+03 -0.17113700777E+04  0.19237091484E+04  0.10100000352E+00 0. -1.
</event>
<event>
 5   0  0.5685000E-07  0.3288527E+04  0.7818609E-02  0.8165821E-01
        3   -1    0    0  501    0  0.00000000000E+00  0.00000000000E+00  0.11087868730E+04  0.11087868776E+04  0.10100000352E+00 0. -1.
       -3   -1    0    0    0  501  0.00000000000E+00  0.00000000000E+00 -0.24383425254E+04  0.24383425275E+04  0.10100000352E+00 0.  1.
    10030    2    1    2    0    0  0.00000000000E+00  0.00000000000E+00 -0.13295556524E+04  0.35471294050E+04  0.32885268409E+04 0.  0.
        4    1    3    3  502    0 -0.16627654283E+03  0.59807241948E+03  0.97753886570E+03  0.11579820182E+04  0.12699999809E+01 0. -1.
       -4    1    3    3    0  502  0.16627654283E+03 -0.59807241948E+03 -0.23070945181E+04  0.23891473868E+04  0.12699999809E+01 0.  1.
</event>
<event>
 5   0  0.6023446E-07  0.3305681E+04  0.7818609E-02  0.8161451E-01
       -1   -1    0    0    0  501  0.00000000000E+00  0.00000000000E+00  0.14729502841E+04  0.14729502841E+04  0.50400001928E-02 0.  1.
        1   -1    0    0  501    0  0.00000000000E+00  0.00000000000E+00 -0.18547006876E+04  0.18547006876E+04  0.50400001928E-02 0. -1.
    10030    2    1    2    0    0  0.00000000000E+00  0.00000000000E+00 -0.38175040352E+03  0.33276509717E+04  0.33056811127E+04 0.  0.
        5    1    3    3  502    0  0.45286132029E+03 -0.16251610546E+03 -0.17826385967E+04  0.18464336751E+04  0.46999998093E+01 0. -1.
       -5    1    3    3    0  502 -0.45286132029E+03  0.16251610546E+03  0.14008881932E+04  0.14812172966E+04  0.46999998093E+01 0.  1.
</event>
<event>
 5   0  0.1728937E-06  0.3332679E+04  0.7818609E-02  0.8154630E-01
       -2   -1    0    0    0  501  0.00000000000E+00  0.00000000000E+00  0.16154753450E+04  0.16154753450E+04  0.25500000920E-02 0.  1.
        2   -1    0    0  501    0  0.00000000000E+00  0.00000000000E+00 -0.17188053977E+04  0.17188053977E+04  0.25500000920E-02 0. -1.
    10030    2    1    2    0    0  0.00000000000E+00  0.00000000000E+00 -0.10333005265E+03  0.33342807427E+04  0.33326792482E+04 0.  0.
        1    1    3    3  502    0 -0.65494148932E+03  0.20586194275E+03  0.14674058835E+04  0.16200640484E+04  0.50400001928E-02 0.  1.
       -1    1    3    3    0  502  0.65494148932E+03 -0.20586194275E+03 -0.15707359362E+04  0.17142166943E+04  0.50400001928E-02 0. -1.
</event>
<event>
 5   0  0.5988516E-07  0.3311268E+04  0.7818609E-02  0.8160034E-01
        1   -1    0    0  501    0  0.00000000000E+00  0.00000000000E+00  0.11738411089E+04  0.11738411089E+04  0.50400001928E-02 0.  1.
       -1   -1    0    0    0  501  0.00000000000E+00  0.00000000000E+00 -0.23351740696E+04  0.23351740696E+04  0.50400001928E-02 0. -1.
    10030    2    1    2    0    0  0.00000000000E+00  0.00000000000E+00 -0.11613329607E+04  0.35090151785E+04  0.33112676239E+04 0.  0.
        4    1    3    3  502    0 -0.10069380337E+04  0.11530836830E+04 -0.12488745354E+04  0.19756556891E+04  0.12699999809E+01 0. -1.
       -4    1    3    3    0  502  0.10069380337E+04 -0.11530836830E+04  0.87541574755E+02  0.15333594894E+04  0.12699999809E+01 0.  1.
</event>
<event>
 5   0  0.5985183E-07  0.3387177E+04  0.7818609E-02  0.8141061E-01
       -1   -1    0    0    0  501  0.00000000000E+00  0.00000000000E+00  0.21591209595E+04  0.21591209596E+04  0.50400001928E-02 0. -1.
        1   -1    0    0  501    0  0.00000000000E+00  0.00000000000E+00 -0.13284304197E+04  0.13284304197E+04  0.50400001928E-02 0.  1.
    10030    2    1    2    0    0  0.00000000000E+00  0.00000000000E+00  0.83069053984E+03  0.34875513793E+04  0.33871769735E+04 0.  0.
        2    1    3    3  502    0 -0.68601629441E+03  0.14331233338E+04  0.10190488273E+04  0.18875702261E+04  0.25500000920E-02 0. -1.
       -2    1    3    3    0  502  0.68601629441E+03 -0.14331233338E+04 -0.18835828743E+03  0.15999811532E+04  0.25500000920E-02 0.  1.
</event>
<event>
 5   0  0.1696681E-06  0.3284213E+04  0.7818609E-02  0.8166924E-01
        2   -1    0    0  501    0  0.00000000000E+00  0.00000000000E+00  0.83444365990E+03  0.83444365991E+03  0.25500000920E-02 0. -1.
       -2   -1    0    0    0  501  0.00000000000E+00  0.00000000000E+00 -0.32315109791E+04  0.32315109791E+04  0.25500000920E-02 0.  1.
    10030    2    1    2    0    0  0.00000000000E+00  0.00000000000E+00 -0.23970673192E+04  0.40659546391E+04  0.32842130555E+04 0.  0.
        4    1    3    3  502    0  0.75015679030E+03  0.14274320022E+04 -0.81451495108E+03  0.18065806236E+04  0.12699999809E+01 0.  1.
       -4    1    3    3    0  502 -0.75015679030E+03 -0.14274320022E+04 -0.15825523682E+04  0.22593740155E+04  0.12699999809E+01 0. -1.
</event>
<event>
 5   0  0.1784626E-06  0.2765163E+04  0.7818609E-02  0.8314166E-01
        2   -1    0    0  501    0  0.00000000000E+00  0.00000000000E+00  0.26052963412E+04  0.26052963412E+04  0.25500000920E-02 0. -1.
       -2   -1    0    0    0  501  0.00000000000E+00  0.00000000000E+00 -0.73370967984E+03  0.73370967985E+03  0.25500000920E-02 0.  1.
    10030    2    1    2    0    0  0.00000000000E+00  0.00000000000E+00  0.18715866613E+04  0.33390060210E+04  0.27651626675E+04 0.  0.
        2    1    3    3  502    0  0.44294079836E+03 -0.49723073576E+03  0.23988925312E+04  0.24896024445E+04  0.25500000920E-02 0. -1.
       -2    1    3    3    0  502 -0.44294079836E+03  0.49723073576E+03 -0.52730586985E+03  0.84940357653E+03  0.25500000920E-02 0.  1.
</event>
<event>
 5   0  0.1832626E-06  0.3293603E+04  0.7818609E-02  0.8164525E-01
        2   -1    0    0  501    0  0.00000000000E+00  0.00000000000E+00  0.18692861445E+04  0.18692861445E+04  0.25500000920E-02 0. -1.
       -2   -1    0    0    0  501  0.00000000000E+00  0.00000000000E+00 -0.14507974451E+04  0.14507974451E+04  0.25500000920E-02 0.  1.
    10030    2    1    2    0    0  0.00000000000E+00  0.00000000000E+00  0.41848869932E+03  0.33200835896E+04  0.32936032321E+04 0.  0.
        3    1    3    3  502    0  0.18991659234E+03 -0.26679267706E+03  0.18361311499E+04  0.18651070357E+04  0.10100000352E+00 0. -1.
       -3    1    3    3    0  502 -0.18991659234E+03  0.26679267706E+03 -0.14176424506E+04  0.14549765539E+04  0.10100000352E+00 0.  1.
</event>
<event>
 5   0  0.5985183E-07  0.3313483E+04  0.7818609E-02  0.8159473E-01
        1   -1    0    0  501    0  0.00000000000E+00  0.00000000000E+00  0.20640262283E+04  0.20640262283E+04  0.50400001928E-02 0.  1.
       -1   -1    0    0    0  501  0.00000000000E+00  0.00000000000E+00 -0.13298243850E+04  0.13298243850E+04  0.50400001928E-02 0. -1.
    10030    2    1    2    0    0  0.00000000000E+00  0.00000000000E+00  0.73420184331E+03  0.33938506133E+04  0.33134830072E+04 0.  0.
        2    1    3    3  502    0 -0.10083788735E+03 -0.94860174683E+03 -0.10202931607E+04  0.13967861996E+04  0.25500000920E-02 0. -1.
       -2    1    3    3    0  502  0.10083788735E+03  0.94860174683E+03  0.17544950040E+04  0.19970644137E+04  0.25500000920E-02 0.  1.
</event>
<event>
 5   0  0.1696681E-06  0.3279778E+04  0.7818609E-02  0.8168060E-01
        2   -1    0    0  501    0  0.00000000000E+00  0.00000000000E+00  0.23307452061E+04  0.23307452061E+04  0.25500000920E-02 0.  1.
       -2   -1    0    0    0  501  0.00000000000E+00  0.00000000000E+00 -0.11538093155E+04  0.11538093155E+04  0.25500000920E-02 0. -1.
    10030    2    1    2    0    0  0.00000000000E+00  0.00000000000E+00  0.11769358907E+04  0.34845545216E+04  0.32797777551E+04 0.  0.
        4    1    3    3  502    0  0.10117106304E+04 -0.32760239161E+03  0.19147492755E+04  0.21902392855E+04  0.12699999809E+01 0.  1.
       -4    1    3    3    0  502 -0.10117106304E+04  0.32760239161E+03 -0.73781338486E+03  0.12943152361E+04  0.12699999809E+01 0. -1.
</event>
<event>
 5   0  0.1832626E-06  0.3308661E+04  0.7818609E-02  0.8160695E-01
        2   -1    0    0  501    0  0.00000000000E+00  0.00000000000E+00  0.22701982039E+04  0.22701982039E+04  0.25500000920E-02 0.  1.
       -2   -1    0    0    0  501  0.00000000000E+00  0.00000000000E+00 -0.12055377104E+04  0.12055377104E+04  0.25500000920E-02 0. -1.
    10030    2    1    2    0    0  0.00000000000E+00  0.00000000000E+00  0.10646604935E+04  0.34757359143E+04  0.33086610856E+04 0.  0.
        3    1    3    3  502    0 -0.40841901650E+03 -0.14891271120E+04  0.11560312495E+04  0.19289152156E+04  0.10100000352E+00 0.  1.
       -3    1    3    3    0  502  0.40841901650E+03  0.14891271120E+04 -0.91370755968E+02  0.15468206988E+04  0.10100000352E+00 0. -1.
</event>
<event>
 5   0  0.5858859E-07  0.3044344E+04  0.7818609E-02  0.8231180E-01
        1   -1    0    0  501    0  0.00000000000E+00  0.00000000000E+00  0.15301936342E+04  0.15301936342E+04  0.50400001928E-02 0. -1.
       -1   -1    0    0    0  501  0.00000000000E+00  0.00000000000E+00 -0.15141922389E+04  0.15141922389E+04  0.50400001928E-02 0.  1.
    10030    2    1    2    0    0  0.00000000000E+00  0.00000000000E+00  0.16001395372E+02  0.30443858731E+04  0.30443438209E+04 0.  0.
        3    1    3    3  502    0  0.11869091055E+04  0.81704784855E+02  0.95752864657E+03  0.15271836877E+04  0.10100000352E+00 0. -1.
       -3    1    3    3    0  502 -0.11869091055E+04 -0.81704784855E+02 -0.94152725120E+03  0.15172021855E+04  0.10100000352E+00 0.  1.
</event>
<event>
 5   0  0.1832626E-06  0.3297611E+04  0.7818609E-02  0.8163504E-01
       -2   -1    0    0    0  501  0.00000000000E+00  0.00000000000E+00  0.13870652701E+04  0.13870652702E+04  0.25500000920E-02 0. -1.
        2   -1    0    0  501    0  0.00000000000E+00  0.00000000000E+00 -0.19599358480E+04  0.19599358480E+04  0.25500000920E-02 0.  1.
    10030    2    1    2    0    0  0.00000000000E+00  0.00000000000E+00 -0.57287057784E+03  0.33470011181E+04  0.32976106177E+04 0.  0.
        3    1    3    3  502    0  0.35577055285E+03  0.33416185394E+03 -0.18849275079E+04  0.19470974683E+04  0.10100000352E+00 0.  1.
       -3    1    3    3    0  502 -0.35577055285E+03 -0.33416185394E+03  0.13120569301E+04  0.13999036498E+04  0.10100000352E+00 0. -1.
</event>
<event>
 5   0  0.5985183E-07  0.3402845E+04  0.7818609E-02  0.8137208E-01
       -1   -1    0    0    0  501  0.00000000000E+00  0.00000000000E+00  0.11366902573E+04  0.11366902574E+04  0.50400001928E-02 0.  1.
        1   -1    0    0  501    0  0.00000000000E+00  0.00000000000E+00 -0.25467264640E+04  0.25467264640E+04  0.50400001928E-02 0. -1.
    10030    2    1    2    0    0  0.00000000000E+00  0.00000000000E+00 -0.14100362067E+04  0.36834167214E+04  0.34028453740E+04 0.  0.
        2    1    3    3  502    0  0.78906588454E+03  0.77883453667E+03 -0.21020233327E+04  0.23764911733E+04  0.25500000920E-02 0. -1.
       -2    1    3    3    0  502 -0.78906588454E+03 -0.77883453667E+03  0.69198712601E+03  0.13069255481E+04  0.25500000920E-02 0.  1.
</event>
<event>
 5   0  0.6085351E-07  0.3296332E+04  0.7818609E-02  0.8163829E-01
       -1   -1    0    0    0  501  0.00000000000E+00  0.00000000000E+00  0.24662874589E+04  0.24662874589E+04  0.50400001928E-02 0. -1.
        1   -1    0    0  501    0  0.00000000000E+00  0.00000000000E+00 -0.11014333430E+04  0.11014333430E+04  0.50400001928E-02 0.  1.
    10030    2    1    2    0    0  0.00000000000E+00  0.00000000000E+00  0.13648541159E+04  0.35677208019E+04  0.32963320468E+04 0.  0.
        1    1    3    3  502    0  0.15124381217E+04 -0.44550206929E+03  0.12020697977E+04  0.19826530116E+04  0.50400001928E-02 0. -1.
       -1    1    3    3    0  502 -0.15124381217E+04  0.44550206929E+03  0.16278431823E+03  0.15850677904E+04  0.50400001928E-02 0.  1.
</event>
<event>
 5   0  0.1696681E-06  0.3380401E+04  0.7818609E-02  0.8142733E-01
       -2   -1    0    0    0  501  0.00000000000E+00  0.00000000000E+00  0.13323112285E+04  0.13323112285E+04  0.25500000920E-02 0. -1.
        2   -1    0    0  501    0  0.00000000000E+00  0.00000000000E+00 -0.21442265973E+04  0.21442265973E+04  0.25500000920E-02 0.  1.
    10030    2    1    2    0    0  0.00000000000E+00  0.00000000000E+00 -0.81191536876E+03  0.34765378257E+04  0.33804006697E+04 0.  0.
        4    1    3    3  502    0 -0.59343991801E+03  0.15382126631E+04 -0.78870639929E+03  0.18276565679E+04  0.12699999809E+01 0. -1.
       -4    1    3    3    0  502  0.59343991801E+03 -0.15382126631E+04 -0.23208969469E+02  0.16488812578E+04  0.12699999809E+01 0.  1.
</event>
<event>
 5   0  0.1696681E-06  0.3472623E+04  0.7818609E-02  0.8120309E-01
       -2   -1    0    0    0  501  0.00000000000E+00  0.00000000000E+00  0.11448195848E+04  0.11448195848E+04  0.25500000920E-02 0.  1.
        2   -1    0    0  501    0  0.00000000000E+00  0.00000000000E+00 -0.26334081862E+04  0.26334081862E+04  0.25500000920E-02 0. -1.
    10030    2    1    2    0    0  0.00000000000E+00  0.00000000000E+00 -0.14885886014E+04  0.37782277710E+04  0.34726227934E+04 0.  0.
        4    1    3    3  502    0 -0.21743887779E+03  0.17226101344E+04 -0.75572159452E+03  0.18936161390E+04  0.12699999809E+01 0.  1.
       -4    1    3    3    0  502  0.21743887779E+03 -0.17226101344E+04 -0.73286700683E+03  0.18846116320E+04  0.12699999809E+01 0. -1.
</event>
<event>
 5   0  0.1696681E-06  0.3292687E+04  0.7818609E-02  0.8164759E-01
       -2   -1    0    0    0  501  0.00000000000E+00  0.00000000000E+00  0.16456454987E+04  0.16456454987E+04  0.25500000920E-02 0.  1.
        2   -1    0    0  501    0  0.00000000000E+00  0.00000000000E+00 -0.16470418796E+04  0.16470418796E+04  0.25500000920E-02 0. -1.
    10030    2    1    2    0    0  0.00000000000E+00  0.00000000000E+00 -0.13963808765E+01  0.32926873784E+04  0.32926870823E+04 0.  0.
        4    1    3    3  502    0  0.11660568857E+04  0.24474354017E+03  0.11354609593E+04  0.16458618606E+04  0.12699999809E+01 0.  1.
       -4    1    3    3    0  502 -0.11660568857E+04 -0.24474354017E+03 -0.11368573402E+04  0.16468255178E+04  0.12699999809E+01 0. -1.
</event>
<event>
 5   0  0.6085351E-07  0.2694294E+04  0.7818609E-02  0.8336859E-01
        1   -1    0    0  501    0  0.00000000000E+00  0.00000000000E+00  0.12766827484E+04  0.12766827484E+04  0.50400001928E-02 0. -1.
       -1   -1    0    0    0  501  0.00000000000E+00  0.00000000000E+00 -0.14215005257E+04  0.14215005257E+04  0.50400001928E-02 0.  1.
    10030    2    1    2    0    0  0.00000000000E+00  0.00000000000E+00 -0.14481777730E+03  0.26981832742E+04  0.26942941177E+04 0.  0.
        1    1    3    3  502    0 -0.65949449947E+03 -0.46450450712E+03  0.10080867946E+04  0.12910989185E+04  0.50400001928E-02 0. -1.
       -1    1    3    3    0  502  0.65949449947E+03  0.46450450712E+03 -0.11529045719E+04  0.14070843557E+04  0.50400001928E-02 0.  1.
</event>
<event>
 5   0  0.1832626E-06  0.3344056E+04  0.7818609E-02  0.8151775E-01
       -2   -1    0    0    0  501  0.00000000000E+00  0.00000000000E+00  0.11743327510E+04  0.11743327510E+04  0.25500000920E-02 0. -1.
        2   -1    0    0  501    0  0.00000000000E+00  0.00000000000E+00 -0.23806517360E+04  0.23806517360E+04  0.25500000920E-02 0.  1.
    10030    2    1    2    0    0  0.00000000000E+00  0.00000000000E+00 -0.12063189850E+04  0.35549844870E+04  0.33440558024E+04 0.  0.
        3    1    3    3  502    0 -0.10420315805E+04  0.61314652197E+03 -0.18309538642E+04  0.21941218141E+04  0.10100000352E+00 0.  1.
       -3    1    3    3    0  502  0.10420315805E+04 -0.61314652197E+03  0.62463487915E+03  0.13608626729E+04  0.10100000352E+00 0. -1.
</event>
<event>
 5   0  0.1728937E-06  0.3305992E+04  0.7818609E-02  0.8161372E-01
        2   -1    0    0  501    0  0.00000000000E+00  0.00000000000E+00  0.13383061044E+04  0.13383061044E+04  0.25500000920E-02 0.  1.
       -2   -1    0    0    0  501  0.00000000000E+00  0.00000000000E+00 -0.20416820593E+04  0.20416820593E+04  0.25500000920E-02 0. -1.
    10030    2    1    2    0    0  0.00000000000E+00  0.00000000000E+00 -0.70337595492E+03  0.33799881636E+04  0.33059918712E+04 0.  0.
        1    1    3    3  502    0  0.35658896713E+03  0.46806953910E+03  0.12276036734E+04  0.13613432939E+04  0.50400001928E-02 0.  1.
       -1    1    3    3    0  502 -0.35658896713E+03 -0.46806953910E+03 -0.19309796283E+04  0.20186448697E+04  0.50400001928E-02 0. -1.
</event>
<event>
 5   0  0.5985183E-07  0.3302126E+04  0.7818609E-02  0.8162355E-01
       -1   -1    0    0    0  501  0.00000000000E+00  0.00000000000E+00  0.13413384035E+04  0.13413384035E+04  0.50400001928E-02 0. -1.
        1   -1    0    0  501    0  0.00000000000E+00  0.00000000000E+00 -0.20323057790E+04  0.20323057790E+04  0.50400001928E-02 0.  1.
    10030    2    1    2    0    0  0.00000000000E+00  0.00000000000E+00 -0.69096737554E+03  0.33736441825E+04  0.33021264597E+04 0.  0.
        2    1    3    3  502    0 -0.98654706173E+02  0.44446973871E+03  0.12759374782E+04  0.13547333863E+04  0.25500000920E-02 0. -1.
       -2    1    3    3    0  502  0.98654706173E+02 -0.44446973871E+03 -0.19669048537E+04  0.20189107962E+04  0.25500000920E-02 0.  1.
</event>
<event>
 5   0  0.6085351E-07  0.3301896E+04  0.7818609E-02  0.8162413E-01
       -1   -1    0    0    0  501  0.00000000000E+00  0.00000000000E+00  0.10799630593E+04  0.10799630593E+04  0.50400001928E-02 0.  1.
        1   -1    0    0  501    0  0.00000000000E+00  0.00000000000E+00 -0.25238176325E+04  0.25238176325E+04  0.50400001928E-02 0. -1.
    10030    2    1    2    0    0  0.00000000000E+00  0.00000000000E+00 -0.14438545732E+04  0.36037806918E+04  0.33018963106E+04 0.  0.
        1    1    3    3  502    0  0.23379368223E+03 -0.10471916490E+04 -0.20913796924E+04  0.23505613911E+04  0.50400001928E-02 0. -1.
       -1    1    3    3    0  502 -0.23379368223E+03  0.10471916490E+04  0.64752511921E+03  0.12532193007E+04  0.50400001928E-02 0.  1.
</event>
<event>
 5   0  0.5985183E-07  0.3293808E+04  0.7818609E-02  0.8164473E-01
       -1   -1    0    0    0  501  0.00000000000E+00  0.00000000000E+00  0.15433682601E+04  0.15433682601E+04  0.50400001928E-02 0. -1.
        1   -1    0    0  501    0  0.00000000000E+00  0.00000000000E+00 -0.17573849581E+04  0.17573849581E+04  0.50400001928E-02 0.  1.
    10030    2    1    2    0    0  0.00000000000E+00  0.00000000000E+00 -0.21401669805E+03  0.33007532182E+04  0.32938076234E+04 0.  0.
        2    1    3    3  502    0  0.10652387492E+04 -0.12298704901E+04  0.14843532618E+03  0.16338139616E+04  0.25500000920E-02 0.  1.
       -2    1    3    3    0  502 -0.10652387492E+04  0.12298704901E+04 -0.36245202423E+03  0.16669392565E+04  0.25500000920E-02 0. -1.
</event>
<event>
 5   0  0.1832626E-06  0.3271724E+04  0.7818609E-02  0.8170128E-01
        2   -1    0    0  501    0  0.00000000000E+00  0.00000000000E+00  0.13477444479E+04  0.13477444479E+04  0.25500000920E-02 0.  1.
       -2   -1    0    0    0  501  0.00000000000E+00  0.00000000000E+00 -0.19855725709E+04  0.19855725709E+04  0.25500000920E-02 0. -1.
    10030    2    1    2    0    0  0.00000000000E+00  0.00000000000E+00 -0.63782812298E+03  0.33333170187E+04  0.32717239543E+04 0.  0.
        3    1    3    3  502    0 -0.19929798341E+03 -0.48116733053E+03 -0.18988507800E+04  0.19689784105E+04  0.10100000352E+00 0. -1.
       -3    1    3    3    0  502  0.19929798341E+03  0.48116733053E+03  0.12610226570E+04  0.13643386082E+04  0.10100000352E+00 0.  1.
</event>
<event>
 5   0  0.5985183E-07  0.3305516E+04  0.7818609E-02  0.8161493E-01
        1   -1    0    0  501    0  0.00000000000E+00  0.00000000000E+00  0.22181780882E+04  0.22181780882E+04  0.50400001928E-02 0.  1.
       -1   -1    0    0    0  501  0.00000000000E+00  0.00000000000E+00 -0.12314652171E+04  0.12314652171E+04  0.50400001928E-02 0. -1.
    10030    2    1    2    0    0  0.00000000000E+00  0.00000000000E+00  0.98671287109E+03  0.34496433054E+04  0.33055160935E+04 0.  0.
        2    1    3    3  502    0  0.14785356124E+04  0.59785607862E+03  0.94598350747E+03  0.18542880694E+04  0.25500000920E-02 0.  1.
       -2    1    3    3    0  502 -0.14785356124E+04 -0.59785607862E+03  0.40729363619E+02  0.15953552360E+04  0.25500000920E-02 0. -1.
</event>
<event>
 5   0  0.1696681E-06  0.3329666E+04  0.7818609E-02  0.8155388E-01
       -2   -1    0    0    0  501  0.00000000000E+00  0.00000000000E+00  0.17769022983E+04  0.17769022983E+04  0.25500000920E-02 0. -1.
        2   -1    0    0  501    0  0.00000000000E+00  0.00000000000E+00 -0.15598317984E+04  0.15598317984E+04  0.25500000920E-02 0.  1.
    10030    2    1    2    0    0  0.00000000000E+00  0.00000000000E+00  0.21707049993E+03  0.33367340968E+04  0.33296658737E+04 0.  0.
        4    1    3    3  502    0  0.59923860879E+03  0.20667890886E+03  0.16512394338E+04  0.17687273284E+04  0.12699999809E+01 0. -1.
       -4    1    3    3    0  502 -0.59923860879E+03 -0.20667890886E+03 -0.14341689339E+04  0.15680067683E+04  0.12699999809E+01 0.  1.
</event>
<event>
 5   0  0.5858859E-07  0.3284480E+04  0.7818609E-02  0.8166856E-01
       -1   -1    0    0    0  501  0.00000000000E+00  0.00000000000E+00  0.94694294398E+03  0.94694294399E+03  0.50400001928E-02 0.  1.
        1   -1    0    0  501    0  0.00000000000E+00  0.00000000000E+00 -0.28480620469E+04  0.28480620469E+04  0.50400001928E-02 0. -1.
    10030    2    1    2    0    0  0.00000000000E+00  0.00000000000E+00 -0.19011191029E+04  0.37950049909E+04  0.32844800254E+04 0.  0.
        3    1    3    3  502    0 -0.94634371235E+03 -0.13014261438E+04 -0.13297041028E+04  0.20874360926E+04  0.10100000352E+00 0.  1.
       -3    1    3    3    0  502  0.94634371235E+03  0.13014261438E+04 -0.57141500010E+03  0.17075688982E+04  0.10100000352E+00 0. -1.
</event>
<event>
 5   0  0.6085351E-07  0.3318583E+04  0.7818609E-02  0.8158183E-01
       -1   -1    0    0    0  501  0.00000000000E+00  0.00000000000E+00  0.16706504506E+04  0.16706504506E+04  0.50400001928E-02 0. -1.
        1   -1    0    0  501    0  0.00000000000E+00  0.00000000000E+00 -0.16480096367E+04  0.16480096367E+04  0.50400001928E-02 0.  1.
    10030    2    1    2    0    0  0.00000000000E+00  0.00000000000E+00  0.22640813944E+02  0.33186600873E+04  0.33185828554E+04 0.  0.
        1    1    3    3  502    0  0.95330379505E+02  0.13519377105E+04 -0.94600254972E+03  0.16527989225E+04  0.50400001928E-02 0.  1.
       -1    1    3    3    0  502 -0.95330379505E+02 -0.13519377105E+04  0.96864336366E+03  0.16658611647E+04  0.50400001928E-02 0. -1.
</event>
<event>
 5   0  0.1696681E-06  0.3137921E+04  0.7818609E-02  0.8205407E-01
        2   -1    0    0  501    0  0.00000000000E+00  0.00000000000E+00  0.20962494823E+04  0.20962494823E+04  0.25500000920E-02 0. -1.
       -2   -1    0    0    0  501  0.00000000000E+00  0.00000000000E+00 -0.11743056829E+04  0.11743056829E+04  0.25500000920E-02 0.  1.
    10030    2    1    2    0    0  0.00000000000E+00  0.00000000000E+00  0.92194379938E+03  0.32705551653E+04  0.31379214011E+04 0.  0.
        4    1    3    3  502    0  0.12318827370E+04 -0.78975369695E+03  0.10509269906E+04  0.18015812866E+04  0.12699999809E+01 0. -1.
       -4    1    3    3    0  502 -0.12318827370E+04  0.78975369695E+03 -0.12898319125E+03  0.14689738787E+04  0.12699999809E+01 0.  1.
</event>
<event>
 5   0  0.1743810E-06  0.3427694E+04  0.7818609E-02  0.8131143E-01
       -2   -1    0    0    0  501  0.00000000000E+00  0.00000000000E+00  0.13015264570E+04  0.13015264570E+04  0.25500000920E-02 0. -1.
        2   -1    0    0  501    0  0.00000000000E+00  0.00000000000E+00 -0.22567900109E+04  0.22567900109E+04  0.25500000920E-02 0.  1.
    10030    2    1    2    0    0  0.00000000000E+00  0.00000000000E+00 -0.95526355390E+03  0.35583164679E+04  0.34276942145E+04 0.  0.
        5    1    3    3  502    0  0.72677896872E+03  0.52092413276E+03 -0.19954293916E+04  0.21866252922E+04  0.46999998093E+01 0.  1.
       -5    1    3    3    0  502 -0.72677896872E+03 -0.52092413276E+03  0.10401658377E+04  0.13716911757E+04  0.46999998093E+01 0. -1.
</event>
<event>
 5   0  0.5985183E-07  0.3293917E+04  0.7818609E-02  0.8164445E-01
        1   -1    0    0  501    0  0.00000000000E+00  0.00000000000E+00  0.12426151221E+04  0.12426151221E+04  0.50400001928E-02 0. -1.
       -1   -1    0    0    0  501  0.00000000000E+00  0.00000000000E+00 -0.21828745498E+04  0.21828745498E+04  0.50400001928E-02 0.  1.
    10030    2    1    2    0    0  0.00000000000E+00  0.00000000000E+00 -0.94025942776E+03  0.34254896719E+04  0.32939173792E+04 0.  0.
        2    1    3    3  502    0  0.44140420256E+03 -0.11006340295E+02 -0.21201752059E+04  0.21656642661E+04  0.25500000920E-02 0.  1.
       -2    1    3    3    0  502 -0.44140420256E+03  0.11006340295E+02  0.11799157782E+04  0.12598254058E+04  0.25500000920E-02 0. -1.
</event>
<event>
 5   0  0.5985183E-07  0.3248564E+04  0.7818609E-02  0.8176108E-01
       -1   -1    0    0    0  501  0.00000000000E+00  0.00000000000E+00  0.13463405127E+04  0.13463405127E+04  0.50400001928E-02 0.  1.
        1   -1    0    0  501    0  0.00000000000E+00  0.00000000000E+00 -0.19596024894E+04  0.19596024894E+04  0.50400001928E-02 0. -1.
    10030    2    1    2    0    0  0.00000000000E+00  0.00000000000E+00 -0.61326197667E+03  0.33059430021E+04  0.32485641260E+04 0.  0.
        2    1    3    3  502    0 -0.12404928067E+04  0.82650317481E+03 -0.96328957381E+03  0.17747835655E+04  0.25500000920E-02 0. -1.
       -2    1    3    3    0  502  0.12404928067E+04 -0.82650317481E+03  0.35002759714E+03  0.15311594366E+04  0.25500000920E-02 0.  1.
</event>
<event>
 5   0  0.6085351E-07  0.3278635E+04  0.7818609E-02  0.8168353E-01
        1   -1    0    0  501    0  0.00000000000E+00  0.00000000000E+00  0.16534118108E+04  0.16534118108E+04  0.50400001928E-02 0. -1.
       -1   -1    0    0    0  501  0.00000000000E+00  0.00000000000E+00 -0.16253430452E+04  0.16253430452E+04  0.50400001928E-02 0.  1.
    10030    2    1    2    0    0  0.00000000000E+00  0.00000000000E+00  0.28068765593E+02  0.32787548560E+04  0.32786347083E+04 0.  0.
        1    1    3    3  502    0  0.89564796214E+03 -0.13648421468E+04 -0.13557734896E+03  0.16380966318E+04  0.50400001928E-02 0.  1.
       -1    1    3    3    0  502 -0.89564796214E+03  0.13648421468E+04  0.16364611455E+03  0.16406582242E+04  0.50400001928E-02 0. -1.
</event>
<event>
 5   0  0.6023446E-07  0.3344682E+04  0.7818609E-02  0.8151618E-01
        1   -1    0    0  501    0  0.00000000000E+00  0.00000000000E+00  0.24985532550E+04  0.24985532550E+04  0.50400001928E-02 0. -1.
       -1   -1    0    0    0  501  0.00000000000E+00  0.00000000000E+00 -0.11193377996E+04  0.11193377996E+04  0.50400001928E-02 0.  1.
    10030    2    1    2    0    0  0.00000000000E+00  0.00000000000E+00  0.13792154554E+04  0.36178910546E+04  0.33446824080E+04 0.  0.
        5    1    3    3  502    0 -0.67811357413E+03 -0.13097014759E+04  0.15423888918E+04  0.21340434763E+04  0.46999998093E+01 0. -1.
       -5    1    3    3    0  502  0.67811357413E+03  0.13097014759E+04 -0.16317343633E+03  0.14838475783E+04  0.46999998093E+01 0.  1.
</event>
<event>
 5   0  0.5858859E-07  0.3325481E+04  0.7818609E-02  0.8156442E-01
       -1   -1    0    0    0  501  0.00000000000E+00  0.00000000000E+00  0.18862536620E+04  0.18862536620E+04  0.50400001928E-02 0.  1.
        1   -1    0    0  501    0  0.00000000000E+00  0.00000000000E+00 -0.14657128881E+04  0.14657128881E+04  0.50400001928E-02 0. -1.
    10030    2    1    2    0    0  0.00000000000E+00  0.00000000000E+00  0.42054077382E+03  0.33519665501E+04  0.33254811999E+04 0.  0.
        3    1    3    3  502    0  0.50891726268E+02 -0.53976418002E+03 -0.13741171692E+04  0.14772045704E+04  0.10100000352E+00 0. -1.
       -3    1    3    3    0  502 -0.50891726268E+02  0.53976418002E+03  0.17946579430E+04  0.18747619797E+04  0.10100000352E+00 0.  1.
</event>
<event>
 5   0  0.1728937E-06  0.3297105E+04  0.7818609E-02  0.8163632E-01
        2   -1    0    0  501    0  0.00000000000E+00  0.00000000000E+00  0.23525027410E+04  0.23525027410E+04  0.25500000920E-02 0.  1.
       -2   -1    0    0    0  501  0.00000000000E+00  0.00000000000E+00 -0.11552486782E+04  0.11552486782E+04  0.25500000920E-02 0. -1.
    10030    2    1    2    0    0  0.00000000000E+00  0.00000000000E+00  0.11972540628E+04  0.35077514192E+04  0.32971052043E+04 0.  0.
        1    1    3    3  502    0  0.18715977234E+03  0.97864016953E+03 -0.79865977650E+03  0.12769584177E+04  0.50400001928E-02 0. -1.
       -1    1    3    3    0  502 -0.18715977234E+03 -0.97864016953E+03  0.19959138393E+04  0.22307930015E+04  0.50400001928E-02 0.  1.
</event>
<event>
 5   0  0.6023446E-07  0.3278042E+04  0.7818609E-02  0.8168505E-01
       -1   -1    0    0    0  501  0.00000000000E+00  0.00000000000E+00  0.10989511826E+04  0.10989511826E+04  0.50400001928E-02 0.  1.
        1   -1    0    0  501    0  0.00000000000E+00  0.00000000000E+00 -0.24445034666E+04  0.24445034666E+04  0.50400001928E-02 0. -1.
    10030    2    1    2    0    0  0.00000000000E+00  0.00000000000E+00 -0.13455522839E+04  0.35434546492E+04  0.32780420837E+04 0.  0.
        5    1    3    3  502    0 -0.48882434734E+03 -0.28796056360E+02  0.10180264372E+04  0.11296806506E+04  0.46999998093E+01 0.  1.
       -5    1    3    3    0  502  0.48882434734E+03  0.28796056360E+02 -0.23635787212E+04  0.24137739986E+04  0.46999998093E+01 0. -1.
</event>
<event>
 5   0  0.6085351E-07  0.3101369E+04  0.7818609E-02  0.8215362E-01
       -1   -1    0    0    0  501  0.00000000000E+00  0.00000000000E+00  0.11576832675E+04  0.11576832675E+04  0.50400001928E-02 0. -1.
        1   -1    0    0  501    0  0.00000000000E+00  0.00000000000E+00 -0.20770992395E+04  0.20770992395E+04  0.50400001928E-02 0.  1.
    10030    2    1    2    0    0  0.00000000000E+00  0.00000000000E+00 -0.91941597201E+03  0.32347825070E+04  0.31013693972E+04 0.  0.
        1    1    3    3  502    0 -0.38048692918E+02 -0.76402061044E+03 -0.18666020374E+04  0.20172700271E+04  0.50400001928E-02 0.  1.
       -1    1    3    3    0  502  0.38048692918E+02  0.76402061044E+03  0.94718606538E+03  0.12175124799E+04  0.50400001928E-02 0. -1.
</event>
<event>
 5   0  0.5858859E-07  0.3297410E+04  0.7818609E-02  0.8163555E-01
        1   -1    0    0  501    0  0.00000000000E+00  0.00000000000E+00  0.21675433648E+04  0.21675433648E+04  0.50400001928E-02 0.  1.
       -1   -1    0    0    0  501  0.00000000000E+00  0.00000000000E+00 -0.12540596345E+04  0.12540596345E+04  0.50400001928E-02 0. -1.
    10030    2    1    2    0    0  0.00000000000E+00  0.00000000000E+00  0.91348373028E+03  0.34216029994E+04  0.32974102808E+04 0.  0.
        3    1    3    3  502    0 -0.14085477911E+04 -0.83255159685E+03  0.24642714410E+03  0.16546526490E+04  0.10100000352E+00 0. -1.
       -3    1    3    3    0  502  0.14085477911E+04  0.83255159685E+03  0.66705658618E+03  0.17669503504E+04  0.10100000352E+00 0.  1.
</event>
<event>
 5   0  0.5988516E-07  0.3317642E+04  0.7818609E-02  0.8158421E-01
       -1   -1    0    0    0  501  0.00000000000E+00  0.00000000000E+00  0.17061907740E+04  0.17061907740E+04  0.50400001928E-02 0. -1.
        1   -1    0    0  501    0  0.00000000000E+00  0.00000000000E+00 -0.16127659076E+04  0.16127659076E+04  0.50400001928E-02 0.  1.
    10030    2    1    2    0    0  0.00000000000E+00  0.00000000000E+00  0.93424866402E+02  0.33189566817E+04  0.33176415191E+04 0.  0.
        4    1    3    3  502    0  0.11628676375E+03  0.12463675843E+04  0.11355969120E+04  0.16901292040E+04  0.12699999809E+01 0. -1.
       -4    1    3    3    0  502 -0.11628676375E+03 -0.12463675843E+04 -0.10421720456E+04  0.16288274777E+04  0.12699999809E+01 0.  1.
</event>
<event>
 5   0  0.5858859E-07  0.3265492E+04  0.7818609E-02  0.8171732E-01
        1   -1    0    0  501    0  0.00000000000E+00  0.00000000000E+00  0.25344606772E+04  0.25344606772E+04  0.50400001928E-02 0. -1.
       -1   -1    0    0    0  501  0.00000000000E+00  0.00000000000E+00 -0.10518445912E+04  0.10518445912E+04  0.50400001928E-02 0.  1.
    10030    2    1    2    0    0  0.00000000000E+00  0.00000000000E+00  0.14826160860E+04  0.35863052684E+04  0.32654915433E+04 0.  0.
        3    1    3    3  502    0 -0.11393389848E+04  0.95894806665E+03  0.14765442374E+04  0.20971069625E+04  0.10100000352E+00 0. -1.
       -3    1    3    3    0  502  0.11393389848E+04 -0.95894806665E+03  0.60718486322E+01  0.14891983059E+04  0.10100000352E+00 0.  1.
</event>
<event>
 5   0  0.1728937E-06  0.3291987E+04  0.7818609E-02  0.8164937E-01
        2   -1    0    0  501    0  0.00000000000E+00  0.00000000000E+00  0.13329983003E+04  0.13329983003E+04  0.25500000920E-02 0. -1.
       -2   -1    0    0    0  501  0.00000000000E+00  0.00000000000E+00 -0.20324820978E+04  0.20324820978E+04  0.25500000920E-02 0.  1.
    10030    2    1    2    0    0  0.00000000000E+00  0.00000000000E+00 -0.69948379752E+03  0.33654803982E+04  0.32919873522E+04 0.  0.
        1    1    3    3  502    0 -0.82562484386E+03 -0.12094441901E+04 -0.11181083095E+04  0.18424380108E+04  0.50400001928E-02 0.  1.
       -1    1    3    3    0  502  0.82562484386E+03  0.12094441901E+04  0.41862451200E+03  0.15230423874E+04  0.50400001928E-02 0. -1.
</event>
<event>
 5   0  0.1832626E-06  0.3282123E+04  0.7818609E-02  0.8167459E-01
       -2   -1    0    0    0  501  0.00000000000E+00  0.00000000000E+00  0.12061633736E+04  0.12061633736E+04  0.25500000920E-02 0.  1.
        2   -1    0    0  501    0  0.00000000000E+00  0.00000000000E+00 -0.22327685192E+04  0.22327685192E+04  0.25500000920E-02 0. -1.
    10030    2    1    2    0    0  0.00000000000E+00  0.00000000000E+00 -0.10266051456E+04  0.34389318928E+04  0.32821234648E+04 0.  0.
        3    1    3    3  502    0  0.94843969919E+03  0.39638983212E+03 -0.18536462230E+04  0.21195912560E+04  0.10100000352E+00 0. -1.
       -3    1    3    3    0  502 -0.94843969919E+03 -0.39638983212E+03  0.82704107738E+03  0.13193406368E+04  0.10100000352E+00 0.  1.
</event>
<event>
 5   0  0.5858859E-07  0.3314902E+04  0.7818609E-02  0.8159114E-01
       -1   -1    0    0    0  501  0.00000000000E+00  0.00000000000E+00  0.15366845325E+04  0.15366845325E+04  0.50400001928E-02 0. -1.
        1   -1    0    0  501    0  0.00000000000E+00  0.00000000000E+00 -0.17877087773E+04  0.17877087773E+04  0.50400001928E-02 0.  1.
    10030    2    1    2    0    0  0.00000000000E+00  0.00000000000E+00 -0.25102424488E+03  0.33243933098E+04  0.33149023676E+04 0.  0.
        3    1    3    3  502    0  0.83018508270E+03  0.12077592872E+04 -0.90184390061E+03  0.17208173054E+04  0.10100000352E+00 0.  1.
       -3    1    3    3    0  502 -0.83018508270E+03 -0.12077592872E+04  0.65081965573E+03  0.16035760044E+04  0.10100000352E+00 0. -1.
</event>
<event>
 5   0  0.1743810E-06  0.3271366E+04  0.7818609E-02  0.8170220E-01
       -2   -1    0    0    0  501  0.00000000000E+00  0.00000000000E+00  0.18568705896E+04  0.18568705896E+04  0.25500000920E-02 0.  1.
        2   -1    0    0  501    0  0.00000000000E+00  0.00000000000E+00 -0.14408429866E+04  0.14408429866E+04  0.25500000920E-02 0. -1.
    10030    2    1    2    0    0  0.00000000000E+00  0.00000000000E+00  0.41602760304E+03  0.32977135762E+04  0.32713660548E+04 0.  0.
        5    1    3    3  502    0 -0.25614682433E+03  0.37154646233E+03 -0.13768377895E+04  0.14489176505E+04  0.46999998093E+01 0. -1.
       -5    1    3    3    0  502  0.25614682433E+03 -0.37154646233E+03  0.17928653925E+04  0.18487959257E+04  0.46999998093E+01 0.  1.
</event>
<event>
 5   0  0.5988516E-07  0.2884513E+04  0.7818609E-02  0.8277500E-01
        1   -1    0    0  501    0  0.00000000000E+00  0.00000000000E+00  0.17755251179E+04  0.17755251179E+04  0.50400001928E-02 0.  1.
       -1   -1    0    0    0  501  0.00000000000E+00  0.00000000000E+00 -0.11715432285E+04  0.11715432285E+04  0.50400001928E-02 0. -1.
    10030    2    1    2    0    0  0.00000000000E+00  0.00000000000E+00  0.60398188942E+03  0.29470683464E+04  0.28845134279E+04 0.  0.
        4    1    3    3  502    0 -0.13823347328E+04  0.41120582226E+03  0.28893595711E+03  0.14708586410E+04  0.12699999809E+01 0. -1.
       -4    1    3    3    0  502  0.13823347328E+04 -0.41120582226E+03  0.31504593230E+03  0.14762097053E+04  0.12699999809E+01 0.  1.
</event>
<event>
 5   0  0.5985183E-07  0.3249797E+04  0.7818609E-02  0.8175788E-01
        1   -1    0    0  501    0  0.00000000000E+00  0.00000000000E+00  0.14830174083E+04  0.14830174083E+04  0.50400001928E-02 0. -1.
       -1   -1    0    0    0  501  0.00000000000E+00  0.00000000000E+00 -0.17803535405E+04  0.17803535405E+04  0.50400001928E-02 0.  1.
    10030    2    1    2    0    0  0.00000000000E+00  0.00000000000E+00 -0.29733613212E+03  0.32633709488E+04  0.32497970974E+04 0.  0.
        2    1    3    3  502    0  0.35960088607E+03 -0.72880426787E+03 -0.15616083257E+04  0.17604229665E+04  0.25500000920E-02 0.  1.
       -2    1    3    3    0  502 -0.35960088607E+03  0.72880426787E+03  0.12642721936E+04  0.15029479823E+04  0.25500000920E-02 0. -1.
</event>
<event>
 5   0  0.6085351E-07  0.3012601E+04  0.7818609E-02  0.8240142E-01
       -1   -1    0    0    0  501  0.00000000000E+00  0.00000000000E+00  0.93106090363E+03  0.93106090364E+03  0.50400001928E-02 0. -1.
        1   -1    0    0  501    0  0.00000000000E+00  0.00000000000E+00 -0.24369414643E+04  0.24369414643E+04  0.50400001928E-02 0.  1.
    10030    2    1    2    0    0  0.00000000000E+00  0.00000000000E+00 -0.15058805606E+04  0.33680023679E+04  0.30126008178E+04 0.  0.
        1    1    3    3  502    0 -0.13576955228E+04  0.64417108484E+03 -0.86829958749E+03  0.17355799298E+04  0.50400001928E-02 0. -1.
       -1    1    3    3    0  502  0.13576955228E+04 -0.64417108484E+03 -0.63758097314E+03  0.16324224381E+04  0.50400001928E-02 0.  1.
</event>
<event>
 5   0  0.6023446E-07  0.3306504E+04  0.7818609E-02  0.8161243E-01
       -1   -1    0    0    0  501  0.00000000000E+00  0.00000000000E+00  0.15257110548E+04  0.15257110548E+04  0.50400001928E-02 0. -1.
        1   -1    0    0  501    0  0.00000000000E+00  0.00000000000E+00 -0.17914542347E+04  0.17914542347E+04  0.50400001928E-02 0.  1.
    10030    2    1    2    0    0  0.00000000000E+00  0.00000000000E+00 -0.26574317984E+03  0.33171652895E+04  0.33065036096E+04 0.  0.
        5    1    3    3  502    0  0.15782357103E+04  0.13525127284E+03 -0.60778852865E+03  0.16966289664E+04  0.46999998093E+01 0.  1.
       -5    1    3    3    0  502 -0.15782357103E+04 -0.13525127284E+03  0.34204534881E+03  0.16205363231E+04  0.46999998093E+01 0. -1.
</event>
<event>
 5   0  0.1743810E-06  0.2959734E+04  0.7818609E-02  0.8255323E-01
       -2   -1    0    0    0  501  0.00000000000E+00  0.00000000000E+00  0.13651654921E+04  0.13651654921E+04  0.25500000920E-02 0. -1.
        2   -1    0    0  501    0  0.00000000000E+00  0.00000000000E+00 -0.16042057298E+04  0.16042057298E+04  0.25500000920E-02 0.  1.
    10030    2    1    2    0    0  0.00000000000E+00  0.00000000000E+00 -0.23904023769E+03  0.29693712219E+04  0.29597339776E+04 0.  0.
        5    1    3    3  502    0  0.16794935838E+03 -0.14604748665E+04  0.50709687934E+02  0.14709817759E+04  0.46999998093E+01 0.  1.
       -5    1    3    3    0  502 -0.16794935838E+03  0.14604748665E+04 -0.28974992563E+03  0.14983894460E+04  0.46999998093E+01 0. -1.
</event>
<event>
 5   0  0.1696681E-06  0.3286437E+04  0.7818609E-02  0.8166355E-01
       -2   -1    0    0    0  501  0.00000000000E+00  0.00000000000E+00  0.24637150955E+04  0.24637150955E+04  0.25500000920E-02 0. -1.
        2   -1    0    0  501    0  0.00000000000E+00  0.00000000000E+00 -0.10959736528E+04  0.10959736528E+04  0.25500000920E-02 0.  1.
    10030    2    1    2    0    0  0.00000000000E+00  0.00000000000E+00  0.13677414427E+04  0.35596887483E+04  0.32864368746E+04 0.  0.
        4    1    3    3  502    0  0.62118449479E+03  0.14711759130E+04  0.26445917655E+03  0.16186936130E+04  0.12699999809E+01 0.  1.
       -4    1    3    3    0  502 -0.62118449479E+03 -0.14711759130E+04  0.11032822661E+04  0.19409951353E+04  0.12699999809E+01 0. -1.
</event>
<event>
 5   0  0.6023446E-07  0.3277673E+04  0.7818609E-02  0.8168600E-01
        1   -1    0    0  501    0  0.00000000000E+00  0.00000000000E+00  0.10161734076E+04  0.10161734076E+04  0.50400001928E-02 0.  1.
       -1   -1    0    0    0  501  0.00000000000E+00  0.00000000000E+00 -0.26430374401E+04  0.26430374401E+04  0.50400001928E-02 0. -1.
    10030    2    1    2    0    0  0.00000000000E+00  0.00000000000E+00 -0.16268640325E+04  0.36592108477E+04  0.32776725656E+04 0.  0.
        5    1    3    3  502    0 -0.41274777327E+03  0.13845990079E+04  0.50096533779E+02  0.14456856123E+04  0.46999998093E+01 0.  1.
       -5    1    3    3    0  502  0.41274777327E+03 -0.13845990079E+04 -0.16769605662E+04  0.22135252354E+04  0.46999998093E+01 0. -1.
</event>
<event>
 5   0  0.5685000E-07  0.3258867E+04  0.7818609E-02  0.8173441E-01
       -3   -1    0    0    0  501  0.00000000000E+00  0.00000000000E+00  0.36379930774E+04  0.36379930788E+04  0.10100000352E+00 0. -1.
        3   -1    0    0  501    0  0.00000000000E+00  0.00000000000E+00 -0.72981248626E+03  0.72981249325E+03  0.10100000352E+00 0.  1.
    10030    2    1    2    0    0  0.00000000000E+00  0.00000000000E+00  0.29081805912E+04  0.43678055721E+04  0.32588665460E+04 0.  0.
        3    1    3    3  502    0 -0.17224220692E+03  0.14707536543E+04  0.23653541625E+04  0.27906422225E+04  0.10100000352E+00 0. -1.
       -3    1    3    3    0  502  0.17224220692E+03 -0.14707536543E+04  0.54282642866E+03  0.15771633496E+04  0.10100000352E+00 0.  1.
</event>
<event>
 5   0  0.1728937E-06  0.3296493E+04  0.7818609E-02  0.8163788E-01
       -2   -1    0    0    0  501  0.00000000000E+00  0.00000000000E+00  0.23459578094E+04  0.23459578094E+04  0.25500000920E-02 0. -1.
        2   -1    0    0  501    0  0.00000000000E+00  0.00000000000E+00 -0.11580412715E+04  0.11580412715E+04  0.25500000920E-02 0.  1.
    10030    2    1    2    0    0  0.00000000000E+00  0.00000000000E+00  0.11879165380E+04  0.35039990809E+04  0.32964926601E+04 0.  0.
        1    1    3    3  502    0 -0.62690632747E+03 -0.12138938431E+04 -0.38612680976E+03  0.14197336789E+04  0.50400001928E-02 0. -1.
       -1    1    3    3    0  502  0.62690632747E+03  0.12138938431E+04  0.15740433477E+04  0.20842654021E+04  0.50400001928E-02 0.  1.
</event>
<event>
 5   0  0.1696681E-06  0.3040623E+04  0.7818609E-02  0.8232225E-01
        2   -1    0    0  501    0  0.00000000000E+00  0.00000000000E+00  0.19031931713E+04  0.19031931713E+04  0.25500000920E-02 0.  1.
       -2   -1    0    0    0  501  0.00000000000E+00  0.00000000000E+00 -0.12144575963E+04  0.12144575963E+04  0.25500000920E-02 0. -1.
    10030    2    1    2    0    0  0.00000000000E+00  0.00000000000E+00  0.68873557506E+03  0.31176507676E+04  0.30406232283E+04 0.  0.
        4    1    3    3  502    0  0.11626969095E+04  0.54150786440E+03  0.11812874419E+04  0.17437134237E+04  0.12699999809E+01 0.  1.
       -4    1    3    3    0  502 -0.11626969095E+04 -0.54150786440E+03 -0.49255186685E+03  0.13739373439E+04  0.12699999809E+01 0. -1.
</event>
<event>
 5   0  0.1696681E-06  0.3743365E+04  0.7818609E-02  0.8058419E-01
       -2   -1    0    0    0  501  0.00000000000E+00  0.00000000000E+00  0.14982365325E+04  0.14982365325E+04  0.25500000920E-02 0. -1.
        2   -1    0    0  501    0  0.00000000000E+00  0.00000000000E+00 -0.23382122632E+04  0.23382122632E+04  0.25500000920E-02 0.  1.
    10030    2    1    2    0    0  0.00000000000E+00  0.00000000000E+00 -0.83997573064E+03  0.38364487957E+04  0.37433648144E+04 0.  0.
        4    1    3    3  502    0 -0.35307073517E+03  0.34570724333E+03 -0.22701544382E+04  0.23233112638E+04  0.12699999809E+01 0.  1.
       -4    1    3    3    0  502  0.35307073517E+03 -0.34570724333E+03  0.14301787076E+04  0.15131375319E+04  0.12699999809E+01 0. -1.
</event>
<event>
 5   0  0.6085351E-07  0.3510214E+04  0.7818609E-02  0.8111374E-01
       -1   -1    0    0    0  501  0.00000000000E+00  0.00000000000E+00  0.12790844139E+04  0.12790844139E+04  0.50400001928E-02 0.  1.
        1   -1    0    0  501    0  0.00000000000E+00  0.00000000000E+00 -0.24082852993E+04  0.24082852993E+04  0.50400001928E-02 0. -1.
    10030    2    1    2    0    0  0.00000000000E+00  0.00000000000E+00 -0.11292008854E+04  0.36873697132E+04  0.35102137773E+04 0.  0.
        1    1    3    3  502    0 -0.12308109452E+04 -0.12961737062E+03  0.74267565337E+03  0.14433514374E+04  0.50400001928E-02 0.  1.
       -1    1    3    3    0  502  0.12308109452E+04  0.12961737062E+03 -0.18718765388E+04  0.22440182758E+04  0.50400001928E-02 0. -1.
</event>
<event>
 5   0  0.5858859E-07  0.3281651E+04  0.7818609E-02  0.8167580E-01
       -1   -1    0    0    0  501  0.00000000000E+00  0.00000000000E+00  0.94856906789E+03  0.94856906790E+03  0.50400001928E-02 0.  1.
        1   -1    0    0  501    0  0.00000000000E+00  0.00000000000E+00 -0.28382837411E+04  0.28382837411E+04  0.50400001928E-02 0. -1.
    10030    2    1    2    0    0  0.00000000000E+00  0.00000000000E+00 -0.18897146732E+04  0.37868528090E+04  0.32816509033E+04 0.  0.
        3    1    3    3  502    0 -0.50476998456E+03  0.14859637721E+04 -0.39213325430E+03  0.16176061228E+04  0.10100000352E+00 0. -1.
       -3    1    3    3    0  502  0.50476998456E+03 -0.14859637721E+04 -0.14975814189E+04  0.21692466862E+04  0.10100000352E+00 0.  1.
</event>
<event>
 5   0  0.5858859E-07  0.3281098E+04  0.7818609E-02  0.8167722E-01
       -1   -1    0    0    0  501  0.00000000000E+00  0.00000000000E+00  0.14616592035E+04  0.14616592035E+04  0.50400001928E-02 0.  1.
        1   -1    0    0  501    0  0.00000000000E+00  0.00000000000E+00 -0.18413324748E+04  0.18413324748E+04  0.50400001928E-02 0. -1.
    10030    2    1    2    0    0  0.00000000000E+00  0.00000000000E+00 -0.37967327135E+03  0.33029916783E+04  0.32810977178E+04 0.  0.
        3    1    3    3  502    0 -0.13836528230E+04 -0.36626666871E+03  0.61723253216E+03  0.15587246120E+04  0.10100000352E+00 0.  1.
       -3    1    3    3    0  502  0.13836528230E+04  0.36626666871E+03 -0.99690580351E+03  0.17442670663E+04  0.10100000352E+00 0. -1.
</event>
<event>
 5   0  0.1696681E-06  0.3303293E+04  0.7818609E-02  0.8162058E-01
        2   -1    0    0  501    0  0.00000000000E+00  0.00000000000E+00  0.14946970212E+04  0.14946970212E+04  0.25500000920E-02 0. -1.
       -2   -1    0    0    0  501  0.00000000000E+00  0.00000000000E+00 -0.18250758216E+04  0.18250758216E+04  0.25500000920E-02 0.  1.
    10030    2    1    2    0    0  0.00000000000E+00  0.00000000000E+00 -0.33037880045E+03  0.33197728428E+04  0.33032925356E+04 0.  0.
        4    1    3    3  502    0  0.15863965524E+04 -0.46780009694E+02  0.29435704081E+03  0.16141530507E+04  0.12699999809E+01 0.  1.
       -4    1    3    3    0  502 -0.15863965524E+04  0.46780009694E+02 -0.62473584126E+03  0.17056197921E+04  0.12699999809E+01 0. -1.
</event>
<event>
 5   0  0.5988516E-07  0.3382756E+04  0.7818609E-02  0.8142152E-01
        1   -1    0    0  501    0  0.00000000000E+00  0.00000000000E+00  0.14693422948E+04  0.14693422948E+04  0.50400001928E-02 0.  1.
       -1   -1    0    0    0  501  0.00000000000E+00  0.00000000000E+00 -0.19469662754E+04  0.19469662754E+04  0.50400001928E-02 0. -1.
    10030    2    1    2    0    0  0.00000000000E+00  0.00000000000E+00 -0.47762398059E+03  0.34163085701E+04  0.33827562105E+04 0.  0.
        4    1    3    3  502    0  0.15007160152E+04  0.92030680012E+02  0.54355894003E+03  0.15987733230E+04  0.12699999809E+01 0.  1.
       -4    1    3    3    0  502 -0.15007160152E+04 -0.92030680012E+02 -0.10211829206E+04  0.18175352471E+04  0.12699999809E+01 0. -1.
</event>
<event>
 5   0  0.1728937E-06  0.3440170E+04  0.7818609E-02  0.8128117E-01
        2   -1    0    0  501    0  0.00000000000E+00  0.00000000000E+00  0.16323197155E+04  0.16323197155E+04  0.25500000920E-02 0.  1.
       -2   -1    0    0    0  501  0.00000000000E+00  0.00000000000E+00 -0.18125687261E+04  0.18125687261E+04  0.25500000920E-02 0. -1.
    10030    2    1    2    0    0  0.00000000000E+00  0.00000000000E+00 -0.18024901053E+03  0.34448884416E+04  0.34401695699E+04 0.  0.
        1    1    3    3  502    0  0.71405301800E+02 -0.48181488206E+03  0.15618193482E+04  0.16360085495E+04  0.50400001928E-02 0.  1.
       -1    1    3    3    0  502 -0.71405301800E+02  0.48181488206E+03 -0.17420683587E+04  0.18088798921E+04  0.50400001928E-02 0. -1.
</event>
<event>
 5   0  0.6023446E-07  0.3323437E+04  0.7818609E-02  0.8156957E-01
        1   -1    0    0  501    0  0.00000000000E+00  0.00000000000E+00  0.19269173554E+04  0.19269173554E+04  0.50400001928E-02 0.  1.
       -1   -1    0    0    0  501  0.00000000000E+00  0.00000000000E+00 -0.14330187021E+04  0.14330187021E+04  0.50400001928E-02 0. -1.
    10030    2    1    2    0    0  0.00000000000E+00  0.00000000000E+00  0.49389865331E+03  0.33599360575E+04  0.33234371411E+04 0.  0.
        5    1    3    3  502    0 -0.42110329742E+03 -0.15484487849E+04 -0.18937461605E+03  0.16158299607E+04  0.46999998093E+01 0. -1.
       -5    1    3    3    0  502  0.42110329742E+03  0.15484487849E+04  0.68327326935E+03  0.17441060969E+04  0.46999998093E+01 0.  1.
</event>
<event>
 5   0  0.1832626E-06  0.3283245E+04  0.7818609E-02  0.8167172E-01
       -2   -1    0    0    0  501  0.00000000000E+00  0.00000000000E+00  0.15907179252E+04  0.15907179252E+04  0.25500000920E-02 0.  1.
        2   -1    0    0  501    0  0.00000000000E+00  0.00000000000E+00 -0.16941556576E+04  0.16941556576E+04  0.25500000920E-02 0. -1.
    10030    2    1    2    0    0  0.00000000000E+00  0.00000000000E+00 -0.10343773241E+03  0.32848735828E+04  0.32832445981E+04 0.  0.
        3    1    3    3  502    0  0.15415497382E+04  0.55851753404E+03  0.29600801966E+02  0.16398761078E+04  0.10100000352E+00 0. -1.
       -3    1    3    3    0  502 -0.15415497382E+04 -0.55851753404E+03 -0.13303853437E+03  0.16449974751E+04  0.10100000352E+00 0.  1.
</event>
<event>
 5   0  0.1728937E-06  0.3539850E+04  0.7818609E-02  0.8104410E-01
        2   -1    0    0  501    0  0.00000000000E+00  0.00000000000E+00  0.21366422367E+04  0.21366422367E+04  0.25500000920E-02 0.  1.
       -2   -1    0    0    0  501  0.00000000000E+00  0.00000000000E+00 -0.14661482405E+04  0.14661482405E+04  0.25500000920E-02 0. -1.
    10030    2    1    2    0    0  0.00000000000E+00  0.00000000000E+00  0.67049399616E+03  0.36027904772E+04  0.35398498590E+04 0.  0.
        1    1    3    3  502    0  0.46247871275E+03  0.16975645766E+04  0.53107973900E+03  0.18378405101E+04  0.50400001928E-02 0. -1.
       -1    1    3    3    0  502 -0.46247871275E+03 -0.16975645766E+04  0.13941425717E+03  0.17649499671E+04  0.50400001928E-02 0.  1.
</event>
<event>
 5   0  0.6023446E-07  0.3285923E+04  0.7818609E-02  0.8166487E-01
       -1   -1    0    0    0  501  0.00000000000E+00  0.00000000000E+00  0.10289275514E+04  0.10289275514E+04  0.50400001928E-02 0. -1.
        1   -1    0    0  501    0  0.00000000000E+00  0.00000000000E+00 -0.26234324279E+04  0.26234324279E+04  0.50400001928E-02 0.  1.
    10030    2    1    2    0    0  0.00000000000E+00  0.00000000000E+00 -0.15945048765E+04  0.36523599793E+04  0.32859226432E+04 0.  0.
        5    1    3    3  502    0  0.11873019186E+04  0.93339504685E+03 -0.15162139982E+04  0.21400558726E+04  0.46999998093E+01 0. -1.
       -5    1    3    3    0  502 -0.11873019186E+04 -0.93339504685E+03 -0.78290878230E+02  0.15123041067E+04  0.46999998093E+01 0.  1.
</event>
<event>
 5   0  0.5985183E-07  0.3299430E+04  0.7818609E-02  0.8163040E-01
       -1   -1    0    0    0  501  0.00000000000E+00  0.00000000000E+00  0.19853352682E+04  0.19853352682E+04  0.50400001928E-02 0. -1.
        1   -1    0    0  501    0  0.00000000000E+00  0.00000000000E+00 -0.13708311230E+04  0.13708311230E+04  0.50400001928E-02 0.  1.
    10030    2    1    2    0    0  0.00000000000E+00  0.00000000000E+00  0.61450414522E+03  0.33561663912E+04  0.32994298751E+04 0.  0.
        2    1    3    3  502    0  0.16260015657E+04  0.22928260151E+03  0.46843115268E+03  0.17075946087E+04  0.25500000920E-02 0. -1.
       -2    1    3    3    0  502 -0.16260015657E+04 -0.22928260151E+03  0.14607299254E+03  0.16485717825E+04  0.25500000920E-02 0.  1.
</event>
<event>
 5   0  0.1784626E-06  0.3282856E+04  0.7818609E-02  0.8167271E-01
        2   -1    0    0  501    0  0.00000000000E+00  0.00000000000E+00  0.18750019968E+04  0.18750019968E+04  0.25500000920E-02 0.  1.
       -2   -1    0    0    0  501  0.00000000000E+00  0.00000000000E+00 -0.14369507664E+04  0.14369507664E+04  0.25500000920E-02 0. -1.
    10030    2    1    2    0    0  0.00000000000E+00  0.00000000000E+00  0.43805123032E+03  0.33119527632E+04  0.32828558033E+04 0.  0.
        2    1    3    3  502    0  0.11124214116E+04 -0.12023291271E+04  0.11221548141E+03  0.16418492748E+04  0.25500000920E-02 0.  1.
       -2    1    3    3    0  502 -0.11124214116E+04  0.12023291271E+04  0.32583574891E+03  0.16701034884E+04  0.25500000920E-02 0. -1.
</event>
<event>
 5   0  0.1784626E-06  0.3279138E+04  0.7818609E-02  0.8168224E-01
        2   -1    0    0  501    0  0.00000000000E+00  0.00000000000E+00  0.23004443457E+04  0.23004443457E+04  0.25500000920E-02 0.  1.
       -2   -1    0    0    0  501  0.00000000000E+00  0.00000000000E+00 -0.11685511363E+04  0.11685511363E+04  0.25500000920E-02 0. -1.
    10030    2    1    2    0    0  0.00000000000E+00  0.00000000000E+00  0.11318932094E+04  0.34689954820E+04  0.32791382125E+04 0.  0.
        2    1    3    3  502    0  0.46512156713E+03  0.73485750907E+03 -0.90443082417E+03  0.12547305474E+04  0.25500000920E-02 0. -1.
       -2    1    3    3    0  502 -0.46512156713E+03 -0.73485750907E+03  0.20363240336E+04  0.22142649346E+04  0.25500000920E-02 0.  1.
</event>
<event>
 5   0  0.5858859E-07  0.2786229E+04  0.7818609E-02  0.8307556E-01
        1   -1    0    0  501    0  0.00000000000E+00  0.00000000000E+00  0.61139905919E+03  0.61139905921E+03  0.50400001928E-02 0.  1.
       -1   -1    0    0    0  501  0.00000000000E+00  0.00000000000E+00 -0.31743066020E+04  0.31743066020E+04  0.50400001928E-02 0. -1.
    10030    2    1    2    0    0  0.00000000000E+00  0.00000000000E+00 -0.25629075428E+04  0.37857056612E+04  0.27862290430E+04 0.  0.
        3    1    3    3  502    0 -0.11035669556E+03  0.65321533586E+03  0.38368495113E+03  0.76556059668E+03  0.10100000352E+00 0.  1.
       -3    1    3    3    0  502  0.11035669556E+03 -0.65321533586E+03 -0.29465924939E+04  0.30201450645E+04  0.10100000352E+00 0. -1.
</event>
<event>
 5   0  0.5985183E-07  0.3282823E+04  0.7818609E-02  0.8167280E-01
       -1   -1    0    0    0  501  0.00000000000E+00  0.00000000000E+00  0.11380461929E+04  0.11380461929E+04  0.50400001928E-02 0. -1.
        1   -1    0    0  501    0  0.00000000000E+00  0.00000000000E+00 -0.23674187228E+04  0.23674187228E+04  0.50400001928E-02 0.  1.
    10030    2    1    2    0    0  0.00000000000E+00  0.00000000000E+00 -0.12293725300E+04  0.35054649157E+04  0.32828230927E+04 0.  0.
        2    1    3    3  502    0 -0.58587228738E+02  0.86790962237E+03  0.87166897802E+03  0.12314651368E+04  0.25500000920E-02 0. -1.
       -2    1    3    3    0  502  0.58587228738E+02 -0.86790962237E+03 -0.21010415080E+04  0.22739997789E+04  0.25500000920E-02 0.  1.
</event>
<event>
 5   0  0.1728937E-06  0.3275924E+04  0.7818609E-02  0.8169049E-01
       -2   -1    0    0    0  501  0.00000000000E+00  0.00000000000E+00  0.82505129922E+03  0.82505129922E+03  0.25500000920E-02 0.  1.
        2   -1    0    0  501    0  0.00000000000E+00  0.00000000000E+00 -0.32518214856E+04  0.32518214857E+04  0.25500000920E-02 0. -1.
    10030    2    1    2    0    0  0.00000000000E+00  0.00000000000E+00 -0.24267701864E+04  0.40768727849E+04  0.32759240172E+04 0.  0.
        1    1    3    3  502    0  0.10332852476E+03 -0.80173227308E+02 -0.32453132311E+04  0.32479474285E+04  0.50400001928E-02 0. -1.
       -1    1    3    3    0  502 -0.10332852476E+03  0.80173227308E+02  0.81854304467E+03  0.82892535636E+03  0.50400001928E-02 0.  1.
</event>
<event>
 5   0  0.5988516E-07  0.3300437E+04  0.7818609E-02  0.8162784E-01
       -1   -1    0    0    0  501  0.00000000000E+00  0.00000000000E+00  0.15337129591E+04  0.15337129591E+04  0.50400001928E-02 0.  1.
        1   -1    0    0  501    0  0.00000000000E+00  0.00000000000E+00 -0.17755743144E+04  0.17755743144E+04  0.50400001928E-02 0. -1.
    10030    2    1    2    0    0  0.00000000000E+00  0.00000000000E+00 -0.24186135533E+03  0.33092872735E+04  0.33004371443E+04 0.  0.
        4    1    3    3  502    0  0.59726368911E+03  0.14579278231E+04 -0.61310562438E+03  0.16906145543E+04  0.12699999809E+01 0. -1.
       -4    1    3    3    0  502 -0.59726368911E+03 -0.14579278231E+04  0.37124426906E+03  0.16186727192E+04  0.12699999809E+01 0.  1.
</event>
<event>
 5   0  0.1728937E-06  0.3232921E+04  0.7818609E-02  0.8180177E-01
       -2   -1    0    0    0  501  0.00000000000E+00  0.00000000000E+00  0.13769455026E+04  0.13769455026E+04  0.25500000920E-02 0. -1.
        2   -1    0    0  501    0  0.00000000000E+00  0.00000000000E+00 -0.18976384470E+04  0.18976384470E+04  0.25500000920E-02 0.  1.
    10030    2    1    2    0    0  0.00000000000E+00  0.00000000000E+00 -0.52069294440E+03  0.32745839496E+04  0.32329211096E+04 0.  0.
        1    1    3    3  502    0 -0.88096747107E+03  0.11041990182E+04 -0.10563401004E+04  0.17638632499E+04  0.50400001928E-02 0.  1.
       -1    1    3    3    0  502  0.88096747107E+03 -0.11041990182E+04  0.53564715597E+03  0.15107206997E+04  0.50400001928E-02 0. -1.
</event>
<event>
 5   0  0.6085351E-07  0.3317293E+04  0.7818609E-02  0.8158509E-01
       -1   -1    0    0    0  501  0.00000000000E+00  0.00000000000E+00  0.14489590613E+04  0.14489590613E+04  0.50400001928E-02 0.  1.
        1   -1    0    0  501    0  0.00000000000E+00  0.00000000000E+00 -0.18986788451E+04  0.18986788451E+04  0.50400001928E-02 0. -1.
    10030    2    1    2    0    0  0.00000000000E+00  0.00000000000E+00 -0.44971978380E+03  0.33476379064E+04  0.33172928223E+04 0.  0.
        1    1    3    3  502    0 -0.11133991241E+04 -0.11064865150E+04  0.31589434098E+03  0.16011743353E+04  0.50400001928E-02 0.  1.
       -1    1    3    3    0  502  0.11133991241E+04  0.11064865150E+04 -0.76561412478E+03  0.17464635712E+04  0.50400001928E-02 0. -1.
</event>
<event>
 5   0  0.1696681E-06  0.3129571E+04  0.7818609E-02  0.8207669E-01
       -2   -1    0    0    0  501  0.00000000000E+00  0.00000000000E+00  0.12890115537E+04  0.12890115537E+04  0.25500000920E-02 0.  1.
        2   -1    0    0  501    0  0.00000000000E+00  0.00000000000E+00 -0.18995588375E+04  0.18995588375E+04  0.25500000920E-02 0. -1.
    10030    2    1    2    0    0  0.00000000000E+00  0.00000000000E+00 -0.61054728380E+03  0.31885703911E+04  0.31295707619E+04 0.  0.
        4    1    3    3  502    0  0.42693396778E+03  0.92093180847E+03 -0.15185909993E+04  0.18266111367E+04  0.12699999809E+01 0. -1.
       -4    1    3    3    0  502 -0.42693396778E+03 -0.92093180847E+03  0.90804371547E+03  0.13619592545E+04  0.12699999809E+01 0.  1.
</event>
<event>
 5   0  0.5685000E-07  0.3308376E+04  0.7818609E-02  0.8160767E-01
        3   -1    0    0  501    0  0.00000000000E+00  0.00000000000E+00  0.22635584608E+04  0.22635584630E+04  0.10100000352E+00 0. -1.
       -3   -1    0    0    0  501  0.00000000000E+00  0.00000000000E+00 -0.12088653342E+04  0.12088653385E+04  0.10100000352E+00 0.  1.
    10030    2    1    2    0    0  0.00000000000E+00  0.00000000000E+00  0.10546931265E+04  0.34724238015E+04  0.33083756537E+04 0.  0.
        3    1    3    3  502    0  0.20557047421E+03 -0.10843138971E+04 -0.76596345206E+03  0.13433896931E+04  0.10100000352E+00 0.  1.
       -3    1    3    3    0  502 -0.20557047421E+03  0.10843138971E+04  0.18206565786E+04  0.21290341084E+04  0.10100000352E+00 0. -1.
</event>
<event>
 5   0  0.1832626E-06  0.3263076E+04  0.7818609E-02  0.8172355E-01
        2   -1    0    0  501    0  0.00000000000E+00  0.00000000000E+00  0.18306948561E+04  0.18306948561E+04  0.25500000920E-02 0.  1.
       -2   -1    0    0    0  501  0.00000000000E+00  0.00000000000E+00 -0.14540471227E+04  0.14540471227E+04  0.25500000920E-02 0. -1.
    10030    2    1    2    0    0  0.00000000000E+00  0.00000000000E+00  0.37664773338E+03  0.32847419788E+04  0.32630762100E+04 0.  0.
        3    1    3    3  502    0  0.96253555878E+03 -0.33260282666E+03 -0.10948228070E+04  0.14952378844E+04  0.10100000352E+00 0. -1.
       -3    1    3    3    0  502 -0.96253555878E+03  0.33260282666E+03  0.14714705404E+04  0.17895040943E+04  0.10100000352E+00 0.  1.
</event>
<event>
 5   0  0.1784626E-06  0.3301443E+04  0.7818609E-02  0.8162528E-01
       -2   -1    0    0    0  501  0.00000000000E+00  0.00000000000E+00  0.15312813710E+04  0.15312813710E+04  0.25500000920E-02 0. -1.
        2   -1    0    0  501    0  0.00000000000E+00  0.00000000000E+00 -0.17794782104E+04  0.17794782105E+04  0.25500000920E-02 0.  1.
    10030    2    1    2    0    0  0.00000000000E+00  0.00000000000E+00 -0.24819683950E+03  0.33107595814E+04  0.33014432200E+04 0.  0.
        2    1    3    3  502    0 -0.10160897910E+04  0.38066296197E+03 -0.13716101117E+04  0.17489016704E+04  0.25500000920E-02 0.  1.
       -2    1    3    3    0  502  0.10160897910E+04 -0.38066296197E+03  0.11234132723E+04  0.15618579110E+04  0.25500000920E-02 0. -1.
</event>
<event>
 5   0  0.1728937E-06  0.3273433E+04  0.7818609E-02  0.8169688E-01
        2   -1    0    0  501    0  0.00000000000E+00  0.00000000000E+00  0.23469600959E+04  0.23469600959E+04  0.25500000920E-02 0.  1.
       -2   -1    0    0    0  501  0.00000000000E+00  0.00000000000E+00 -0.11414091282E+04  0.11414091282E+04  0.25500000920E-02 0. -1.
    10030    2    1    2    0    0  0.00000000000E+00  0.00000000000E+00  0.12055509677E+04  0.34883692242E+04  0.32734334740E+04 0.  0.
        1    1    3    3  502    0 -0.40329474777E+03  0.46400690110E+02  0.22924583160E+04  0.23281247407E+04  0.50400001928E-02 0.  1.
       -1    1    3    3    0  502  0.40329474777E+03 -0.46400690110E+02 -0.10869073483E+04  0.11602444835E+04  0.50400001928E-02 0. -1.
</event>
<event>
 5   0  0.5988516E-07  0.3281757E+04  0.7818609E-02  0.8167553E-01
       -1   -1    0    0    0  501  0.00000000000E+00  0.00000000000E+00  0.25830912692E+04  0.25830912692E+04  0.50400001928E-02 0.  1.
        1   -1    0    0  501    0  0.00000000000E+00  0.00000000000E+00 -0.10423486411E+04  0.10423486411E+04  0.50400001928E-02 0. -1.
    10030    2    1    2    0    0  0.00000000000E+00  0.00000000000E+00  0.15407426281E+04  0.36254399103E+04  0.32817566481E+04 0.  0.
        4    1    3    3  502    0 -0.11694971524E+04 -0.10364803439E+04  0.13232474358E+04  0.20476817335E+04  0.12699999809E+01 0.  1.
       -4    1    3    3    0  502  0.11694971524E+04  0.10364803439E+04  0.21749519230E+03  0.15777581767E+04  0.12699999809E+01 0. -1.
</event>
<event>
 5   0  0.1784626E-06  0.3331033E+04  0.7818609E-02  0.8155044E-01
        2   -1    0    0  501    0  0.00000000000E+00  0.00000000000E+00  0.29510723421E+04  0.29510723421E+04  0.25500000920E-02 0.  1.
       -2   -1    0    0    0  501  0.00000000000E+00  0.00000000000E+00 -0.93997855338E+03  0.93997855338E+03  0.25500000920E-02 0. -1.
    10030    2    1    2    0    0  0.00000000000E+00  0.00000000000E+00  0.20110937887E+04  0.38910508955E+04  0.33310326994E+04 0.  0.
        2    1    3    3  502    0 -0.55893634256E+03 -0.66303575883E+03 -0.65545387647E+03  0.10870354349E+04  0.25500000920E-02 0. -1.
       -2    1    3    3    0  502  0.55893634256E+03  0.66303575883E+03  0.26665476652E+04  0.28040154606E+04  0.25500000920E-02 0.  1.
</event>
<event>
 5   0  0.5858859E-07  0.3303298E+04  0.7818609E-02  0.8162057E-01
        1   -1    0    0  501    0  0.00000000000E+00  0.00000000000E+00  0.20896223095E+04  0.20896223095E+04  0.50400001928E-02 0.  1.
       -1   -1    0    0    0  501  0.00000000000E+00  0.00000000000E+00 -0.13054725539E+04  0.13054725539E+04  0.50400001928E-02 0. -1.
    10030    2    1    2    0    0  0.00000000000E+00  0.00000000000E+00  0.78414975561E+03  0.33950948635E+04  0.33032980932E+04 0.  0.
        3    1    3    3  502    0 -0.11472443152E+04  0.64051355572E+03  0.14206438107E+04  0.19351113614E+04  0.10100000352E+00 0.  1.
       -3    1    3    3    0  502  0.11472443152E+04 -0.64051355572E+03 -0.63649405512E+03  0.14599835021E+04  0.10100000352E+00 0. -1.
</event>
<event>
 5   0  0.5988516E-07  0.3279856E+04  0.7818609E-02  0.8168040E-01
        1   -1    0    0  501    0  0.00000000000E+00  0.00000000000E+00  0.15799922906E+04  0.15799922906E+04  0.50400001928E-02 0. -1.
       -1   -1    0    0    0  501  0.00000000000E+00  0.00000000000E+00 -0.17021370143E+04  0.17021370143E+04  0.50400001928E-02 0.  1.
    10030    2    1    2    0    0  0.00000000000E+00  0.00000000000E+00 -0.12214472371E+03  0.32821293049E+04  0.32798557042E+04 0.  0.
        4    1    3    3  502    0  0.65479800738E+03 -0.15017465980E+03 -0.15581203908E+04  0.16967774233E+04  0.12699999809E+01 0.  1.
       -4    1    3    3    0  502 -0.65479800738E+03  0.15017465980E+03  0.14359756671E+04  0.15853518816E+04  0.12699999809E+01 0. -1.
</event>
<event>
 5   0  0.5985183E-07  0.3252152E+04  0.7818609E-02  0.8175178E-01
       -1   -1    0    0    0  501  0.00000000000E+00  0.00000000000E+00  0.20082331932E+04  0.20082331932E+04  0.50400001928E-02 0. -1.
        1   -1    0    0  501    0  0.00000000000E+00  0.00000000000E+00 -0.13166412031E+04  0.13166412031E+04  0.50400001928E-02 0.  1.
    10030    2    1    2    0    0  0.00000000000E+00  0.00000000000E+00  0.69159199015E+03  0.33248743963E+04  0.32521516371E+04 0.  0.
        2    1    3    3  502    0 -0.89144146836E+03 -0.56083738276E+03 -0.92082527905E+03  0.13989730719E+04  0.25500000920E-02 0.  1.
       -2    1    3    3    0  502  0.89144146836E+03  0.56083738276E+03  0.16124172692E+04  0.19259013244E+04  0.25500000920E-02 0. -1.
</event>
<event>
 5   0  0.6023446E-07  0.3292724E+04  0.7818609E-02  0.8164749E-01
       -1   -1    0    0    0  501  0.00000000000E+00  0.00000000000E+00  0.97639135870E+03  0.97639135872E+03  0.50400001928E-02 0. -1.
        1   -1    0    0  501    0  0.00000000000E+00  0.00000000000E+00 -0.27760460672E+04  0.27760460672E+04  0.50400001928E-02 0.  1.
    10030    2    1    2    0    0  0.00000000000E+00  0.00000000000E+00 -0.17996547085E+04  0.37524374259E+04  0.32927237305E+04 0.  0.
        5    1    3    3  502    0  0.10437224552E+04  0.77978674391E+03 -0.20468606991E+04  0.24263315398E+04  0.46999998093E+01 0.  1.
       -5    1    3    3    0  502 -0.10437224552E+04 -0.77978674391E+03  0.24720599057E+03  0.13261058861E+04  0.46999998093E+01 0. -1.
</event>
<event>
 5   0  0.1728937E-06  0.3296360E+04  0.7818609E-02  0.8163822E-01
        2   -1    0    0  501    0  0.00000000000E+00  0.00000000000E+00  0.13517422436E+04  0.13517422436E+04  0.25500000920E-02 0. -1.
       -2   -1    0    0    0  501  0.00000000000E+00  0.00000000000E+00 -0.20096262928E+04  0.20096262928E+04  0.25500000920E-02 0.  1.
    10030    2    1    2    0    0  0.00000000000E+00  0.00000000000E+00 -0.65788404924E+03  0.33613685364E+04  0.32963596611E+04 0.  0.
        1    1    3    3  502    0 -0.68287119595E+03 -0.50362157569E+03  0.11119171145E+04  0.13986806038E+04  0.50400001928E-02 0. -1.
       -1    1    3    3    0  502  0.68287119595E+03  0.50362157569E+03 -0.17698011637E+04  0.19626879327E+04  0.50400001928E-02 0.  1.
</event>
<event>
 5   0  0.1696681E-06  0.3349335E+04  0.7818609E-02  0.8150454E-01
       -2   -1    0    0    0  501  0.00000000000E+00  0.00000000000E+00  0.18460304130E+04  0.18460304130E+04  0.25500000920E-02 0. -1.
        2   -1    0    0  501    0  0.00000000000E+00  0.00000000000E+00 -0.15192115886E+04  0.15192115886E+04  0.25500000920E-02 0.  1.
    10030    2    1    2    0    0  0.00000000000E+00  0.00000000000E+00  0.32681882434E+03  0.33652420016E+04  0.33493347378E+04 0.  0.
        4    1    3    3  502    0  0.27285584646E+03 -0.48259204029E+03  0.17511562689E+04  0.18368166161E+04  0.12699999809E+01 0. -1.
       -4    1    3    3    0  502 -0.27285584646E+03  0.48259204029E+03 -0.14243374445E+04  0.15284253855E+04  0.12699999809E+01 0.  1.
</event>
<event>
 5   0  0.1832626E-06  0.2938628E+04  0.7818609E-02  0.8261477E-01
        2   -1    0    0  501    0  0.00000000000E+00  0.00000000000E+00  0.12751826253E+04  0.12751826253E+04  0.25500000920E-02 0. -1.
       -2   -1    0    0    0  501  0.00000000000E+00  0.00000000000E+00 -0.16929992252E+04  0.16929992252E+04  0.25500000920E-02 0.  1.
    10030    2    1    2    0    0  0.00000000000E+00  0.00000000000E+00 -0.41781659989E+03  0.29681818505E+04  0.29386277046E+04 0.  0.
        3    1    3    3  502    0 -0.85827682328E+03 -0.26244908030E+03  0.96613355515E+03  0.13186859678E+04  0.10100000352E+00 0. -1.
       -3    1    3    3    0  502  0.85827682328E+03  0.26244908030E+03 -0.13839501550E+04  0.16494958827E+04  0.10100000352E+00 0.  1.
</event>
<event>
 5   0  0.5985183E-07  0.2781801E+04  0.7818609E-02  0.8308941E-01
       -1   -1    0    0    0  501  0.00000000000E+00  0.00000000000E+00  0.11289849192E+04  0.11289849192E+04  0.50400001928E-02 0. -1.
        1   -1    0    0  501    0  0.00000000000E+00  0.00000000000E+00 -0.17135779085E+04  0.17135779085E+04  0.50400001928E-02 0.  1.
    10030    2    1    2    0    0  0.00000000000E+00  0.00000000000E+00 -0.58459298925E+03  0.28425628277E+04  0.27818005799E+04 0.  0.
        2    1    3    3  502    0 -0.10547957080E+04 -0.75204146888E+03 -0.80975999707E+03  0.15277014137E+04  0.25500000920E-02 0.  1.
       -2    1    3    3    0  502  0.10547957080E+04  0.75204146888E+03  0.22516700782E+03  0.13148614140E+04  0.25500000920E-02 0. -1.
</event>
<event>
 5   0  0.5985183E-07  0.3295819E+04  0.7818609E-02  0.8163960E-01
       -1   -1    0    0    0  501  0.00000000000E+00  0.00000000000E+00  0.17875166538E+04  0.17875166538E+04  0.50400001928E-02 0.  1.
        1   -1    0    0  501    0  0.00000000000E+00  0.00000000000E+00 -0.15192062323E+04  0.15192062323E+04  0.50400001928E-02 0. -1.
    10030    2    1    2    0    0  0.00000000000E+00  0.00000000000E+00  0.26831042150E+03  0.33067228861E+04  0.32958194372E+04 0.  0.
        2    1    3    3  502    0 -0.78900825083E+03  0.74256380916E+03  0.13799035010E+04  0.17544425618E+04  0.25500000920E-02 0.  1.
       -2    1    3    3    0  502  0.78900825083E+03 -0.74256380916E+03 -0.11115930795E+04  0.15522803242E+04  0.25500000920E-02 0. -1.
</event>
<event>
 5   0  0.5685000E-07  0.3214726E+04  0.7818609E-02  0.8184939E-01
        3   -1    0    0  501    0  0.00000000000E+00  0.00000000000E+00  0.25894040685E+04  0.25894040704E+04  0.10100000352E+00 0.  1.
       -3   -1    0    0    0  501  0.00000000000E+00  0.00000000000E+00 -0.99776467177E+03  0.99776467688E+03  0.10100000352E+00 0. -1.
    10030    2    1    2    0    0  0.00000000000E+00  0.00000000000E+00  0.15916393967E+04  0.35871687473E+04  0.32147260618E+04 0.  0.
        3    1    3    3  502    0 -0.84662202307E+03  0.13492043545E+04  0.55521207292E+03  0.16868259235E+04  0.10100000352E+00 0. -1.
       -3    1    3    3    0  502  0.84662202307E+03 -0.13492043545E+04  0.10364273238E+04  0.19003428238E+04  0.10100000352E+00 0.  1.
</event>
<event>
 5   0  0.5988516E-07  0.3303718E+04  0.7818609E-02  0.8161950E-01
        1   -1    0    0  501    0  0.00000000000E+00  0.00000000000E+00  0.22830474698E+04  0.22830474698E+04  0.50400001928E-02 0. -1.
       -1   -1    0    0    0  501  0.00000000000E+00  0.00000000000E+00 -0.11951739706E+04  0.11951739706E+04  0.50400001928E-02 0.  1.
    10030    2    1    2    0    0  0.00000000000E+00  0.00000000000E+00  0.10878734992E+04  0.34782214404E+04  0.33037184563E+04 0.  0.
        4    1    3    3  502    0 -0.58762591022E+03  0.43512878279E+03  0.21033891273E+04  0.22268562373E+04  0.12699999809E+01 0. -1.
       -4    1    3    3    0  502  0.58762591022E+03 -0.43512878279E+03 -0.10155156280E+04  0.12513652031E+04  0.12699999809E+01 0.  1.
</event>
<event>
 5   0  0.5858859E-07  0.3313493E+04  0.7818609E-02  0.8159471E-01
        1   -1    0    0  501    0  0.00000000000E+00  0.00000000000E+00  0.18136260885E+04  0.18136260886E+04  0.50400001928E-02 0. -1.
       -1   -1    0    0    0  501  0.00000000000E+00  0.00000000000E+00 -0.15134366445E+04  0.15134366445E+04  0.50400001928E-02 0.  1.
    10030    2    1    2    0    0  0.00000000000E+00  0.00000000000E+00  0.30018944407E+03  0.33270627330E+04  0.33134925271E+04 0.  0.
        3    1    3    3  502    0  0.80124201943E+03  0.17129615766E+03  0.15959492785E+04  0.17939858576E+04  0.10100000352E+00 0. -1.
       -3    1    3    3    0  502 -0.80124201943E+03 -0.17129615766E+03 -0.12957598344E+04  0.15330768755E+04  0.10100000352E+00 0.  1.
</event>
<event>
 5   0  0.1696681E-06  0.3298592E+04  0.7818609E-02  0.8163254E-01
        2   -1    0    0  501    0  0.00000000000E+00  0.00000000000E+00  0.83194809351E+03  0.83194809351E+03  0.25500000920E-02 0.  1.
       -2   -1    0    0    0  501  0.00000000000E+00  0.00000000000E+00 -0.32696469985E+04  0.32696469985E+04  0.25500000920E-02 0. -1.
    10030    2    1    2    0    0  0.00000000000E+00  0.00000000000E+00 -0.24376989050E+04  0.41015950920E+04  0.32985915703E+04 0.  0.
        4    1    3    3  502    0  0.10735156845E+04  0.21418020828E+03 -0.27528037879E+04  0.29624718385E+04  0.12699999809E+01 0. -1.
       -4    1    3    3    0  502 -0.10735156845E+04 -0.21418020828E+03  0.31510488292E+03  0.11391232535E+04  0.12699999809E+01 0.  1.
</event>
<event>
 5   0  0.1743810E-06  0.3312893E+04  0.7818609E-02  0.8159623E-01
        2   -1    0    0  501    0  0.00000000000E+00  0.00000000000E+00  0.19155270948E+04  0.19155270948E+04  0.25500000920E-02 0. -1.
       -2   -1    0    0    0  501  0.00000000000E+00  0.00000000000E+00 -0.14324071091E+04  0.14324071091E+04  0.25500000920E-02 0.  1.
    10030    2    1    2    0    0  0.00000000000E+00  0.00000000000E+00  0.48311998578E+03  0.33479342039E+04  0.33128927711E+04 0.  0.
        5    1    3    3  502    0  0.94638678383E+03  0.13340058512E+04  0.50619424489E+03  0.17121548584E+04  0.46999998093E+01 0. -1.
       -5    1    3    3    0  502 -0.94638678383E+03 -0.13340058512E+04 -0.23074259105E+02  0.16357793455E+04  0.46999998093E+01 0.  1.
</event>
<event>
 5   0  0.6023446E-07  0.3262966E+04  0.7818609E-02  0.8172383E-01
        1   -1    0    0  501    0  0.00000000000E+00  0.00000000000E+00  0.12764792651E+04  0.12764792651E+04  0.50400001928E-02 0.  1.
       -1   -1    0    0    0  501  0.00000000000E+00  0.00000000000E+00 -0.20852167652E+04  0.20852167652E+04  0.50400001928E-02 0. -1.
    10030    2    1    2    0    0  0.00000000000E+00  0.00000000000E+00 -0.80873750013E+03  0.33616960303E+04  0.32629655002E+04 0.  0.
        5    1    3    3  502    0  0.57407293897E+03  0.24699711742E+03 -0.19570007742E+04  0.20543712994E+04  0.46999998093E+01 0. -1.
       -5    1    3    3    0  502 -0.57407293897E+03 -0.24699711742E+03  0.11482632741E+04  0.13073247309E+04  0.46999998093E+01 0.  1.
</event>
<event>
 5   0  0.1728937E-06  0.3301334E+04  0.7818609E-02  0.8162556E-01
       -2   -1    0    0    0  501  0.00000000000E+00  0.00000000000E+00  0.17005301496E+04  0.17005301496E+04  0.25500000920E-02 0.  1.
        2   -1    0    0  501    0  0.00000000000E+00  0.00000000000E+00 -0.16022654773E+04  0.16022654773E+04  0.25500000920E-02 0. -1.
    10030    2    1    2    0    0  0.00000000000E+00  0.00000000000E+00  0.98264672238E+02  0.33027956269E+04  0.33013335195E+04 0.  0.
        1    1    3    3  502    0  0.41383888358E+03  0.12966441538E+04  0.98343676389E+03  0.16791952096E+04  0.50400001928E-02 0.  1.
       -1    1    3    3    0  502 -0.41383888358E+03 -0.12966441538E+04 -0.88517209165E+03  0.16236004173E+04  0.50400001928E-02 0. -1.
</event>
<event>
 5   0  0.1784626E-06  0.3252320E+04  0.7818609E-02  0.8175135E-01
       -2   -1    0    0    0  501  0.00000000000E+00  0.00000000000E+00  0.12061561920E+04  0.12061561920E+04  0.25500000920E-02 0. -1.
        2   -1    0    0  501    0  0.00000000000E+00  0.00000000000E+00 -0.21924155269E+04  0.21924155269E+04  0.25500000920E-02 0.  1.
    10030    2    1    2    0    0  0.00000000000E+00  0.00000000000E+00 -0.98625933486E+03  0.33985717189E+04  0.32523195189E+04 0.  0.
        2    1    3    3  502    0  0.86026506694E+03  0.17728264154E+03 -0.19232142977E+04  0.21142938196E+04  0.25500000920E-02 0.  1.
       -2    1    3    3    0  502 -0.86026506694E+03 -0.17728264154E+03  0.93695496288E+03  0.12842778994E+04  0.25500000920E-02 0. -1.
</event>
<event>
 5   0  0.1784626E-06  0.3324651E+04  0.7818609E-02  0.8156651E-01
        2   -1    0    0  501    0  0.00000000000E+00  0.00000000000E+00  0.21374148742E+04  0.21374148742E+04  0.25500000920E-02 0.  1.
       -2   -1    0    0    0  501  0.00000000000E+00  0.00000000000E+00 -0.12928358775E+04  0.12928358775E+04  0.25500000920E-02 0. -1.
    10030    2    1    2    0    0  0.00000000000E+00  0.00000000000E+00  0.84457899678E+03  0.34302507517E+04  0.33246513408E+04 0.  0.
        2    1    3    3  502    0 -0.80058594754E+03 -0.20466831587E+02 -0.10806772381E+04  0.13450725050E+04  0.25500000920E-02 0. -1.
       -2    1    3    3    0  502  0.80058594754E+03  0.20466831587E+02  0.19252562349E+04  0.20851782467E+04  0.25500000920E-02 0.  1.
</event>
<event>
 5   0  0.5988516E-07  0.3260444E+04  0.7818609E-02  0.8173034E-01
        1   -1    0    0  501    0  0.00000000000E+00  0.00000000000E+00  0.22508839032E+04  0.22508839032E+04  0.50400001928E-02 0. -1.
       -1   -1    0    0    0  501  0.00000000000E+00  0.00000000000E+00 -0.11807021123E+04  0.11807021123E+04  0.50400001928E-02 0.  1.
    10030    2    1    2    0    0  0.00000000000E+00  0.00000000000E+00  0.10701817909E+04  0.34315860155E+04  0.32604437607E+04 0.  0.
        4    1    3    3  502    0 -0.10696160577E+04 -0.97361798820E+03 -0.25645700698E+03  0.14689391775E+04  0.12699999809E+01 0.  1.
       -4    1    3    3    0  502  0.10696160577E+04  0.97361798820E+03  0.13266387979E+04  0.19626468380E+04  0.12699999809E+01 0. -1.
</event>
<event>
 5   0  0.6085351E-07  0.3356822E+04  0.7818609E-02  0.8148586E-01
        1   -1    0    0  501    0  0.00000000000E+00  0.00000000000E+00  0.19994889719E+04  0.19994889719E+04  0.50400001928E-02 0.  1.
       -1   -1    0    0    0  501  0.00000000000E+00  0.00000000000E+00 -0.14088921103E+04  0.14088921103E+04  0.50400001928E-02 0. -1.
    10030    2    1    2    0    0  0.00000000000E+00  0.00000000000E+00  0.59059686161E+03  0.34083810822E+04  0.33568224481E+04 0.  0.
        1    1    3    3  502    0 -0.11632235750E+03  0.12971149031E+04  0.13703459743E+04  0.18904724415E+04  0.50400001928E-02 0.  1.
       -1    1    3    3    0  502  0.11632235750E+03 -0.12971149031E+04 -0.77974911268E+03  0.15179086407E+04  0.50400001928E-02 0. -1.
</event>
<event>
 5   0  0.1743810E-06  0.3310171E+04  0.7818609E-02  0.8160312E-01
       -2   -1    0    0    0  501  0.00000000000E+00  0.00000000000E+00  0.13318361294E+04  0.13318361294E+04  0.25500000920E-02 0. -1.
        2   -1    0    0  501    0  0.00000000000E+00  0.00000000000E+00 -0.20567908922E+04  0.20567908922E+04  0.25500000920E-02 0.  1.
    10030    2    1    2    0    0  0.00000000000E+00  0.00000000000E+00 -0.72495476277E+03  0.33886270215E+04  0.33101712468E+04 0.  0.
        5    1    3    3  502    0 -0.46765012862E+03 -0.10563671713E+04  0.85080449842E+03  0.14347468864E+04  0.46999998093E+01 0. -1.
       -5    1    3    3    0  502  0.46765012862E+03  0.10563671713E+04 -0.15757592612E+04  0.19538801352E+04  0.46999998093E+01 0.  1.
</event>
<event>
 5   0  0.6023446E-07  0.2671901E+04  0.7818609E-02  0.8344180E-01
       -1   -1    0    0    0  501  0.00000000000E+00  0.00000000000E+00  0.11216876501E+04  0.11216876501E+04  0.50400001928E-02 0. -1.
        1   -1    0    0  501    0  0.00000000000E+00  0.00000000000E+00 -0.15911414316E+04  0.15911414316E+04  0.50400001928E-02 0.  1.
    10030    2    1    2    0    0  0.00000000000E+00  0.00000000000E+00 -0.46945378148E+03  0.27128290818E+04  0.26719009663E+04 0.  0.
        5    1    3    3  502    0 -0.21675659602E+03 -0.42295697332E+03 -0.15023974650E+04  0.15757843304E+04  0.46999998093E+01 0.  1.
       -5    1    3    3    0  502  0.21675659602E+03  0.42295697332E+03  0.10329436835E+04  0.11370447513E+04  0.46999998093E+01 0. -1.
</event>
<event>
 5   0  0.1784626E-06  0.2842744E+04  0.7818609E-02  0.8290119E-01
        2   -1    0    0  501    0  0.00000000000E+00  0.00000000000E+00  0.13108392210E+04  0.13108392210E+04  0.25500000920E-02 0.  1.
       -2   -1    0    0    0  501  0.00000000000E+00  0.00000000000E+00 -0.15412254963E+04  0.15412254963E+04  0.25500000920E-02 0. -1.
    10030    2    1    2    0    0  0.00000000000E+00  0.00000000000E+00 -0.23038627532E+03  0.28520647173E+04  0.28427443283E+04 0.  0.
        2    1    3    3  502    0 -0.11964053606E+04 -0.70993754268E+03 -0.40752748016E+03  0.14496467668E+04  0.25500000920E-02 0. -1.
       -2    1    3    3    0  502  0.11964053606E+04  0.70993754268E+03  0.17714120484E+03  0.14024179505E+04  0.25500000920E-02 0.  1.
</event>
<event>
 5   0  0.1696681E-06  0.3305982E+04  0.7818609E-02  0.8161375E-01
        2   -1    0    0  501    0  0.00000000000E+00  0.00000000000E+00  0.21680881182E+04  0.21680881182E+04  0.25500000920E-02 0.  1.
       -2   -1    0    0    0  501  0.00000000000E+00  0.00000000000E+00 -0.12602713231E+04  0.12602713231E+04  0.25500000920E-02 0. -1.
    10030    2    1    2    0    0  0.00000000000E+00  0.00000000000E+00  0.90781679508E+03  0.34283594413E+04  0.33059820213E+04 0.  0.
        4    1    3    3  502    0 -0.35312907461E+03  0.15309335260E+04 -0.78839893248E+02  0.15731099600E+04  0.12699999809E+01 0. -1.
       -4    1    3    3    0  502  0.35312907461E+03 -0.15309335260E+04  0.98665668832E+03  0.18552494813E+04  0.12699999809E+01 0.  1.
</event>
<event>
 5   0  0.5988516E-07  0.3305752E+04  0.7818609E-02  0.8161433E-01
       -1   -1    0    0    0  501  0.00000000000E+00  0.00000000000E+00  0.10608464283E+04  0.10608464283E+04  0.50400001928E-02 0. -1.
        1   -1    0    0  501    0  0.00000000000E+00  0.00000000000E+00 -0.25753013571E+04  0.25753013571E+04  0.50400001928E-02 0.  1.
    10030    2    1    2    0    0  0.00000000000E+00  0.00000000000E+00 -0.15144549288E+04  0.36361477855E+04  0.33057521060E+04 0.  0.
        4    1    3    3  502    0  0.32599670282E+03  0.15760658573E+04 -0.11713394101E+04  0.19905514470E+04  0.12699999809E+01 0.  1.
       -4    1    3    3    0  502 -0.32599670282E+03 -0.15760658573E+04 -0.34311551873E+03  0.16455963384E+04  0.12699999809E+01 0. -1.
</event>
<event>
 5   0  0.1743810E-06  0.3318616E+04  0.7818609E-02  0.8158175E-01
       -2   -1    0    0    0  501  0.00000000000E+00  0.00000000000E+00  0.28478777007E+04  0.28478777007E+04  0.25500000920E-02 0. -1.
        2   -1    0    0  501    0  0.00000000000E+00  0.00000000000E+00 -0.96679091607E+03  0.96679091607E+03  0.25500000920E-02 0.  1.
    10030    2    1    2    0    0  0.00000000000E+00  0.00000000000E+00  0.18810867846E+04  0.38146686167E+04  0.33186155493E+04 0.  0.
        5    1    3    3  502    0 -0.69221011082E+03  0.40824960662E+03 -0.72816057273E+03  0.10844641481E+04  0.46999998093E+01 0.  1.
       -5    1    3    3    0  502  0.69221011082E+03 -0.40824960662E+03  0.26092473573E+04  0.27302044686E+04  0.46999998093E+01 0. -1.
</event>
<event>
 5   0  0.1832626E-06  0.3312909E+04  0.7818609E-02  0.8159619E-01
       -2   -1    0    0    0  501  0.00000000000E+00  0.00000000000E+00  0.11046218110E+04  0.11046218110E+04  0.25500000920E-02 0.  1.
        2   -1    0    0  501    0  0.00000000000E+00  0.00000000000E+00 -0.24839641788E+04  0.24839641788E+04  0.25500000920E-02 0. -1.
    10030    2    1    2    0    0  0.00000000000E+00  0.00000000000E+00 -0.13793423678E+04  0.35885859897E+04  0.33129086975E+04 0.  0.
        3    1    3    3  502    0  0.15865687962E+04 -0.21285418978E+03 -0.22840356327E+03  0.16169958717E+04  0.10100000352E+00 0.  1.
       -3    1    3    3    0  502 -0.15865687962E+04  0.21285418978E+03 -0.11509388046E+04  0.19715901180E+04  0.10100000352E+00 0. -1.
</event>
<event>
 5   0  0.1696681E-06  0.3291252E+04  0.7818609E-02  0.8165125E-01
       -2   -1    0    0    0  501  0.00000000000E+00  0.00000000000E+00  0.82255552453E+03  0.82255552453E+03  0.25500000920E-02 0.  1.
        2   -1    0    0  501    0  0.00000000000E+00  0.00000000000E+00 -0.32922819008E+04  0.32922819008E+04  0.25500000920E-02 0. -1.
    10030    2    1    2    0    0  0.00000000000E+00  0.00000000000E+00 -0.24697263763E+04  0.41148374253E+04  0.32912518383E+04 0.  0.
        4    1    3    3  502    0 -0.39416470159E+03  0.27144440393E+03  0.73362544406E+03  0.87593137943E+03  0.12699999809E+01 0.  1.
       -4    1    3    3    0  502  0.39416470159E+03 -0.27144440393E+03 -0.32033518204E+04  0.32389060459E+04  0.12699999809E+01 0. -1.
</event>
<event>
 5   0  0.5985183E-07  0.3298456E+04  0.7818609E-02  0.8163288E-01
       -1   -1    0    0    0  501  0.00000000000E+00  0.00000000000E+00  0.18836609974E+04  0.18836609974E+04  0.50400001928E-02 0. -1.
        1   -1    0    0  501    0  0.00000000000E+00  0.00000000000E+00 -0.14439718145E+04  0.14439718145E+04  0.50400001928E-02 0.  1.
    10030    2    1    2    0    0  0.00000000000E+00  0.00000000000E+00  0.43968918292E+03  0.33276328119E+04  0.32984562379E+04 0.  0.
        2    1    3    3  502    0  0.99121890329E+03  0.83375696088E+03 -0.81011099980E+03  0.15277255696E+04  0.25500000920E-02 0.  1.
       -2    1    3    3    0  502 -0.99121890329E+03 -0.83375696088E+03  0.12498001827E+04  0.17999072423E+04  0.25500000920E-02 0. -1.
</event>
<event>
 5   0  0.1832626E-06  0.3249922E+04  0.7818609E-02  0.8175756E-01
        2   -1    0    0  501    0  0.00000000000E+00  0.00000000000E+00  0.17025394770E+04  0.17025394770E+04  0.25500000920E-02 0. -1.
       -2   -1    0    0    0  501  0.00000000000E+00  0.00000000000E+00 -0.15509177146E+04  0.15509177146E+04  0.25500000920E-02 0.  1.
    10030    2    1    2    0    0  0.00000000000E+00  0.00000000000E+00  0.15162176238E+03  0.32534571915E+04  0.32499222357E+04 0.  0.
        3    1    3    3  502    0  0.16411006843E+03 -0.47613357118E+03  0.16224390075E+04  0.16988065327E+04  0.10100000352E+00 0. -1.
       -3    1    3    3    0  502 -0.16411006843E+03  0.47613357118E+03 -0.14708172452E+04  0.15546506588E+04  0.10100000352E+00 0.  1.
</event>
<event>
 5   0  0.6023446E-07  0.3293631E+04  0.7818609E-02  0.8164518E-01
        1   -1    0    0  501    0  0.00000000000E+00  0.00000000000E+00  0.26594770646E+04  0.26594770646E+04  0.50400001928E-02 0.  1.
       -1   -1    0    0    0  501  0.00000000000E+00  0.00000000000E+00 -0.10197498239E+04  0.10197498239E+04  0.50400001928E-02 0. -1.
    10030    2    1    2    0    0  0.00000000000E+00  0.00000000000E+00  0.16397272407E+04  0.36792268885E+04  0.32936309862E+04 0.  0.
        5    1    3    3  502    0 -0.12585744017E+04 -0.36295923685E+03  0.19348292816E+04  0.23365220673E+04  0.46999998093E+01 0.  1.
       -5    1    3    3    0  502  0.12585744017E+04  0.36295923685E+03 -0.29510204091E+03  0.13427048211E+04  0.46999998093E+01 0. -1.
</event>
<event>
 5   0  0.1696681E-06  0.2807676E+04  0.7818609E-02  0.8300889E-01
        2   -1    0    0  501    0  0.00000000000E+00  0.00000000000E+00  0.12365395763E+04  0.12365395763E+04  0.25500000920E-02 0.  1.
       -2   -1    0    0    0  501  0.00000000000E+00  0.00000000000E+00 -0.15937714137E+04  0.15937714137E+04  0.25500000920E-02 0. -1.
    10030    2    1    2    0    0  0.00000000000E+00  0.00000000000E+00 -0.35723183738E+03  0.28303109900E+04  0.28076762126E+04 0.  0.
        4    1    3    3  502    0  0.55855818182E+02  0.56923640155E+03  0.11137529992E+04  0.12520372636E+04  0.12699999809E+01 0.  1.
       -4    1    3    3    0  502 -0.55855818182E+02 -0.56923640155E+03 -0.14709848366E+04  0.15782737264E+04  0.12699999809E+01 0. -1.
</event>
<event>
 5   0  0.6085351E-07  0.3244153E+04  0.7818609E-02  0.8177253E-01
        1   -1    0    0  501    0  0.00000000000E+00  0.00000000000E+00  0.23025636404E+04  0.23025636404E+04  0.50400001928E-02 0. -1.
       -1   -1    0    0    0  501  0.00000000000E+00  0.00000000000E+00 -0.11426969564E+04  0.11426969564E+04  0.50400001928E-02 0.  1.
    10030    2    1    2    0    0  0.00000000000E+00  0.00000000000E+00  0.11598666841E+04  0.34452605968E+04  0.32441531800E+04 0.  0.
        1    1    3    3  502    0  0.16117970565E+04  0.37656177165E+02  0.39047965891E+03  0.16588496325E+04  0.50400001928E-02 0.  1.
       -1    1    3    3    0  502 -0.16117970565E+04 -0.37656177165E+02  0.76938702515E+03  0.17864109644E+04  0.50400001928E-02 0. -1.
</event>
<event>
 5   0  0.1743810E-06  0.3301372E+04  0.7818609E-02  0.8162546E-01
       -2   -1    0    0    0  501  0.00000000000E+00  0.00000000000E+00  0.13505690038E+04  0.13505690038E+04  0.25500000920E-02 0. -1.
        2   -1    0    0  501    0  0.00000000000E+00  0.00000000000E+00 -0.20174938741E+04  0.20174938741E+04  0.25500000920E-02 0.  1.
    10030    2    1    2    0    0  0.00000000000E+00  0.00000000000E+00 -0.66692487030E+03  0.33680628779E+04  0.33013722552E+04 0.  0.
        5    1    3    3  502    0 -0.24095995775E+03 -0.73320161964E+03  0.11551558343E+04  0.13892636207E+04  0.46999998093E+01 0. -1.
       -5    1    3    3    0  502  0.24095995775E+03  0.73320161964E+03 -0.18220807046E+04  0.19787992572E+04  0.46999998093E+01 0.  1.
</event>
<event>
 5   0  0.6023446E-07  0.3211885E+04  0.7818609E-02  0.8185685E-01
        1   -1    0    0  501    0  0.00000000000E+00  0.00000000000E+00  0.28246089203E+04  0.28246089204E+04  0.50400001928E-02 0.  1.
       -1   -1    0    0    0  501  0.00000000000E+00  0.00000000000E+00 -0.91306512282E+03  0.91306512283E+03  0.50400001928E-02 0. -1.
    10030    2    1    2    0    0  0.00000000000E+00  0.00000000000E+00  0.19115437975E+04  0.37376740432E+04  0.32118853596E+04 0.  0.
        5    1    3    3  502    0  0.12109484323E+04  0.73072481632E+03  0.18410072027E+04  0.23215693987E+04  0.46999998093E+01 0.  1.
       -5    1    3    3    0  502 -0.12109484323E+04 -0.73072481632E+03  0.70536594834E+02  0.14161046444E+04  0.46999998093E+01 0. -1.
</event>
<event>
 5   0  0.6023446E-07  0.3440057E+04  0.7818609E-02  0.8128144E-01
       -1   -1    0    0    0  501  0.00000000000E+00  0.00000000000E+00  0.15592348364E+04  0.15592348364E+04  0.50400001928E-02 0.  1.
        1   -1    0    0  501    0  0.00000000000E+00  0.00000000000E+00 -0.18974036106E+04  0.18974036106E+04  0.50400001928E-02 0. -1.
    10030    2    1    2    0    0  0.00000000000E+00  0.00000000000E+00 -0.33816877418E+03  0.34566384470E+04  0.34400568648E+04 0.  0.
        5    1    3    3  502    0 -0.63856515097E+03  0.10685012370E+04  0.10236567558E+04  0.16116313441E+04  0.46999998093E+01 0.  1.
       -5    1    3    3    0  502  0.63856515097E+03 -0.10685012370E+04 -0.13618255300E+04  0.18450071029E+04  0.46999998093E+01 0. -1.
</event>
<event>
 5   0  0.1743810E-06  0.3305651E+04  0.7818609E-02  0.8161459E-01
       -2   -1    0    0    0  501  0.00000000000E+00  0.00000000000E+00  0.10997280117E+04  0.10997280117E+04  0.25500000920E-02 0. -1.
        2   -1    0    0  501    0  0.00000000000E+00  0.00000000000E+00 -0.24840973707E+04  0.24840973707E+04  0.25500000920E-02 0.  1.
    10030    2    1    2    0    0  0.00000000000E+00  0.00000000000E+00 -0.13843693591E+04  0.35838253824E+04  0.33056505940E+04 0.  0.
        5    1    3    3  502    0  0.99989774337E+03  0.12852165608E+04 -0.38509556224E+03  0.16732895109E+04  0.46999998093E+01 0.  1.
       -5    1    3    3    0  502 -0.99989774337E+03 -0.12852165608E+04 -0.99927379681E+03  0.19105358715E+04  0.46999998093E+01 0. -1.
</event>
<event>
 5   0  0.5988516E-07  0.3296298E+04  0.7818609E-02  0.8163838E-01
        1   -1    0    0  501    0  0.00000000000E+00  0.00000000000E+00  0.13592709338E+04  0.13592709338E+04  0.50400001928E-02 0. -1.
       -1   -1    0    0    0  501  0.00000000000E+00  0.00000000000E+00 -0.19984204785E+04  0.19984204785E+04  0.50400001928E-02 0.  1.
    10030    2    1    2    0    0  0.00000000000E+00  0.00000000000E+00 -0.63914954468E+03  0.33576914123E+04  0.32962978445E+04 0.  0.
        4    1    3    3  502    0 -0.26250087246E+03 -0.87002728703E+03  0.10810027811E+04  0.14122403528E+04  0.12699999809E+01 0. -1.
       -4    1    3    3    0  502  0.26250087246E+03  0.87002728703E+03 -0.17201523258E+04  0.19454510596E+04  0.12699999809E+01 0.  1.
</event>
<event>
 5   0  0.5988516E-07  0.3288111E+04  0.7818609E-02  0.8165927E-01
       -1   -1    0    0    0  501  0.00000000000E+00  0.00000000000E+00  0.11578827846E+04  0.11578827846E+04  0.50400001928E-02 0. -1.
        1   -1    0    0  501    0  0.00000000000E+00  0.00000000000E+00 -0.23343623904E+04  0.23343623904E+04  0.50400001928E-02 0.  1.
    10030    2    1    2    0    0  0.00000000000E+00  0.00000000000E+00 -0.11764796058E+04  0.34922451750E+04  0.32881107188E+04 0.  0.
        4    1    3    3  502    0  0.38559330482E+03 -0.11874855030E+03  0.11044856367E+04  0.11758714000E+04  0.12699999809E+01 0. -1.
       -4    1    3    3    0  502 -0.38559330482E+03  0.11874855030E+03 -0.22809652425E+04  0.23163737749E+04  0.12699999809E+01 0.  1.
</event>
<event>
 5   0  0.6023446E-07  0.3299823E+04  0.7818609E-02  0.8162941E-01
       -1   -1    0    0    0  501  0.00000000000E+00  0.00000000000E+00  0.14768558239E+04  0.14768558239E+04  0.50400001928E-02 0.  1.
        1   -1    0    0  501    0  0.00000000000E+00  0.00000000000E+00 -0.18432451691E+04  0.18432451691E+04  0.50400001928E-02 0. -1.
    10030    2    1    2    0    0  0.00000000000E+00  0.00000000000E+00 -0.36638934526E+03  0.33201009930E+04  0.32998226394E+04 0.  0.
        5    1    3    3  502    0  0.20868078780E+03 -0.97556135202E+03 -0.15053927183E+04  0.18059615026E+04  0.46999998093E+01 0.  1.
       -5    1    3    3    0  502 -0.20868078780E+03  0.97556135202E+03  0.11390033730E+04  0.15141394904E+04  0.46999998093E+01 0. -1.
</event>
<event>
 5   0  0.5988516E-07  0.3192052E+04  0.7818609E-02  0.8190919E-01
        1   -1    0    0  501    0  0.00000000000E+00  0.00000000000E+00  0.17830810254E+04  0.17830810254E+04  0.50400001928E-02 0. -1.
       -1   -1    0    0    0  501  0.00000000000E+00  0.00000000000E+00 -0.14285945070E+04  0.14285945070E+04  0.50400001928E-02 0.  1.
    10030    2    1    2    0    0  0.00000000000E+00  0.00000000000E+00  0.35448651835E+03  0.32116755324E+04  0.31920524798E+04 0.  0.
        4    1    3    3  502    0  0.22353860986E+03 -0.10958443511E+04  0.13228621376E+04  0.17322846764E+04  0.12699999809E+01 0. -1.
       -4    1    3    3    0  502 -0.22353860986E+03  0.10958443511E+04 -0.96837561924E+03  0.14793908560E+04  0.12699999809E+01 0.  1.
</event>
<event>
 5   0  0.5988516E-07  0.2951876E+04  0.7818609E-02  0.8257608E-01
       -1   -1    0    0    0  501  0.00000000000E+00  0.00000000000E+00  0.97428390639E+03  0.97428390640E+03  0.50400001928E-02 0. -1.
        1   -1    0    0  501    0  0.00000000000E+00  0.00000000000E+00 -0.22358911704E+04  0.22358911704E+04  0.50400001928E-02 0.  1.
    10030    2    1    2    0    0  0.00000000000E+00  0.00000000000E+00 -0.12616072640E+04  0.32101750768E+04  0.29518758672E+04 0.  0.
        4    1    3    3  502    0 -0.70662769196E+03  0.11269832295E+04 -0.13262765406E+04  0.18784102241E+04  0.12699999809E+01 0.  1.
       -4    1    3    3    0  502  0.70662769196E+03 -0.11269832295E+04  0.64669276641E+02  0.13317648527E+04  0.12699999809E+01 0. -1.
</event>
<event>
 5   0  0.5988516E-07  0.3335108E+04  0.7818609E-02  0.8154019E-01
       -1   -1    0    0    0  501  0.00000000000E+00  0.00000000000E+00  0.12255741930E+04  0.12255741930E+04  0.50400001928E-02 0. -1.
        1   -1    0    0  501    0  0.00000000000E+00  0.00000000000E+00 -0.22689253836E+04  0.22689253836E+04  0.50400001928E-02 0.  1.
    10030    2    1    2    0    0  0.00000000000E+00  0.00000000000E+00 -0.10433511906E+04  0.34944995766E+04  0.33351080318E+04 0.  0.
        4    1    3    3  502    0  0.16603542595E+04 -0.10919474161E+03 -0.40672834799E+03  0.17129300396E+04  0.12699999809E+01 0.  1.
       -4    1    3    3    0  502 -0.16603542595E+04  0.10919474161E+03 -0.63662284257E+03  0.17815695370E+04  0.12699999809E+01 0. -1.
</event>
<event>
 5   0  0.6085351E-07  0.3423886E+04  0.7818609E-02  0.8132069E-01
       -1   -1    0    0    0  501  0.00000000000E+00  0.00000000000E+00  0.10511351141E+04  0.10511351141E+04  0.50400001928E-02 0.  1.
        1   -1    0    0  501    0  0.00000000000E+00  0.00000000000E+00 -0.27881744885E+04  0.27881744885E+04  0.50400001928E-02 0. -1.
    10030    2    1    2    0    0  0.00000000000E+00  0.00000000000E+00 -0.17370393744E+04  0.38393096026E+04  0.34238855758E+04 0.  0.
        1    1    3    3  502    0 -0.10279218825E+04 -0.11896830903E+04 -0.10900602518E+03  0.15760239736E+04  0.50400001928E-02 0.  1.
       -1    1    3    3    0  502  0.10279218825E+04  0.11896830903E+04 -0.16280333492E+04  0.22632856289E+04  0.50400001928E-02 0. -1.
</event>
<event>
 5   0  0.1784626E-06  0.3287033E+04  0.7818609E-02  0.8166203E-01
        2   -1    0    0  501    0  0.00000000000E+00  0.00000000000E+00  0.21981633079E+04  0.21981633079E+04  0.25500000920E-02 0.  1.
       -2   -1    0    0    0  501  0.00000000000E+00  0.00000000000E+00 -0.12288196690E+04  0.12288196690E+04  0.25500000920E-02 0. -1.
    10030    2    1    2    0    0  0.00000000000E+00  0.00000000000E+00  0.96934363895E+03  0.34269829769E+04  0.32870328921E+04 0.  0.
        2    1    3    3  502    0  0.63286986286E+03  0.69903593063E+03  0.18880783597E+04  0.21104538346E+04  0.25500000920E-02 0.  1.
       -2    1    3    3    0  502 -0.63286986286E+03 -0.69903593063E+03 -0.91873472070E+03  0.13165291424E+04  0.25500000920E-02 0. -1.
</event>
<event>
 5   0  0.6085351E-07  0.3269756E+04  0.7818609E-02  0.8170634E-01
       -1   -1    0    0    0  501  0.00000000000E+00  0.00000000000E+00  0.10502983075E+04  0.10502983075E+04  0.50400001928E-02 0.  1.
        1   -1    0    0  501    0  0.00000000000E+00  0.00000000000E+00 -0.25448256352E+04  0.25448256352E+04  0.50400001928E-02 0. -1.
    10030    2    1    2    0    0  0.00000000000E+00  0.00000000000E+00 -0.14945273277E+04  0.35951239427E+04  0.32697559894E+04 0.  0.
        1    1    3    3  502    0 -0.79323379341E+03  0.12775884089E+04 -0.14524712524E+04  0.20907234950E+04  0.50400001928E-02 0. -1.
       -1    1    3    3    0  502  0.79323379341E+03 -0.12775884089E+04 -0.42056075273E+02  0.15044004477E+04  0.50400001928E-02 0.  1.
</event>
<event>
 5   0  0.6085351E-07  0.3285331E+04  0.7818609E-02  0.8166638E-01
        1   -1    0    0  501    0  0.00000000000E+00  0.00000000000E+00  0.19396177324E+04  0.19396177324E+04  0.50400001928E-02 0.  1.
       -1   -1    0    0    0  501  0.00000000000E+00  0.00000000000E+00 -0.13911761474E+04  0.13911761474E+04  0.50400001928E-02 0. -1.
    10030    2    1    2    0    0  0.00000000000E+00  0.00000000000E+00  0.54844158501E+03  0.33307938799E+04  0.32853309876E+04 0.  0.
        1    1    3    3  502    0 -0.12364182381E+04  0.40898033841E+03 -0.74081042013E+03  0.14982640139E+04  0.50400001928E-02 0. -1.
       -1    1    3    3    0  502  0.12364182381E+04 -0.40898033841E+03  0.12892520051E+04  0.18325298659E+04  0.50400001928E-02 0.  1.
</event>
<event>
 5   0  0.1743810E-06  0.3351403E+04  0.7818609E-02  0.8149938E-01
        2   -1    0    0  501    0  0.00000000000E+00  0.00000000000E+00  0.21250999038E+04  0.21250999038E+04  0.25500000920E-02 0.  1.
       -2   -1    0    0    0  501  0.00000000000E+00  0.00000000000E+00 -0.13213379316E+04  0.13213379316E+04  0.25500000920E-02 0. -1.
    10030    2    1    2    0    0  0.00000000000E+00  0.00000000000E+00  0.80376197219E+03  0.34464378354E+04  0.33514027579E+04 0.  0.
        5    1    3    3  502    0  0.25605096324E+03  0.35285786736E+03  0.20657490308E+04  0.21112583732E+04  0.46999998093E+01 0.  1.
       -5    1    3    3    0  502 -0.25605096324E+03 -0.35285786736E+03 -0.12619870586E+04  0.13351794622E+04  0.46999998093E+01 0. -1.
</event>
<event>
 5   0  0.5685000E-07  0.3349101E+04  0.7818609E-02  0.8150513E-01
       -4   -1    0    0    0  501  0.00000000000E+00  0.00000000000E+00  0.25581457920E+04  0.25581461072E+04  0.12699999809E+01 0.  1.
        4   -1    0    0  501    0  0.00000000000E+00  0.00000000000E+00 -0.10961520797E+04  0.10961528154E+04  0.12699999809E+01 0. -1.
    10030    2    1    2    0    0  0.00000000000E+00  0.00000000000E+00  0.14619937122E+04  0.36542989226E+04  0.33491006258E+04 0.  0.
        2    1    3    3  502    0  0.13517659720E+04  0.31236558622E+02  0.18088814242E+04  0.22583841508E+04  0.25500000920E-02 0.  1.
       -2    1    3    3    0  502 -0.13517659720E+04 -0.31236558622E+02 -0.34688771202E+03  0.13959147719E+04  0.25500000920E-02 0. -1.
</event>
<event>
 5   0  0.5858859E-07  0.3268240E+04  0.7818609E-02  0.8171024E-01
        1   -1    0    0  501    0  0.00000000000E+00  0.00000000000E+00  0.22028674273E+04  0.22028674273E+04  0.50400001928E-02 0.  1.
       -1   -1    0    0    0  501  0.00000000000E+00  0.00000000000E+00 -0.12122145842E+04  0.12122145842E+04  0.50400001928E-02 0. -1.
    10030    2    1    2    0    0  0.00000000000E+00  0.00000000000E+00  0.99065284308E+03  0.34150820115E+04  0.32682399070E+04 0.  0.
        3    1    3    3  502    0 -0.11323693869E+04  0.15786639877E+03 -0.72467840034E+03  0.13536399160E+04  0.10100000352E+00 0. -1.
       -3    1    3    3    0  502  0.11323693869E+04 -0.15786639877E+03  0.17153312434E+04  0.20614420955E+04  0.10100000352E+00 0.  1.
</event>
<event>
 5   0  0.5988516E-07  0.3306240E+04  0.7818609E-02  0.8161309E-01
        1   -1    0    0  501    0  0.00000000000E+00  0.00000000000E+00  0.17690936291E+04  0.17690936291E+04  0.50400001928E-02 0.  1.
       -1   -1    0    0    0  501  0.00000000000E+00  0.00000000000E+00 -0.15447489301E+04  0.15447489301E+04  0.50400001928E-02 0. -1.
    10030    2    1    2    0    0  0.00000000000E+00  0.00000000000E+00  0.22434469897E+03  0.33138425592E+04  0.33062398527E+04 0.  0.
        4    1    3    3  502    0  0.90965566902E+03  0.78831874834E+03 -0.10235192329E+04  0.15800357965E+04  0.12699999809E+01 0. -1.
       -4    1    3    3    0  502 -0.90965566902E+03 -0.78831874834E+03  0.12478639319E+04  0.17338067628E+04  0.12699999809E+01 0.  1.
</event>
<event>
 5   0  0.5988516E-07  0.3276699E+04  0.7818609E-02  0.8168850E-01
        1   -1    0    0  501    0  0.00000000000E+00  0.00000000000E+00  0.11887647494E+04  0.11887647494E+04  0.50400001928E-02 0. -1.
       -1   -1    0    0    0  501  0.00000000000E+00  0.00000000000E+00 -0.22579650907E+04  0.22579650907E+04  0.50400001928E-02 0.  1.
    10030    2    1    2    0    0  0.00000000000E+00  0.00000000000E+00 -0.10692003413E+04  0.34467298401E+04  0.32766991350E+04 0.  0.
        4    1    3    3  502    0  0.15709650367E+04 -0.57124951999E+01 -0.45472154394E+02  0.15716338979E+04  0.12699999809E+01 0. -1.
       -4    1    3    3    0  502 -0.15709650367E+04  0.57124951999E+01 -0.10237281869E+04  0.18750959423E+04  0.12699999809E+01 0.  1.
</event>
<event>
 5   0  0.1696681E-06  0.3318108E+04  0.7818609E-02  0.8158303E-01
        2   -1    0    0  501    0  0.00000000000E+00  0.00000000000E+00  0.15369278265E+04  0.15369278265E+04  0.25500000920E-02 0. -1.
       -2   -1    0    0    0  501  0.00000000000E+00  0.00000000000E+00 -0.17908843517E+04  0.17908843517E+04  0.25500000920E-02 0.  1.
    10030    2    1    2    0    0  0.00000000000E+00  0.00000000000E+00 -0.25395652518E+03  0.33278121782E+04  0.33181078911E+04 0.  0.
        4    1    3    3  502    0 -0.92754337544E+03  0.81909042880E+03  0.98133857346E+03  0.15793267086E+04  0.12699999809E+01 0. -1.
       -4    1    3    3    0  502  0.92754337544E+03 -0.81909042880E+03 -0.12352950986E+04  0.17484854696E+04  0.12699999809E+01 0.  1.
</event>
<event>
 5   0  0.5685000E-07  0.3348756E+04  0.7818609E-02  0.8150599E-01
        3   -1    0    0  501    0  0.00000000000E+00  0.00000000000E+00  0.10555663251E+04  0.10555663300E+04  0.10100000352E+00 0.  1.
       -3   -1    0    0    0  501  0.00000000000E+00  0.00000000000E+00 -0.26559596578E+04  0.26559596597E+04  0.10100000352E+00 0. -1.
    10030    2    1    2    0    0  0.00000000000E+00  0.00000000000E+00 -0.16003933326E+04  0.37115259896E+04  0.33487559410E+04 0.  0.
        5    1    3    3  502    0 -0.44015746128E+02  0.11257834680E+04 -0.21730024676E+04  0.24477106890E+04  0.46999998093E+01 0. -1.
       -5    1    3    3    0  502  0.44015746128E+02 -0.11257834680E+04  0.57260913495E+03  0.12638153007E+04  0.46999998093E+01 0.  1.
</event>
<event>
 5   0  0.5858859E-07  0.3259648E+04  0.7818609E-02  0.8173240E-01
        1   -1    0    0  501    0  0.00000000000E+00  0.00000000000E+00  0.15960990174E+04  0.15960990174E+04  0.50400001928E-02 0.  1.
       -1   -1    0    0    0  501  0.00000000000E+00  0.00000000000E+00 -0.16642613194E+04  0.16642613194E+04  0.50400001928E-02 0. -1.
    10030    2    1    2    0    0  0.00000000000E+00  0.00000000000E+00 -0.68162301985E+02  0.32603603369E+04  0.32596477458E+04 0.  0.
        3    1    3    3  502    0  0.10340563885E+03  0.72401007228E+02 -0.16593644407E+04  0.16641589435E+04  0.10100000352E+00 0. -1.
       -3    1    3    3    0  502 -0.10340563885E+03 -0.72401007228E+02  0.15912021387E+04  0.15962013934E+04  0.10100000352E+00 0.  1.
</event>
<event>
 5   0  0.1784626E-06  0.3300287E+04  0.7818609E-02  0.8162822E-01
        2   -1    0    0  501    0  0.00000000000E+00  0.00000000000E+00  0.26491498986E+04  0.26491498986E+04  0.25500000920E-02 0.  1.
       -2   -1    0    0    0  501  0.00000000000E+00  0.00000000000E+00 -0.10278667308E+04  0.10278667308E+04  0.25500000920E-02 0. -1.
    10030    2    1    2    0    0  0.00000000000E+00  0.00000000000E+00  0.16212831678E+04  0.36770166294E+04  0.33002866819E+04 0.  0.
        2    1    3    3  502    0  0.15294109466E+04  0.23320373375E+03  0.14501788422E+04  0.21204953429E+04  0.25500000920E-02 0.  1.
       -2    1    3    3    0  502 -0.15294109466E+04 -0.23320373375E+03  0.17110432559E+03  0.15565212865E+04  0.25500000920E-02 0. -1.
</event>
<event>
 5   0  0.1743810E-06  0.2780512E+04  0.7818609E-02  0.8309344E-01
       -2   -1    0    0    0  501  0.00000000000E+00  0.00000000000E+00  0.76488722001E+03  0.76488722001E+03  0.25500000920E-02 0. -1.
        2   -1    0    0  501    0  0.00000000000E+00  0.00000000000E+00 -0.25269241974E+04  0.25269241974E+04  0.25500000920E-02 0.  1.
    10030    2    1    2    0    0  0.00000000000E+00  0.00000000000E+00 -0.17620369774E+04  0.32918114174E+04  0.27805122007E+04 0.  0.
        5    1    3    3  502    0  0.10355468952E+04  0.65800235134E+03 -0.16550535987E+04  0.20602303199E+04  0.46999998093E+01 0.  1.
       -5    1    3    3    0  502 -0.10355468952E+04 -0.65800235134E+03 -0.10698337868E+03  0.12315810975E+04  0.46999998093E+01 0. -1.
</event>
<event>
 5   0  0.1832626E-06  0.3383095E+04  0.7818609E-02  0.8142068E-01
        2   -1    0    0  501    0  0.00000000000E+00  0.00000000000E+00  0.18011657501E+04  0.18011657501E+04  0.25500000920E-02 0. -1.
       -2   -1    0    0    0  501  0.00000000000E+00  0.00000000000E+00 -0.15886006539E+04  0.15886006539E+04  0.25500000920E-02 0.  1.
    10030    2    1    2    0    0  0.00000000000E+00  0.00000000000E+00  0.21256509623E+03  0.33897664040E+04  0.33830950849E+04 0.  0.
        3    1    3    3  502    0 -0.30236683261E+03  0.14489449016E+04 -0.71415204204E+03  0.16434354806E+04  0.10100000352E+00 0.  1.
       -3    1    3    3    0  502  0.30236683261E+03 -0.14489449016E+04  0.92671713827E+03  0.17463309234E+04  0.10100000352E+00 0. -1.
</event>
<event>
 5   0  0.5985183E-07  0.3295014E+04  0.7818609E-02  0.8164165E-01
       -1   -1    0    0    0  501  0.00000000000E+00  0.00000000000E+00  0.12532441014E+04  0.12532441014E+04  0.50400001928E-02 0. -1.
        1   -1    0    0  501    0  0.00000000000E+00  0.00000000000E+00 -0.21658021659E+04  0.21658021659E+04  0.50400001928E-02 0.  1.
    10030    2    1    2    0    0  0.00000000000E+00  0.00000000000E+00 -0.91255806444E+03  0.34190462673E+04  0.32950136809E+04 0.  0.
        2    1    3    3  502    0 -0.13509764425E+03  0.16129560823E+04 -0.13746754188E+03  0.16244309840E+04  0.25500000920E-02 0. -1.
       -2    1    3    3    0  502  0.13509764425E+03 -0.16129560823E+04 -0.77509052256E+03  0.17946152833E+04  0.25500000920E-02 0.  1.
</event>
<event>
 5   0  0.1832626E-06  0.3298395E+04  0.7818609E-02  0.8163304E-01
       -2   -1    0    0    0  501  0.00000000000E+00  0.00000000000E+00  0.92642020517E+03  0.92642020518E+03  0.25500000920E-02 0.  1.
        2   -1    0    0  501    0  0.00000000000E+00  0.00000000000E+00 -0.29358733316E+04  0.29358733316E+04  0.25500000920E-02 0. -1.
    10030    2    1    2    0    0  0.00000000000E+00  0.00000000000E+00 -0.20094531265E+04  0.38622935368E+04  0.32983949880E+04 0.  0.
        3    1    3    3  502    0  0.45952949725E+03 -0.21614729652E+03  0.83258828068E+03  0.97523856977E+03  0.10100000352E+00 0.  1.
       -3    1    3    3    0  502 -0.45952949725E+03  0.21614729652E+03 -0.28420414071E+04  0.28870549670E+04  0.10100000352E+00 0. -1.
</event>
<event>
 5   0  0.6023446E-07  0.3114355E+04  0.7818609E-02  0.8211809E-01
        1   -1    0    0  501    0  0.00000000000E+00  0.00000000000E+00  0.27036084134E+04  0.27036084134E+04  0.50400001928E-02 0.  1.
       -1   -1    0    0    0  501  0.00000000000E+00  0.00000000000E+00 -0.89687621186E+03  0.89687621187E+03  0.50400001928E-02 0. -1.
    10030    2    1    2    0    0  0.00000000000E+00  0.00000000000E+00  0.18067322015E+04  0.36004846253E+04  0.31143551963E+04 0.  0.
        5    1    3    3  502    0  0.33784325753E+03  0.14249964632E+04  0.15151425694E+04  0.21072332766E+04  0.46999998093E+01 0.  1.
       -5    1    3    3    0  502 -0.33784325753E+03 -0.14249964632E+04  0.29158963219E+03  0.14932513487E+04  0.46999998093E+01 0. -1.
</event>
<event>
 5   0  0.5858859E-07  0.3284589E+04  0.7818609E-02  0.8166828E-01
       -1   -1    0    0    0  501  0.00000000000E+00  0.00000000000E+00  0.12647370194E+04  0.12647370194E+04  0.50400001928E-02 0. -1.
        1   -1    0    0  501    0  0.00000000000E+00  0.00000000000E+00 -0.21325631631E+04  0.21325631631E+04  0.50400001928E-02 0.  1.
    10030    2    1    2    0    0  0.00000000000E+00  0.00000000000E+00 -0.86782614368E+03  0.33973001825E+04  0.32845892155E+04 0.  0.
        3    1    3    3  502    0 -0.32982730246E+03 -0.36286958891E+03  0.11872487791E+04  0.12845310668E+04  0.10100000352E+00 0. -1.
       -3    1    3    3    0  502  0.32982730246E+03  0.36286958891E+03 -0.20550749227E+04  0.21127691157E+04  0.10100000352E+00 0.  1.
</event>
<event>
 5   0  0.5988516E-07  0.3289526E+04  0.7818609E-02  0.8165566E-01
        1   -1    0    0  501    0  0.00000000000E+00  0.00000000000E+00  0.14821653678E+04  0.14821653678E+04  0.50400001928E-02 0.  1.
       -1   -1    0    0    0  501  0.00000000000E+00  0.00000000000E+00 -0.18251975562E+04  0.18251975562E+04  0.50400001928E-02 0. -1.
    10030    2    1    2    0    0  0.00000000000E+00  0.00000000000E+00 -0.34303218838E+03  0.33073629239E+04  0.32895255628E+04 0.  0.
        4    1    3    3  502    0 -0.50948132003E+03  0.54819824851E+03  0.13010590554E+04  0.15009493041E+04  0.12699999809E+01 0.  1.
       -4    1    3    3    0  502  0.50948132003E+03 -0.54819824851E+03 -0.16440912438E+04  0.18064136198E+04  0.12699999809E+01 0. -1.
</event>
<event>
 5   0  0.1696681E-06  0.3051945E+04  0.7818609E-02  0.8229051E-01
        2   -1    0    0  501    0  0.00000000000E+00  0.00000000000E+00  0.12652061506E+04  0.12652061506E+04  0.25500000920E-02 0.  1.
       -2   -1    0    0    0  501  0.00000000000E+00  0.00000000000E+00 -0.18404845770E+04  0.18404845770E+04  0.25500000920E-02 0. -1.
    10030    2    1    2    0    0  0.00000000000E+00  0.00000000000E+00 -0.57527842639E+03  0.31056907275E+04  0.30519452202E+04 0.  0.
        4    1    3    3  502    0 -0.12519951004E+04 -0.76133291678E+03 -0.72113550760E+03  0.16331434643E+04  0.12699999809E+01 0. -1.
       -4    1    3    3    0  502  0.12519951004E+04  0.76133291678E+03  0.14585708121E+03  0.14725472633E+04  0.12699999809E+01 0.  1.
</event>
<event>
 5   0  0.5988516E-07  0.3297122E+04  0.7818609E-02  0.8163628E-01
       -1   -1    0    0    0  501  0.00000000000E+00  0.00000000000E+00  0.35132509215E+04  0.35132509215E+04  0.50400001928E-02 0. -1.
        1   -1    0    0  501    0  0.00000000000E+00  0.00000000000E+00 -0.77357209102E+03  0.77357209103E+03  0.50400001928E-02 0.  1.
    10030    2    1    2    0    0  0.00000000000E+00  0.00000000000E+00  0.27396788305E+04  0.42868230126E+04  0.32971216912E+04 0.  0.
        4    1    3    3  502    0 -0.11963619691E+03 -0.14606679787E+04  0.38832849284E+03  0.15161346889E+04  0.12699999809E+01 0.  1.
       -4    1    3    3    0  502  0.11963619691E+03  0.14606679787E+04  0.23513503377E+04  0.27706883237E+04  0.12699999809E+01 0. -1.
</event>
<event>
 5   0  0.1743810E-06  0.3287954E+04  0.7818609E-02  0.8165967E-01
        2   -1    0    0  501    0  0.00000000000E+00  0.00000000000E+00  0.23933080215E+04  0.23933080215E+04  0.25500000920E-02 0.  1.
       -2   -1    0    0    0  501  0.00000000000E+00  0.00000000000E+00 -0.11292568862E+04  0.11292568862E+04  0.25500000920E-02 0. -1.
    10030    2    1    2    0    0  0.00000000000E+00  0.00000000000E+00  0.12640511353E+04  0.35225649077E+04  0.32879535058E+04 0.  0.
        5    1    3    3  502    0 -0.10829218072E+03 -0.59115901143E+03  0.22713879826E+04  0.23495577521E+04  0.46999998093E+01 0.  1.
       -5    1    3    3    0  502  0.10829218072E+03  0.59115901143E+03 -0.10073368472E+04  0.11730071556E+04  0.46999998093E+01 0. -1.
</event>
<event>
 5   0  0.5858859E-07  0.3296392E+04  0.7818609E-02  0.8163814E-01
        1   -1    0    0  501    0  0.00000000000E+00  0.00000000000E+00  0.16870703339E+04  0.16870703339E+04  0.50400001928E-02 0. -1.
       -1   -1    0    0    0  501  0.00000000000E+00  0.00000000000E+00 -0.16102174190E+04  0.16102174190E+04  0.50400001928E-02 0.  1.
    10030    2    1    2    0    0  0.00000000000E+00  0.00000000000E+00  0.76852914904E+02  0.32972877530E+04  0.32963919905E+04 0.  0.
        3    1    3    3  502    0  0.15012991054E+04  0.24359841934E+03  0.67366661390E+03  0.16634500024E+04  0.10100000352E+00 0.  1.
       -3    1    3    3    0  502 -0.15012991054E+04 -0.24359841934E+03 -0.59681369899E+03  0.16338377506E+04  0.10100000352E+00 0. -1.
</event>
<event>
 5   0  0.1784626E-06  0.3284239E+04  0.7818609E-02  0.8166917E-01
        2   -1    0    0  501    0  0.00000000000E+00  0.00000000000E+00  0.20443541377E+04  0.20443541377E+04  0.25500000920E-02 0. -1.
       -2   -1    0    0    0  501  0.00000000000E+00  0.00000000000E+00 -0.13190260851E+04  0.13190260851E+04  0.25500000920E-02 0.  1.
    10030    2    1    2    0    0  0.00000000000E+00  0.00000000000E+00  0.72532805263E+03  0.33633802228E+04  0.32842389893E+04 0.  0.
        2    1    3    3  502    0  0.15877633177E+04  0.36823175489E+03  0.56740526887E+03  0.17258434800E+04  0.25500000920E-02 0. -1.
       -2    1    3    3    0  502 -0.15877633177E+04 -0.36823175489E+03  0.15792278376E+03  0.16375367428E+04  0.25500000920E-02 0.  1.
</event>
<event>
 5   0  0.1696681E-06  0.3245949E+04  0.7818609E-02  0.8176786E-01
       -2   -1    0    0    0  501  0.00000000000E+00  0.00000000000E+00  0.17253996433E+04  0.17253996433E+04  0.25500000920E-02 0. -1.
        2   -1    0    0  501    0  0.00000000000E+00  0.00000000000E+00 -0.15266297905E+04  0.15266297905E+04  0.25500000920E-02 0.  1.
    10030    2    1    2    0    0  0.00000000000E+00  0.00000000000E+00  0.19876985284E+03  0.32520294338E+04  0.32459491653E+04 0.  0.
        4    1    3    3  502    0 -0.62736715820E+03  0.38229833385E+03 -0.13504966916E+04  0.15373953604E+04  0.12699999809E+01 0.  1.
       -4    1    3    3    0  502  0.62736715820E+03 -0.38229833385E+03  0.15492665444E+04  0.17146340734E+04  0.12699999809E+01 0. -1.
</event>
<event>
 5   0  0.1784626E-06  0.3306142E+04  0.7818609E-02  0.8161334E-01
        2   -1    0    0  501    0  0.00000000000E+00  0.00000000000E+00  0.19909939066E+04  0.19909939066E+04  0.25500000920E-02 0. -1.
       -2   -1    0    0    0  501  0.00000000000E+00  0.00000000000E+00 -0.13725020740E+04  0.13725020740E+04  0.25500000920E-02 0.  1.
    10030    2    1    2    0    0  0.00000000000E+00  0.00000000000E+00  0.61849183254E+03  0.33634959806E+04  0.33061417188E+04 0.  0.
        2    1    3    3  502    0  0.11989238951E+03 -0.80961364199E+03  0.17704048729E+04  0.19504311955E+04  0.25500000920E-02 0. -1.
       -2    1    3    3    0  502 -0.11989238951E+03  0.80961364199E+03 -0.11519130404E+04  0.14130647851E+04  0.25500000920E-02 0.  1.
</event>
<event>
 5   0  0.5988516E-07  0.3306129E+04  0.7818609E-02  0.8161338E-01
       -1   -1    0    0    0  501  0.00000000000E+00  0.00000000000E+00  0.11658058290E+04  0.11658058290E+04  0.50400001928E-02 0. -1.
        1   -1    0    0  501    0  0.00000000000E+00  0.00000000000E+00 -0.23439772294E+04  0.23439772294E+04  0.50400001928E-02 0.  1.
    10030    2    1    2    0    0  0.00000000000E+00  0.00000000000E+00 -0.11781714004E+04  0.35097830584E+04  0.33061290460E+04 0.  0.
        4    1    3    3  502    0  0.18866186580E+03 -0.16421298511E+04 -0.61127684470E+03  0.17623406995E+04  0.12699999809E+01 0.  1.
       -4    1    3    3    0  502 -0.18866186580E+03  0.16421298511E+04 -0.56689455573E+03  0.17474423589E+04  0.12699999809E+01 0. -1.
</event>
<event>
 5   0  0.1743810E-06  0.3249737E+04  0.7818609E-02  0.8175804E-01
       -2   -1    0    0    0  501  0.00000000000E+00  0.00000000000E+00  0.15253812258E+04  0.15253812258E+04  0.25500000920E-02 0. -1.
        2   -1    0    0  501    0  0.00000000000E+00  0.00000000000E+00 -0.17308443304E+04  0.17308443304E+04  0.25500000920E-02 0.  1.
    10030    2    1    2    0    0  0.00000000000E+00  0.00000000000E+00 -0.20546310461E+03  0.32562255562E+04  0.32497368795E+04 0.  0.
        5    1    3    3  502    0  0.11883014908E+04  0.34644701006E+03  0.95202851750E+03  0.15615589492E+04  0.46999998093E+01 0. -1.
       -5    1    3    3    0  502 -0.11883014908E+04 -0.34644701006E+03 -0.11574916221E+04  0.16946666070E+04  0.46999998093E+01 0.  1.
</event>
<event>
 5   0  0.5985183E-07  0.3305000E+04  0.7818609E-02  0.8161624E-01
        1   -1    0    0  501    0  0.00000000000E+00  0.00000000000E+00  0.15703596760E+04  0.15703596760E+04  0.50400001928E-02 0. -1.
       -1   -1    0    0    0  501  0.00000000000E+00  0.00000000000E+00 -0.17389366200E+04  0.17389366200E+04  0.50400001928E-02 0.  1.
    10030    2    1    2    0    0  0.00000000000E+00  0.00000000000E+00 -0.16857694402E+03  0.33092962959E+04  0.33049998167E+04 0.  0.
        2    1    3    3  502    0  0.12654893224E+03 -0.64304228153E+02  0.15642437250E+04  0.15706712251E+04  0.25500000920E-02 0. -1.
       -2    1    3    3    0  502 -0.12654893224E+03  0.64304228153E+02 -0.17328206690E+04  0.17386250709E+04  0.25500000920E-02 0.  1.
</event>
<event>
 5   0  0.6085351E-07  0.3297919E+04  0.7818609E-02  0.8163425E-01
        1   -1    0    0  501    0  0.00000000000E+00  0.00000000000E+00  0.22964269709E+04  0.22964269709E+04  0.50400001928E-02 0. -1.
       -1   -1    0    0    0  501  0.00000000000E+00  0.00000000000E+00 -0.11840425435E+04  0.11840425435E+04  0.50400001928E-02 0.  1.
    10030    2    1    2    0    0  0.00000000000E+00  0.00000000000E+00  0.11123844275E+04  0.34804695144E+04  0.32979188780E+04 0.  0.
        1    1    3    3  502    0  0.18914332921E+02  0.70907808157E+03 -0.10148023562E+04  0.12381329896E+04  0.50400001928E-02 0.  1.
       -1    1    3    3    0  502 -0.18914332921E+02 -0.70907808157E+03  0.21271867837E+04  0.22423365248E+04  0.50400001928E-02 0. -1.
</event>
<event>
 5   0  0.6023446E-07  0.3280965E+04  0.7818609E-02  0.8167756E-01
       -1   -1    0    0    0  501  0.00000000000E+00  0.00000000000E+00  0.12490921829E+04  0.12490921829E+04  0.50400001928E-02 0.  1.
        1   -1    0    0  501    0  0.00000000000E+00  0.00000000000E+00 -0.21545108341E+04  0.21545108341E+04  0.50400001928E-02 0. -1.
    10030    2    1    2    0    0  0.00000000000E+00  0.00000000000E+00 -0.90541865114E+03  0.34036030170E+04  0.32809648830E+04 0.  0.
        5    1    3    3  502    0 -0.38971487635E+03 -0.13111719043E+04  0.48674065941E+03  0.14518911829E+04  0.46999998093E+01 0.  1.
       -5    1    3    3    0  502  0.38971487635E+03  0.13111719043E+04 -0.13921593105E+04  0.19517118341E+04  0.46999998093E+01 0. -1.
</event>
<event>
 5   0  0.5988516E-07  0.3364775E+04  0.7818609E-02  0.8146606E-01
        1   -1    0    0  501    0  0.00000000000E+00  0.00000000000E+00  0.29079906869E+04  0.29079906869E+04  0.50400001928E-02 0. -1.
       -1   -1    0    0    0  501  0.00000000000E+00  0.00000000000E+00 -0.97332742888E+03  0.97332742890E+03  0.50400001928E-02 0.  1.
    10030    2    1    2    0    0  0.00000000000E+00  0.00000000000E+00  0.19346632580E+04  0.38813181158E+04  0.33647746424E+04 0.  0.
        4    1    3    3  502    0 -0.12875013568E+04 -0.68003346694E+03 -0.48565752393E+01  0.14560667770E+04  0.12699999809E+01 0.  1.
       -4    1    3    3    0  502  0.12875013568E+04  0.68003346694E+03  0.19395198332E+04  0.24252513388E+04  0.12699999809E+01 0. -1.
</event>
<event>
 5   0  0.1728937E-06  0.3015245E+04  0.7818609E-02  0.8239391E-01
       -2   -1    0    0    0  501  0.00000000000E+00  0.00000000000E+00  0.16205354049E+04  0.16205354049E+04  0.25500000920E-02 0.  1.
        2   -1    0    0  501    0  0.00000000000E+00  0.00000000000E+00 -0.14025770831E+04  0.14025770831E+04  0.25500000920E-02 0. -1.
    10030    2    1    2    0    0  0.00000000000E+00  0.00000000000E+00  0.21795832183E+03  0.30231124880E+04  0.30152451451E+04 0.  0.
        1    1    3    3  502    0 -0.30256108895E+03  0.72775060841E+03  0.13975413133E+04  0.16044581275E+04  0.50400001928E-02 0.  1.
       -1    1    3    3    0  502  0.30256108895E+03 -0.72775060841E+03 -0.11795829915E+04  0.14186543604E+04  0.50400001928E-02 0. -1.
</event>
<event>
 5   0  0.6085351E-07  0.3312942E+04  0.7818609E-02  0.8159610E-01
       -1   -1    0    0    0  501  0.00000000000E+00  0.00000000000E+00  0.18979201319E+04  0.18979201319E+04  0.50400001928E-02 0. -1.
        1   -1    0    0  501    0  0.00000000000E+00  0.00000000000E+00 -0.14457386489E+04  0.14457386489E+04  0.50400001928E-02 0.  1.
    10030    2    1    2    0    0  0.00000000000E+00  0.00000000000E+00  0.45218148300E+03  0.33436587808E+04  0.33129421892E+04 0.  0.
        1    1    3    3  502    0  0.37209323283E+03  0.15378528836E+04 -0.26881438122E+03  0.16049006315E+04  0.50400001928E-02 0.  1.
       -1    1    3    3    0  502 -0.37209323283E+03 -0.15378528836E+04  0.72099586422E+03  0.17387581493E+04  0.50400001928E-02 0. -1.
</event>
<event>
 5   0  0.1832626E-06  0.3371228E+04  0.7818609E-02  0.8145004E-01
        2   -1    0    0  501    0  0.00000000000E+00  0.00000000000E+00  0.12196886862E+04  0.12196886862E+04  0.25500000920E-02 0.  1.
       -2   -1    0    0    0  501  0.00000000000E+00  0.00000000000E+00 -0.23295241882E+04  0.23295241882E+04  0.25500000920E-02 0. -1.
    10030    2    1    2    0    0  0.00000000000E+00  0.00000000000E+00 -0.11098355020E+04  0.35492128744E+04  0.33712278455E+04 0.  0.
        3    1    3    3  502    0  0.12540554029E+04  0.22956539492E+03  0.60599571288E+03  0.14115898973E+04  0.10100000352E+00 0.  1.
       -3    1    3    3    0  502 -0.12540554029E+04 -0.22956539492E+03 -0.17158312148E+04  0.21376229771E+04  0.10100000352E+00 0. -1.
</event>
<event>
 5   0  0.1728937E-06  0.3255336E+04  0.7818609E-02  0.8174354E-01
       -2   -1    0    0    0  501  0.00000000000E+00  0.00000000000E+00  0.97568358231E+03  0.97568358232E+03  0.25500000920E-02 0.  1.
        2   -1    0    0  501    0  0.00000000000E+00  0.00000000000E+00 -0.27153295053E+04  0.27153295053E+04  0.25500000920E-02 0. -1.
    10030    2    1    2    0    0  0.00000000000E+00  0.00000000000E+00 -0.17396459230E+04  0.36910130876E+04  0.32553355703E+04 0.  0.
        1    1    3    3  502    0  0.91314819673E+03 -0.13355713840E+04 -0.66791161098E+03  0.17503418155E+04  0.50400001928E-02 0. -1.
       -1    1    3    3    0  502 -0.91314819673E+03  0.13355713840E+04 -0.10717343120E+04  0.19406712721E+04  0.50400001928E-02 0.  1.
</event>
<event>
 5   0  0.1728937E-06  0.3357000E+04  0.7818609E-02  0.8148541E-01
        2   -1    0    0  501    0  0.00000000000E+00  0.00000000000E+00  0.19038047405E+04  0.19038047405E+04  0.25500000920E-02 0.  1.
       -2   -1    0    0    0  501  0.00000000000E+00  0.00000000000E+00 -0.14798591877E+04  0.14798591877E+04  0.25500000920E-02 0. -1.
    10030    2    1    2    0    0  0.00000000000E+00  0.00000000000E+00  0.42394555279E+03  0.33836639282E+04  0.33570004092E+04 0.  0.
        1    1    3    3  502    0 -0.83698986992E+03  0.13116968357E+04  0.84646632191E+03  0.17713288416E+04  0.50400001928E-02 0.  1.
       -1    1    3    3    0  502  0.83698986992E+03 -0.13116968357E+04 -0.42252076912E+03  0.16123350866E+04  0.50400001928E-02 0. -1.
</event>
<event>
 5   0  0.1743810E-06  0.3273103E+04  0.7818609E-02  0.8169773E-01
        2   -1    0    0  501    0  0.00000000000E+00  0.00000000000E+00  0.24920197796E+04  0.24920197796E+04  0.25500000920E-02 0.  1.
       -2   -1    0    0    0  501  0.00000000000E+00  0.00000000000E+00 -0.10747507294E+04  0.10747507294E+04  0.25500000920E-02 0. -1.
    10030    2    1    2    0    0  0.00000000000E+00  0.00000000000E+00  0.14172690503E+04  0.35667705090E+04  0.32731025500E+04 0.  0.
        5    1    3    3  502    0  0.14883975796E+04 -0.14997031712E+03  0.14318514191E+04  0.20707580804E+04  0.46999998093E+01 0. -1.
       -5    1    3    3    0  502 -0.14883975796E+04  0.14997031712E+03 -0.14582368874E+02  0.14960124286E+04  0.46999998093E+01 0.  1.
</event>
<event>
 5   0  0.6023446E-07  0.3165465E+04  0.7818609E-02  0.8197998E-01
       -1   -1    0    0    0  501  0.00000000000E+00  0.00000000000E+00  0.11532703365E+04  0.11532703366E+04  0.50400001928E-02 0.  1.
        1   -1    0    0  501    0  0.00000000000E+00  0.00000000000E+00 -0.21721200542E+04  0.21721200542E+04  0.50400001928E-02 0. -1.
    10030    2    1    2    0    0  0.00000000000E+00  0.00000000000E+00 -0.10188497176E+04  0.33253903908E+04  0.31654646584E+04 0.  0.
        5    1    3    3  502    0 -0.95710218817E+03 -0.12536280544E+04 -0.37088478383E+03  0.16202485952E+04  0.46999998093E+01 0.  1.
       -5    1    3    3    0  502  0.95710218817E+03  0.12536280544E+04 -0.64796493381E+03  0.17051417955E+04  0.46999998093E+01 0. -1.
</event>
<event>
 5   0  0.1832626E-06  0.3255877E+04  0.7818609E-02  0.8174214E-01
       -2   -1    0    0    0  501  0.00000000000E+00  0.00000000000E+00  0.11088621764E+04  0.11088621764E+04  0.25500000920E-02 0. -1.
        2   -1    0    0  501    0  0.00000000000E+00  0.00000000000E+00 -0.23900028123E+04  0.23900028123E+04  0.25500000920E-02 0.  1.
    10030    2    1    2    0    0  0.00000000000E+00  0.00000000000E+00 -0.12811406360E+04  0.34988649887E+04  0.32558769756E+04 0.  0.
        3    1    3    3  502    0 -0.13650616607E+04  0.83660032034E+03 -0.32379977641E+03  0.16334441340E+04  0.10100000352E+00 0. -1.
       -3    1    3    3    0  502  0.13650616607E+04 -0.83660032034E+03 -0.95734085956E+03  0.18654208547E+04  0.10100000352E+00 0.  1.
</event>
<event>
 5   0  0.5985183E-07  0.3297851E+04  0.7818609E-02  0.8163442E-01
       -1   -1    0    0    0  501  0.00000000000E+00  0.00000000000E+00  0.15608973961E+04  0.15608973962E+04  0.50400001928E-02 0. -1.
        1   -1    0    0  501    0  0.00000000000E+00  0.00000000000E+00 -0.17419181122E+04  0.17419181122E+04  0.50400001928E-02 0.  1.
    10030    2    1    2    0    0  0.00000000000E+00  0.00000000000E+00 -0.18102071603E+03  0.33028155083E+04  0.32978510855E+04 0.  0.
        2    1    3    3  502    0 -0.33282188916E+03  0.15215507636E+04 -0.63268313026E+03  0.16811231601E+04  0.25500000920E-02 0.  1.
       -2    1    3    3    0  502  0.33282188916E+03 -0.15215507636E+04  0.45166241423E+03  0.16216923483E+04  0.25500000920E-02 0. -1.
</event>
<event>
 5   0  0.6085351E-07  0.3294621E+04  0.7818609E-02  0.8164265E-01
       -1   -1    0    0    0  501  0.00000000000E+00  0.00000000000E+00  0.13953356672E+04  0.13953356672E+04  0.50400001928E-02 0.  1.
        1   -1    0    0  501    0  0.00000000000E+00  0.00000000000E+00 -0.19447883687E+04  0.19447883687E+04  0.50400001928E-02 0. -1.
    10030    2    1    2    0    0  0.00000000000E+00  0.00000000000E+00 -0.54945270142E+03  0.33401240359E+04  0.32946214205E+04 0.  0.
        1    1    3    3  502    0 -0.11710264550E+04  0.75836901656E+03  0.61327389731E+03  0.15239853663E+04  0.50400001928E-02 0.  1.
       -1    1    3    3    0  502  0.11710264550E+04 -0.75836901656E+03 -0.11627265987E+04  0.18161386696E+04  0.50400001928E-02 0. -1.
</event>
<event>
 5   0  0.5858859E-07  0.3287420E+04  0.7818609E-02  0.8166104E-01
       -1   -1    0    0    0  501  0.00000000000E+00  0.00000000000E+00  0.19663624473E+04  0.19663624473E+04  0.50400001928E-02 0.  1.
        1   -1    0    0  501    0  0.00000000000E+00  0.00000000000E+00 -0.13740003074E+04  0.13740003074E+04  0.50400001928E-02 0. -1.
    10030    2    1    2    0    0  0.00000000000E+00  0.00000000000E+00  0.59236213992E+03  0.33403627547E+04  0.32874200261E+04 0.  0.
        3    1    3    3  502    0  0.66692544184E+03  0.80669586790E+03 -0.99160272418E+03  0.14418126581E+04  0.10100000352E+00 0. -1.
       -3    1    3    3    0  502 -0.66692544184E+03 -0.80669586790E+03  0.15839648641E+04  0.18985500966E+04  0.10100000352E+00 0.  1.
</event>
<event>
 5   0  0.5858859E-07  0.3302129E+04  0.7818609E-02  0.8162354E-01
       -1   -1    0    0    0  501  0.00000000000E+00  0.00000000000E+00  0.13936931725E+04  0.13936931725E+04  0.50400001928E-02 0. -1.
        1   -1    0    0  501    0  0.00000000000E+00  0.00000000000E+00 -0.19559641558E+04  0.19559641558E+04  0.50400001928E-02 0.  1.
    10030    2    1    2    0    0  0.00000000000E+00  0.00000000000E+00 -0.56227098322E+03  0.33496573283E+04  0.33021289433E+04 0.  0.
        3    1    3    3  502    0 -0.91071629348E+03 -0.13769078046E+04 -0.30862928944E+03  0.16794437526E+04  0.10100000352E+00 0.  1.
       -3    1    3    3    0  502  0.91071629348E+03  0.13769078046E+04 -0.25364169378E+03  0.16702135757E+04  0.10100000352E+00 0. -1.
</event>
<event>
 5   0  0.1784626E-06  0.3290906E+04  0.7818609E-02  0.8165213E-01
       -2   -1    0    0    0  501  0.00000000000E+00  0.00000000000E+00  0.13950613948E+04  0.13950613948E+04  0.25500000920E-02 0.  1.
        2   -1    0    0  501    0  0.00000000000E+00  0.00000000000E+00 -0.19407859716E+04  0.19407859716E+04  0.25500000920E-02 0. -1.
    10030    2    1    2    0    0  0.00000000000E+00  0.00000000000E+00 -0.54572457685E+03  0.33358473664E+04  0.32909060057E+04 0.  0.
        2    1    3    3  502    0 -0.16255540850E+04 -0.79740788257E+02 -0.27208169226E+02  0.16277361460E+04  0.25500000920E-02 0. -1.
       -2    1    3    3    0  502  0.16255540850E+04  0.79740788257E+02 -0.51851640762E+03  0.17081112204E+04  0.25500000920E-02 0.  1.
</event>
<event>
 5   0  0.6023446E-07  0.3144800E+04  0.7818609E-02  0.8203550E-01
       -1   -1    0    0    0  501  0.00000000000E+00  0.00000000000E+00  0.14704371451E+04  0.14704371451E+04  0.50400001928E-02 0.  1.
        1   -1    0    0  501    0  0.00000000000E+00  0.00000000000E+00 -0.16814326173E+04  0.16814326173E+04  0.50400001928E-02 0. -1.
    10030    2    1    2    0    0  0.00000000000E+00  0.00000000000E+00 -0.21099547215E+03  0.31518697624E+04  0.31447995023E+04 0.  0.
        5    1    3    3  502    0 -0.34726541964E+03 -0.72757365516E+03 -0.14585188239E+04  0.16665101095E+04  0.46999998093E+01 0. -1.
       -5    1    3    3    0  502  0.34726541964E+03  0.72757365516E+03  0.12475233517E+04  0.14853596529E+04  0.46999998093E+01 0.  1.
</event>
<event>
 5   0  0.1743810E-06  0.3296867E+04  0.7818609E-02  0.8163693E-01
        2   -1    0    0  501    0  0.00000000000E+00  0.00000000000E+00  0.27078842999E+04  0.27078842999E+04  0.25500000920E-02 0. -1.
       -2   -1    0    0    0  501  0.00000000000E+00  0.00000000000E+00 -0.10034893605E+04  0.10034893605E+04  0.25500000920E-02 0.  1.
    10030    2    1    2    0    0  0.00000000000E+00  0.00000000000E+00  0.17043949395E+04  0.37113736604E+04  0.32968670488E+04 0.  0.
        5    1    3    3  502    0 -0.10487174685E+04 -0.10409117803E+04  0.16748303115E+04  0.22334691235E+04  0.46999998093E+01 0. -1.
       -5    1    3    3    0  502  0.10487174685E+04  0.10409117803E+04  0.29564627957E+02  0.14779045369E+04  0.46999998093E+01 0.  1.
</event>
<event>
 5   0  0.5985183E-07  0.3312778E+04  0.7818609E-02  0.8159652E-01
       -1   -1    0    0    0  501  0.00000000000E+00  0.00000000000E+00  0.14161788472E+04  0.14161788473E+04  0.50400001928E-02 0.  1.
        1   -1    0    0  501    0  0.00000000000E+00  0.00000000000E+00 -0.19373436430E+04  0.19373436430E+04  0.50400001928E-02 0. -1.
    10030    2    1    2    0    0  0.00000000000E+00  0.00000000000E+00 -0.52116479576E+03  0.33535224903E+04  0.33127783428E+04 0.  0.
        2    1    3    3  502    0  0.72308838839E+03 -0.52509227573E+03 -0.16723845020E+04  0.18961668276E+04  0.25500000920E-02 0. -1.
       -2    1    3    3    0  502 -0.72308838839E+03  0.52509227573E+03  0.11512197063E+04  0.14573556627E+04  0.25500000920E-02 0.  1.
</event>
<event>
 5   0  0.5985183E-07  0.3292006E+04  0.7818609E-02  0.8164932E-01
       -1   -1    0    0    0  501  0.00000000000E+00  0.00000000000E+00  0.18699164973E+04  0.18699164973E+04  0.50400001928E-02 0.  1.
        1   -1    0    0  501    0  0.00000000000E+00  0.00000000000E+00 -0.14489022966E+04  0.14489022966E+04  0.50400001928E-02 0. -1.
    10030    2    1    2    0    0  0.00000000000E+00  0.00000000000E+00  0.42101420076E+03  0.33188187939E+04  0.32920062621E+04 0.  0.
        2    1    3    3  502    0  0.12261592015E+03 -0.16222338562E+04 -0.41829250553E+02  0.16273988553E+04  0.25500000920E-02 0. -1.
       -2    1    3    3    0  502 -0.12261592015E+03  0.16222338562E+04  0.46284345131E+03  0.16914199386E+04  0.25500000920E-02 0.  1.
</event>
<event>
 5   0  0.6085351E-07  0.3308460E+04  0.7818609E-02  0.8160746E-01
       -1   -1    0    0    0  501  0.00000000000E+00  0.00000000000E+00  0.17141394464E+04  0.17141394464E+04  0.50400001928E-02 0.  1.
        1   -1    0    0  501    0  0.00000000000E+00  0.00000000000E+00 -0.15964142958E+04  0.15964142958E+04  0.50400001928E-02 0. -1.
    10030    2    1    2    0    0  0.00000000000E+00  0.00000000000E+00  0.11772515059E+03  0.33105537422E+04  0.33084598938E+04 0.  0.
        1    1    3    3  502    0  0.61267798672E+03 -0.82367670301E+03 -0.12391318767E+04  0.16091194593E+04  0.50400001928E-02 0. -1.
       -1    1    3    3    0  502 -0.61267798672E+03  0.82367670301E+03  0.13568570273E+04  0.17014342829E+04  0.50400001928E-02 0.  1.
</event>
<event>
 5   0  0.5985183E-07  0.3294394E+04  0.7818609E-02  0.8164323E-01
       -1   -1    0    0    0  501  0.00000000000E+00  0.00000000000E+00  0.12788713865E+04  0.12788713865E+04  0.50400001928E-02 0.  1.
        1   -1    0    0  501    0  0.00000000000E+00  0.00000000000E+00 -0.21216035192E+04  0.21216035192E+04  0.50400001928E-02 0. -1.
    10030    2    1    2    0    0  0.00000000000E+00  0.00000000000E+00 -0.84273213269E+03  0.34004749056E+04  0.32943940469E+04 0.  0.
        2    1    3    3  502    0 -0.72862084602E+03  0.14050602385E+02  0.11034187085E+04  0.13223534334E+04  0.25500000920E-02 0.  1.
       -2    1    3    3    0  502  0.72862084602E+03 -0.14050602385E+02 -0.19461508412E+04  0.20781214722E+04  0.25500000920E-02 0. -1.
</event>
<event>
 5   0  0.1728937E-06  0.3309219E+04  0.7818609E-02  0.8160553E-01
        2   -1    0    0  501    0  0.00000000000E+00  0.00000000000E+00  0.18445302490E+04  0.18445302490E+04  0.25500000920E-02 0.  1.
       -2   -1    0    0    0  501  0.00000000000E+00  0.00000000000E+00 -0.14842440942E+04  0.14842440942E+04  0.25500000920E-02 0. -1.
    10030    2    1    2    0    0  0.00000000000E+00  0.00000000000E+00  0.36028615482E+03  0.33287743433E+04  0.33092193211E+04 0.  0.
        1    1    3    3  502    0  0.37025132530E+03  0.56186633059E+03 -0.13403955922E+04  0.14998133754E+04  0.50400001928E-02 0. -1.
       -1    1    3    3    0  502 -0.37025132530E+03 -0.56186633059E+03  0.17006817470E+04  0.18289609679E+04  0.50400001928E-02 0.  1.
</event>
<event>
 5   0  0.1728937E-06  0.3242688E+04  0.7818609E-02  0.8177634E-01
        2   -1    0    0  501    0  0.00000000000E+00  0.00000000000E+00  0.23358761448E+04  0.23358761448E+04  0.25500000920E-02 0. -1.
       -2   -1    0    0    0  501  0.00000000000E+00  0.00000000000E+00 -0.11253833550E+04  0.11253833550E+04  0.25500000920E-02 0.  1.
    10030    2    1    2    0    0  0.00000000000E+00  0.00000000000E+00  0.12104927898E+04  0.34612594999E+04  0.32426878559E+04 0.  0.
        1    1    3    3  502    0  0.10808497015E+04 -0.12081260563E+04  0.57232102919E+03  0.17191148901E+04  0.50400001928E-02 0.  1.
       -1    1    3    3    0  502 -0.10808497015E+04  0.12081260563E+04  0.63817176064E+03  0.17421446097E+04  0.50400001928E-02 0. -1.
</event>
<event>
 5   0  0.5988516E-07  0.3284157E+04  0.7818609E-02  0.8166938E-01
       -1   -1    0    0    0  501  0.00000000000E+00  0.00000000000E+00  0.22785951306E+04  0.22785951306E+04  0.50400001928E-02 0.  1.
        1   -1    0    0  501    0  0.00000000000E+00  0.00000000000E+00 -0.11833706207E+04  0.11833706207E+04  0.50400001928E-02 0. -1.
    10030    2    1    2    0    0  0.00000000000E+00  0.00000000000E+00  0.10952245099E+04  0.34619657513E+04  0.32841574469E+04 0.  0.
        4    1    3    3  502    0  0.77373992157E+03 -0.13534829115E+04  0.10911153085E+04  0.19029250346E+04  0.12699999809E+01 0.  1.
       -4    1    3    3    0  502 -0.77373992157E+03  0.13534829115E+04  0.41092014707E+01  0.15590407167E+04  0.12699999809E+01 0. -1.
</event>
<event>
 5   0  0.1743810E-06  0.3179564E+04  0.7818609E-02  0.8194235E-01
       -2   -1    0    0    0  501  0.00000000000E+00  0.00000000000E+00  0.11392259734E+04  0.11392259734E+04  0.25500000920E-02 0. -1.
        2   -1    0    0  501    0  0.00000000000E+00  0.00000000000E+00 -0.22185296259E+04  0.22185296259E+04  0.25500000920E-02 0.  1.
    10030    2    1    2    0    0  0.00000000000E+00  0.00000000000E+00 -0.10793036524E+04  0.33577555993E+04  0.31795638523E+04 0.  0.
        5    1    3    3  502    0  0.23100627005E+03  0.15321026497E+04 -0.16378059764E+03  0.15580592416E+04  0.46999998093E+01 0. -1.
       -5    1    3    3    0  502 -0.23100627005E+03 -0.15321026497E+04 -0.91552305480E+03  0.17996963577E+04  0.46999998093E+01 0.  1.
</event>
<event>
 5   0  0.6023446E-07  0.3188681E+04  0.7818609E-02  0.8191813E-01
       -1   -1    0    0    0  501  0.00000000000E+00  0.00000000000E+00  0.12954817576E+04  0.12954817576E+04  0.50400001928E-02 0.  1.
        1   -1    0    0  501    0  0.00000000000E+00  0.00000000000E+00 -0.19621432874E+04  0.19621432874E+04  0.50400001928E-02 0. -1.
    10030    2    1    2    0    0  0.00000000000E+00  0.00000000000E+00 -0.66666152973E+03  0.32576250450E+04  0.31886805012E+04 0.  0.
        5    1    3    3  502    0  0.35271556077E+02  0.12020983242E+04 -0.14026784446E+04  0.18476507713E+04  0.46999998093E+01 0. -1.
       -5    1    3    3    0  502 -0.35271556077E+02 -0.12020983242E+04  0.73601691490E+03  0.14099742737E+04  0.46999998093E+01 0.  1.
</event>
<event>
 5   0  0.5985183E-07  0.3303994E+04  0.7818609E-02  0.8161880E-01
        1   -1    0    0  501    0  0.00000000000E+00  0.00000000000E+00  0.88841300838E+03  0.88841300839E+03  0.50400001928E-02 0.  1.
       -1   -1    0    0    0  501  0.00000000000E+00  0.00000000000E+00 -0.30718749362E+04  0.30718749362E+04  0.50400001928E-02 0. -1.
    10030    2    1    2    0    0  0.00000000000E+00  0.00000000000E+00 -0.21834619279E+04  0.39602879446E+04  0.33039937370E+04 0.  0.
        2    1    3    3  502    0 -0.85223418212E+03 -0.12940824399E+03 -0.27809345227E+04  0.29114680857E+04  0.25500000920E-02 0. -1.
       -2    1    3    3    0  502  0.85223418212E+03  0.12940824399E+03  0.59747259484E+03  0.10488198589E+04  0.25500000920E-02 0.  1.
</event>
<event>
 5   0  0.1743810E-06  0.3259015E+04  0.7818609E-02  0.8173403E-01
       -2   -1    0    0    0  501  0.00000000000E+00  0.00000000000E+00  0.21342061773E+04  0.21342061773E+04  0.25500000920E-02 0.  1.
        2   -1    0    0  501    0  0.00000000000E+00  0.00000000000E+00 -0.12441603674E+04  0.12441603674E+04  0.25500000920E-02 0. -1.
    10030    2    1    2    0    0  0.00000000000E+00  0.00000000000E+00  0.89004580992E+03  0.33783665447E+04  0.32590150302E+04 0.  0.
        5    1    3    3  502    0 -0.29663036366E+03  0.15866423215E+04  0.21357694736E+03  0.16282077974E+04  0.46999998093E+01 0.  1.
       -5    1    3    3    0  502  0.29663036366E+03 -0.15866423215E+04  0.67646886255E+03  0.17501587474E+04  0.46999998093E+01 0. -1.
</event>
<event>
 5   0  0.1728937E-06  0.3512313E+04  0.7818609E-02  0.8110878E-01
       -2   -1    0    0    0  501  0.00000000000E+00  0.00000000000E+00  0.15665212409E+04  0.15665212409E+04  0.25500000920E-02 0. -1.
        2   -1    0    0  501    0  0.00000000000E+00  0.00000000000E+00 -0.19687479355E+04  0.19687479355E+04  0.25500000920E-02 0.  1.
    10030    2    1    2    0    0  0.00000000000E+00  0.00000000000E+00 -0.40222669462E+03  0.35352691764E+04  0.35123128898E+04 0.  0.
        1    1    3    3  502    0 -0.16293067698E+04 -0.12823034911E+03  0.44573922095E+03  0.16940386730E+04  0.50400001928E-02 0. -1.
       -1    1    3    3    0  502  0.16293067698E+04  0.12823034911E+03 -0.84796591557E+03  0.18412305034E+04  0.50400001928E-02 0.  1.
</event>
<event>
 5   0  0.5985183E-07  0.3287770E+04  0.7818609E-02  0.8166014E-01
       -1   -1    0    0    0  501  0.00000000000E+00  0.00000000000E+00  0.19635726862E+04  0.19635726862E+04  0.50400001928E-02 0.  1.
        1   -1    0    0  501    0  0.00000000000E+00  0.00000000000E+00 -0.13762458008E+04  0.13762458008E+04  0.50400001928E-02 0. -1.
    10030    2    1    2    0    0  0.00000000000E+00  0.00000000000E+00  0.58732688543E+03  0.33398184870E+04  0.32877704689E+04 0.  0.
        2    1    3    3  502    0  0.85812010115E+03 -0.11015828134E+04 -0.58753909759E+03  0.15149445514E+04  0.25500000920E-02 0. -1.
       -2    1    3    3    0  502 -0.85812010115E+03  0.11015828134E+04  0.11748659830E+04  0.18248739356E+04  0.25500000920E-02 0.  1.
</event>
<event>
 5   0  0.6023446E-07  0.3258843E+04  0.7818609E-02  0.8173447E-01
        1   -1    0    0  501    0  0.00000000000E+00  0.00000000000E+00  0.15753027232E+04  0.15753027232E+04  0.50400001928E-02 0.  1.
       -1   -1    0    0    0  501  0.00000000000E+00  0.00000000000E+00 -0.16853994219E+04  0.16853994219E+04  0.50400001928E-02 0. -1.
    10030    2    1    2    0    0  0.00000000000E+00  0.00000000000E+00 -0.11009669876E+03  0.32607021451E+04  0.32588429229E+04 0.  0.
        5    1    3    3  502    0  0.86385718623E+03 -0.13501190573E+04 -0.34833927855E+03  0.16402539590E+04  0.46999998093E+01 0. -1.
       -5    1    3    3    0  502 -0.86385718623E+03  0.13501190573E+04  0.23824257979E+03  0.16204481861E+04  0.46999998093E+01 0.  1.
</event>
<event>
 5   0  0.5858859E-07  0.3304107E+04  0.7818609E-02  0.8161851E-01
       -1   -1    0    0    0  501  0.00000000000E+00  0.00000000000E+00  0.10495446946E+04  0.10495446946E+04  0.50400001928E-02 0. -1.
        1   -1    0    0  501    0  0.00000000000E+00  0.00000000000E+00 -0.26004432093E+04  0.26004432093E+04  0.50400001928E-02 0.  1.
    10030    2    1    2    0    0  0.00000000000E+00  0.00000000000E+00 -0.15508985147E+04  0.36499879039E+04  0.33041073675E+04 0.  0.
        3    1    3    3  502    0  0.10445643463E+04 -0.33795152177E+03 -0.21391636085E+04  0.24044431494E+04  0.10100000352E+00 0.  1.
       -3    1    3    3    0  502 -0.10445643463E+04  0.33795152177E+03  0.58826509375E+03  0.12455447545E+04  0.10100000352E+00 0. -1.
</event>
<event>
 5   0  0.5858859E-07  0.3248854E+04  0.7818609E-02  0.8176033E-01
        1   -1    0    0  501    0  0.00000000000E+00  0.00000000000E+00  0.15068974979E+04  0.15068974979E+04  0.50400001928E-02 0. -1.
       -1   -1    0    0    0  501  0.00000000000E+00  0.00000000000E+00 -0.17511230996E+04  0.17511230996E+04  0.50400001928E-02 0.  1.
    10030    2    1    2    0    0  0.00000000000E+00  0.00000000000E+00 -0.24422560170E+03  0.32580205975E+04  0.32488539624E+04 0.  0.
        3    1    3    3  502    0 -0.15781279674E+04  0.38492251290E+03 -0.13262017496E+03  0.16297979456E+04  0.10100000352E+00 0.  1.
       -3    1    3    3    0  502  0.15781279674E+04 -0.38492251290E+03 -0.11160542674E+03  0.16282226519E+04  0.10100000352E+00 0. -1.
</event>
<event>
 5   0  0.6023446E-07  0.3283811E+04  0.7818609E-02  0.8167027E-01
       -1   -1    0    0    0  501  0.00000000000E+00  0.00000000000E+00  0.10838763800E+04  0.10838763800E+04  0.50400001928E-02 0.  1.
        1   -1    0    0  501    0  0.00000000000E+00  0.00000000000E+00 -0.24872329995E+04  0.24872329995E+04  0.50400001928E-02 0. -1.
    10030    2    1    2    0    0  0.00000000000E+00  0.00000000000E+00 -0.14033566195E+04  0.35711093796E+04  0.32838106522E+04 0.  0.
        5    1    3    3  502    0  0.69070957414E+03 -0.11736793951E+04  0.29575047548E+03  0.13935901377E+04  0.46999998093E+01 0.  1.
       -5    1    3    3    0  502 -0.69070957414E+03  0.11736793951E+04 -0.16991070950E+04  0.21775192418E+04  0.46999998093E+01 0. -1.
</event>
<event>
 5   0  0.5988516E-07  0.3315014E+04  0.7818609E-02  0.8159086E-01
        1   -1    0    0  501    0  0.00000000000E+00  0.00000000000E+00  0.17774587958E+04  0.17774587958E+04  0.50400001928E-02 0.  1.
       -1   -1    0    0    0  501  0.00000000000E+00  0.00000000000E+00 -0.15456500959E+04  0.15456500959E+04  0.50400001928E-02 0. -1.
    10030    2    1    2    0    0  0.00000000000E+00  0.00000000000E+00  0.23180869990E+03  0.33231088917E+04  0.33150139415E+04 0.  0.
        4    1    3    3  502    0 -0.15101199042E+04  0.56657170619E+02  0.79848969704E+03  0.17091692629E+04  0.12699999809E+01 0.  1.
       -4    1    3    3    0  502  0.15101199042E+04 -0.56657170619E+02 -0.56668099714E+03  0.16139396288E+04  0.12699999809E+01 0. -1.
</event>
<event>
 5   0  0.6023446E-07  0.3142756E+04  0.7818609E-02  0.8204101E-01
        1   -1    0    0  501    0  0.00000000000E+00  0.00000000000E+00  0.13394268917E+04  0.13394268917E+04  0.50400001928E-02 0. -1.
       -1   -1    0    0    0  501  0.00000000000E+00  0.00000000000E+00 -0.18434960214E+04  0.18434960214E+04  0.50400001928E-02 0.  1.
    10030    2    1    2    0    0  0.00000000000E+00  0.00000000000E+00 -0.50406912978E+03  0.31829229131E+04  0.31427555717E+04 0.  0.
        5    1    3    3  502    0 -0.60933862123E+03  0.50918147474E+03 -0.16253321679E+04  0.18089461229E+04  0.46999998093E+01 0.  1.
       -5    1    3    3    0  502  0.60933862123E+03 -0.50918147474E+03  0.11212630381E+04  0.13739767902E+04  0.46999998093E+01 0. -1.
</event>
<event>
 5   0  0.1696681E-06  0.3303333E+04  0.7818609E-02  0.8162048E-01
        2   -1    0    0  501    0  0.00000000000E+00  0.00000000000E+00  0.23296915861E+04  0.23296915861E+04  0.25500000920E-02 0.  1.
       -2   -1    0    0    0  501  0.00000000000E+00  0.00000000000E+00 -0.11709717373E+04  0.11709717373E+04  0.25500000920E-02 0. -1.
    10030    2    1    2    0    0  0.00000000000E+00  0.00000000000E+00  0.11587198488E+04  0.35006633234E+04  0.33033334703E+04 0.  0.
        4    1    3    3  502    0 -0.10404621306E+04 -0.42567848428E+03  0.18617015204E+04  0.21747868357E+04  0.12699999809E+01 0.  1.
       -4    1    3    3    0  502  0.10404621306E+04  0.42567848428E+03 -0.70298167155E+03  0.13258764877E+04  0.12699999809E+01 0. -1.
</event>
<event>
 5   0  0.6023446E-07  0.3294220E+04  0.7818609E-02  0.8164368E-01
        1   -1    0    0  501    0  0.00000000000E+00  0.00000000000E+00  0.16727436069E+04  0.16727436069E+04  0.50400001928E-02 0.  1.
       -1   -1    0    0    0  501  0.00000000000E+00  0.00000000000E+00 -0.16218694529E+04  0.16218694529E+04  0.50400001928E-02 0. -1.
    10030    2    1    2    0    0  0.00000000000E+00  0.00000000000E+00  0.50874153949E+02  0.32946130598E+04  0.32942202467E+04 0.  0.
        5    1    3    3  502    0 -0.11874450576E+04 -0.84179683385E+03 -0.74556469706E+03  0.16354010156E+04  0.46999998093E+01 0. -1.
       -5    1    3    3    0  502  0.11874450576E+04  0.84179683385E+03  0.79643885101E+03  0.16592120442E+04  0.46999998093E+01 0.  1.
</event>
<event>
 5   0  0.1832626E-06  0.3491663E+04  0.7818609E-02  0.8115769E-01
       -2   -1    0    0    0  501  0.00000000000E+00  0.00000000000E+00  0.15235802262E+04  0.15235802262E+04  0.25500000920E-02 0.  1.
        2   -1    0    0  501    0  0.00000000000E+00  0.00000000000E+00 -0.20005030848E+04  0.20005030848E+04  0.25500000920E-02 0. -1.
    10030    2    1    2    0    0  0.00000000000E+00  0.00000000000E+00 -0.47692285854E+03  0.35240833110E+04  0.34916626082E+04 0.  0.
        3    1    3    3  502    0  0.50017075985E+03  0.10272941388E+04  0.10938037564E+04  0.15817429325E+04  0.10100000352E+00 0.  1.
       -3    1    3    3    0  502 -0.50017075985E+03 -0.10272941388E+04 -0.15707266150E+04  0.19423403785E+04  0.10100000352E+00 0. -1.
</event>
<event>
 5   0  0.1832626E-06  0.3302822E+04  0.7818609E-02  0.8162178E-01
       -2   -1    0    0    0  501  0.00000000000E+00  0.00000000000E+00  0.16902948047E+04  0.16902948048E+04  0.25500000920E-02 0. -1.
        2   -1    0    0  501    0  0.00000000000E+00  0.00000000000E+00 -0.16134217386E+04  0.16134217386E+04  0.25500000920E-02 0.  1.
    10030    2    1    2    0    0  0.00000000000E+00  0.00000000000E+00  0.76873066155E+02  0.33037165433E+04  0.33028220555E+04 0.  0.
        3    1    3    3  502    0 -0.15675812293E+04  0.77559982626E+02  0.55222134714E+03  0.16638133573E+04  0.10100000352E+00 0.  1.
       -3    1    3    3    0  502  0.15675812293E+04 -0.77559982626E+02 -0.47534828099E+03  0.16399031861E+04  0.10100000352E+00 0. -1.
</event>
<event>
 5   0  0.5985183E-07  0.3279634E+04  0.7818609E-02  0.8168097E-01
        1   -1    0    0  501    0  0.00000000000E+00  0.00000000000E+00  0.21652746843E+04  0.21652746843E+04  0.50400001928E-02 0.  1.
       -1   -1    0    0    0  501  0.00000000000E+00  0.00000000000E+00 -0.12418743844E+04  0.12418743844E+04  0.50400001928E-02 0. -1.
    10030    2    1    2    0    0  0.00000000000E+00  0.00000000000E+00  0.92340029990E+03  0.34071490687E+04  0.32796336171E+04 0.  0.
        2    1    3    3  502    0 -0.12835719137E+04 -0.52267485805E+02 -0.59709769694E+03  0.14166207705E+04  0.25500000920E-02 0. -1.
       -2    1    3    3    0  502  0.12835719137E+04  0.52267485805E+02  0.15204979968E+04  0.19905282982E+04  0.25500000920E-02 0.  1.
</event>
<event>
 5   0  0.1743810E-06  0.3280181E+04  0.7818609E-02  0.8167957E-01
       -2   -1    0    0    0  501  0.00000000000E+00  0.00000000000E+00  0.17830743471E+04  0.17830743471E+04  0.25500000920E-02 0. -1.
        2   -1    0    0  501    0  0.00000000000E+00  0.00000000000E+00 -0.15085726086E+04  0.15085726086E+04  0.25500000920E-02 0.  1.
    10030    2    1    2    0    0  0.00000000000E+00  0.00000000000E+00  0.27450173845E+03  0.32916469557E+04  0.32801811652E+04 0.  0.
        5    1    3    3  502    0  0.23156828139E+03  0.12010714900E+04 -0.95912405144E+03  0.15543930098E+04  0.46999998093E+01 0.  1.
       -5    1    3    3    0  502 -0.23156828139E+03 -0.12010714900E+04  0.12336257899E+04  0.17372539459E+04  0.46999998093E+01 0. -1.
</event>
<event>
 5   0  0.6023446E-07  0.3295744E+04  0.7818609E-02  0.8163979E-01
        1   -1    0    0  501    0  0.00000000000E+00  0.00000000000E+00  0.11649870160E+04  0.11649870160E+04  0.50400001928E-02 0. -1.
       -1   -1    0    0    0  501  0.00000000000E+00  0.00000000000E+00 -0.23309119782E+04  0.23309119782E+04  0.50400001928E-02 0.  1.
    10030    2    1    2    0    0  0.00000000000E+00  0.00000000000E+00 -0.11659249622E+04  0.34958989942E+04  0.32957440374E+04 0.  0.
        5    1    3    3  502    0  0.70666115444E+03  0.89957834701E+03 -0.18411029457E+04  0.21675546905E+04  0.46999998093E+01 0.  1.
       -5    1    3    3    0  502 -0.70666115444E+03 -0.89957834701E+03  0.67517798355E+03  0.13283443037E+04  0.46999998093E+01 0. -1.
</event>
<event>
 5   0  0.5985183E-07  0.3336079E+04  0.7818609E-02  0.8153775E-01
        1   -1    0    0  501    0  0.00000000000E+00  0.00000000000E+00  0.15555006396E+04  0.15555006396E+04  0.50400001928E-02 0.  1.
       -1   -1    0    0    0  501  0.00000000000E+00  0.00000000000E+00 -0.17887205941E+04  0.17887205941E+04  0.50400001928E-02 0. -1.
    10030    2    1    2    0    0  0.00000000000E+00  0.00000000000E+00 -0.23321995454E+03  0.33442212337E+04  0.33360791527E+04 0.  0.
        2    1    3    3  502    0 -0.16279424539E+04  0.35971216092E+03 -0.16933641122E+03  0.16757876632E+04  0.25500000920E-02 0.  1.
       -2    1    3    3    0  502  0.16279424539E+04 -0.35971216092E+03 -0.63883543317E+02  0.16684335705E+04  0.25500000920E-02 0. -1.
</event>
<event>
 5   0  0.1743810E-06  0.3012526E+04  0.7818609E-02  0.8240163E-01
        2   -1    0    0  501    0  0.00000000000E+00  0.00000000000E+00  0.28962936907E+04  0.28962936907E+04  0.25500000920E-02 0.  1.
       -2   -1    0    0    0  501  0.00000000000E+00  0.00000000000E+00 -0.78335590219E+03  0.78335590220E+03  0.25500000920E-02 0. -1.
    10030    2    1    2    0    0  0.00000000000E+00  0.00000000000E+00  0.21129377885E+04  0.36796495929E+04  0.30125263532E+04 0.  0.
        5    1    3    3  502    0 -0.14997631110E+04  0.13695295081E+03  0.10227699977E+04  0.18204741300E+04  0.46999998093E+01 0. -1.
       -5    1    3    3    0  502  0.14997631110E+04 -0.13695295081E+03  0.10901677909E+04  0.18591754630E+04  0.46999998093E+01 0.  1.
</event>
<event>
 5   0  0.1728937E-06  0.2972977E+04  0.7818609E-02  0.8251490E-01
       -2   -1    0    0    0  501  0.00000000000E+00  0.00000000000E+00  0.13646665095E+04  0.13646665095E+04  0.25500000920E-02 0. -1.
        2   -1    0    0  501    0  0.00000000000E+00  0.00000000000E+00 -0.16191855996E+04  0.16191855996E+04  0.25500000920E-02 0.  1.
    10030    2    1    2    0    0  0.00000000000E+00  0.00000000000E+00 -0.25451909004E+03  0.29838521091E+04  0.29729772017E+04 0.  0.
        1    1    3    3  502    0  0.71588497056E+03  0.89608587761E+03  0.82181414067E+03  0.14109711808E+04  0.50400001928E-02 0. -1.
       -1    1    3    3    0  502 -0.71588497056E+03 -0.89608587761E+03 -0.10763332307E+04  0.15728809283E+04  0.50400001928E-02 0.  1.
</event>
<event>
 5   0  0.5985183E-07  0.3244571E+04  0.7818609E-02  0.8177144E-01
        1   -1    0    0  501    0  0.00000000000E+00  0.00000000000E+00  0.18644376727E+04  0.18644376727E+04  0.50400001928E-02 0.  1.
       -1   -1    0    0    0  501  0.00000000000E+00  0.00000000000E+00 -0.14115839342E+04  0.14115839342E+04  0.50400001928E-02 0. -1.
    10030    2    1    2    0    0  0.00000000000E+00  0.00000000000E+00  0.45285373857E+03  0.32760216069E+04  0.32445710133E+04 0.  0.
        2    1    3    3  502    0 -0.38192300693E+03 -0.29199468177E+03 -0.13380062071E+04  0.14217547916E+04  0.25500000920E-02 0. -1.
       -2    1    3    3    0  502  0.38192300693E+03  0.29199468177E+03  0.17908599456E+04  0.18542668153E+04  0.25500000920E-02 0.  1.
</event>
<event>
 5   0  0.1728937E-06  0.2655086E+04  0.7818609E-02  0.8349727E-01
       -2   -1    0    0    0  501  0.00000000000E+00  0.00000000000E+00  0.16199430648E+04  0.16199430648E+04  0.25500000920E-02 0.  1.
        2   -1    0    0  501    0  0.00000000000E+00  0.00000000000E+00 -0.10879214283E+04  0.10879214283E+04  0.25500000920E-02 0. -1.
    10030    2    1    2    0    0  0.00000000000E+00  0.00000000000E+00  0.53202163658E+03  0.27078644931E+04  0.26550862681E+04 0.  0.
        1    1    3    3  502    0  0.33282170368E+03  0.10201369617E+04 -0.53114063342E+03  0.11973136931E+04  0.50400001928E-02 0. -1.
       -1    1    3    3    0  502 -0.33282170368E+03 -0.10201369617E+04  0.10631622700E+04  0.15105508000E+04  0.50400001928E-02 0.  1.
</event>
<event>
 5   0  0.5988516E-07  0.3334208E+04  0.7818609E-02  0.8154245E-01
       -1   -1    0    0    0  501  0.00000000000E+00  0.00000000000E+00  0.12474882898E+04  0.12474882898E+04  0.50400001928E-02 0. -1.
        1   -1    0    0  501    0  0.00000000000E+00  0.00000000000E+00 -0.22278649265E+04  0.22278649265E+04  0.50400001928E-02 0.  1.
    10030    2    1    2    0    0  0.00000000000E+00  0.00000000000E+00 -0.98037663663E+03  0.34753532163E+04  0.33342077962E+04 0.  0.
        4    1    3    3  502    0  0.26177230302E+02  0.59761339327E+03  0.11317717758E+04  0.12801312357E+04  0.12699999809E+01 0. -1.
       -4    1    3    3    0  502 -0.26177230302E+02 -0.59761339327E+03 -0.21121484124E+04  0.21952219806E+04  0.12699999809E+01 0.  1.
</event>
<event>
 5   0  0.1832626E-06  0.3318260E+04  0.7818609E-02  0.8158265E-01
       -2   -1    0    0    0  501  0.00000000000E+00  0.00000000000E+00  0.12686818091E+04  0.12686818091E+04  0.25500000920E-02 0.  1.
        2   -1    0    0  501    0  0.00000000000E+00  0.00000000000E+00 -0.21697415925E+04  0.21697415925E+04  0.25500000920E-02 0. -1.
    10030    2    1    2    0    0  0.00000000000E+00  0.00000000000E+00 -0.90105978341E+03  0.34384234016E+04  0.33182595974E+04 0.  0.
        3    1    3    3  502    0 -0.68569121519E+03 -0.87198966873E+03 -0.17289719159E+04  0.20542352156E+04  0.10100000352E+00 0. -1.
       -3    1    3    3    0  502  0.68569121519E+03  0.87198966873E+03  0.82791213250E+03  0.13841881860E+04  0.10100000352E+00 0.  1.
</event>
<event>
 5   0  0.5988516E-07  0.3120731E+04  0.7818609E-02  0.8210072E-01
        1   -1    0    0  501    0  0.00000000000E+00  0.00000000000E+00  0.15923509548E+04  0.15923509549E+04  0.50400001928E-02 0. -1.
       -1   -1    0    0    0  501  0.00000000000E+00  0.00000000000E+00 -0.15290221912E+04  0.15290221912E+04  0.50400001928E-02 0.  1.
    10030    2    1    2    0    0  0.00000000000E+00  0.00000000000E+00  0.63328763620E+02  0.31213731461E+04  0.31207306492E+04 0.  0.
        4    1    3    3  502    0  0.47022118470E+02  0.39437623858E+03  0.15409464327E+04  0.15913080213E+04  0.12699999809E+01 0. -1.
       -4    1    3    3    0  502 -0.47022118470E+02 -0.39437623858E+03 -0.14776176691E+04  0.15300651248E+04  0.12699999809E+01 0.  1.
</event>
<event>
 5   0  0.1832626E-06  0.3234625E+04  0.7818609E-02  0.8179732E-01
       -2   -1    0    0    0  501  0.00000000000E+00  0.00000000000E+00  0.11626169642E+04  0.11626169642E+04  0.25500000920E-02 0. -1.
        2   -1    0    0  501    0  0.00000000000E+00  0.00000000000E+00 -0.22498383724E+04  0.22498383724E+04  0.25500000920E-02 0.  1.
    10030    2    1    2    0    0  0.00000000000E+00  0.00000000000E+00 -0.10872214083E+04  0.34124553366E+04  0.32346253313E+04 0.  0.
        3    1    3    3  502    0  0.12423567932E+04  0.10324751562E+04 -0.46024149500E+03  0.16796659173E+04  0.10100000352E+00 0.  1.
       -3    1    3    3    0  502 -0.12423567932E+04 -0.10324751562E+04 -0.62697991325E+03  0.17327894193E+04  0.10100000352E+00 0. -1.
</event>
<event>
 5   0  0.1696681E-06  0.3306849E+04  0.7818609E-02  0.8161155E-01
        2   -1    0    0  501    0  0.00000000000E+00  0.00000000000E+00  0.19003894828E+04  0.19003894828E+04  0.25500000920E-02 0.  1.
       -2   -1    0    0    0  501  0.00000000000E+00  0.00000000000E+00 -0.14385538089E+04  0.14385538089E+04  0.25500000920E-02 0. -1.
    10030    2    1    2    0    0  0.00000000000E+00  0.00000000000E+00  0.46183567387E+03  0.33389432917E+04  0.33068489708E+04 0.  0.
        4    1    3    3  502    0  0.13397219503E+03 -0.20983170324E+03 -0.14195206380E+04  0.14411864374E+04  0.12699999809E+01 0. -1.
       -4    1    3    3    0  502 -0.13397219503E+03  0.20983170324E+03  0.18813563119E+04  0.18977568543E+04  0.12699999809E+01 0.  1.
</event>
<event>
 5   0  0.1784626E-06  0.3291064E+04  0.7818609E-02  0.8165173E-01
       -2   -1    0    0    0  501  0.00000000000E+00  0.00000000000E+00  0.14277339007E+04  0.14277339007E+04  0.25500000920E-02 0.  1.
        2   -1    0    0  501    0  0.00000000000E+00  0.00000000000E+00 -0.18965544805E+04  0.18965544806E+04  0.25500000920E-02 0. -1.
    10030    2    1    2    0    0  0.00000000000E+00  0.00000000000E+00 -0.46882057985E+03  0.33242883813E+04  0.32910637347E+04 0.  0.
        2    1    3    3  502    0  0.10961878396E+04  0.11924623189E+04  0.58658349487E+02  0.16208130563E+04  0.25500000920E-02 0. -1.
       -2    1    3    3    0  502 -0.10961878396E+04 -0.11924623189E+04 -0.52747892933E+03  0.17034753249E+04  0.25500000920E-02 0.  1.
</event>
<event>
 5   0  0.1784626E-06  0.3297549E+04  0.7818609E-02  0.8163519E-01
       -2   -1    0    0    0  501  0.00000000000E+00  0.00000000000E+00  0.13530081211E+04  0.13530081211E+04  0.25500000920E-02 0. -1.
        2   -1    0    0  501    0  0.00000000000E+00  0.00000000000E+00 -0.20091953067E+04  0.20091953067E+04  0.25500000920E-02 0.  1.
    10030    2    1    2    0    0  0.00000000000E+00  0.00000000000E+00 -0.65618718559E+03  0.33622034278E+04  0.32975491304E+04 0.  0.
        2    1    3    3  502    0  0.14148877558E+04  0.37513630767E+03 -0.11018017917E+04  0.18321031082E+04  0.25500000920E-02 0.  1.
       -2    1    3    3    0  502 -0.14148877558E+04 -0.37513630767E+03  0.44561460615E+03  0.15301003196E+04  0.25500000920E-02 0. -1.
</event>
<event>
 5   0  0.5988516E-07  0.3287077E+04  0.7818609E-02  0.8166191E-01
       -1   -1    0    0    0  501  0.00000000000E+00  0.00000000000E+00  0.15019270350E+04  0.15019270350E+04  0.50400001928E-02 0.  1.
        1   -1    0    0  501    0  0.00000000000E+00  0.00000000000E+00 -0.17985019664E+04  0.17985019664E+04  0.50400001928E-02 0. -1.
    10030    2    1    2    0    0  0.00000000000E+00  0.00000000000E+00 -0.29657493140E+03  0.33004290014E+04  0.32870769543E+04 0.  0.
        4    1    3    3  502    0  0.12531146162E+04  0.38007599133E+03  0.84895542315E+03  0.15606027438E+04  0.12699999809E+01 0.  1.
       -4    1    3    3    0  502 -0.12531146162E+04 -0.38007599133E+03 -0.11455303546E+04  0.17398262576E+04  0.12699999809E+01 0. -1.
</event>
<event>
 5   0  0.1784626E-06  0.3304208E+04  0.7818609E-02  0.8161825E-01
        2   -1    0    0  501    0  0.00000000000E+00  0.00000000000E+00  0.24260404620E+04  0.24260404620E+04  0.25500000920E-02 0.  1.
       -2   -1    0    0    0  501  0.00000000000E+00  0.00000000000E+00 -0.11250628924E+04  0.11250628924E+04  0.25500000920E-02 0. -1.
    10030    2    1    2    0    0  0.00000000000E+00  0.00000000000E+00  0.13009775696E+04  0.35511033544E+04  0.33042082859E+04 0.  0.
        2    1    3    3  502    0  0.23842250332E+03 -0.12941361123E+04  0.17240351577E+04  0.21688547190E+04  0.25500000920E-02 0.  1.
       -2    1    3    3    0  502 -0.23842250332E+03  0.12941361123E+04 -0.42305758807E+03  0.13822486354E+04  0.25500000920E-02 0. -1.
</event>
<event>
 5   0  0.1743810E-06  0.3168857E+04  0.7818609E-02  0.8197091E-01
        2   -1    0    0  501    0  0.00000000000E+00  0.00000000000E+00  0.22744453251E+04  0.22744453251E+04  0.25500000920E-02 0. -1.
       -2   -1    0    0    0  501  0.00000000000E+00  0.00000000000E+00 -0.11037474284E+04  0.11037474284E+04  0.25500000920E-02 0.  1.
    10030    2    1    2    0    0  0.00000000000E+00  0.00000000000E+00  0.11706978968E+04  0.33781927535E+04  0.31688566888E+04 0.  0.
        5    1    3    3  502    0  0.11946801871E+03  0.38136929861E+03  0.22198236700E+04  0.22555164299E+04  0.46999998093E+01 0. -1.
       -5    1    3    3    0  502 -0.11946801871E+03 -0.38136929861E+03 -0.10491257733E+04  0.11226763236E+04  0.46999998093E+01 0.  1.
</event>
<event>
 5   0  0.1743810E-06  0.3294538E+04  0.7818609E-02  0.8164287E-01
        2   -1    0    0  501    0  0.00000000000E+00  0.00000000000E+00  0.27937676356E+04  0.27937676356E+04  0.25500000920E-02 0. -1.
       -2   -1    0    0    0  501  0.00000000000E+00  0.00000000000E+00 -0.97126722207E+03  0.97126722208E+03  0.25500000920E-02 0.  1.
    10030    2    1    2    0    0  0.00000000000E+00  0.00000000000E+00  0.18225004135E+04  0.37650348577E+04  0.32945378617E+04 0.  0.
        5    1    3    3  502    0 -0.15204241033E+04 -0.59905533705E+03  0.11479972544E+04  0.19971170563E+04  0.46999998093E+01 0. -1.
       -5    1    3    3    0  502  0.15204241033E+04  0.59905533705E+03  0.67450315916E+03  0.17679178014E+04  0.46999998093E+01 0.  1.
</event>
<event>
 5   0  0.1832626E-06  0.3335047E+04  0.7818609E-02  0.8154034E-01
        2   -1    0    0  501    0  0.00000000000E+00  0.00000000000E+00  0.27637302035E+04  0.27637302035E+04  0.25500000920E-02 0. -1.
       -2   -1    0    0    0  501  0.00000000000E+00  0.00000000000E+00 -0.10061167627E+04  0.10061167627E+04  0.25500000920E-02 0.  1.
    10030    2    1    2    0    0  0.00000000000E+00  0.00000000000E+00  0.17576134408E+04  0.37698469662E+04  0.33350473971E+04 0.  0.
        3    1    3    3  502    0 -0.63210040445E+03  0.15299599241E+04  0.65186629527E+03  0.17791171878E+04  0.10100000352E+00 0. -1.
       -3    1    3    3    0  502  0.63210040445E+03 -0.15299599241E+04  0.11057471456E+04  0.19907297784E+04  0.10100000352E+00 0.  1.
</event>
<event>
 5   0  0.6023446E-07  0.3270119E+04  0.7818609E-02  0.8170540E-01
        1   -1    0    0  501    0  0.00000000000E+00  0.00000000000E+00  0.17711833853E+04  0.17711833853E+04  0.50400001928E-02 0.  1.
       -1   -1    0    0    0  501  0.00000000000E+00  0.00000000000E+00 -0.15093975485E+04  0.15093975485E+04  0.50400001928E-02 0. -1.
    10030    2    1    2    0    0  0.00000000000E+00  0.00000000000E+00  0.26178583678E+03  0.32805809338E+04  0.32701191781E+04 0.  0.
        5    1    3    3  502    0  0.96868205148E+03  0.85469617047E+03  0.11363704567E+04  0.17205261886E+04  0.46999998093E+01 0.  1.
       -5    1    3    3    0  502 -0.96868205148E+03 -0.85469617047E+03 -0.87458461994E+03  0.15600547452E+04  0.46999998093E+01 0. -1.
</event>
<event>
 5   0  0.6085351E-07  0.2935690E+04  0.7818609E-02  0.8262337E-01
       -1   -1    0    0    0  501  0.00000000000E+00  0.00000000000E+00  0.83920358361E+03  0.83920358362E+03  0.50400001928E-02 0.  1.
        1   -1    0    0  501    0  0.00000000000E+00  0.00000000000E+00 -0.25673967764E+04  0.25673967764E+04  0.50400001928E-02 0. -1.
    10030    2    1    2    0    0  0.00000000000E+00  0.00000000000E+00 -0.17281931928E+04  0.34066003600E+04  0.29356897488E+04 0.  0.
        1    1    3    3  502    0  0.53962323874E+03 -0.12839528882E+04 -0.32623699795E+03  0.14304400853E+04  0.50400001928E-02 0.  1.
       -1    1    3    3    0  502 -0.53962323874E+03  0.12839528882E+04 -0.14019561949E+04  0.19761602747E+04  0.50400001928E-02 0. -1.
</event>
<event>
 5   0  0.1832626E-06  0.3290990E+04  0.7818609E-02  0.8165192E-01
       -2   -1    0    0    0  501  0.00000000000E+00  0.00000000000E+00  0.12396004655E+04  0.12396004655E+04  0.25500000920E-02 0.  1.
        2   -1    0    0  501    0  0.00000000000E+00  0.00000000000E+00 -0.21842956709E+04  0.21842956709E+04  0.25500000920E-02 0. -1.
    10030    2    1    2    0    0  0.00000000000E+00  0.00000000000E+00 -0.94469520539E+03  0.34238961364E+04  0.32909900823E+04 0.  0.
        3    1    3    3  502    0  0.15771683401E+04  0.25093080764E+03 -0.88488042416E+03  0.18257709655E+04  0.10100000352E+00 0. -1.
       -3    1    3    3    0  502 -0.15771683401E+04 -0.25093080764E+03 -0.59814781230E+02  0.15981251708E+04  0.10100000352E+00 0.  1.
</event>
<event>
 5   0  0.5985183E-07  0.3260256E+04  0.7818609E-02  0.8173083E-01
       -1   -1    0    0    0  501  0.00000000000E+00  0.00000000000E+00  0.13693061721E+04  0.13693061721E+04  0.50400001928E-02 0. -1.
        1   -1    0    0  501    0  0.00000000000E+00  0.00000000000E+00 -0.19406302018E+04  0.19406302018E+04  0.50400001928E-02 0.  1.
    10030    2    1    2    0    0  0.00000000000E+00  0.00000000000E+00 -0.57132402964E+03  0.33099363739E+04  0.32602557649E+04 0.  0.
        2    1    3    3  502    0  0.13355907902E+04 -0.48467054190E+03 -0.10969692747E+04  0.17950069311E+04  0.25500000920E-02 0.  1.
       -2    1    3    3    0  502 -0.13355907902E+04  0.48467054190E+03  0.52564524506E+03  0.15149294428E+04  0.25500000920E-02 0. -1.
</event>
<event>
 5   0  0.1696681E-06  0.3294845E+04  0.7818609E-02  0.8164208E-01
        2   -1    0    0  501    0  0.00000000000E+00  0.00000000000E+00  0.16562060035E+04  0.16562060035E+04  0.25500000920E-02 0. -1.
       -2   -1    0    0    0  501  0.00000000000E+00  0.00000000000E+00 -0.16386854776E+04  0.16386854776E+04  0.25500000920E-02 0.  1.
    10030    2    1    2    0    0  0.00000000000E+00  0.00000000000E+00  0.17520525899E+02  0.32948914810E+04  0.32948448981E+04 0.  0.
        4    1    3    3  502    0 -0.12559982846E+04 -0.46222226634E+03  0.96940800925E+03  0.16525539675E+04  0.12699999809E+01 0. -1.
       -4    1    3    3    0  502  0.12559982846E+04  0.46222226634E+03 -0.95188748335E+03  0.16423375135E+04  0.12699999809E+01 0.  1.
</event>
<event>
 5   0  0.5988516E-07  0.3277131E+04  0.7818609E-02  0.8168739E-01
        1   -1    0    0  501    0  0.00000000000E+00  0.00000000000E+00  0.19740505488E+04  0.19740505488E+04  0.50400001928E-02 0.  1.
       -1   -1    0    0    0  501  0.00000000000E+00  0.00000000000E+00 -0.13600956221E+04  0.13600956221E+04  0.50400001928E-02 0. -1.
    10030    2    1    2    0    0  0.00000000000E+00  0.00000000000E+00  0.61395492666E+03  0.33341461709E+04  0.32771313731E+04 0.  0.
        4    1    3    3  502    0 -0.12100351389E+03  0.10609511582E+04  0.15714341478E+04  0.18999121306E+04  0.12699999809E+01 0.  1.
       -4    1    3    3    0  502  0.12100351389E+03 -0.10609511582E+04 -0.95747922110E+03  0.14342340402E+04  0.12699999809E+01 0. -1.
</event>
<event>
 5   0  0.1696681E-06  0.3276848E+04  0.7818609E-02  0.8168811E-01
        2   -1    0    0  501    0  0.00000000000E+00  0.00000000000E+00  0.20237963068E+04  0.20237963068E+04  0.25500000920E-02 0.  1.
       -2   -1    0    0    0  501  0.00000000000E+00  0.00000000000E+00 -0.13264347189E+04  0.13264347189E+04  0.25500000920E-02 0. -1.
    10030    2    1    2    0    0  0.00000000000E+00  0.00000000000E+00  0.69736158795E+03  0.33502310257E+04  0.32768482939E+04 0.  0.
        4    1    3    3  502    0 -0.29280568404E+03 -0.78688536338E+03 -0.10897768794E+04  0.13756958252E+04  0.12699999809E+01 0. -1.
       -4    1    3    3    0  502  0.29280568404E+03  0.78688536338E+03  0.17871384673E+04  0.19745352005E+04  0.12699999809E+01 0.  1.
</event>
<event>
 5   0  0.1728937E-06  0.3142506E+04  0.7818609E-02  0.8204169E-01
       -2   -1    0    0    0  501  0.00000000000E+00  0.00000000000E+00  0.18916473901E+04  0.18916473902E+04  0.25500000920E-02 0.  1.
        2   -1    0    0  501    0  0.00000000000E+00  0.00000000000E+00 -0.13051244971E+04  0.13051244971E+04  0.25500000920E-02 0. -1.
    10030    2    1    2    0    0  0.00000000000E+00  0.00000000000E+00  0.58652289306E+03  0.31967718872E+04  0.31425055919E+04 0.  0.
        1    1    3    3  502    0  0.46411987195E+03 -0.46455308884E+02 -0.12330718557E+04  0.13183442466E+04  0.50400001928E-02 0. -1.
       -1    1    3    3    0  502 -0.46411987195E+03  0.46455308884E+02  0.18195947488E+04  0.18784276406E+04  0.50400001928E-02 0.  1.
</event>
<event>
 5   0  0.1784626E-06  0.3326083E+04  0.7818609E-02  0.8156290E-01
        2   -1    0    0  501    0  0.00000000000E+00  0.00000000000E+00  0.21940800724E+04  0.21940800724E+04  0.25500000920E-02 0.  1.
       -2   -1    0    0    0  501  0.00000000000E+00  0.00000000000E+00 -0.12605313535E+04  0.12605313535E+04  0.25500000920E-02 0. -1.
    10030    2    1    2    0    0  0.00000000000E+00  0.00000000000E+00  0.93354871888E+03  0.34546114259E+04  0.33260828152E+04 0.  0.
        2    1    3    3  502    0 -0.14190073845E+04  0.34333704213E+03  0.12939438007E+04  0.19508338836E+04  0.25500000920E-02 0.  1.
       -2    1    3    3    0  502  0.14190073845E+04 -0.34333704213E+03 -0.36039508183E+03  0.15037775424E+04  0.25500000920E-02 0. -1.
</event>
<event>
 5   0  0.5858859E-07  0.3283671E+04  0.7818609E-02  0.8167063E-01
       -1   -1    0    0    0  501  0.00000000000E+00  0.00000000000E+00  0.13084966792E+04  0.13084966792E+04  0.50400001928E-02 0.  1.
        1   -1    0    0  501    0  0.00000000000E+00  0.00000000000E+00 -0.20600921080E+04  0.20600921080E+04  0.50400001928E-02 0. -1.
    10030    2    1    2    0    0  0.00000000000E+00  0.00000000000E+00 -0.75159542875E+03  0.33685887872E+04  0.32836709227E+04 0.  0.
        3    1    3    3  502    0  0.16341714520E+04  0.15241729524E+03 -0.42023424446E+03  0.16942090181E+04  0.10100000352E+00 0.  1.
       -3    1    3    3    0  502 -0.16341714520E+04 -0.15241729524E+03 -0.33136118428E+03  0.16743797691E+04  0.10100000352E+00 0. -1.
</event>
<event>
 5   0  0.6085351E-07  0.3326011E+04  0.7818609E-02  0.8156308E-01
       -1   -1    0    0    0  501  0.00000000000E+00  0.00000000000E+00  0.12156120860E+04  0.12156120860E+04  0.50400001928E-02 0. -1.
        1   -1    0    0  501    0  0.00000000000E+00  0.00000000000E+00 -0.22750576895E+04  0.22750576895E+04  0.50400001928E-02 0.  1.
    10030    2    1    2    0    0  0.00000000000E+00  0.00000000000E+00 -0.10594456035E+04  0.34906697755E+04  0.33260111988E+04 0.  0.
        1    1    3    3  502    0 -0.13642368963E+04 -0.54524798311E+03 -0.13474963161E+04  0.19935355513E+04  0.50400001928E-02 0.  1.
       -1    1    3    3    0  502  0.13642368963E+04  0.54524798311E+03  0.28805071255E+03  0.14971342242E+04  0.50400001928E-02 0. -1.
</event>
<event>
 5   0  0.5985183E-07  0.3305777E+04  0.7818609E-02  0.8161427E-01
        1   -1    0    0  501    0  0.00000000000E+00  0.00000000000E+00  0.16415752206E+04  0.16415752206E+04  0.50400001928E-02 0. -1.
       -1   -1    0    0    0  501  0.00000000000E+00  0.00000000000E+00 -0.16642795405E+04  0.16642795405E+04  0.50400001928E-02 0.  1.
    10030    2    1    2    0    0  0.00000000000E+00  0.00000000000E+00 -0.22704319937E+02  0.33058547612E+04  0.33057767946E+04 0.  0.
        2    1    3    3  502    0 -0.10853391062E+04  0.81186089453E+03  0.93469391830E+03  0.16464300193E+04  0.25500000920E-02 0. -1.
       -2    1    3    3    0  502  0.10853391062E+04 -0.81186089453E+03 -0.95739823824E+03  0.16594247419E+04  0.25500000920E-02 0.  1.
</event>
<event>
 5   0  0.1784626E-06  0.3245443E+04  0.7818609E-02  0.8176918E-01
       -2   -1    0    0    0  501  0.00000000000E+00  0.00000000000E+00  0.20857632053E+04  0.20857632053E+04  0.25500000920E-02 0.  1.
        2   -1    0    0  501    0  0.00000000000E+00  0.00000000000E+00 -0.12624757494E+04  0.12624757494E+04  0.25500000920E-02 0. -1.
    10030    2    1    2    0    0  0.00000000000E+00  0.00000000000E+00  0.82328745582E+03  0.33482389547E+04  0.32454432460E+04 0.  0.
        2    1    3    3  502    0  0.11824357940E+04 -0.38587034333E+03 -0.66356394417E+03  0.14097402019E+04  0.25500000920E-02 0. -1.
       -2    1    3    3    0  502 -0.11824357940E+04  0.38587034333E+03  0.14868514000E+04  0.19384987528E+04  0.25500000920E-02 0.  1.
</event>
<event>
 5   0  0.1743810E-06  0.3333772E+04  0.7818609E-02  0.8154355E-01
       -2   -1    0    0    0  501  0.00000000000E+00  0.00000000000E+00  0.19461232873E+04  0.19461232873E+04  0.25500000920E-02 0.  1.
        2   -1    0    0  501    0  0.00000000000E+00  0.00000000000E+00 -0.14277151508E+04  0.14277151508E+04  0.25500000920E-02 0. -1.
    10030    2    1    2    0    0  0.00000000000E+00  0.00000000000E+00  0.51840813657E+03  0.33738384381E+04  0.33337724593E+04 0.  0.
        5    1    3    3  502    0  0.64577988005E+03 -0.64855022074E+03 -0.11506788036E+04  0.14702832521E+04  0.46999998093E+01 0. -1.
       -5    1    3    3    0  502 -0.64577988005E+03  0.64855022074E+03  0.16690869402E+04  0.19035551860E+04  0.46999998093E+01 0.  1.
</event>
<event>
 5   0  0.6085351E-07  0.3265202E+04  0.7818609E-02  0.8171807E-01
       -1   -1    0    0    0  501  0.00000000000E+00  0.00000000000E+00  0.91183753358E+03  0.91183753360E+03  0.50400001928E-02 0. -1.
        1   -1    0    0  501    0  0.00000000000E+00  0.00000000000E+00 -0.29230936778E+04  0.29230936778E+04  0.50400001928E-02 0.  1.
    10030    2    1    2    0    0  0.00000000000E+00  0.00000000000E+00 -0.20112561442E+04  0.38349312114E+04  0.32652023090E+04 0.  0.
        1    1    3    3  502    0  0.46637752700E+03 -0.14117812848E+04 -0.17976457168E+04  0.23328447263E+04  0.50400001928E-02 0.  1.
       -1    1    3    3    0  502 -0.46637752700E+03  0.14117812848E+04 -0.21361042739E+03  0.15020864851E+04  0.50400001928E-02 0. -1.
</event>
<event>
 5   0  0.1728937E-06  0.3258514E+04  0.7818609E-02  0.8173532E-01
        2   -1    0    0  501    0  0.00000000000E+00  0.00000000000E+00  0.14026062142E+04  0.14026062142E+04  0.25500000920E-02 0. -1.
       -2   -1    0    0    0  501  0.00000000000E+00  0.00000000000E+00 -0.18925328316E+04  0.18925328316E+04  0.25500000920E-02 0.  1.
    10030    2    1    2    0    0  0.00000000000E+00  0.00000000000E+00 -0.48992661743E+03  0.32951390458E+04  0.32585139620E+04 0.  0.
        1    1    3    3  502    0 -0.23264365128E+03  0.78399214572E+03 -0.16699547007E+04  0.18594395541E+04  0.50400001928E-02 0.  1.
       -1    1    3    3    0  502  0.23264365128E+03 -0.78399214572E+03  0.11800280833E+04  0.14356994917E+04  0.50400001928E-02 0. -1.
</event>
<event>
 5   0  0.6085351E-07  0.3269982E+04  0.7818609E-02  0.8170576E-01
       -1   -1    0    0    0  501  0.00000000000E+00  0.00000000000E+00  0.15231978179E+04  0.15231978179E+04  0.50400001928E-02 0. -1.
        1   -1    0    0  501    0  0.00000000000E+00  0.00000000000E+00 -0.17549889830E+04  0.17549889830E+04  0.50400001928E-02 0.  1.
    10030    2    1    2    0    0  0.00000000000E+00  0.00000000000E+00 -0.23179116516E+03  0.32781868009E+04  0.32699818895E+04 0.  0.
        1    1    3    3  502    0  0.28171360984E+03  0.10109253386E+04  0.11409897748E+04  0.15502226499E+04  0.50400001928E-02 0. -1.
       -1    1    3    3    0  502 -0.28171360984E+03 -0.10109253386E+04 -0.13727809400E+04  0.17279641510E+04  0.50400001928E-02 0.  1.
</event>
<event>
 5   0  0.1743810E-06  0.3291542E+04  0.7818609E-02  0.8165051E-01
       -2   -1    0    0    0  501  0.00000000000E+00  0.00000000000E+00  0.13640928198E+04  0.13640928198E+04  0.25500000920E-02 0.  1.
        2   -1    0    0  501    0  0.00000000000E+00  0.00000000000E+00 -0.19856140724E+04  0.19856140724E+04  0.25500000920E-02 0. -1.
    10030    2    1    2    0    0  0.00000000000E+00  0.00000000000E+00 -0.62152125258E+03  0.33497068922E+04  0.32915418266E+04 0.  0.
        5    1    3    3  502    0 -0.93315192664E+03 -0.13148043665E+04  0.25312465297E+02  0.16124967756E+04  0.46999998093E+01 0.  1.
       -5    1    3    3    0  502  0.93315192664E+03  0.13148043665E+04 -0.64683371788E+03  0.17372101166E+04  0.46999998093E+01 0. -1.
</event>
<event>
 5   0  0.1696681E-06  0.3371094E+04  0.7818609E-02  0.8145037E-01
       -2   -1    0    0    0  501  0.00000000000E+00  0.00000000000E+00  0.10897109353E+04  0.10897109353E+04  0.25500000920E-02 0. -1.
        2   -1    0    0  501    0  0.00000000000E+00  0.00000000000E+00 -0.26071769639E+04  0.26071769639E+04  0.25500000920E-02 0.  1.
    10030    2    1    2    0    0  0.00000000000E+00  0.00000000000E+00 -0.15174660286E+04  0.36968878992E+04  0.33710943314E+04 0.  0.
        4    1    3    3  502    0 -0.14563607981E+04 -0.12721845159E+03  0.16133456078E+03  0.14707827039E+04  0.12699999809E+01 0. -1.
       -4    1    3    3    0  502  0.14563607981E+04  0.12721845159E+03 -0.16788005894E+04  0.22261051953E+04  0.12699999809E+01 0.  1.
</event>
<event>
 5   0  0.1743810E-06  0.3302904E+04  0.7818609E-02  0.8162157E-01
       -2   -1    0    0    0  501  0.00000000000E+00  0.00000000000E+00  0.13616324566E+04  0.13616324566E+04  0.25500000920E-02 0.  1.
        2   -1    0    0  501    0  0.00000000000E+00  0.00000000000E+00 -0.20029585863E+04  0.20029585863E+04  0.25500000920E-02 0. -1.
    10030    2    1    2    0    0  0.00000000000E+00  0.00000000000E+00 -0.64132612979E+03  0.33645910429E+04  0.33029038256E+04 0.  0.
        5    1    3    3  502    0  0.12689023416E+04  0.44135887550E+03 -0.12989960794E+04  0.18687759935E+04  0.46999998093E+01 0. -1.
       -5    1    3    3    0  502 -0.12689023416E+04 -0.44135887550E+03  0.65766994962E+03  0.14958150494E+04  0.46999998093E+01 0.  1.
</event>
<event>
 5   0  0.1743810E-06  0.3367151E+04  0.7818609E-02  0.8146016E-01
       -2   -1    0    0    0  501  0.00000000000E+00  0.00000000000E+00  0.13817145447E+04  0.13817145447E+04  0.25500000920E-02 0.  1.
        2   -1    0    0  501    0  0.00000000000E+00  0.00000000000E+00 -0.20513836679E+04  0.20513836679E+04  0.25500000920E-02 0. -1.
    10030    2    1    2    0    0  0.00000000000E+00  0.00000000000E+00 -0.66966912321E+03  0.34330982126E+04  0.33671511108E+04 0.  0.
        5    1    3    3  502    0 -0.40967406128E+03 -0.55506739745E+03  0.12309751218E+04  0.14111181711E+04  0.46999998093E+01 0.  1.
       -5    1    3    3    0  502  0.40967406128E+03  0.55506739745E+03 -0.19006442451E+04  0.20219800416E+04  0.46999998093E+01 0. -1.
</event>
<event>
 5   0  0.5985183E-07  0.3410266E+04  0.7818609E-02  0.8135391E-01
       -1   -1    0    0    0  501  0.00000000000E+00  0.00000000000E+00  0.10954237176E+04  0.10954237176E+04  0.50400001928E-02 0. -1.
        1   -1    0    0  501    0  0.00000000000E+00  0.00000000000E+00 -0.26542044217E+04  0.26542044217E+04  0.50400001928E-02 0.  1.
    10030    2    1    2    0    0  0.00000000000E+00  0.00000000000E+00 -0.15587807041E+04  0.37496281393E+04  0.34102659573E+04 0.  0.
        2    1    3    3  502    0  0.12643545035E+04 -0.11148778874E+04 -0.10617176583E+04  0.19921820701E+04  0.25500000920E-02 0. -1.
       -2    1    3    3    0  502 -0.12643545035E+04  0.11148778874E+04 -0.49706304578E+03  0.17574460692E+04  0.25500000920E-02 0.  1.
</event>
<event>
 5   0  0.1728937E-06  0.3283850E+04  0.7818609E-02  0.8167017E-01
        2   -1    0    0  501    0  0.00000000000E+00  0.00000000000E+00  0.20073313232E+04  0.20073313232E+04  0.25500000920E-02 0. -1.
       -2   -1    0    0    0  501  0.00000000000E+00  0.00000000000E+00 -0.13430356531E+04  0.13430356531E+04  0.25500000920E-02 0.  1.
    10030    2    1    2    0    0  0.00000000000E+00  0.00000000000E+00  0.66429567010E+03  0.33503669763E+04  0.32838498958E+04 0.  0.
        1    1    3    3  502    0  0.95606126860E+03 -0.17068814323E+03 -0.10185760665E+04  0.14073680382E+04  0.50400001928E-02 0.  1.
       -1    1    3    3    0  502 -0.95606126860E+03  0.17068814323E+03  0.16828717366E+04  0.19429989381E+04  0.50400001928E-02 0. -1.
</event>
<event>
 5   0  0.5985183E-07  0.3315457E+04  0.7818609E-02  0.8158973E-01
        1   -1    0    0  501    0  0.00000000000E+00  0.00000000000E+00  0.17926946371E+04  0.17926946371E+04  0.50400001928E-02 0. -1.
       -1   -1    0    0    0  501  0.00000000000E+00  0.00000000000E+00 -0.15329238060E+04  0.15329238060E+04  0.50400001928E-02 0.  1.
    10030    2    1    2    0    0  0.00000000000E+00  0.00000000000E+00  0.25977083110E+03  0.33256184431E+04  0.33154573054E+04 0.  0.
        2    1    3    3  502    0  0.57304627548E+03  0.12336737185E+04  0.10802761426E+04  0.17370461772E+04  0.25500000920E-02 0. -1.
       -2    1    3    3    0  502 -0.57304627548E+03 -0.12336737185E+04 -0.82050531154E+03  0.15885722658E+04  0.25500000920E-02 0.  1.
</event>
<event>
 5   0  0.1696681E-06  0.3286721E+04  0.7818609E-02  0.8166282E-01
        2   -1    0    0  501    0  0.00000000000E+00  0.00000000000E+00  0.19077911150E+04  0.19077911150E+04  0.25500000920E-02 0.  1.
       -2   -1    0    0    0  501  0.00000000000E+00  0.00000000000E+00 -0.14155816113E+04  0.14155816113E+04  0.25500000920E-02 0. -1.
    10030    2    1    2    0    0  0.00000000000E+00  0.00000000000E+00  0.49220950369E+03  0.33233727263E+04  0.32867211750E+04 0.  0.
        4    1    3    3  502    0 -0.13665460764E+04  0.86920013352E+03 -0.35706167566E+02  0.16199486394E+04  0.12699999809E+01 0. -1.
       -4    1    3    3    0  502  0.13665460764E+04 -0.86920013352E+03  0.52791567126E+03  0.17034240869E+04  0.12699999809E+01 0.  1.
</event>
<event>
 5   0  0.5858859E-07  0.3284015E+04  0.7818609E-02  0.8166975E-01
        1   -1    0    0  501    0  0.00000000000E+00  0.00000000000E+00  0.25461570655E+04  0.25461570655E+04  0.50400001928E-02 0.  1.
       -1   -1    0    0    0  501  0.00000000000E+00  0.00000000000E+00 -0.10589249882E+04  0.10589249882E+04  0.50400001928E-02 0. -1.
    10030    2    1    2    0    0  0.00000000000E+00  0.00000000000E+00  0.14872320773E+04  0.36050820537E+04  0.32840154327E+04 0.  0.
        3    1    3    3  502    0 -0.16215251419E+04  0.14838690944E+03  0.97603907529E+03  0.18984242801E+04  0.10100000352E+00 0.  1.
       -3    1    3    3    0  502  0.16215251419E+04 -0.14838690944E+03  0.51119300205E+03  0.17066577736E+04  0.10100000352E+00 0. -1.
</event>
<event>
 5   0  0.1832626E-06  0.3119954E+04  0.7818609E-02  0.8210283E-01
        2   -1    0    0  501    0  0.00000000000E+00  0.00000000000E+00  0.17195030204E+04  0.17195030204E+04  0.25500000920E-02 0. -1.
       -2   -1    0    0    0  501  0.00000000000E+00  0.00000000000E+00 -0.14152508053E+04  0.14152508053E+04  0.25500000920E-02 0.  1.
    10030    2    1    2    0    0  0.00000000000E+00  0.00000000000E+00  0.30425221510E+03  0.31347538258E+04  0.31199538679E+04 0.  0.
        3    1    3    3  502    0  0.12122577875E+04  0.77845434885E+02 -0.83123984360E+03  0.14719336068E+04  0.10100000352E+00 0.  1.
       -3    1    3    3    0  502 -0.12122577875E+04 -0.77845434885E+02  0.11354920587E+04  0.16628202190E+04  0.10100000352E+00 0. -1.
</event>
<event>
 5   0  0.5988516E-07  0.3335952E+04  0.7818609E-02  0.8153807E-01
       -1   -1    0    0    0  501  0.00000000000E+00  0.00000000000E+00  0.12113405284E+04  0.12113405284E+04  0.50400001928E-02 0.  1.
        1   -1    0    0  501    0  0.00000000000E+00  0.00000000000E+00 -0.22967483587E+04  0.22967483587E+04  0.50400001928E-02 0. -1.
    10030    2    1    2    0    0  0.00000000000E+00  0.00000000000E+00 -0.10854078303E+04  0.35080888870E+04  0.33359522600E+04 0.  0.
        4    1    3    3  502    0 -0.12762862154E+04 -0.91425415347E+03 -0.11351345762E+04  0.19373433561E+04  0.12699999809E+01 0. -1.
       -4    1    3    3    0  502  0.12762862154E+04  0.91425415347E+03  0.49726745858E+02  0.15707455309E+04  0.12699999809E+01 0.  1.
</event>
<event>
 5   0  0.1728937E-06  0.3297142E+04  0.7818609E-02  0.8163623E-01
       -2   -1    0    0    0  501  0.00000000000E+00  0.00000000000E+00  0.12200802068E+04  0.12200802068E+04  0.25500000920E-02 0.  1.
        2   -1    0    0  501    0  0.00000000000E+00  0.00000000000E+00 -0.22275477408E+04  0.22275477408E+04  0.25500000920E-02 0. -1.
    10030    2    1    2    0    0  0.00000000000E+00  0.00000000000E+00 -0.10074675340E+04  0.34476279477E+04  0.32971423435E+04 0.  0.
        1    1    3    3  502    0  0.15294857800E+04  0.47072477462E+03 -0.91788999216E+03  0.18448389096E+04  0.50400001928E-02 0. -1.
       -1    1    3    3    0  502 -0.15294857800E+04 -0.47072477462E+03 -0.89577541854E+02  0.16027890381E+04  0.50400001928E-02 0.  1.
</event>
<event>
 5   0  0.6023446E-07  0.3205220E+04  0.7818609E-02  0.8187440E-01
        1   -1    0    0  501    0  0.00000000000E+00  0.00000000000E+00  0.23153019601E+04  0.23153019601E+04  0.50400001928E-02 0.  1.
       -1   -1    0    0    0  501  0.00000000000E+00  0.00000000000E+00 -0.11092972725E+04  0.11092972725E+04  0.50400001928E-02 0. -1.
    10030    2    1    2    0    0  0.00000000000E+00  0.00000000000E+00  0.12060046877E+04  0.34245992326E+04  0.32052195865E+04 0.  0.
        5    1    3    3  502    0  0.46822779798E+03  0.13174298178E+04 -0.23385469579E+03  0.14175925735E+04  0.46999998093E+01 0. -1.
       -5    1    3    3    0  502 -0.46822779798E+03 -0.13174298178E+04  0.14398593835E+04  0.20070066591E+04  0.46999998093E+01 0.  1.
</event>
<event>
 5   0  0.5988516E-07  0.3319159E+04  0.7818609E-02  0.8158037E-01
        1   -1    0    0  501    0  0.00000000000E+00  0.00000000000E+00  0.22906195364E+04  0.22906195364E+04  0.50400001928E-02 0. -1.
       -1   -1    0    0    0  501  0.00000000000E+00  0.00000000000E+00 -0.12023839281E+04  0.12023839281E+04  0.50400001928E-02 0.  1.
    10030    2    1    2    0    0  0.00000000000E+00  0.00000000000E+00  0.10882356083E+04  0.34930034645E+04  0.33191589995E+04 0.  0.
        4    1    3    3  502    0 -0.40266733114E+03  0.15028687674E+04 -0.63575373626E+02  0.15571765965E+04  0.12699999809E+01 0. -1.
       -4    1    3    3    0  502  0.40266733114E+03 -0.15028687674E+04  0.11518109820E+04  0.19358268680E+04  0.12699999809E+01 0.  1.
</event>
<event>
 5   0  0.1832626E-06  0.3273754E+04  0.7818609E-02  0.8169606E-01
       -2   -1    0    0    0  501  0.00000000000E+00  0.00000000000E+00  0.11706654165E+04  0.11706654165E+04  0.25500000920E-02 0.  1.
        2   -1    0    0  501    0  0.00000000000E+00  0.00000000000E+00 -0.22887550227E+04  0.22887550227E+04  0.25500000920E-02 0. -1.
    10030    2    1    2    0    0  0.00000000000E+00  0.00000000000E+00 -0.11180896062E+04  0.34594204392E+04  0.32737540237E+04 0.  0.
        3    1    3    3  502    0  0.28712204808E+03  0.35692485404E+03  0.11015536300E+04  0.11930024442E+04  0.10100000352E+00 0.  1.
       -3    1    3    3    0  502 -0.28712204808E+03 -0.35692485404E+03 -0.22196432362E+04  0.22664179950E+04  0.10100000352E+00 0. -1.
</event>
<event>
 5   0  0.6023446E-07  0.3247697E+04  0.7818609E-02  0.8176333E-01
        1   -1    0    0  501    0  0.00000000000E+00  0.00000000000E+00  0.27824717102E+04  0.27824717102E+04  0.50400001928E-02 0. -1.
       -1   -1    0    0    0  501  0.00000000000E+00  0.00000000000E+00 -0.94767669242E+03  0.94767669243E+03  0.50400001928E-02 0.  1.
    10030    2    1    2    0    0  0.00000000000E+00  0.00000000000E+00  0.18347950178E+04  0.37301484026E+04  0.32476967759E+04 0.  0.
        5    1    3    3  502    0  0.42638023084E+02  0.11293041377E+04 -0.42189267582E+03  0.12063006907E+04  0.46999998093E+01 0.  1.
       -5    1    3    3    0  502 -0.42638023084E+02 -0.11293041377E+04  0.22566876936E+04  0.25238477119E+04  0.46999998093E+01 0. -1.
</event>
<event>
 5   0  0.5858859E-07  0.3297464E+04  0.7818609E-02  0.8163541E-01
        1   -1    0    0  501    0  0.00000000000E+00  0.00000000000E+00  0.13819472737E+04  0.13819472737E+04  0.50400001928E-02 0.  1.
       -1   -1    0    0    0  501  0.00000000000E+00  0.00000000000E+00 -0.19670192744E+04  0.19670192744E+04  0.50400001928E-02 0. -1.
    10030    2    1    2    0    0  0.00000000000E+00  0.00000000000E+00 -0.58507200070E+03  0.33489665481E+04  0.32974638276E+04 0.  0.
        3    1    3    3  502    0  0.26457256866E+03  0.14556404163E+04  0.44644748712E+03  0.15453811940E+04  0.10100000352E+00 0.  1.
       -3    1    3    3    0  502 -0.26457256866E+03 -0.14556404163E+04 -0.10315194878E+04  0.18035853542E+04  0.10100000352E+00 0. -1.
</event>
<event>
 5   0  0.5985183E-07  0.3317716E+04  0.7818609E-02  0.8158402E-01
       -1   -1    0    0    0  501  0.00000000000E+00  0.00000000000E+00  0.18953852423E+04  0.18953852423E+04  0.50400001928E-02 0. -1.
        1   -1    0    0  501    0  0.00000000000E+00  0.00000000000E+00 -0.14518469392E+04  0.14518469392E+04  0.50400001928E-02 0.  1.
    10030    2    1    2    0    0  0.00000000000E+00  0.00000000000E+00  0.44353830309E+03  0.33472321814E+04  0.33177156373E+04 0.  0.
        2    1    3    3  502    0  0.20077861732E+03  0.90482118491E+03  0.16097982290E+04  0.18575424001E+04  0.25500000920E-02 0. -1.
       -2    1    3    3    0  502 -0.20077861732E+03 -0.90482118491E+03 -0.11662599260E+04  0.14896897814E+04  0.25500000920E-02 0.  1.
</event>
<event>
 5   0  0.1784626E-06  0.3310360E+04  0.7818609E-02  0.8160264E-01
        2   -1    0    0  501    0  0.00000000000E+00  0.00000000000E+00  0.17436236644E+04  0.17436236644E+04  0.25500000920E-02 0.  1.
       -2   -1    0    0    0  501  0.00000000000E+00  0.00000000000E+00 -0.15712221122E+04  0.15712221122E+04  0.25500000920E-02 0. -1.
    10030    2    1    2    0    0  0.00000000000E+00  0.00000000000E+00  0.17240155218E+03  0.33148457766E+04  0.33103595314E+04 0.  0.
        2    1    3    3  502    0 -0.68280958483E+03 -0.15067660465E+04  0.14147711507E+03  0.16602977510E+04  0.25500000920E-02 0.  1.
       -2    1    3    3    0  502  0.68280958483E+03  0.15067660465E+04  0.30924437110E+02  0.16545480255E+04  0.25500000920E-02 0. -1.
</event>
<event>
 5   0  0.5985183E-07  0.2859002E+04  0.7818609E-02  0.8285181E-01
       -1   -1    0    0    0  501  0.00000000000E+00  0.00000000000E+00  0.10500203416E+04  0.10500203417E+04  0.50400001928E-02 0.  1.
        1   -1    0    0  501    0  0.00000000000E+00  0.00000000000E+00 -0.19461270247E+04  0.19461270247E+04  0.50400001928E-02 0. -1.
    10030    2    1    2    0    0  0.00000000000E+00  0.00000000000E+00 -0.89610668307E+03  0.29961473664E+04  0.28590018982E+04 0.  0.
        2    1    3    3  502    0 -0.30914233074E+03  0.98042209868E+02  0.10109567496E+04  0.10617037276E+04  0.25500000920E-02 0.  1.
       -2    1    3    3    0  502  0.30914233074E+03 -0.98042209868E+02 -0.19070634327E+04  0.19344436388E+04  0.25500000920E-02 0. -1.
</event>
<event>
 5   0  0.5985183E-07  0.3124789E+04  0.7818609E-02  0.8208968E-01
        1   -1    0    0  501    0  0.00000000000E+00  0.00000000000E+00  0.21088504005E+04  0.21088504005E+04  0.50400001928E-02 0. -1.
       -1   -1    0    0    0  501  0.00000000000E+00  0.00000000000E+00 -0.11575391074E+04  0.11575391074E+04  0.50400001928E-02 0.  1.
    10030    2    1    2    0    0  0.00000000000E+00  0.00000000000E+00  0.95131129311E+03  0.32663895080E+04  0.31247891515E+04 0.  0.
        2    1    3    3  502    0 -0.60578607133E+03 -0.53235085675E+03 -0.92315518705E+03  0.12258016554E+04  0.25500000920E-02 0.  1.
       -2    1    3    3    0  502  0.60578607133E+03  0.53235085675E+03  0.18744664802E+04  0.20405878526E+04  0.25500000920E-02 0. -1.
</event>
<event>
 5   0  0.5858859E-07  0.3252698E+04  0.7818609E-02  0.8175037E-01
        1   -1    0    0  501    0  0.00000000000E+00  0.00000000000E+00  0.19829096502E+04  0.19829096502E+04  0.50400001928E-02 0.  1.
       -1   -1    0    0    0  501  0.00000000000E+00  0.00000000000E+00 -0.13339039983E+04  0.13339039983E+04  0.50400001928E-02 0. -1.
    10030    2    1    2    0    0  0.00000000000E+00  0.00000000000E+00  0.64900565187E+03  0.33168136485E+04  0.32526980251E+04 0.  0.
        3    1    3    3  502    0 -0.11711262711E+03 -0.52503904242E+03  0.18895622784E+04  0.19646442370E+04  0.10100000352E+00 0.  1.
       -3    1    3    3    0  502  0.11711262711E+03  0.52503904242E+03 -0.12405566266E+04  0.13521694115E+04  0.10100000352E+00 0. -1.
</event>
<event>
 5   0  0.1728937E-06  0.3240044E+04  0.7818609E-02  0.8178321E-01
       -2   -1    0    0    0  501  0.00000000000E+00  0.00000000000E+00  0.17004326447E+04  0.17004326447E+04  0.25500000920E-02 0.  1.
        2   -1    0    0  501    0  0.00000000000E+00  0.00000000000E+00 -0.15434139430E+04  0.15434139430E+04  0.25500000920E-02 0. -1.
    10030    2    1    2    0    0  0.00000000000E+00  0.00000000000E+00  0.15701870170E+03  0.32438465877E+04  0.32400441065E+04 0.  0.
        1    1    3    3  502    0 -0.10382627907E+03  0.40292304106E+03  0.16460238483E+04  0.16977989818E+04  0.50400001928E-02 0.  1.
       -1    1    3    3    0  502  0.10382627907E+03 -0.40292304106E+03 -0.14890051466E+04  0.15460476060E+04  0.50400001928E-02 0. -1.
</event>
<event>
 5   0  0.1696681E-06  0.3312706E+04  0.7818609E-02  0.8159670E-01
       -2   -1    0    0    0  501  0.00000000000E+00  0.00000000000E+00  0.25431835840E+04  0.25431835840E+04  0.25500000920E-02 0.  1.
        2   -1    0    0  501    0  0.00000000000E+00  0.00000000000E+00 -0.10787682351E+04  0.10787682352E+04  0.25500000920E-02 0. -1.
    10030    2    1    2    0    0  0.00000000000E+00  0.00000000000E+00  0.14644153488E+04  0.36219518191E+04  0.33127062451E+04 0.  0.
        4    1    3    3  502    0  0.10261009039E+04  0.10036972173E+04 -0.17152038448E+03  0.14455836275E+04  0.12699999809E+01 0. -1.
       -4    1    3    3    0  502 -0.10261009039E+04 -0.10036972173E+04  0.16359357333E+04  0.21763681916E+04  0.12699999809E+01 0.  1.
</event>
<event>
 5   0  0.6085351E-07  0.3349767E+04  0.7818609E-02  0.8150346E-01
        1   -1    0    0  501    0  0.00000000000E+00  0.00000000000E+00  0.24514404621E+04  0.24514404621E+04  0.50400001928E-02 0.  1.
       -1   -1    0    0    0  501  0.00000000000E+00  0.00000000000E+00 -0.11443207389E+04  0.11443207389E+04  0.50400001928E-02 0. -1.
    10030    2    1    2    0    0  0.00000000000E+00  0.00000000000E+00  0.13071197232E+04  0.35957612010E+04  0.33497666552E+04 0.  0.
        1    1    3    3  502    0 -0.12194719795E+04 -0.31246313337E+03  0.18394466457E+04  0.22289704083E+04  0.50400001928E-02 0.  1.
       -1    1    3    3    0  502  0.12194719795E+04  0.31246313337E+03 -0.53232692254E+03  0.13667907927E+04  0.50400001928E-02 0. -1.
</event>
<event>
 5   0  0.1728937E-06  0.3373918E+04  0.7818609E-02  0.8144337E-01
        2   -1    0    0  501    0  0.00000000000E+00  0.00000000000E+00  0.23341183753E+04  0.23341183753E+04  0.25500000920E-02 0.  1.
       -2   -1    0    0    0  501  0.00000000000E+00  0.00000000000E+00 -0.12192318511E+04  0.12192318511E+04  0.25500000920E-02 0. -1.
    10030    2    1    2    0    0  0.00000000000E+00  0.00000000000E+00  0.11148865242E+04  0.35533502264E+04  0.33739184741E+04 0.  0.
        1    1    3    3  502    0  0.70016368780E+03 -0.13410206716E+03  0.21676820602E+04  0.22818979093E+04  0.50400001928E-02 0.  1.
       -1    1    3    3    0  502 -0.70016368780E+03  0.13410206716E+03 -0.10527955360E+04  0.12714523172E+04  0.50400001928E-02 0. -1.
</event>
<event>
 5   0  0.1696681E-06  0.3291653E+04  0.7818609E-02  0.8165023E-01
        2   -1    0    0  501    0  0.00000000000E+00  0.00000000000E+00  0.22331800501E+04  0.22331800501E+04  0.25500000920E-02 0.  1.
       -2   -1    0    0    0  501  0.00000000000E+00  0.00000000000E+00 -0.12129541472E+04  0.12129541472E+04  0.25500000920E-02 0. -1.
    10030    2    1    2    0    0  0.00000000000E+00  0.00000000000E+00  0.10202259030E+04  0.34461341973E+04  0.32916530821E+04 0.  0.
        4    1    3    3  502    0  0.16307235441E+04 -0.20996593638E+03  0.58703509969E+03  0.17458398532E+04  0.12699999809E+01 0.  1.
       -4    1    3    3    0  502 -0.16307235441E+04  0.20996593638E+03  0.43319080328E+03  0.17002943441E+04  0.12699999809E+01 0. -1.
</event>
<event>
 5   0  0.1743810E-06  0.3284053E+04  0.7818609E-02  0.8166965E-01
        2   -1    0    0  501    0  0.00000000000E+00  0.00000000000E+00  0.26823470266E+04  0.26823470266E+04  0.25500000920E-02 0.  1.
       -2   -1    0    0    0  501  0.00000000000E+00  0.00000000000E+00 -0.10051837166E+04  0.10051837166E+04  0.25500000920E-02 0. -1.
    10030    2    1    2    0    0  0.00000000000E+00  0.00000000000E+00  0.16771633100E+04  0.36875307432E+04  0.32840533207E+04 0.  0.
        5    1    3    3  502    0  0.15660362966E+03  0.35324027810E+03  0.26305635583E+04  0.26587948615E+04  0.46999998093E+01 0.  1.
       -5    1    3    3    0  502 -0.15660362966E+03 -0.35324027810E+03 -0.95340024831E+03  0.10287358817E+04  0.46999998093E+01 0. -1.
</event>
<event>
 5   0  0.1728937E-06  0.3268935E+04  0.7818609E-02  0.8170845E-01
       -2   -1    0    0    0  501  0.00000000000E+00  0.00000000000E+00  0.11397092662E+04  0.11397092662E+04  0.25500000920E-02 0. -1.
        2   -1    0    0  501    0  0.00000000000E+00  0.00000000000E+00 -0.23440050886E+04  0.23440050886E+04  0.25500000920E-02 0.  1.
    10030    2    1    2    0    0  0.00000000000E+00  0.00000000000E+00 -0.12042958224E+04  0.34837143548E+04  0.32689351902E+04 0.  0.
        1    1    3    3  502    0 -0.95857901808E+03  0.12878699429E+04 -0.27540675580E+03  0.16289050325E+04  0.50400001928E-02 0. -1.
       -1    1    3    3    0  502  0.95857901808E+03 -0.12878699429E+04 -0.92888906660E+03  0.18548093222E+04  0.50400001928E-02 0.  1.
</event>
<event>
 5   0  0.1743810E-06  0.3298026E+04  0.7818609E-02  0.8163398E-01
        2   -1    0    0  501    0  0.00000000000E+00  0.00000000000E+00  0.21512174660E+04  0.21512174660E+04  0.25500000920E-02 0. -1.
       -2   -1    0    0    0  501  0.00000000000E+00  0.00000000000E+00 -0.12640486182E+04  0.12640486182E+04  0.25500000920E-02 0.  1.
    10030    2    1    2    0    0  0.00000000000E+00  0.00000000000E+00  0.88716884776E+03  0.34152660842E+04  0.32980257520E+04 0.  0.
        5    1    3    3  502    0 -0.12760091982E+02  0.34585904165E+03 -0.12260077804E+04  0.12739303215E+04  0.46999998093E+01 0.  1.
       -5    1    3    3    0  502  0.12760091982E+02 -0.34585904165E+03  0.21131766281E+04  0.21413357626E+04  0.46999998093E+01 0. -1.
</event>
<event>
 5   0  0.1728937E-06  0.3287891E+04  0.7818609E-02  0.8165983E-01
       -2   -1    0    0    0  501  0.00000000000E+00  0.00000000000E+00  0.16225700243E+04  0.16225700243E+04  0.25500000920E-02 0. -1.
        2   -1    0    0  501    0  0.00000000000E+00  0.00000000000E+00 -0.16656022631E+04  0.16656022631E+04  0.25500000920E-02 0.  1.
    10030    2    1    2    0    0  0.00000000000E+00  0.00000000000E+00 -0.43032238776E+02  0.32881722874E+04  0.32878906944E+04 0.  0.
        1    1    3    3  502    0  0.11587684523E+04 -0.10741698365E+04 -0.47539542423E+03  0.16500260522E+04  0.50400001928E-02 0.  1.
       -1    1    3    3    0  502 -0.11587684523E+04  0.10741698365E+04  0.43236318545E+03  0.16381462352E+04  0.50400001928E-02 0. -1.
</event>
<event>
 5   0  0.5988516E-07  0.3348728E+04  0.7818609E-02  0.8150606E-01
       -1   -1    0    0    0  501  0.00000000000E+00  0.00000000000E+00  0.16322509683E+04  0.16322509683E+04  0.50400001928E-02 0.  1.
        1   -1    0    0  501    0  0.00000000000E+00  0.00000000000E+00 -0.17175634979E+04  0.17175634979E+04  0.50400001928E-02 0. -1.
    10030    2    1    2    0    0  0.00000000000E+00  0.00000000000E+00 -0.85312529645E+02  0.33498144662E+04  0.33487279272E+04 0.  0.
        4    1    3    3  502    0 -0.95263731846E+03 -0.16454634464E+03 -0.14101768990E+04  0.17097350261E+04  0.12699999809E+01 0. -1.
       -4    1    3    3    0  502  0.95263731846E+03  0.16454634464E+03  0.13248643693E+04  0.16400794402E+04  0.12699999809E+01 0.  1.
</event>
<event>
 5   0  0.5858859E-07  0.3304097E+04  0.7818609E-02  0.8161854E-01
        1   -1    0    0  501    0  0.00000000000E+00  0.00000000000E+00  0.18248004700E+04  0.18248004700E+04  0.50400001928E-02 0. -1.
       -1   -1    0    0    0  501  0.00000000000E+00  0.00000000000E+00 -0.14956507686E+04  0.14956507686E+04  0.50400001928E-02 0.  1.
    10030    2    1    2    0    0  0.00000000000E+00  0.00000000000E+00  0.32914970137E+03  0.33204512386E+04  0.33040969874E+04 0.  0.
        3    1    3    3  502    0 -0.15185096365E+04  0.10517696909E+03  0.80988285581E+03  0.17241937134E+04  0.10100000352E+00 0. -1.
       -3    1    3    3    0  502  0.15185096365E+04 -0.10517696909E+03 -0.48073315444E+03  0.15962575252E+04  0.10100000352E+00 0.  1.
</event>
<event>
 5   0  0.1728937E-06  0.3325582E+04  0.7818609E-02  0.8156416E-01
       -2   -1    0    0    0  501  0.00000000000E+00  0.00000000000E+00  0.19259898226E+04  0.19259898226E+04  0.25500000920E-02 0. -1.
        2   -1    0    0  501    0  0.00000000000E+00  0.00000000000E+00 -0.14355601943E+04  0.14355601943E+04  0.25500000920E-02 0.  1.
    10030    2    1    2    0    0  0.00000000000E+00  0.00000000000E+00  0.49042962825E+03  0.33615500169E+04  0.33255822492E+04 0.  0.
        1    1    3    3  502    0 -0.16389283561E+04 -0.20250138454E+03  0.48738293028E+02  0.16521102833E+04  0.50400001928E-02 0. -1.
       -1    1    3    3    0  502  0.16389283561E+04  0.20250138454E+03  0.44169133522E+03  0.17094397336E+04  0.50400001928E-02 0.  1.
</event>
<event>
 5   0  0.5985183E-07  0.3322052E+04  0.7818609E-02  0.8157307E-01
       -1   -1    0    0    0  501  0.00000000000E+00  0.00000000000E+00  0.14365426472E+04  0.14365426472E+04  0.50400001928E-02 0. -1.
        1   -1    0    0  501    0  0.00000000000E+00  0.00000000000E+00 -0.19205889692E+04  0.19205889692E+04  0.50400001928E-02 0.  1.
    10030    2    1    2    0    0  0.00000000000E+00  0.00000000000E+00 -0.48404632202E+03  0.33571316164E+04  0.33220523548E+04 0.  0.
        2    1    3    3  502    0  0.14566100674E+04 -0.76785021341E+03 -0.46273528964E+03  0.17103890747E+04  0.25500000920E-02 0.  1.
       -2    1    3    3    0  502 -0.14566100674E+04  0.76785021341E+03 -0.21311032386E+02  0.16467425417E+04  0.25500000920E-02 0. -1.
</event>
<event>
 5   0  0.1784626E-06  0.2796628E+04  0.7818609E-02  0.8304316E-01
        2   -1    0    0  501    0  0.00000000000E+00  0.00000000000E+00  0.16234680384E+04  0.16234680384E+04  0.25500000920E-02 0.  1.
       -2   -1    0    0    0  501  0.00000000000E+00  0.00000000000E+00 -0.12043860012E+04  0.12043860012E+04  0.25500000920E-02 0. -1.
    10030    2    1    2    0    0  0.00000000000E+00  0.00000000000E+00  0.41908203716E+03  0.28278540396E+04  0.27966280975E+04 0.  0.
        2    1    3    3  502    0  0.35800311768E+03 -0.12401428717E+04 -0.33420061265E+03  0.13333456506E+04  0.25500000920E-02 0. -1.
       -2    1    3    3    0  502 -0.35800311768E+03  0.12401428717E+04  0.75328264981E+03  0.14945083890E+04  0.25500000920E-02 0.  1.
</event>
<event>
 5   0  0.5988516E-07  0.3360392E+04  0.7818609E-02  0.8147696E-01
       -1   -1    0    0    0  501  0.00000000000E+00  0.00000000000E+00  0.13571527790E+04  0.13571527790E+04  0.50400001928E-02 0.  1.
        1   -1    0    0  501    0  0.00000000000E+00  0.00000000000E+00 -0.20801331775E+04  0.20801331775E+04  0.50400001928E-02 0. -1.
    10030    2    1    2    0    0  0.00000000000E+00  0.00000000000E+00 -0.72298039853E+03  0.34372859565E+04  0.33603919548E+04 0.  0.
        4    1    3    3  502    0 -0.55329617050E+03 -0.83270573115E+03 -0.17427684141E+04  0.20091736722E+04  0.12699999809E+01 0. -1.
       -4    1    3    3    0  502  0.55329617050E+03  0.83270573115E+03  0.10197880155E+04  0.14281122843E+04  0.12699999809E+01 0.  1.
</event>
<event>
 5   0  0.1743810E-06  0.3283044E+04  0.7818609E-02  0.8167223E-01
       -2   -1    0    0    0  501  0.00000000000E+00  0.00000000000E+00  0.27688904524E+04  0.27688904524E+04  0.25500000920E-02 0.  1.
        2   -1    0    0  501    0  0.00000000000E+00  0.00000000000E+00 -0.97316732502E+03  0.97316732503E+03  0.25500000920E-02 0. -1.
    10030    2    1    2    0    0  0.00000000000E+00  0.00000000000E+00  0.17957231274E+04  0.37420577774E+04  0.32830435360E+04 0.  0.
        5    1    3    3  502    0 -0.10095472117E+04  0.11349037957E+04  0.18844369552E+03  0.15305963918E+04  0.46999998093E+01 0. -1.
       -5    1    3    3    0  502  0.10095472117E+04 -0.11349037957E+04  0.16072794318E+04  0.22114613856E+04  0.46999998093E+01 0.  1.
</event>
<event>
 5   0  0.6085351E-07  0.3276200E+04  0.7818609E-02  0.8168978E-01
        1   -1    0    0  501    0  0.00000000000E+00  0.00000000000E+00  0.20445783583E+04  0.20445783584E+04  0.50400001928E-02 0. -1.
       -1   -1    0    0    0  501  0.00000000000E+00  0.00000000000E+00 -0.13124328948E+04  0.13124328948E+04  0.50400001928E-02 0.  1.
    10030    2    1    2    0    0  0.00000000000E+00  0.00000000000E+00  0.73214546352E+03  0.33570112532E+04  0.32762001731E+04 0.  0.
        1    1    3    3  502    0 -0.10959283821E+04  0.69457230358E+03  0.13906784717E+04  0.19019664338E+04  0.50400001928E-02 0. -1.
       -1    1    3    3    0  502  0.10959283821E+04 -0.69457230358E+03 -0.65853300821E+03  0.14550448194E+04  0.50400001928E-02 0.  1.
</event>
<event>
 5   0  0.1728937E-06  0.3242105E+04  0.7818609E-02  0.8177785E-01
        2   -1    0    0  501    0  0.00000000000E+00  0.00000000000E+00  0.11999683884E+04  0.11999683884E+04  0.25500000920E-02 0. -1.
       -2   -1    0    0    0  501  0.00000000000E+00  0.00000000000E+00 -0.21899000333E+04  0.21899000333E+04  0.25500000920E-02 0.  1.
    10030    2    1    2    0    0  0.00000000000E+00  0.00000000000E+00 -0.98993164483E+03  0.33898684217E+04  0.32421047569E+04 0.  0.
        1    1    3    3  502    0 -0.15284711079E+04  0.41418007348E+03 -0.13270450532E+03  0.15891442813E+04  0.50400001928E-02 0. -1.
       -1    1    3    3    0  502  0.15284711079E+04 -0.41418007348E+03 -0.85722713951E+03  0.18007241404E+04  0.50400001928E-02 0.  1.
</event>
<event>
 5   0  0.5985183E-07  0.3345196E+04  0.7818609E-02  0.8151490E-01
        1   -1    0    0  501    0  0.00000000000E+00  0.00000000000E+00  0.20098588339E+04  0.20098588339E+04  0.50400001928E-02 0. -1.
       -1   -1    0    0    0  501  0.00000000000E+00  0.00000000000E+00 -0.13919305201E+04  0.13919305201E+04  0.50400001928E-02 0.  1.
    10030    2    1    2    0    0  0.00000000000E+00  0.00000000000E+00  0.61792831381E+03  0.34017893540E+04  0.33451958699E+04 0.  0.
        2    1    3    3  502    0  0.14263053713E+04  0.86100287251E+03  0.45949167710E+03  0.17282377036E+04  0.25500000920E-02 0.  1.
       -2    1    3    3    0  502 -0.14263053713E+04 -0.86100287251E+03  0.15843663671E+03  0.16735516504E+04  0.25500000920E-02 0. -1.
</event>
<event>
 5   0  0.5985183E-07  0.3039883E+04  0.7818609E-02  0.8232433E-01
       -1   -1    0    0    0  501  0.00000000000E+00  0.00000000000E+00  0.16648090812E+04  0.16648090812E+04  0.50400001928E-02 0.  1.
        1   -1    0    0  501    0  0.00000000000E+00  0.00000000000E+00 -0.13876797720E+04  0.13876797720E+04  0.50400001928E-02 0. -1.
    10030    2    1    2    0    0  0.00000000000E+00  0.00000000000E+00  0.27712930920E+03  0.30524888533E+04  0.30398828177E+04 0.  0.
        2    1    3    3  502    0 -0.29584328008E+03  0.25337460826E+03 -0.13367113048E+04  0.13923070964E+04  0.25500000920E-02 0. -1.
       -2    1    3    3    0  502  0.29584328008E+03 -0.25337460826E+03  0.16138406140E+04  0.16601817568E+04  0.25500000920E-02 0.  1.
</event>
<event>
 5   0  0.6023446E-07  0.3311875E+04  0.7818609E-02  0.8159880E-01
       -1   -1    0    0    0  501  0.00000000000E+00  0.00000000000E+00  0.17950105072E+04  0.17950105072E+04  0.50400001928E-02 0.  1.
        1   -1    0    0  501    0  0.00000000000E+00  0.00000000000E+00 -0.15276393244E+04  0.15276393244E+04  0.50400001928E-02 0. -1.
    10030    2    1    2    0    0  0.00000000000E+00  0.00000000000E+00  0.26737118281E+03  0.33226498315E+04  0.33118747793E+04 0.  0.
        5    1    3    3  502    0 -0.15860478761E+03  0.24655391167E+03  0.17687616720E+04  0.17928982827E+04  0.46999998093E+01 0.  1.
       -5    1    3    3    0  502  0.15860478761E+03 -0.24655391167E+03 -0.15013904892E+04  0.15297515488E+04  0.46999998093E+01 0. -1.
</event>
<event>
 5   0  0.6023446E-07  0.3295988E+04  0.7818609E-02  0.8163917E-01
       -1   -1    0    0    0  501  0.00000000000E+00  0.00000000000E+00  0.13675859058E+04  0.13675859058E+04  0.50400001928E-02 0.  1.
        1   -1    0    0  501    0  0.00000000000E+00  0.00000000000E+00 -0.19858965162E+04  0.19858965162E+04  0.50400001928E-02 0. -1.
    10030    2    1    2    0    0  0.00000000000E+00  0.00000000000E+00 -0.61831061034E+03  0.33534824220E+04  0.32959879162E+04 0.  0.
        5    1    3    3  502    0  0.87082789985E+03  0.85832592603E+03  0.81501527585E+03  0.14694681406E+04  0.46999998093E+01 0.  1.
       -5    1    3    3    0  502 -0.87082789985E+03 -0.85832592603E+03 -0.14333258862E+04  0.18840142814E+04  0.46999998093E+01 0. -1.
</event>
<event>
 5   0  0.5988516E-07  0.3289867E+04  0.7818609E-02  0.8165479E-01
       -1   -1    0    0    0  501  0.00000000000E+00  0.00000000000E+00  0.17004321312E+04  0.17004321312E+04  0.50400001928E-02 0.  1.
        1   -1    0    0  501    0  0.00000000000E+00  0.00000000000E+00 -0.15912458330E+04  0.15912458330E+04  0.50400001928E-02 0. -1.
    10030    2    1    2    0    0  0.00000000000E+00  0.00000000000E+00  0.10918629823E+03  0.32916779643E+04  0.32898665889E+04 0.  0.
        4    1    3    3  502    0 -0.74692506371E+03  0.48762289025E+01 -0.14117795760E+04  0.15971988018E+04  0.12699999809E+01 0. -1.
       -4    1    3    3    0  502  0.74692506371E+03 -0.48762289025E+01  0.15209658742E+04  0.16944791624E+04  0.12699999809E+01 0.  1.
</event>
<event>
 5   0  0.1696681E-06  0.3255176E+04  0.7818609E-02  0.8174395E-01
        2   -1    0    0  501    0  0.00000000000E+00  0.00000000000E+00  0.26263326830E+04  0.26263326830E+04  0.25500000920E-02 0.  1.
       -2   -1    0    0    0  501  0.00000000000E+00  0.00000000000E+00 -0.10086469027E+04  0.10086469027E+04  0.25500000920E-02 0. -1.
    10030    2    1    2    0    0  0.00000000000E+00  0.00000000000E+00  0.16176857803E+04  0.36349795857E+04  0.32551757717E+04 0.  0.
        4    1    3    3  502    0 -0.56112952616E+03 -0.16493174406E+03 -0.88724628721E+03  0.10626741798E+04  0.12699999809E+01 0. -1.
       -4    1    3    3    0  502  0.56112952616E+03  0.16493174406E+03  0.25049320675E+04  0.25723054059E+04  0.12699999809E+01 0.  1.
</event>
<event>
 5   0  0.1728937E-06  0.3294581E+04  0.7818609E-02  0.8164276E-01
       -2   -1    0    0    0  501  0.00000000000E+00  0.00000000000E+00  0.15015359692E+04  0.15015359692E+04  0.25500000920E-02 0. -1.
        2   -1    0    0  501    0  0.00000000000E+00  0.00000000000E+00 -0.18071936724E+04  0.18071936724E+04  0.25500000920E-02 0.  1.
    10030    2    1    2    0    0  0.00000000000E+00  0.00000000000E+00 -0.30565770320E+03  0.33087296417E+04  0.32945811889E+04 0.  0.
        1    1    3    3  502    0 -0.82477084152E+03  0.14130906453E+04 -0.34468376639E+03  0.16720882189E+04  0.50400001928E-02 0.  1.
       -1    1    3    3    0  502  0.82477084152E+03 -0.14130906453E+04  0.39026063186E+02  0.16366414227E+04  0.50400001928E-02 0. -1.
</event>
<event>
 5   0  0.1743810E-06  0.3340426E+04  0.7818609E-02  0.8152685E-01
        2   -1    0    0  501    0  0.00000000000E+00  0.00000000000E+00  0.19481814784E+04  0.19481814784E+04  0.25500000920E-02 0.  1.
       -2   -1    0    0    0  501  0.00000000000E+00  0.00000000000E+00 -0.14319049316E+04  0.14319049316E+04  0.25500000920E-02 0. -1.
    10030    2    1    2    0    0  0.00000000000E+00  0.00000000000E+00  0.51627654685E+03  0.33800864100E+04  0.33404255217E+04 0.  0.
        5    1    3    3  502    0  0.45022140132E+02  0.15597101851E+04  0.86091716469E+03  0.17821120360E+04  0.46999998093E+01 0.  1.
       -5    1    3    3    0  502 -0.45022140132E+02 -0.15597101851E+04 -0.34464061783E+03  0.15979743740E+04  0.46999998093E+01 0. -1.
</event>
<event>
 5   0  0.1784626E-06  0.3277846E+04  0.7818609E-02  0.8168555E-01
        2   -1    0    0  501    0  0.00000000000E+00  0.00000000000E+00  0.24643565549E+04  0.24643565549E+04  0.25500000920E-02 0. -1.
       -2   -1    0    0    0  501  0.00000000000E+00  0.00000000000E+00 -0.10899678207E+04  0.10899678207E+04  0.25500000920E-02 0.  1.
    10030    2    1    2    0    0  0.00000000000E+00  0.00000000000E+00  0.13743887342E+04  0.35543243756E+04  0.32778464538E+04 0.  0.
        2    1    3    3  502    0 -0.74886674795E+03  0.39114564942E+03 -0.83563755091E+03  0.11883124344E+04  0.25500000920E-02 0.  1.
       -2    1    3    3    0  502  0.74886674795E+03 -0.39114564942E+03  0.22100262851E+04  0.23660119412E+04  0.25500000920E-02 0. -1.
</event>
<event>
 5   0  0.5985183E-07  0.3331806E+04  0.7818609E-02  0.8154849E-01
       -1   -1    0    0    0  501  0.00000000000E+00  0.00000000000E+00  0.11547644426E+04  0.11547644426E+04  0.50400001928E-02 0. -1.
        1   -1    0    0  501    0  0.00000000000E+00  0.00000000000E+00 -0.24032891228E+04  0.24032891228E+04  0.50400001928E-02 0.  1.
    10030    2    1    2    0    0  0.00000000000E+00  0.00000000000E+00 -0.12485246802E+04  0.35580535655E+04  0.33318060114E+04 0.  0.
        2    1    3    3  502    0 -0.91400700873E+03 -0.52198237858E+03  0.75468365104E+03  0.12951532067E+04  0.25500000920E-02 0. -1.
       -2    1    3    3    0  502  0.91400700873E+03  0.52198237858E+03 -0.20032083312E+04  0.22629003588E+04  0.25500000920E-02 0.  1.
</event>
<event>
 5   0  0.6085351E-07  0.3321877E+04  0.7818609E-02  0.8157351E-01
       -1   -1    0    0    0  501  0.00000000000E+00  0.00000000000E+00  0.17388265457E+04  0.17388265457E+04  0.50400001928E-02 0. -1.
        1   -1    0    0  501    0  0.00000000000E+00  0.00000000000E+00 -0.15865392732E+04  0.15865392732E+04  0.50400001928E-02 0.  1.
    10030    2    1    2    0    0  0.00000000000E+00  0.00000000000E+00  0.15228727246E+03  0.33253658189E+04  0.33218769418E+04 0.  0.
        1    1    3    3  502    0 -0.39802103167E+03  0.31290733032E+03 -0.15074105937E+04  0.15901630221E+04  0.50400001928E-02 0.  1.
       -1    1    3    3    0  502  0.39802103167E+03 -0.31290733032E+03  0.16596978661E+04  0.17352027968E+04  0.50400001928E-02 0. -1.
</event>
<event>
 5   0  0.1743810E-06  0.3273659E+04  0.7818609E-02  0.8169630E-01
        2   -1    0    0  501    0  0.00000000000E+00  0.00000000000E+00  0.24128977250E+04  0.24128977250E+04  0.25500000920E-02 0.  1.
       -2   -1    0    0    0  501  0.00000000000E+00  0.00000000000E+00 -0.11103704798E+04  0.11103704798E+04  0.25500000920E-02 0. -1.
    10030    2    1    2    0    0  0.00000000000E+00  0.00000000000E+00  0.13025272453E+04  0.35232682048E+04  0.32736587511E+04 0.  0.
        5    1    3    3  502    0  0.11322103370E+04 -0.49238405815E+03  0.18078400509E+04  0.21892121979E+04  0.46999998093E+01 0.  1.
       -5    1    3    3    0  502 -0.11322103370E+04  0.49238405815E+03 -0.50531280562E+03  0.13340560069E+04  0.46999998093E+01 0. -1.
</event>
<event>
 5   0  0.1728937E-06  0.3298033E+04  0.7818609E-02  0.8163396E-01
        2   -1    0    0  501    0  0.00000000000E+00  0.00000000000E+00  0.26694147902E+04  0.26694147902E+04  0.25500000920E-02 0. -1.
       -2   -1    0    0    0  501  0.00000000000E+00  0.00000000000E+00 -0.10186709096E+04  0.10186709096E+04  0.25500000920E-02 0.  1.
    10030    2    1    2    0    0  0.00000000000E+00  0.00000000000E+00  0.16507438806E+04  0.36880856998E+04  0.32980328636E+04 0.  0.
        1    1    3    3  502    0  0.15494075305E+04 -0.52319984902E+03  0.10622057939E+04  0.19500469036E+04  0.50400001928E-02 0. -1.
       -1    1    3    3    0  502 -0.15494075305E+04  0.52319984902E+03  0.58853808669E+03  0.17380387962E+04  0.50400001928E-02 0.  1.
</event>
<event>
 5   0  0.6023446E-07  0.3286412E+04  0.7818609E-02  0.8166361E-01
        1   -1    0    0  501    0  0.00000000000E+00  0.00000000000E+00  0.19307951044E+04  0.19307951044E+04  0.50400001928E-02 0.  1.
       -1   -1    0    0    0  501  0.00000000000E+00  0.00000000000E+00 -0.13984528554E+04  0.13984528554E+04  0.50400001928E-02 0. -1.
    10030    2    1    2    0    0  0.00000000000E+00  0.00000000000E+00  0.53234224895E+03  0.33292479598E+04  0.32864119809E+04 0.  0.
        5    1    3    3  502    0  0.16078111184E+04  0.87208718788E+02  0.59822682815E+03  0.17177192381E+04  0.46999998093E+01 0.  1.
       -5    1    3    3    0  502 -0.16078111184E+04 -0.87208718788E+02 -0.65884579193E+02  0.16115287217E+04  0.46999998093E+01 0. -1.
</event>
<event>
 5   0  0.5858859E-07  0.3331062E+04  0.7818609E-02  0.8155036E-01
        1   -1    0    0  501    0  0.00000000000E+00  0.00000000000E+00  0.20257086000E+04  0.20257086000E+04  0.50400001928E-02 0.  1.
       -1   -1    0    0    0  501  0.00000000000E+00  0.00000000000E+00 -0.13693944243E+04  0.13693944243E+04  0.50400001928E-02 0. -1.
    10030    2    1    2    0    0  0.00000000000E+00  0.00000000000E+00  0.65631417571E+03  0.33951030243E+04  0.33310623303E+04 0.  0.
        3    1    3    3  502    0  0.97033700272E+03  0.11920979610E+03 -0.10461839338E+04  0.14318748925E+04  0.10100000352E+00 0. -1.
       -3    1    3    3    0  502 -0.97033700272E+03 -0.11920979610E+03  0.17024981095E+04  0.19632281317E+04  0.10100000352E+00 0.  1.
</event>
<event>
 5   0  0.1743810E-06  0.3330934E+04  0.7818609E-02  0.8155069E-01
       -2   -1    0    0    0  501  0.00000000000E+00  0.00000000000E+00  0.20995825299E+04  0.20995825299E+04  0.25500000920E-02 0.  1.
        2   -1    0    0  501    0  0.00000000000E+00  0.00000000000E+00 -0.13211104776E+04  0.13211104776E+04  0.25500000920E-02 0. -1.
    10030    2    1    2    0    0  0.00000000000E+00  0.00000000000E+00  0.77847205233E+03  0.34206930075E+04  0.33309340905E+04 0.  0.
        5    1    3    3  502    0  0.85253305090E+03  0.14173154795E+04  0.58985275180E+03  0.17560023149E+04  0.46999998093E+01 0. -1.
       -5    1    3    3    0  502 -0.85253305090E+03 -0.14173154795E+04  0.18861930054E+03  0.16646906925E+04  0.46999998093E+01 0.  1.
</event>
<event>
 5   0  0.5858859E-07  0.3287595E+04  0.7818609E-02  0.8166059E-01
       -1   -1    0    0    0  501  0.00000000000E+00  0.00000000000E+00  0.14635753860E+04  0.14635753860E+04  0.50400001928E-02 0. -1.
        1   -1    0    0  501    0  0.00000000000E+00  0.00000000000E+00 -0.18462116027E+04  0.18462116027E+04  0.50400001928E-02 0.  1.
    10030    2    1    2    0    0  0.00000000000E+00  0.00000000000E+00 -0.38263621668E+03  0.33097869887E+04  0.32875947798E+04 0.  0.
        3    1    3    3  502    0 -0.45298268179E+03  0.18980869676E+03 -0.17706167524E+04  0.18374722706E+04  0.10100000352E+00 0.  1.
       -3    1    3    3    0  502  0.45298268179E+03 -0.18980869676E+03  0.13879805357E+04  0.14723147180E+04  0.10100000352E+00 0. -1.
</event>
<event>
 5   0  0.1743810E-06  0.3203646E+04  0.7818609E-02  0.8187855E-01
       -2   -1    0    0    0  501  0.00000000000E+00  0.00000000000E+00  0.10961715107E+04  0.10961715107E+04  0.25500000920E-02 0. -1.
        2   -1    0    0  501    0  0.00000000000E+00  0.00000000000E+00 -0.23407252559E+04  0.23407252559E+04  0.25500000920E-02 0.  1.
    10030    2    1    2    0    0  0.00000000000E+00  0.00000000000E+00 -0.12445537452E+04  0.34368967666E+04  0.32036456357E+04 0.  0.
        5    1    3    3  502    0 -0.13176265534E+04  0.81369132896E+03 -0.18310519666E+03  0.15594174926E+04  0.46999998093E+01 0.  1.
       -5    1    3    3    0  502  0.13176265534E+04 -0.81369132896E+03 -0.10614485486E+04  0.18774792740E+04  0.46999998093E+01 0. -1.
</event>
<event>
 5   0  0.5985183E-07  0.3294396E+04  0.7818609E-02  0.8164323E-01
        1   -1    0    0  501    0  0.00000000000E+00  0.00000000000E+00  0.18541761869E+04  0.18541761869E+04  0.50400001928E-02 0.  1.
       -1   -1    0    0    0  501  0.00000000000E+00  0.00000000000E+00 -0.14633246654E+04  0.14633246654E+04  0.50400001928E-02 0. -1.
    10030    2    1    2    0    0  0.00000000000E+00  0.00000000000E+00  0.39085152144E+03  0.33175008523E+04  0.32943963018E+04 0.  0.
        2    1    3    3  502    0 -0.36148459487E+03 -0.10747449157E+04  0.13985913147E+04  0.18005014334E+04  0.25500000920E-02 0.  1.
       -2    1    3    3    0  502  0.36148459487E+03  0.10747449157E+04 -0.10077397932E+04  0.15169994189E+04  0.25500000920E-02 0. -1.
</event>
<event>
 5   0  0.1728937E-06  0.3360918E+04  0.7818609E-02  0.8147565E-01
       -2   -1    0    0    0  501  0.00000000000E+00  0.00000000000E+00  0.11647845440E+04  0.11647845440E+04  0.25500000920E-02 0. -1.
        2   -1    0    0  501    0  0.00000000000E+00  0.00000000000E+00 -0.24244335930E+04  0.24244335930E+04  0.25500000920E-02 0.  1.
    10030    2    1    2    0    0  0.00000000000E+00  0.00000000000E+00 -0.12596490490E+04  0.35892181369E+04  0.33609181942E+04 0.  0.
        1    1    3    3  502    0 -0.56442033281E+03  0.15133113983E+04 -0.11253028554E+04  0.19684989756E+04  0.50400001928E-02 0.  1.
       -1    1    3    3    0  502  0.56442033281E+03 -0.15133113983E+04 -0.13434619359E+03  0.16207191614E+04  0.50400001928E-02 0. -1.
</event>
<event>
 5   0  0.5985183E-07  0.3351140E+04  0.7818609E-02  0.8150003E-01
       -1   -1    0    0    0  501  0.00000000000E+00  0.00000000000E+00  0.14629377170E+04  0.14629377170E+04  0.50400001928E-02 0. -1.
        1   -1    0    0  501    0  0.00000000000E+00  0.00000000000E+00 -0.19191076265E+04  0.19191076265E+04  0.50400001928E-02 0.  1.
    10030    2    1    2    0    0  0.00000000000E+00  0.00000000000E+00 -0.45616990945E+03  0.33820453435E+04  0.33511400626E+04 0.  0.
        2    1    3    3  502    0 -0.11480986167E+03 -0.87226575186E+03  0.12110767169E+04  0.14969087014E+04  0.25500000920E-02 0. -1.
       -2    1    3    3    0  502  0.11480986167E+03  0.87226575186E+03 -0.16672466264E+04  0.18851366421E+04  0.25500000920E-02 0.  1.
</event>
<event>
 5   0  0.1696681E-06  0.3311059E+04  0.7818609E-02  0.8160087E-01
        2   -1    0    0  501    0  0.00000000000E+00  0.00000000000E+00  0.13815283545E+04  0.13815283545E+04  0.25500000920E-02 0. -1.
       -2   -1    0    0    0  501  0.00000000000E+00  0.00000000000E+00 -0.19838741452E+04  0.19838741452E+04  0.25500000920E-02 0.  1.
    10030    2    1    2    0    0  0.00000000000E+00  0.00000000000E+00 -0.60234579072E+03  0.33654024997E+04  0.33110592766E+04 0.  0.
        4    1    3    3  502    0  0.11345496143E+04 -0.78217472153E+02 -0.15240216288E+04  0.19015689150E+04  0.12699999809E+01 0.  1.
       -4    1    3    3    0  502 -0.11345496143E+04  0.78217472153E+02  0.92167583809E+03  0.14638335847E+04  0.12699999809E+01 0. -1.
</event>
<event>
 5   0  0.5988516E-07  0.3320119E+04  0.7818609E-02  0.8157795E-01
        1   -1    0    0  501    0  0.00000000000E+00  0.00000000000E+00  0.16412819342E+04  0.16412819342E+04  0.50400001928E-02 0. -1.
       -1   -1    0    0    0  501  0.00000000000E+00  0.00000000000E+00 -0.16790516481E+04  0.16790516481E+04  0.50400001928E-02 0.  1.
    10030    2    1    2    0    0  0.00000000000E+00  0.00000000000E+00 -0.37769713893E+02  0.33203335823E+04  0.33201187549E+04 0.  0.
        4    1    3    3  502    0  0.32620262329E+03  0.34412119401E+03 -0.16098894195E+04  0.16782649086E+04  0.12699999809E+01 0.  1.
       -4    1    3    3    0  502 -0.32620262329E+03 -0.34412119401E+03  0.15721197056E+04  0.16420686737E+04  0.12699999809E+01 0. -1.
</event>
<event>
 5   0  0.5985183E-07  0.3280386E+04  0.7818609E-02  0.8167904E-01
       -1   -1    0    0    0  501  0.00000000000E+00  0.00000000000E+00  0.24940173227E+04  0.24940173227E+04  0.50400001928E-02 0. -1.
        1   -1    0    0  501    0  0.00000000000E+00  0.00000000000E+00 -0.10786746088E+04  0.10786746088E+04  0.50400001928E-02 0.  1.
    10030    2    1    2    0    0  0.00000000000E+00  0.00000000000E+00  0.14153427139E+04  0.35726919315E+04  0.32803860504E+04 0.  0.
        2    1    3    3  502    0  0.16208350493E+04 -0.97907631786E+02  0.45566363635E+03  0.16865116397E+04  0.25500000920E-02 0. -1.
       -2    1    3    3    0  502 -0.16208350493E+04  0.97907631786E+02  0.95967907755E+03  0.18861802918E+04  0.25500000920E-02 0.  1.
</event>
<event>
 5   0  0.6023446E-07  0.3332891E+04  0.7818609E-02  0.8154576E-01
       -1   -1    0    0    0  501  0.00000000000E+00  0.00000000000E+00  0.89231916715E+03  0.89231916716E+03  0.50400001928E-02 0. -1.
        1   -1    0    0  501    0  0.00000000000E+00  0.00000000000E+00 -0.31121614726E+04  0.31121614726E+04  0.50400001928E-02 0.  1.
    10030    2    1    2    0    0  0.00000000000E+00  0.00000000000E+00 -0.22198423054E+04  0.40044806397E+04  0.33328914373E+04 0.  0.
        5    1    3    3  502    0  0.14308373035E+04  0.21715724192E+03 -0.21025743438E+04  0.25525073199E+04  0.46999998093E+01 0.  1.
       -5    1    3    3    0  502 -0.14308373035E+04 -0.21715724192E+03 -0.11726796158E+03  0.14519733198E+04  0.46999998093E+01 0. -1.
</event>
<event>
 5   0  0.5985183E-07  0.3305603E+04  0.7818609E-02  0.8161471E-01
       -1   -1    0    0    0  501  0.00000000000E+00  0.00000000000E+00  0.10234941001E+04  0.10234941001E+04  0.50400001928E-02 0. -1.
        1   -1    0    0  501    0  0.00000000000E+00  0.00000000000E+00 -0.26690460850E+04  0.26690460850E+04  0.50400001928E-02 0.  1.
    10030    2    1    2    0    0  0.00000000000E+00  0.00000000000E+00 -0.16455519849E+04  0.36925401851E+04  0.33056030741E+04 0.  0.
        2    1    3    3  502    0 -0.13118621340E+04 -0.77818032862E+03 -0.15338461967E+04  0.21631530315E+04  0.25500000920E-02 0. -1.
       -2    1    3    3    0  502  0.13118621340E+04  0.77818032862E+03 -0.11170578820E+03  0.15293871536E+04  0.25500000920E-02 0.  1.
</event>
<event>
 5   0  0.5858859E-07  0.3298531E+04  0.7818609E-02  0.8163269E-01
        1   -1    0    0  501    0  0.00000000000E+00  0.00000000000E+00  0.23016607648E+04  0.23016607648E+04  0.50400001928E-02 0. -1.
       -1   -1    0    0    0  501  0.00000000000E+00  0.00000000000E+00 -0.11817889718E+04  0.11817889718E+04  0.50400001928E-02 0.  1.
    10030    2    1    2    0    0  0.00000000000E+00  0.00000000000E+00  0.11198717930E+04  0.34834497366E+04  0.32985313754E+04 0.  0.
        3    1    3    3  502    0 -0.78203595211E+03  0.14447875446E+04  0.71328675987E+03  0.17910246485E+04  0.10100000352E+00 0.  1.
       -3    1    3    3    0  502  0.78203595211E+03 -0.14447875446E+04  0.40658503313E+03  0.16924250881E+04  0.10100000352E+00 0. -1.
</event>
<event>
 5   0  0.6023446E-07  0.3296131E+04  0.7818609E-02  0.8163881E-01
        1   -1    0    0  501    0  0.00000000000E+00  0.00000000000E+00  0.11830126098E+04  0.11830126098E+04  0.50400001928E-02 0.  1.
       -1   -1    0    0    0  501  0.00000000000E+00  0.00000000000E+00 -0.22959342682E+04  0.22959342682E+04  0.50400001928E-02 0. -1.
    10030    2    1    2    0    0  0.00000000000E+00  0.00000000000E+00 -0.11129216583E+04  0.34789468780E+04  0.32961305742E+04 0.  0.
        5    1    3    3  502    0  0.13901789827E+04 -0.41881088187E+03  0.26659595552E+03  0.14761760235E+04  0.46999998093E+01 0.  1.
       -5    1    3    3    0  502 -0.13901789827E+04  0.41881088187E+03 -0.13795176139E+04  0.20027708545E+04  0.46999998093E+01 0. -1.
</event>
<event>
 5   0  0.6023446E-07  0.3328333E+04  0.7818609E-02  0.8155723E-01
       -1   -1    0    0    0  501  0.00000000000E+00  0.00000000000E+00  0.14146968988E+04  0.14146968988E+04  0.50400001928E-02 0. -1.
        1   -1    0    0  501    0  0.00000000000E+00  0.00000000000E+00 -0.19576281400E+04  0.19576281400E+04  0.50400001928E-02 0.  1.
    10030    2    1    2    0    0  0.00000000000E+00  0.00000000000E+00 -0.54293124114E+03  0.33723250388E+04  0.33283331917E+04 0.  0.
        5    1    3    3  502    0 -0.69321884937E+01 -0.64566939028E+03  0.12825903238E+04  0.14359655446E+04  0.46999998093E+01 0. -1.
       -5    1    3    3    0  502  0.69321884937E+01  0.64566939028E+03 -0.18255215649E+04  0.19363594942E+04  0.46999998093E+01 0.  1.
</event>
<event>
 5   0  0.6023446E-07  0.3315487E+04  0.7818609E-02  0.8158966E-01
       -1   -1    0    0    0  501  0.00000000000E+00  0.00000000000E+00  0.12139794530E+04  0.12139794530E+04  0.50400001928E-02 0. -1.
        1   -1    0    0  501    0  0.00000000000E+00  0.00000000000E+00 -0.22637229248E+04  0.22637229248E+04  0.50400001928E-02 0.  1.
    10030    2    1    2    0    0  0.00000000000E+00  0.00000000000E+00 -0.10497434718E+04  0.34777023778E+04  0.33154867625E+04 0.  0.
        5    1    3    3  502    0 -0.89926495480E+03  0.25357252879E+03 -0.19612175562E+04  0.21724117655E+04  0.46999998093E+01 0.  1.
       -5    1    3    3    0  502  0.89926495480E+03 -0.25357252879E+03  0.91147408433E+03  0.13052906123E+04  0.46999998093E+01 0. -1.
</event>
<event>
 5   0  0.1696681E-06  0.3310675E+04  0.7818609E-02  0.8160184E-01
       -2   -1    0    0    0  501  0.00000000000E+00  0.00000000000E+00  0.13518519166E+04  0.13518519166E+04  0.25500000920E-02 0. -1.
        2   -1    0    0  501    0  0.00000000000E+00  0.00000000000E+00 -0.20269547153E+04  0.20269547153E+04  0.25500000920E-02 0.  1.
    10030    2    1    2    0    0  0.00000000000E+00  0.00000000000E+00 -0.67510279871E+03  0.33788066319E+04  0.33106752283E+04 0.  0.
        4    1    3    3  502    0  0.31195162652E+03 -0.12909184098E+04 -0.13459936814E+04  0.18908952275E+04  0.12699999809E+01 0.  1.
       -4    1    3    3    0  502 -0.31195162652E+03  0.12909184098E+04  0.67089088266E+03  0.14879114044E+04  0.12699999809E+01 0. -1.
</event>
<event>
 5   0  0.5988516E-07  0.3257212E+04  0.7818609E-02  0.8173869E-01
       -1   -1    0    0    0  501  0.00000000000E+00  0.00000000000E+00  0.18418647143E+04  0.18418647143E+04  0.50400001928E-02 0.  1.
        1   -1    0    0  501    0  0.00000000000E+00  0.00000000000E+00 -0.14400393434E+04  0.14400393434E+04  0.50400001928E-02 0. -1.
    10030    2    1    2    0    0  0.00000000000E+00  0.00000000000E+00  0.40182537094E+03  0.32819040577E+04  0.32572120924E+04 0.  0.
        4    1    3    3  502    0  0.66972567493E+03  0.14436192031E+04 -0.14781383182E+03  0.15982551188E+04  0.12699999809E+01 0. -1.
       -4    1    3    3    0  502 -0.66972567493E+03 -0.14436192031E+04  0.54963920276E+03  0.16836489388E+04  0.12699999809E+01 0.  1.
</event>
<event>
 5   0  0.1832626E-06  0.3287967E+04  0.7818609E-02  0.8165964E-01
        2   -1    0    0  501    0  0.00000000000E+00  0.00000000000E+00  0.16839578350E+04  0.16839578350E+04  0.25500000920E-02 0. -1.
       -2   -1    0    0    0  501  0.00000000000E+00  0.00000000000E+00 -0.16049578092E+04  0.16049578092E+04  0.25500000920E-02 0.  1.
    10030    2    1    2    0    0  0.00000000000E+00  0.00000000000E+00  0.79000025819E+02  0.32889156442E+04  0.32879667138E+04 0.  0.
        3    1    3    3  502    0  0.16420703141E+04 -0.52690330748E+02  0.98763041047E+02  0.16458813250E+04  0.10100000352E+00 0. -1.
       -3    1    3    3    0  502 -0.16420703141E+04  0.52690330748E+02 -0.19763015228E+02  0.16430343193E+04  0.10100000352E+00 0.  1.
</event>
<event>
 5   0  0.1728937E-06  0.3291986E+04  0.7818609E-02  0.8164938E-01
        2   -1    0    0  501    0  0.00000000000E+00  0.00000000000E+00  0.22389669595E+04  0.22389669595E+04  0.25500000920E-02 0.  1.
       -2   -1    0    0    0  501  0.00000000000E+00  0.00000000000E+00 -0.12100635363E+04  0.12100635363E+04  0.25500000920E-02 0. -1.
    10030    2    1    2    0    0  0.00000000000E+00  0.00000000000E+00  0.10289034233E+04  0.34490304958E+04  0.32919855873E+04 0.  0.
        1    1    3    3  502    0 -0.11019789013E+04 -0.33930371712E+03 -0.71623752276E+03  0.13573800869E+04  0.50400001928E-02 0. -1.
       -1    1    3    3    0  502  0.11019789013E+04  0.33930371712E+03  0.17451409460E+04  0.20916504089E+04  0.50400001928E-02 0.  1.
</event>
<event>
 5   0  0.5988516E-07  0.3314578E+04  0.7818609E-02  0.8159196E-01
        1   -1    0    0  501    0  0.00000000000E+00  0.00000000000E+00  0.16100414321E+04  0.16100414321E+04  0.50400001928E-02 0.  1.
       -1   -1    0    0    0  501  0.00000000000E+00  0.00000000000E+00 -0.17059230402E+04  0.17059230403E+04  0.50400001928E-02 0. -1.
    10030    2    1    2    0    0  0.00000000000E+00  0.00000000000E+00 -0.95881608189E+02  0.33159644723E+04  0.33145779669E+04 0.  0.
        4    1    3    3  502    0 -0.10181165816E+04 -0.22094836761E+03  0.12414837561E+04  0.16206983323E+04  0.12699999809E+01 0.  1.
       -4    1    3    3    0  502  0.10181165816E+04  0.22094836761E+03 -0.13373653643E+04  0.16952661400E+04  0.12699999809E+01 0. -1.
</event>
<event>
 5   0  0.1728937E-06  0.3307016E+04  0.7818609E-02  0.8161112E-01
       -2   -1    0    0    0  501  0.00000000000E+00  0.00000000000E+00  0.14256318143E+04  0.14256318143E+04  0.25500000920E-02 0. -1.
        2   -1    0    0  501    0  0.00000000000E+00  0.00000000000E+00 -0.19178085803E+04  0.19178085803E+04  0.25500000920E-02 0.  1.
    10030    2    1    2    0    0  0.00000000000E+00  0.00000000000E+00 -0.49217676599E+03  0.33434403945E+04  0.33070161328E+04 0.  0.
        1    1    3    3  502    0  0.97344430274E+03 -0.12116792816E+04 -0.81650870278E+03  0.17556898797E+04  0.50400001928E-02 0.  1.
       -1    1    3    3    0  502 -0.97344430274E+03  0.12116792816E+04  0.32433193679E+03  0.15877505148E+04  0.50400001928E-02 0. -1.
</event>
<event>
 5   0  0.1728937E-06  0.3350876E+04  0.7818609E-02  0.8150069E-01
        2   -1    0    0  501    0  0.00000000000E+00  0.00000000000E+00  0.17996827179E+04  0.17996827179E+04  0.25500000920E-02 0. -1.
       -2   -1    0    0    0  501  0.00000000000E+00  0.00000000000E+00 -0.15597706504E+04  0.15597706505E+04  0.25500000920E-02 0.  1.
    10030    2    1    2    0    0  0.00000000000E+00  0.00000000000E+00  0.23991206745E+03  0.33594533684E+04  0.33508758757E+04 0.  0.
        1    1    3    3  502    0  0.73691285107E+03  0.86726230284E+03  0.13527001393E+04  0.17677618954E+04  0.50400001928E-02 0. -1.
       -1    1    3    3    0  502 -0.73691285107E+03 -0.86726230284E+03 -0.11127880719E+04  0.15916914729E+04  0.50400001928E-02 0.  1.
</event>
<event>
 5   0  0.5985183E-07  0.3278909E+04  0.7818609E-02  0.8168283E-01
        1   -1    0    0  501    0  0.00000000000E+00  0.00000000000E+00  0.16443809985E+04  0.16443809985E+04  0.50400001928E-02 0. -1.
       -1   -1    0    0    0  501  0.00000000000E+00  0.00000000000E+00 -0.16345429157E+04  0.16345429157E+04  0.50400001928E-02 0.  1.
    10030    2    1    2    0    0  0.00000000000E+00  0.00000000000E+00  0.98380827956E+01  0.32789239143E+04  0.32789091551E+04 0.  0.
        2    1    3    3  502    0 -0.12043372760E+04 -0.11004551788E+04  0.16734340672E+03  0.16399492952E+04  0.25500000920E-02 0. -1.
       -2    1    3    3    0  502  0.12043372760E+04  0.11004551788E+04 -0.15750532392E+03  0.16389746191E+04  0.25500000920E-02 0.  1.
</event>
<event>
 5   0  0.1728937E-06  0.2897471E+04  0.7818609E-02  0.8273630E-01
        2   -1    0    0  501    0  0.00000000000E+00  0.00000000000E+00  0.19850231444E+04  0.19850231444E+04  0.25500000920E-02 0.  1.
       -2   -1    0    0    0  501  0.00000000000E+00  0.00000000000E+00 -0.10573352230E+04  0.10573352230E+04  0.25500000920E-02 0. -1.
    10030    2    1    2    0    0  0.00000000000E+00  0.00000000000E+00  0.92768792137E+03  0.30423583675E+04  0.28974712348E+04 0.  0.
        1    1    3    3  502    0 -0.32035925300E+03  0.13744876345E+04  0.80729113645E+03  0.16259044521E+04  0.50400001928E-02 0.  1.
       -1    1    3    3    0  502  0.32035925300E+03 -0.13744876345E+04  0.12039678492E+03  0.14164539153E+04  0.50400001928E-02 0. -1.
</event>
<event>
 5   0  0.5988516E-07  0.3306670E+04  0.7818609E-02  0.8161200E-01
        1   -1    0    0  501    0  0.00000000000E+00  0.00000000000E+00  0.13469967338E+04  0.13469967338E+04  0.50400001928E-02 0. -1.
       -1   -1    0    0    0  501  0.00000000000E+00  0.00000000000E+00 -0.20293422807E+04  0.20293422807E+04  0.50400001928E-02 0.  1.
    10030    2    1    2    0    0  0.00000000000E+00  0.00000000000E+00 -0.68234554693E+03  0.33763390145E+04  0.33066704849E+04 0.  0.
        4    1    3    3  502    0 -0.85356399062E+03  0.16549154215E+03 -0.17770576443E+04  0.19783564948E+04  0.12699999809E+01 0.  1.
       -4    1    3    3    0  502  0.85356399062E+03 -0.16549154215E+03  0.10947120973E+04  0.13979825198E+04  0.12699999809E+01 0. -1.
</event>
<event>
 5   0  0.5985183E-07  0.3299680E+04  0.7818609E-02  0.8162977E-01
       -1   -1    0    0    0  501  0.00000000000E+00  0.00000000000E+00  0.95609537358E+03  0.95609537360E+03  0.50400001928E-02 0.  1.
        1   -1    0    0  501    0  0.00000000000E+00  0.00000000000E+00 -0.28469675999E+04  0.28469675999E+04  0.50400001928E-02 0. -1.
    10030    2    1    2    0    0  0.00000000000E+00  0.00000000000E+00 -0.18908722263E+04  0.38030629735E+04  0.32996803185E+04 0.  0.
        2    1    3    3  502    0  0.12661979950E+04  0.15286269836E+03  0.26081505443E+03  0.13017867950E+04  0.25500000920E-02 0.  1.
       -2    1    3    3    0  502 -0.12661979950E+04 -0.15286269836E+03 -0.21516872807E+04  0.25012761785E+04  0.25500000920E-02 0. -1.
</event>
<event>
 5   0  0.6085351E-07  0.3167389E+04  0.7818609E-02  0.8197483E-01
        1   -1    0    0  501    0  0.00000000000E+00  0.00000000000E+00  0.18989648226E+04  0.18989648226E+04  0.50400001928E-02 0.  1.
       -1   -1    0    0    0  501  0.00000000000E+00  0.00000000000E+00 -0.13207662545E+04  0.13207662545E+04  0.50400001928E-02 0. -1.
    10030    2    1    2    0    0  0.00000000000E+00  0.00000000000E+00  0.57819856803E+03  0.32197310771E+04  0.31673892443E+04 0.  0.
        1    1    3    3  502    0 -0.11919251045E+03 -0.89329820248E+03  0.16128868504E+04  0.18475910060E+04  0.50400001928E-02 0.  1.
       -1    1    3    3    0  502  0.11919251045E+03  0.89329820248E+03 -0.10346882824E+04  0.13721400711E+04  0.50400001928E-02 0. -1.
</event>
<event>
 5   0  0.1728937E-06  0.3235514E+04  0.7818609E-02  0.8179500E-01
        2   -1    0    0  501    0  0.00000000000E+00  0.00000000000E+00  0.13894898363E+04  0.13894898363E+04  0.25500000920E-02 0.  1.
       -2   -1    0    0    0  501  0.00000000000E+00  0.00000000000E+00 -0.18835246182E+04  0.18835246182E+04  0.25500000920E-02 0. -1.
    10030    2    1    2    0    0  0.00000000000E+00  0.00000000000E+00 -0.49403478185E+03  0.32730144545E+04  0.32355143723E+04 0.  0.
        1    1    3    3  502    0 -0.88326889649E+03  0.13477727684E+04 -0.39179475976E+03  0.16583601878E+04  0.50400001928E-02 0. -1.
       -1    1    3    3    0  502  0.88326889649E+03 -0.13477727684E+04 -0.10224002209E+03  0.16146542667E+04  0.50400001928E-02 0.  1.
</event>
<event>
 5   0  0.6085351E-07  0.3366379E+04  0.7818609E-02  0.8146208E-01
        1   -1    0    0  501    0  0.00000000000E+00  0.00000000000E+00  0.18978112132E+04  0.18978112132E+04  0.50400001928E-02 0.  1.
       -1   -1    0    0    0  501  0.00000000000E+00  0.00000000000E+00 -0.14928390790E+04  0.14928390791E+04  0.50400001928E-02 0. -1.
    10030    2    1    2    0    0  0.00000000000E+00  0.00000000000E+00  0.40497213417E+03  0.33906502923E+04  0.33663789114E+04 0.  0.
        1    1    3    3  502    0  0.11102077565E+04  0.65389868346E+03 -0.88836553671E+03  0.15650361266E+04  0.50400001928E-02 0. -1.
       -1    1    3    3    0  502 -0.11102077565E+04 -0.65389868346E+03  0.12933376709E+04  0.18256141656E+04  0.50400001928E-02 0.  1.
</event>
<event>
 5   0  0.5988516E-07  0.3389385E+04  0.7818609E-02  0.8140516E-01
        1   -1    0    0  501    0  0.00000000000E+00  0.00000000000E+00  0.20664331423E+04  0.20664331424E+04  0.50400001928E-02 0.  1.
       -1   -1    0    0    0  501  0.00000000000E+00  0.00000000000E+00 -0.13898263786E+04  0.13898263786E+04  0.50400001928E-02 0. -1.
    10030    2    1    2    0    0  0.00000000000E+00  0.00000000000E+00  0.67660676375E+03  0.34562595210E+04  0.33893853666E+04 0.  0.
        4    1    3    3  502    0 -0.16594857886E+03 -0.52497738665E+02  0.20572939543E+04  0.20646440301E+04  0.12699999809E+01 0.  1.
       -4    1    3    3    0  502  0.16594857886E+03  0.52497738665E+02 -0.13806871906E+04  0.13916154909E+04  0.12699999809E+01 0. -1.
</event>
<event>
 5   0  0.1784626E-06  0.3358891E+04  0.7818609E-02  0.8148070E-01
       -2   -1    0    0    0  501  0.00000000000E+00  0.00000000000E+00  0.13997414709E+04  0.13997414709E+04  0.25500000920E-02 0.  1.
        2   -1    0    0  501    0  0.00000000000E+00  0.00000000000E+00 -0.20150413506E+04  0.20150413506E+04  0.25500000920E-02 0. -1.
    10030    2    1    2    0    0  0.00000000000E+00  0.00000000000E+00 -0.61529987972E+03  0.34147828215E+04  0.33588908551E+04 0.  0.
        2    1    3    3  502    0 -0.49915770960E+03 -0.56709546934E+03 -0.18325358194E+04  0.19821562047E+04  0.25500000920E-02 0. -1.
       -2    1    3    3    0  502  0.49915770960E+03  0.56709546934E+03  0.12172359397E+04  0.14326266168E+04  0.25500000920E-02 0.  1.
</event>
<event>
 5   0  0.1784626E-06  0.3226099E+04  0.7818609E-02  0.8181958E-01
        2   -1    0    0  501    0  0.00000000000E+00  0.00000000000E+00  0.14714216782E+04  0.14714216782E+04  0.25500000920E-02 0. -1.
       -2   -1    0    0    0  501  0.00000000000E+00  0.00000000000E+00 -0.17683093374E+04  0.17683093374E+04  0.25500000920E-02 0.  1.
    10030    2    1    2    0    0  0.00000000000E+00  0.00000000000E+00 -0.29688765921E+03  0.32397310156E+04  0.32260990021E+04 0.  0.
        2    1    3    3  502    0 -0.25956240385E+03 -0.54253268647E+03 -0.16515029002E+04  0.17576052420E+04  0.25500000920E-02 0.  1.
       -2    1    3    3    0  502  0.25956240385E+03  0.54253268647E+03  0.13546152410E+04  0.14821257735E+04  0.25500000920E-02 0. -1.
</event>
<event>
 5   0  0.1743810E-06  0.3287911E+04  0.7818609E-02  0.8165978E-01
       -2   -1    0    0    0  501  0.00000000000E+00  0.00000000000E+00  0.21788899274E+04  0.21788899274E+04  0.25500000920E-02 0.  1.
        2   -1    0    0  501    0  0.00000000000E+00  0.00000000000E+00 -0.12403518194E+04  0.12403518194E+04  0.25500000920E-02 0. -1.
    10030    2    1    2    0    0  0.00000000000E+00  0.00000000000E+00  0.93853810802E+03  0.34192417468E+04  0.32879112431E+04 0.  0.
        5    1    3    3  502    0 -0.14804753068E+04  0.66963658642E+03  0.20960014448E+03  0.16383450804E+04  0.46999998093E+01 0.  1.
       -5    1    3    3    0  502  0.14804753068E+04 -0.66963658642E+03  0.72893796355E+03  0.17808966664E+04  0.46999998093E+01 0. -1.
</event>
<event>
 5   0  0.1728937E-06  0.3297108E+04  0.7818609E-02  0.8163632E-01
        2   -1    0    0  501    0  0.00000000000E+00  0.00000000000E+00  0.18424232887E+04  0.18424232887E+04  0.25500000920E-02 0. -1.
       -2   -1    0    0    0  501  0.00000000000E+00  0.00000000000E+00 -0.14750842685E+04  0.14750842685E+04  0.25500000920E-02 0.  1.
    10030    2    1    2    0    0  0.00000000000E+00  0.00000000000E+00  0.36733902023E+03  0.33175075572E+04  0.32971075864E+04 0.  0.
        1    1    3    3  502    0  0.12232281483E+04  0.11036613883E+04  0.24211544682E+03  0.16652253458E+04  0.50400001928E-02 0. -1.
       -1    1    3    3    0  502 -0.12232281483E+04 -0.11036613883E+04  0.12522357341E+03  0.16522822114E+04  0.50400001928E-02 0.  1.
</event>
<event>
 5   0  0.5858859E-07  0.3313559E+04  0.7818609E-02  0.8159454E-01
       -1   -1    0    0    0  501  0.00000000000E+00  0.00000000000E+00  0.28586709682E+04  0.28586709682E+04  0.50400001928E-02 0.  1.
        1   -1    0    0  501    0  0.00000000000E+00  0.00000000000E+00 -0.96020793960E+03  0.96020793961E+03  0.50400001928E-02 0. -1.
    10030    2    1    2    0    0  0.00000000000E+00  0.00000000000E+00  0.18984630286E+04  0.38188789078E+04  0.33135591502E+04 0.  0.
        3    1    3    3  502    0 -0.37669813023E+03 -0.10157647901E+03 -0.90650893563E+03  0.98690309706E+03  0.10100000352E+00 0. -1.
       -3    1    3    3    0  502  0.37669813023E+03  0.10157647901E+03  0.28049719642E+04  0.28319758108E+04  0.10100000352E+00 0.  1.
</event>
<event>
 5   0  0.1696681E-06  0.3274101E+04  0.7818609E-02  0.8169517E-01
        2   -1    0    0  501    0  0.00000000000E+00  0.00000000000E+00  0.13910140234E+04  0.13910140234E+04  0.25500000920E-02 0.  1.
       -2   -1    0    0    0  501  0.00000000000E+00  0.00000000000E+00 -0.19266042538E+04  0.19266042538E+04  0.25500000920E-02 0. -1.
    10030    2    1    2    0    0  0.00000000000E+00  0.00000000000E+00 -0.53559023043E+03  0.33176182772E+04  0.32741005083E+04 0.  0.
        4    1    3    3  502    0 -0.44893279571E+00 -0.10759507126E+04 -0.15179939220E+04  0.18606389488E+04  0.12699999809E+01 0. -1.
       -4    1    3    3    0  502  0.44893279571E+00  0.10759507126E+04  0.98240369161E+03  0.14569793285E+04  0.12699999809E+01 0.  1.
</event>
<event>
 5   0  0.1743810E-06  0.3269115E+04  0.7818609E-02  0.8170799E-01
        2   -1    0    0  501    0  0.00000000000E+00  0.00000000000E+00  0.22854553000E+04  0.22854553000E+04  0.25500000920E-02 0. -1.
       -2   -1    0    0    0  501  0.00000000000E+00  0.00000000000E+00 -0.11690356728E+04  0.11690356728E+04  0.25500000920E-02 0.  1.
    10030    2    1    2    0    0  0.00000000000E+00  0.00000000000E+00  0.11164196271E+04  0.34544909728E+04  0.32691153386E+04 0.  0.
        5    1    3    3  502    0  0.41329699460E+03  0.15496957204E+04  0.89134095180E+03  0.18349065410E+04  0.46999998093E+01 0. -1.
       -5    1    3    3    0  502 -0.41329699460E+03 -0.15496957204E+04  0.22507867533E+03  0.16195844318E+04  0.46999998093E+01 0.  1.
</event>
<event>
 5   0  0.1728937E-06  0.3146472E+04  0.7818609E-02  0.8203098E-01
        2   -1    0    0  501    0  0.00000000000E+00  0.00000000000E+00  0.20036592656E+04  0.20036592656E+04  0.25500000920E-02 0. -1.
       -2   -1    0    0    0  501  0.00000000000E+00  0.00000000000E+00 -0.12352759619E+04  0.12352759619E+04  0.25500000920E-02 0.  1.
    10030    2    1    2    0    0  0.00000000000E+00  0.00000000000E+00  0.76838330368E+03  0.32389352274E+04  0.31464723908E+04 0.  0.
        1    1    3    3  502    0 -0.98997547900E+03  0.74142182369E+02 -0.87213344090E+03  0.13214254618E+04  0.50400001928E-02 0.  1.
       -1    1    3    3    0  502  0.98997547900E+03 -0.74142182369E+02  0.16405167446E+04  0.19175097657E+04  0.50400001928E-02 0. -1.
</event>
<event>
 5   0  0.6085351E-07  0.3514045E+04  0.7818609E-02  0.8110469E-01
       -1   -1    0    0    0  501  0.00000000000E+00  0.00000000000E+00  0.15966444851E+04  0.15966444851E+04  0.50400001928E-02 0. -1.
        1   -1    0    0  501    0  0.00000000000E+00  0.00000000000E+00 -0.19335101633E+04  0.19335101634E+04  0.50400001928E-02 0.  1.
    10030    2    1    2    0    0  0.00000000000E+00  0.00000000000E+00 -0.33686567828E+03  0.35301546484E+04  0.35140451557E+04 0.  0.
        1    1    3    3  502    0  0.19074676645E+03  0.82337380953E+03 -0.17158838955E+04  0.19127431354E+04  0.50400001928E-02 0.  1.
       -1    1    3    3    0  502 -0.19074676645E+03 -0.82337380953E+03  0.13790182172E+04  0.16174115131E+04  0.50400001928E-02 0. -1.
</event>
<event>
 5   0  0.5985183E-07  0.3298336E+04  0.7818609E-02  0.8163319E-01
       -1   -1    0    0    0  501  0.00000000000E+00  0.00000000000E+00  0.20298891416E+04  0.20298891416E+04  0.50400001928E-02 0. -1.
        1   -1    0    0  501    0  0.00000000000E+00  0.00000000000E+00 -0.13398538129E+04  0.13398538129E+04  0.50400001928E-02 0.  1.
    10030    2    1    2    0    0  0.00000000000E+00  0.00000000000E+00  0.69003532872E+03  0.33697429546E+04  0.32983357660E+04 0.  0.
        2    1    3    3  502    0 -0.55872707373E+03  0.13546825908E+04 -0.42794225222E+03  0.15265894785E+04  0.25500000920E-02 0.  1.
       -2    1    3    3    0  502  0.55872707373E+03 -0.13546825908E+04  0.11179775809E+04  0.18431534760E+04  0.25500000920E-02 0. -1.
</event>
<event>
 5   0  0.5985183E-07  0.3296765E+04  0.7818609E-02  0.8163719E-01
       -1   -1    0    0    0  501  0.00000000000E+00  0.00000000000E+00  0.15830222676E+04  0.15830222676E+04  0.50400001928E-02 0.  1.
        1   -1    0    0  501    0  0.00000000000E+00  0.00000000000E+00 -0.17164410603E+04  0.17164410603E+04  0.50400001928E-02 0. -1.
    10030    2    1    2    0    0  0.00000000000E+00  0.00000000000E+00 -0.13341879269E+03  0.32994633280E+04  0.32967647290E+04 0.  0.
        2    1    3    3  502    0 -0.92738756599E+03 -0.63631463122E+03 -0.12727769084E+04  0.16985008290E+04  0.25500000920E-02 0. -1.
       -2    1    3    3    0  502  0.92738756599E+03  0.63631463122E+03  0.11393581157E+04  0.16009624990E+04  0.25500000920E-02 0.  1.
</event>
<event>
 5   0  0.1784626E-06  0.3328218E+04  0.7818609E-02  0.8155752E-01
       -2   -1    0    0    0  501  0.00000000000E+00  0.00000000000E+00  0.26474572332E+04  0.26474572332E+04  0.25500000920E-02 0. -1.
        2   -1    0    0  501    0  0.00000000000E+00  0.00000000000E+00 -0.10460071669E+04  0.10460071669E+04  0.25500000920E-02 0.  1.
    10030    2    1    2    0    0  0.00000000000E+00  0.00000000000E+00  0.16014500663E+04  0.36934644001E+04  0.33282182861E+04 0.  0.
        2    1    3    3  502    0  0.16439373838E+04  0.25776891681E+03  0.81943673270E+03  0.18548454101E+04  0.25500000920E-02 0. -1.
       -2    1    3    3    0  502 -0.16439373838E+04 -0.25776891681E+03  0.78201333363E+03  0.18386189900E+04  0.25500000920E-02 0.  1.
</event>
<event>
 5   0  0.1696681E-06  0.3416067E+04  0.7818609E-02  0.8133974E-01
       -2   -1    0    0    0  501  0.00000000000E+00  0.00000000000E+00  0.10330975320E+04  0.10330975320E+04  0.25500000920E-02 0.  1.
        2   -1    0    0  501    0  0.00000000000E+00  0.00000000000E+00 -0.28239140721E+04  0.28239140721E+04  0.25500000920E-02 0. -1.
    10030    2    1    2    0    0  0.00000000000E+00  0.00000000000E+00 -0.17908165401E+04  0.38570116041E+04  0.34160671296E+04 0.  0.
        4    1    3    3  502    0  0.10585656602E+04 -0.69107003016E+03  0.40143091782E+03  0.13263813321E+04  0.12699999809E+01 0.  1.
       -4    1    3    3    0  502 -0.10585656602E+04  0.69107003016E+03 -0.21922474579E+04  0.25306302719E+04  0.12699999809E+01 0. -1.
</event>
<event>
 5   0  0.1743810E-06  0.3352782E+04  0.7818609E-02  0.8149593E-01
        2   -1    0    0  501    0  0.00000000000E+00  0.00000000000E+00  0.22128158160E+04  0.22128158160E+04  0.25500000920E-02 0. -1.
       -2   -1    0    0    0  501  0.00000000000E+00  0.00000000000E+00 -0.12700051838E+04  0.12700051838E+04  0.25500000920E-02 0.  1.
    10030    2    1    2    0    0  0.00000000000E+00  0.00000000000E+00  0.94281063219E+03  0.34828209998E+04  0.33527824606E+04 0.  0.
        5    1    3    3  502    0 -0.49649681984E+03 -0.15513894726E+04  0.59874465801E+02  0.16300078004E+04  0.46999998093E+01 0.  1.
       -5    1    3    3    0  502  0.49649681984E+03  0.15513894726E+04  0.88293616639E+03  0.18528131994E+04  0.46999998093E+01 0. -1.
</event>
<event>
 5   0  0.6085351E-07  0.3343498E+04  0.7818609E-02  0.8151915E-01
       -1   -1    0    0    0  501  0.00000000000E+00  0.00000000000E+00  0.13191723930E+04  0.13191723930E+04  0.50400001928E-02 0.  1.
        1   -1    0    0  501    0  0.00000000000E+00  0.00000000000E+00 -0.21185593092E+04  0.21185593092E+04  0.50400001928E-02 0. -1.
    10030    2    1    2    0    0  0.00000000000E+00  0.00000000000E+00 -0.79938691619E+03  0.34377317021E+04  0.33434981403E+04 0.  0.
        1    1    3    3  502    0  0.24333730859E+03  0.84990307405E+03 -0.18585547294E+04  0.20580995999E+04  0.50400001928E-02 0. -1.
       -1    1    3    3    0  502 -0.24333730859E+03 -0.84990307405E+03  0.10591678132E+04  0.13796321022E+04  0.50400001928E-02 0.  1.
</event>
<event>
 5   0  0.5988516E-07  0.3323999E+04  0.7818609E-02  0.8156816E-01
       -1   -1    0    0    0  501  0.00000000000E+00  0.00000000000E+00  0.14335493271E+04  0.14335493271E+04  0.50400001928E-02 0.  1.
        1   -1    0    0  501    0  0.00000000000E+00  0.00000000000E+00 -0.19268554623E+04  0.19268554623E+04  0.50400001928E-02 0. -1.
    10030    2    1    2    0    0  0.00000000000E+00  0.00000000000E+00 -0.49330613518E+03  0.33604047894E+04  0.33239990081E+04 0.  0.
        4    1    3    3  502    0  0.18255093937E+03  0.77753016990E+03 -0.17201357840E+04  0.18965090927E+04  0.12699999809E+01 0. -1.
       -4    1    3    3    0  502 -0.18255093937E+03 -0.77753016990E+03  0.12268296488E+04  0.14638956967E+04  0.12699999809E+01 0.  1.
</event>
<event>
 5   0  0.1784626E-06  0.3297851E+04  0.7818609E-02  0.8163442E-01
       -2   -1    0    0    0  501  0.00000000000E+00  0.00000000000E+00  0.14649738583E+04  0.14649738583E+04  0.25500000920E-02 0. -1.
        2   -1    0    0  501    0  0.00000000000E+00  0.00000000000E+00 -0.18559752899E+04  0.18559752899E+04  0.25500000920E-02 0.  1.
    10030    2    1    2    0    0  0.00000000000E+00  0.00000000000E+00 -0.39100143162E+03  0.33209491483E+04  0.32978509860E+04 0.  0.
        2    1    3    3  502    0 -0.44135552274E+03 -0.64158763767E+03 -0.16591337982E+04  0.18327995948E+04  0.25500000920E-02 0.  1.
       -2    1    3    3    0  502  0.44135552274E+03  0.64158763767E+03  0.12681323666E+04  0.14881495535E+04  0.25500000920E-02 0. -1.
</event>
<event>
 5   0  0.1728937E-06  0.3283679E+04  0.7818609E-02  0.8167061E-01
        2   -1    0    0  501    0  0.00000000000E+00  0.00000000000E+00  0.18425586495E+04  0.18425586495E+04  0.25500000920E-02 0. -1.
       -2   -1    0    0    0  501  0.00000000000E+00  0.00000000000E+00 -0.14629857919E+04  0.14629857919E+04  0.25500000920E-02 0.  1.
    10030    2    1    2    0    0  0.00000000000E+00  0.00000000000E+00  0.37957285763E+03  0.33055444414E+04  0.32836791103E+04 0.  0.
        1    1    3    3  502    0  0.70452416906E+03 -0.56786424511E+03 -0.11893041575E+04  0.14944124212E+04  0.50400001928E-02 0.  1.
       -1    1    3    3    0  502 -0.70452416906E+03  0.56786424511E+03  0.15688770151E+04  0.18111320201E+04  0.50400001928E-02 0. -1.
</event>
<event>
 5   0  0.1728937E-06  0.3273389E+04  0.7818609E-02  0.8169700E-01
        2   -1    0    0  501    0  0.00000000000E+00  0.00000000000E+00  0.18830919786E+04  0.18830919786E+04  0.25500000920E-02 0. -1.
       -2   -1    0    0    0  501  0.00000000000E+00  0.00000000000E+00 -0.14225372387E+04  0.14225372387E+04  0.25500000920E-02 0.  1.
    10030    2    1    2    0    0  0.00000000000E+00  0.00000000000E+00  0.46055473987E+03  0.33056292173E+04  0.32733887416E+04 0.  0.
        1    1    3    3  502    0  0.26562017012E+03  0.59829436731E+03  0.17451381935E+04  0.18638716530E+04  0.50400001928E-02 0. -1.
       -1    1    3    3    0  502 -0.26562017012E+03 -0.59829436731E+03 -0.12845834536E+04  0.14417575642E+04  0.50400001928E-02 0.  1.
</event>
<event>
 5   0  0.5985183E-07  0.3275517E+04  0.7818609E-02  0.8169153E-01
       -1   -1    0    0    0  501  0.00000000000E+00  0.00000000000E+00  0.11302559680E+04  0.11302559680E+04  0.50400001928E-02 0. -1.
        1   -1    0    0  501    0  0.00000000000E+00  0.00000000000E+00 -0.23731368686E+04  0.23731368686E+04  0.50400001928E-02 0.  1.
    10030    2    1    2    0    0  0.00000000000E+00  0.00000000000E+00 -0.12428809006E+04  0.35033928367E+04  0.32755165142E+04 0.  0.
        2    1    3    3  502    0 -0.13077826663E+04 -0.92115822721E+03 -0.24568172305E+03  0.16183904013E+04  0.25500000920E-02 0.  1.
       -2    1    3    3    0  502  0.13077826663E+04  0.92115822721E+03 -0.99719917753E+03  0.18850024354E+04  0.25500000920E-02 0. -1.
</event>
<event>
 5   0  0.1743810E-06  0.3326045E+04  0.7818609E-02  0.8156300E-01
       -2   -1    0    0    0  501  0.00000000000E+00  0.00000000000E+00  0.13025008053E+04  0.13025008053E+04  0.25500000920E-02 0.  1.
        2   -1    0    0  501    0  0.00000000000E+00  0.00000000000E+00 -0.21233342879E+04  0.21233342879E+04  0.25500000920E-02 0. -1.
    10030    2    1    2    0    0  0.00000000000E+00  0.00000000000E+00 -0.82083348252E+03  0.34258350932E+04  0.33260454717E+04 0.  0.
        5    1    3    3  502    0 -0.12405037321E+04  0.58062978353E+03 -0.13819237290E+04  0.19456915834E+04  0.46999998093E+01 0. -1.
       -5    1    3    3    0  502  0.12405037321E+04 -0.58062978353E+03  0.56109024650E+03  0.14801435098E+04  0.46999998093E+01 0.  1.
</event>
<event>
 5   0  0.5988516E-07  0.3277767E+04  0.7818609E-02  0.8168576E-01
       -1   -1    0    0    0  501  0.00000000000E+00  0.00000000000E+00  0.11195527319E+04  0.11195527319E+04  0.50400001928E-02 0.  1.
        1   -1    0    0  501    0  0.00000000000E+00  0.00000000000E+00 -0.23991183903E+04  0.23991183903E+04  0.50400001928E-02 0. -1.
    10030    2    1    2    0    0  0.00000000000E+00  0.00000000000E+00 -0.12795656584E+04  0.35186711223E+04  0.32777672572E+04 0.  0.
        4    1    3    3  502    0  0.14490753190E+04  0.20155891568E+03  0.15307445261E+03  0.14710128067E+04  0.12699999809E+01 0.  1.
       -4    1    3    3    0  502 -0.14490753190E+04 -0.20155891568E+03 -0.14326401110E+04  0.20476583155E+04  0.12699999809E+01 0. -1.
</event>
<event>
 5   0  0.6085351E-07  0.3353326E+04  0.7818609E-02  0.8149458E-01
       -1   -1    0    0    0  501  0.00000000000E+00  0.00000000000E+00  0.15270896420E+04  0.15270896421E+04  0.50400001928E-02 0.  1.
        1   -1    0    0  501    0  0.00000000000E+00  0.00000000000E+00 -0.18408864027E+04  0.18408864028E+04  0.50400001928E-02 0. -1.
    10030    2    1    2    0    0  0.00000000000E+00  0.00000000000E+00 -0.31379676070E+03  0.33679760448E+04  0.33533258463E+04 0.  0.
        1    1    3    3  502    0  0.15825043394E+04  0.21331066102E+03 -0.67038252090E+03  0.17318297107E+04  0.50400001928E-02 0. -1.
       -1    1    3    3    0  502 -0.15825043394E+04 -0.21331066102E+03  0.35658576020E+03  0.16361463342E+04  0.50400001928E-02 0.  1.
</event>
<event>
 5   0  0.6085351E-07  0.3181948E+04  0.7818609E-02  0.8193601E-01
       -1   -1    0    0    0  501  0.00000000000E+00  0.00000000000E+00  0.20509470330E+04  0.20509470330E+04  0.50400001928E-02 0.  1.
        1   -1    0    0  501    0  0.00000000000E+00  0.00000000000E+00 -0.12341604092E+04  0.12341604092E+04  0.50400001928E-02 0. -1.
    10030    2    1    2    0    0  0.00000000000E+00  0.00000000000E+00  0.81678662374E+03  0.32851074422E+04  0.31819475983E+04 0.  0.
        1    1    3    3  502    0 -0.12883827606E+02  0.12300075922E+04  0.14501217922E+04  0.19015619585E+04  0.50400001928E-02 0.  1.
       -1    1    3    3    0  502  0.12883827606E+02 -0.12300075922E+04 -0.63333516846E+03  0.13835454837E+04  0.50400001928E-02 0. -1.
</event>
<event>
 5   0  0.5985183E-07  0.2902901E+04  0.7818609E-02  0.8272015E-01
       -1   -1    0    0    0  501  0.00000000000E+00  0.00000000000E+00  0.91935158147E+03  0.91935158148E+03  0.50400001928E-02 0. -1.
        1   -1    0    0  501    0  0.00000000000E+00  0.00000000000E+00 -0.22915148805E+04  0.22915148805E+04  0.50400001928E-02 0.  1.
    10030    2    1    2    0    0  0.00000000000E+00  0.00000000000E+00 -0.13721632990E+04  0.32108664620E+04  0.29029005008E+04 0.  0.
        2    1    3    3  502    0 -0.74226549230E+03  0.60486680813E+03 -0.18926245125E+04  0.21210491418E+04  0.25500000920E-02 0.  1.
       -2    1    3    3    0  502  0.74226549230E+03 -0.60486680813E+03  0.52046121347E+03  0.10898173202E+04  0.25500000920E-02 0. -1.
</event>
<event>
 5   0  0.5858859E-07  0.3270463E+04  0.7818609E-02  0.8170452E-01
       -1   -1    0    0    0  501  0.00000000000E+00  0.00000000000E+00  0.18863954602E+04  0.18863954602E+04  0.50400001928E-02 0.  1.
        1   -1    0    0  501    0  0.00000000000E+00  0.00000000000E+00 -0.14175087831E+04  0.14175087831E+04  0.50400001928E-02 0. -1.
    10030    2    1    2    0    0  0.00000000000E+00  0.00000000000E+00  0.46888667706E+03  0.33039042433E+04  0.32704630456E+04 0.  0.
        3    1    3    3  502    0 -0.12617538613E+03  0.57479907198E+03  0.17757133068E+04  0.18706875633E+04  0.10100000352E+00 0.  1.
       -3    1    3    3    0  502  0.12617538613E+03 -0.57479907198E+03 -0.13068266298E+04  0.14332166800E+04  0.10100000352E+00 0. -1.
</event>
<event>
 5   0  0.1832626E-06  0.3306206E+04  0.7818609E-02  0.8161318E-01
       -2   -1    0    0    0  501  0.00000000000E+00  0.00000000000E+00  0.17001681284E+04  0.17001681284E+04  0.25500000920E-02 0.  1.
        2   -1    0    0  501    0  0.00000000000E+00  0.00000000000E+00 -0.16073409696E+04  0.16073409696E+04  0.25500000920E-02 0. -1.
    10030    2    1    2    0    0  0.00000000000E+00  0.00000000000E+00  0.92827158774E+02  0.33075090980E+04  0.33062062174E+04 0.  0.
        3    1    3    3  502    0 -0.97306214479E+03 -0.32514463016E+03 -0.12503151480E+04  0.16173611061E+04  0.10100000352E+00 0. -1.
       -3    1    3    3    0  502  0.97306214479E+03  0.32514463016E+03  0.13431423067E+04  0.16901479919E+04  0.10100000352E+00 0.  1.
</event>
<event>
 5   0  0.5858859E-07  0.3315024E+04  0.7818609E-02  0.8159083E-01
       -1   -1    0    0    0  501  0.00000000000E+00  0.00000000000E+00  0.24804996343E+04  0.24804996343E+04  0.50400001928E-02 0.  1.
        1   -1    0    0  501    0  0.00000000000E+00  0.00000000000E+00 -0.11075777613E+04  0.11075777613E+04  0.50400001928E-02 0. -1.
    10030    2    1    2    0    0  0.00000000000E+00  0.00000000000E+00  0.13729218730E+04  0.35880773956E+04  0.33150241217E+04 0.  0.
        3    1    3    3  502    0  0.34245455379E+03  0.11453477092E+04  0.19291828433E+04  0.22695468599E+04  0.10100000352E+00 0.  1.
       -3    1    3    3    0  502 -0.34245455379E+03 -0.11453477092E+04 -0.55626097024E+03  0.13185305357E+04  0.10100000352E+00 0. -1.
</event>
<event>
 5   0  0.1696681E-06  0.3292990E+04  0.7818609E-02  0.8164681E-01
        2   -1    0    0  501    0  0.00000000000E+00  0.00000000000E+00  0.16358022941E+04  0.16358022941E+04  0.25500000920E-02 0. -1.
       -2   -1    0    0    0  501  0.00000000000E+00  0.00000000000E+00 -0.16572576796E+04  0.16572576796E+04  0.25500000920E-02 0.  1.
    10030    2    1    2    0    0  0.00000000000E+00  0.00000000000E+00 -0.21455385502E+02  0.32930599736E+04  0.32929900784E+04 0.  0.
        4    1    3    3  502    0  0.67830054017E+03 -0.60152314266E+03  0.13637186608E+04  0.16375750098E+04  0.12699999809E+01 0. -1.
       -4    1    3    3    0  502 -0.67830054017E+03  0.60152314266E+03 -0.13851740463E+04  0.16554849638E+04  0.12699999809E+01 0.  1.
</event>
<event>
 5   0  0.1832626E-06  0.3208756E+04  0.7818609E-02  0.8186508E-01
       -2   -1    0    0    0  501  0.00000000000E+00  0.00000000000E+00  0.11659765338E+04  0.11659765338E+04  0.25500000920E-02 0. -1.
        2   -1    0    0  501    0  0.00000000000E+00  0.00000000000E+00 -0.22076166673E+04  0.22076166673E+04  0.25500000920E-02 0.  1.
    10030    2    1    2    0    0  0.00000000000E+00  0.00000000000E+00 -0.10416401335E+04  0.33735932011E+04  0.32087562884E+04 0.  0.
        3    1    3    3  502    0  0.13755013475E+04 -0.72676889353E+03 -0.93318303693E+03  0.18141189520E+04  0.10100000352E+00 0. -1.
       -3    1    3    3    0  502 -0.13755013475E+04  0.72676889353E+03 -0.10845709660E+03  0.15594742491E+04  0.10100000352E+00 0.  1.
</event>
<event>
 5   0  0.1784626E-06  0.3332809E+04  0.7818609E-02  0.8154597E-01
        2   -1    0    0  501    0  0.00000000000E+00  0.00000000000E+00  0.16446060819E+04  0.16446060819E+04  0.25500000920E-02 0.  1.
       -2   -1    0    0    0  501  0.00000000000E+00  0.00000000000E+00 -0.16884914819E+04  0.16884914819E+04  0.25500000920E-02 0. -1.
    10030    2    1    2    0    0  0.00000000000E+00  0.00000000000E+00 -0.43885400063E+02  0.33330975638E+04  0.33328086416E+04 0.  0.
        2    1    3    3  502    0 -0.10358780827E+04 -0.50918750596E+03  0.11800716578E+04  0.16507223982E+04  0.25500000920E-02 0.  1.
       -2    1    3    3    0  502  0.10358780827E+04  0.50918750596E+03 -0.12239570579E+04  0.16823751656E+04  0.25500000920E-02 0. -1.
</event>
<event>
 5   0  0.6023446E-07  0.3510719E+04  0.7818609E-02  0.8111254E-01
        1   -1    0    0  501    0  0.00000000000E+00  0.00000000000E+00  0.18246380476E+04  0.18246380476E+04  0.50400001928E-02 0. -1.
       -1   -1    0    0    0  501  0.00000000000E+00  0.00000000000E+00 -0.16887117310E+04  0.16887117310E+04  0.50400001928E-02 0.  1.
    10030    2    1    2    0    0  0.00000000000E+00  0.00000000000E+00  0.13592631662E+03  0.35133497786E+04  0.35107193997E+04 0.  0.
        5    1    3    3  502    0 -0.15134777827E+04  0.27117172027E+03 -0.77949862575E+03  0.17238878439E+04  0.46999998093E+01 0.  1.
       -5    1    3    3    0  502  0.15134777827E+04 -0.27117172027E+03  0.91542494237E+03  0.17894619347E+04  0.46999998093E+01 0. -1.
</event>
<event>
 5   0  0.6085351E-07  0.3409377E+04  0.7818609E-02  0.8135609E-01
       -1   -1    0    0    0  501  0.00000000000E+00  0.00000000000E+00  0.16829470215E+04  0.16829470216E+04  0.50400001928E-02 0.  1.
        1   -1    0    0  501    0  0.00000000000E+00  0.00000000000E+00 -0.17267106844E+04  0.17267106844E+04  0.50400001928E-02 0. -1.
    10030    2    1    2    0    0  0.00000000000E+00  0.00000000000E+00 -0.43763662840E+02  0.34096577060E+04  0.34093768365E+04 0.  0.
        1    1    3    3  502    0 -0.25688709500E+02  0.68693936786E+03  0.15381880234E+04  0.16848050333E+04  0.50400001928E-02 0.  1.
       -1    1    3    3    0  502  0.25688709500E+02 -0.68693936786E+03 -0.15819516862E+04  0.17248526727E+04  0.50400001928E-02 0. -1.
</event>
<event>
 5   0  0.1696681E-06  0.3277562E+04  0.7818609E-02  0.8168628E-01
       -2   -1    0    0    0  501  0.00000000000E+00  0.00000000000E+00  0.10725727952E+04  0.10725727952E+04  0.25500000920E-02 0.  1.
        2   -1    0    0  501    0  0.00000000000E+00  0.00000000000E+00 -0.25038889809E+04  0.25038889809E+04  0.25500000920E-02 0. -1.
    10030    2    1    2    0    0  0.00000000000E+00  0.00000000000E+00 -0.14313161858E+04  0.35764617761E+04  0.32775620226E+04 0.  0.
        4    1    3    3  502    0 -0.36102952768E+03  0.30332730860E+03 -0.24282625688E+04  0.24736229486E+04  0.12699999809E+01 0. -1.
       -4    1    3    3    0  502  0.36102952768E+03 -0.30332730860E+03  0.99694638299E+03  0.11028388275E+04  0.12699999809E+01 0.  1.
</event>
<event>
 5   0  0.1696681E-06  0.3298070E+04  0.7818609E-02  0.8163387E-01
       -2   -1    0    0    0  501  0.00000000000E+00  0.00000000000E+00  0.17444157604E+04  0.17444157604E+04  0.25500000920E-02 0.  1.
        2   -1    0    0  501    0  0.00000000000E+00  0.00000000000E+00 -0.15588693654E+04  0.15588693654E+04  0.25500000920E-02 0. -1.
    10030    2    1    2    0    0  0.00000000000E+00  0.00000000000E+00  0.18554639504E+03  0.33032851259E+04  0.32980699141E+04 0.  0.
        4    1    3    3  502    0  0.11573723837E+04  0.30218292019E+03 -0.10441381897E+04  0.15877819510E+04  0.12699999809E+01 0. -1.
       -4    1    3    3    0  502 -0.11573723837E+04 -0.30218292019E+03  0.12296845848E+04  0.17155031748E+04  0.12699999809E+01 0.  1.
</event>
<event>
 5   0  0.1743810E-06  0.3326831E+04  0.7818609E-02  0.8156102E-01
        2   -1    0    0  501    0  0.00000000000E+00  0.00000000000E+00  0.12471894812E+04  0.12471894812E+04  0.25500000920E-02 0.  1.
       -2   -1    0    0    0  501  0.00000000000E+00  0.00000000000E+00 -0.22185487713E+04  0.22185487713E+04  0.25500000920E-02 0. -1.
    10030    2    1    2    0    0  0.00000000000E+00  0.00000000000E+00 -0.97135929008E+03  0.34657382526E+04  0.33268307388E+04 0.  0.
        5    1    3    3  502    0  0.14601219215E+04 -0.37816319974E+03  0.24500878846E+03  0.15280755307E+04  0.46999998093E+01 0. -1.
       -5    1    3    3    0  502 -0.14601219215E+04  0.37816319974E+03 -0.12163680785E+04  0.19376627219E+04  0.46999998093E+01 0.  1.
</event>
<event>
 5   0  0.1832626E-06  0.3327105E+04  0.7818609E-02  0.8156033E-01
        2   -1    0    0  501    0  0.00000000000E+00  0.00000000000E+00  0.17573923892E+04  0.17573923893E+04  0.25500000920E-02 0. -1.
       -2   -1    0    0    0  501  0.00000000000E+00  0.00000000000E+00 -0.15747232554E+04  0.15747232554E+04  0.25500000920E-02 0.  1.
    10030    2    1    2    0    0  0.00000000000E+00  0.00000000000E+00  0.18266913389E+03  0.33321156446E+04  0.33271048460E+04 0.  0.
        3    1    3    3  502    0 -0.99952236107E+03  0.13046135301E+04  0.34929818869E+03  0.16801995858E+04  0.10100000352E+00 0. -1.
       -3    1    3    3    0  502  0.99952236107E+03 -0.13046135301E+04 -0.16662905480E+03  0.16519160588E+04  0.10100000352E+00 0.  1.
</event>
<event>
 5   0  0.1696681E-06  0.3303305E+04  0.7818609E-02  0.8162055E-01
       -2   -1    0    0    0  501  0.00000000000E+00  0.00000000000E+00  0.16721084423E+04  0.16721084423E+04  0.25500000920E-02 0. -1.
        2   -1    0    0  501    0  0.00000000000E+00  0.00000000000E+00 -0.16314467971E+04  0.16314467971E+04  0.25500000920E-02 0.  1.
    10030    2    1    2    0    0  0.00000000000E+00  0.00000000000E+00  0.40661645274E+02  0.33035552394E+04  0.33033049890E+04 0.  0.
        4    1    3    3  502    0  0.54643480711E+03  0.84325582267E+03 -0.12906014123E+04  0.16356420755E+04  0.12699999809E+01 0.  1.
       -4    1    3    3    0  502 -0.54643480711E+03 -0.84325582267E+03  0.13312630576E+04  0.16679131639E+04  0.12699999809E+01 0. -1.
</event>
<event>
 5   0  0.6023446E-07  0.3199042E+04  0.7818609E-02  0.8189070E-01
        1   -1    0    0  501    0  0.00000000000E+00  0.00000000000E+00  0.10537091408E+04  0.10537091408E+04  0.50400001928E-02 0. -1.
       -1   -1    0    0    0  501  0.00000000000E+00  0.00000000000E+00 -0.24280586570E+04  0.24280586570E+04  0.50400001928E-02 0.  1.
    10030    2    1    2    0    0  0.00000000000E+00  0.00000000000E+00 -0.13743495162E+04  0.34817677979E+04  0.31990421075E+04 0.  0.
        5    1    3    3  502    0 -0.13706345437E+04 -0.35554132344E+03 -0.14968263608E+04  0.20604756561E+04  0.46999998093E+01 0.  1.
       -5    1    3    3    0  502  0.13706345437E+04  0.35554132344E+03  0.12247684457E+03  0.14212921418E+04  0.46999998093E+01 0. -1.
</event>
<event>
 5   0  0.5985183E-07  0.3327592E+04  0.7818609E-02  0.8155910E-01
       -1   -1    0    0    0  501  0.00000000000E+00  0.00000000000E+00  0.30144186488E+04  0.30144186488E+04  0.50400001928E-02 0. -1.
        1   -1    0    0  501    0  0.00000000000E+00  0.00000000000E+00 -0.91832554875E+03  0.91832554877E+03  0.50400001928E-02 0.  1.
    10030    2    1    2    0    0  0.00000000000E+00  0.00000000000E+00  0.20960931000E+04  0.39327441976E+04  0.33275923187E+04 0.  0.
        2    1    3    3  502    0  0.56684968979E+03  0.15014707302E+04  0.52952867434E+03  0.16900099235E+04  0.25500000920E-02 0.  1.
       -2    1    3    3    0  502 -0.56684968979E+03 -0.15014707302E+04  0.15665644257E+04  0.22427342741E+04  0.25500000920E-02 0. -1.
</event>
<event>
 5   0  0.1696681E-06  0.3277761E+04  0.7818609E-02  0.8168577E-01
       -2   -1    0    0    0  501  0.00000000000E+00  0.00000000000E+00  0.12329236899E+04  0.12329236899E+04  0.25500000920E-02 0.  1.
        2   -1    0    0  501    0  0.00000000000E+00  0.00000000000E+00 -0.21785044535E+04  0.21785044535E+04  0.25500000920E-02 0. -1.
    10030    2    1    2    0    0  0.00000000000E+00  0.00000000000E+00 -0.94558076359E+03  0.34114281433E+04  0.32777612782E+04 0.  0.
        4    1    3    3  502    0  0.10351599857E+04 -0.14513714588E+03  0.84094730925E+03  0.13415718307E+04  0.12699999809E+01 0.  1.
       -4    1    3    3    0  502 -0.10351599857E+04  0.14513714588E+03 -0.17865280728E+04  0.20698563126E+04  0.12699999809E+01 0. -1.
</event>
<event>
 5   0  0.1832626E-06  0.3284715E+04  0.7818609E-02  0.8166796E-01
        2   -1    0    0  501    0  0.00000000000E+00  0.00000000000E+00  0.18594828990E+04  0.18594828990E+04  0.25500000920E-02 0. -1.
       -2   -1    0    0    0  501  0.00000000000E+00  0.00000000000E+00 -0.14505849688E+04  0.14505849688E+04  0.25500000920E-02 0.  1.
    10030    2    1    2    0    0  0.00000000000E+00  0.00000000000E+00  0.40889793020E+03  0.33100678677E+04  0.32847148691E+04 0.  0.
        3    1    3    3  502    0 -0.52413857550E+03  0.15564754487E+04  0.20538564480E+03  0.16551496434E+04  0.10100000352E+00 0. -1.
       -3    1    3    3    0  502  0.52413857550E+03 -0.15564754487E+04  0.20351228541E+03  0.16549182243E+04  0.10100000352E+00 0.  1.
</event>
<event>
 5   0  0.5685000E-07  0.3294381E+04  0.7818609E-02  0.8164327E-01
        3   -1    0    0  501    0  0.00000000000E+00  0.00000000000E+00  0.22703355860E+04  0.22703355882E+04  0.10100000352E+00 0.  1.
       -3   -1    0    0    0  501  0.00000000000E+00  0.00000000000E+00 -0.11950815075E+04  0.11950815118E+04  0.10100000352E+00 0. -1.
    10030    2    1    2    0    0  0.00000000000E+00  0.00000000000E+00  0.10752540784E+04  0.34654171000E+04  0.32943807224E+04 0.  0.
        3    1    3    3  502    0  0.15983998398E+04  0.80672913101E+02  0.94753209395E+03  0.18598944180E+04  0.10100000352E+00 0.  1.
       -3    1    3    3    0  502 -0.15983998398E+04 -0.80672913101E+02  0.12772198448E+03  0.16055226820E+04  0.10100000352E+00 0. -1.
</event>
<event>
 5   0  0.1784626E-06  0.3257145E+04  0.7818609E-02  0.8173886E-01
        2   -1    0    0  501    0  0.00000000000E+00  0.00000000000E+00  0.21439718267E+04  0.21439718267E+04  0.25500000920E-02 0. -1.
       -2   -1    0    0    0  501  0.00000000000E+00  0.00000000000E+00 -0.12370724462E+04  0.12370724462E+04  0.25500000920E-02 0.  1.
    10030    2    1    2    0    0  0.00000000000E+00  0.00000000000E+00  0.90689938051E+03  0.33810442729E+04  0.32571450518E+04 0.  0.
        2    1    3    3  502    0 -0.98210988310E+03  0.73424576375E+03  0.15659409696E+04  0.19889262893E+04  0.25500000920E-02 0. -1.
       -2    1    3    3    0  502  0.98210988310E+03 -0.73424576375E+03 -0.65904158907E+03  0.13921179836E+04  0.25500000920E-02 0.  1.
</event>
<event>
 5   0  0.1696681E-06  0.3356778E+04  0.7818609E-02  0.8148597E-01
       -2   -1    0    0    0  501  0.00000000000E+00  0.00000000000E+00  0.18471867888E+04  0.18471867888E+04  0.25500000920E-02 0.  1.
        2   -1    0    0  501    0  0.00000000000E+00  0.00000000000E+00 -0.15250159925E+04  0.15250159925E+04  0.25500000920E-02 0. -1.
    10030    2    1    2    0    0  0.00000000000E+00  0.00000000000E+00  0.32217079633E+03  0.33722027812E+04  0.33567778562E+04 0.  0.
        4    1    3    3  502    0  0.14766739971E+04  0.15927007556E+03 -0.62420653437E+03  0.16110768017E+04  0.12699999809E+01 0. -1.
       -4    1    3    3    0  502 -0.14766739971E+04 -0.15927007556E+03  0.94637733070E+03  0.17611259795E+04  0.12699999809E+01 0.  1.
</event>
<event>
 5   0  0.6085351E-07  0.3331527E+04  0.7818609E-02  0.8154919E-01
       -1   -1    0    0    0  501  0.00000000000E+00  0.00000000000E+00  0.12555251495E+04  0.12555251495E+04  0.50400001928E-02 0. -1.
        1   -1    0    0  501    0  0.00000000000E+00  0.00000000000E+00 -0.22100457586E+04  0.22100457586E+04  0.50400001928E-02 0.  1.
    10030    2    1    2    0    0  0.00000000000E+00  0.00000000000E+00 -0.95452060907E+03  0.34655709081E+04  0.33315269961E+04 0.  0.
        1    1    3    3  502    0  0.46364510659E+03 -0.13081120574E+04  0.48102372087E+03  0.14688457235E+04  0.50400001928E-02 0. -1.
       -1    1    3    3    0  502 -0.46364510659E+03  0.13081120574E+04 -0.14355443299E+04  0.19967251846E+04  0.50400001928E-02 0.  1.
</event>
<event>
 5   0  0.1784626E-06  0.3323151E+04  0.7818609E-02  0.8157030E-01
       -2   -1    0    0    0  501  0.00000000000E+00  0.00000000000E+00  0.11043111562E+04  0.11043111562E+04  0.25500000920E-02 0.  1.
        2   -1    0    0  501    0  0.00000000000E+00  0.00000000000E+00 -0.25000496874E+04  0.25000496874E+04  0.25500000920E-02 0. -1.
    10030    2    1    2    0    0  0.00000000000E+00  0.00000000000E+00 -0.13957385312E+04  0.36043608437E+04  0.33231507706E+04 0.  0.
        2    1    3    3  502    0 -0.18006836449E+02 -0.15304746197E+04 -0.13992395466E+04  0.20737762937E+04  0.25500000920E-02 0. -1.
       -2    1    3    3    0  502  0.18006836449E+02  0.15304746197E+04  0.35010153593E+01  0.15305845500E+04  0.25500000920E-02 0.  1.
</event>
<event>
 5   0  0.6023446E-07  0.3315453E+04  0.7818609E-02  0.8158975E-01
       -1   -1    0    0    0  501  0.00000000000E+00  0.00000000000E+00  0.18602377866E+04  0.18602377866E+04  0.50400001928E-02 0.  1.
        1   -1    0    0  501    0  0.00000000000E+00  0.00000000000E+00 -0.14772611109E+04  0.14772611109E+04  0.50400001928E-02 0. -1.
    10030    2    1    2    0    0  0.00000000000E+00  0.00000000000E+00  0.38297667571E+03  0.33374988975E+04  0.33154528736E+04 0.  0.
        5    1    3    3  502    0 -0.12165066322E+04 -0.11247736301E+04  0.24690659916E+03  0.16751086723E+04  0.46999998093E+01 0. -1.
       -5    1    3    3    0  502  0.12165066322E+04  0.11247736301E+04  0.13607007655E+03  0.16623902252E+04  0.46999998093E+01 0.  1.
</event>
<event>
 5   0  0.5858859E-07  0.3305495E+04  0.7818609E-02  0.8161499E-01
        1   -1    0    0  501    0  0.00000000000E+00  0.00000000000E+00  0.16008867673E+04  0.16008867673E+04  0.50400001928E-02 0. -1.
       -1   -1    0    0    0  501  0.00000000000E+00  0.00000000000E+00 -0.17062878138E+04  0.17062878138E+04  0.50400001928E-02 0.  1.
    10030    2    1    2    0    0  0.00000000000E+00  0.00000000000E+00 -0.10540104650E+03  0.33071745811E+04  0.33054945665E+04 0.  0.
        3    1    3    3  502    0 -0.59326466015E+02  0.14075654168E+03  0.15938094709E+04  0.16011123237E+04  0.10100000352E+00 0. -1.
       -3    1    3    3    0  502  0.59326466015E+02 -0.14075654168E+03 -0.16992105174E+04  0.17060622574E+04  0.10100000352E+00 0.  1.
</event>
<event>
 5   0  0.1743810E-06  0.3294168E+04  0.7818609E-02  0.8164381E-01
       -2   -1    0    0    0  501  0.00000000000E+00  0.00000000000E+00  0.95692690676E+03  0.95692690676E+03  0.25500000920E-02 0. -1.
        2   -1    0    0  501    0  0.00000000000E+00  0.00000000000E+00 -0.28349984440E+04  0.28349984440E+04  0.25500000920E-02 0.  1.
    10030    2    1    2    0    0  0.00000000000E+00  0.00000000000E+00 -0.18780715372E+04  0.37919253508E+04  0.32941683574E+04 0.  0.
        5    1    3    3  502    0 -0.84176019046E+03 -0.36027031196E+03  0.63696993884E+03  0.11153957634E+04  0.46999998093E+01 0. -1.
       -5    1    3    3    0  502  0.84176019046E+03  0.36027031196E+03 -0.25150414761E+04  0.26765295874E+04  0.46999998093E+01 0.  1.
</event>
<event>
 5   0  0.6023446E-07  0.3291872E+04  0.7818609E-02  0.8164967E-01
       -1   -1    0    0    0  501  0.00000000000E+00  0.00000000000E+00  0.12117321425E+04  0.12117321425E+04  0.50400001928E-02 0. -1.
        1   -1    0    0  501    0  0.00000000000E+00  0.00000000000E+00 -0.22357295440E+04  0.22357295440E+04  0.50400001928E-02 0.  1.
    10030    2    1    2    0    0  0.00000000000E+00  0.00000000000E+00 -0.10239974015E+04  0.34474616865E+04  0.32918720209E+04 0.  0.
        5    1    3    3  502    0 -0.10312001928E+04  0.43105474199E+03  0.75337336633E+03  0.13478781648E+04  0.46999998093E+01 0. -1.
       -5    1    3    3    0  502  0.10312001928E+04 -0.43105474199E+03 -0.17773707679E+04  0.20995835217E+04  0.46999998093E+01 0.  1.
</event>
<event>
 5   0  0.1832626E-06  0.3292838E+04  0.7818609E-02  0.8164720E-01
       -2   -1    0    0    0  501  0.00000000000E+00  0.00000000000E+00  0.18967985001E+04  0.18967985001E+04  0.25500000920E-02 0. -1.
        2   -1    0    0  501    0  0.00000000000E+00  0.00000000000E+00 -0.14290895072E+04  0.14290895072E+04  0.25500000920E-02 0.  1.
    10030    2    1    2    0    0  0.00000000000E+00  0.00000000000E+00  0.46770899287E+03  0.33258880073E+04  0.32928375811E+04 0.  0.
        3    1    3    3  502    0  0.10913947373E+04 -0.11161005934E+04  0.76243480783E+03  0.17372765622E+04  0.10100000352E+00 0. -1.
       -3    1    3    3    0  502 -0.10913947373E+04  0.11161005934E+04 -0.29472581496E+03  0.15886114451E+04  0.10100000352E+00 0.  1.
</event>
<event>
 5   0  0.6085351E-07  0.3313029E+04  0.7818609E-02  0.8159588E-01
        1   -1    0    0  501    0  0.00000000000E+00  0.00000000000E+00  0.21195474212E+04  0.21195474212E+04  0.50400001928E-02 0. -1.
       -1   -1    0    0    0  501  0.00000000000E+00  0.00000000000E+00 -0.12946349283E+04  0.12946349283E+04  0.50400001928E-02 0.  1.
    10030    2    1    2    0    0  0.00000000000E+00  0.00000000000E+00  0.82491249286E+03  0.34141823495E+04  0.33130289004E+04 0.  0.
        1    1    3    3  502    0 -0.49977193720E+03  0.77342526261E+03  0.18314810562E+04  0.20499467031E+04  0.50400001928E-02 0. -1.
       -1    1    3    3    0  502  0.49977193720E+03 -0.77342526261E+03 -0.10065685634E+04  0.13642356464E+04  0.50400001928E-02 0.  1.
</event>
<event>
 5   0  0.6023446E-07  0.3213395E+04  0.7818609E-02  0.8185288E-01
       -1   -1    0    0    0  501  0.00000000000E+00  0.00000000000E+00  0.14333987259E+04  0.14333987259E+04  0.50400001928E-02 0.  1.
        1   -1    0    0  501    0  0.00000000000E+00  0.00000000000E+00 -0.18009486226E+04  0.18009486226E+04  0.50400001928E-02 0. -1.
    10030    2    1    2    0    0  0.00000000000E+00  0.00000000000E+00 -0.36754989673E+03  0.32343473485E+04  0.32133953763E+04 0.  0.
        5    1    3    3  502    0  0.17871272323E+03 -0.53928069178E+03 -0.16964691499E+04  0.17890756185E+04  0.46999998093E+01 0. -1.
       -5    1    3    3    0  502 -0.17871272323E+03  0.53928069178E+03  0.13289192532E+04  0.14452717300E+04  0.46999998093E+01 0.  1.
</event>
<event>
 5   0  0.1832626E-06  0.3270201E+04  0.7818609E-02  0.8170519E-01
        2   -1    0    0  501    0  0.00000000000E+00  0.00000000000E+00  0.77700417741E+03  0.77700417742E+03  0.25500000920E-02 0. -1.
       -2   -1    0    0    0  501  0.00000000000E+00  0.00000000000E+00 -0.34408486861E+04  0.34408486861E+04  0.25500000920E-02 0.  1.
    10030    2    1    2    0    0  0.00000000000E+00  0.00000000000E+00 -0.26638445087E+04  0.42178528635E+04  0.32702010965E+04 0.  0.
        3    1    3    3  502    0 -0.11654035270E+04 -0.11409054987E+04 -0.11808299410E+04  0.20135019487E+04  0.10100000352E+00 0. -1.
       -3    1    3    3    0  502  0.11654035270E+04  0.11409054987E+04 -0.14830145677E+04  0.22043509148E+04  0.10100000352E+00 0.  1.
</event>
<event>
 5   0  0.1743810E-06  0.3288436E+04  0.7818609E-02  0.8165844E-01
       -2   -1    0    0    0  501  0.00000000000E+00  0.00000000000E+00  0.13745900073E+04  0.13745900074E+04  0.25500000920E-02 0. -1.
        2   -1    0    0  501    0  0.00000000000E+00  0.00000000000E+00 -0.19667334626E+04  0.19667334626E+04  0.25500000920E-02 0.  1.
    10030    2    1    2    0    0  0.00000000000E+00  0.00000000000E+00 -0.59214345524E+03  0.33413234699E+04  0.32884355945E+04 0.  0.
        5    1    3    3  502    0  0.77950788731E+03  0.59292262034E+03 -0.16380093794E+04  0.19084775600E+04  0.46999998093E+01 0.  1.
       -5    1    3    3    0  502 -0.77950788731E+03 -0.59292262034E+03  0.10458659242E+04  0.14328459099E+04  0.46999998093E+01 0. -1.
</event>
<event>
 5   0  0.1743810E-06  0.3293235E+04  0.7818609E-02  0.8164619E-01
       -2   -1    0    0    0  501  0.00000000000E+00  0.00000000000E+00  0.14777824109E+04  0.14777824109E+04  0.25500000920E-02 0. -1.
        2   -1    0    0  501    0  0.00000000000E+00  0.00000000000E+00 -0.18347419172E+04  0.18347419172E+04  0.25500000920E-02 0.  1.
    10030    2    1    2    0    0  0.00000000000E+00  0.00000000000E+00 -0.35695950627E+03  0.33125243281E+04  0.32932350865E+04 0.  0.
        5    1    3    3  502    0  0.24340781783E+03 -0.73018385202E+03  0.12856944254E+04  0.14984819215E+04  0.46999998093E+01 0. -1.
       -5    1    3    3    0  502 -0.24340781783E+03  0.73018385202E+03 -0.16426539317E+04  0.18140424066E+04  0.46999998093E+01 0.  1.
</event>
<event>
 5   0  0.5988516E-07  0.3281486E+04  0.7818609E-02  0.8167622E-01
        1   -1    0    0  501    0  0.00000000000E+00  0.00000000000E+00  0.20527521966E+04  0.20527521966E+04  0.50400001928E-02 0.  1.
       -1   -1    0    0    0  501  0.00000000000E+00  0.00000000000E+00 -0.13114284816E+04  0.13114284817E+04  0.50400001928E-02 0. -1.
    10030    2    1    2    0    0  0.00000000000E+00  0.00000000000E+00  0.74132371493E+03  0.33641806782E+04  0.32814860636E+04 0.  0.
        4    1    3    3  502    0 -0.37660817946E+03 -0.12482517434E+03 -0.12615076714E+04  0.13224289255E+04  0.12699999809E+01 0. -1.
       -4    1    3    3    0  502  0.37660817946E+03  0.12482517434E+03  0.20028313863E+04  0.20417517528E+04  0.12699999809E+01 0.  1.
</event>
<event>
 5   0  0.5685000E-07  0.3283923E+04  0.7818609E-02  0.8166998E-01
       -3   -1    0    0    0  501  0.00000000000E+00  0.00000000000E+00  0.24159295387E+04  0.24159295408E+04  0.10100000352E+00 0. -1.
        3   -1    0    0  501    0  0.00000000000E+00  0.00000000000E+00 -0.11159423178E+04  0.11159423224E+04  0.10100000352E+00 0.  1.
    10030    2    1    2    0    0  0.00000000000E+00  0.00000000000E+00  0.12999872208E+04  0.35318718632E+04  0.32839232762E+04 0.  0.
        4    1    3    3  502    0 -0.58179154562E+03 -0.14187471228E+04  0.18542268394E+02  0.15335156437E+04  0.12699999809E+01 0.  1.
       -4    1    3    3    0  502  0.58179154562E+03  0.14187471228E+04  0.12814449524E+04  0.19983562195E+04  0.12699999809E+01 0. -1.
</event>
<event>
 5   0  0.5988516E-07  0.3328421E+04  0.7818609E-02  0.8155701E-01
        1   -1    0    0  501    0  0.00000000000E+00  0.00000000000E+00  0.10202980430E+04  0.10202980430E+04  0.50400001928E-02 0.  1.
       -1   -1    0    0    0  501  0.00000000000E+00  0.00000000000E+00 -0.27144970820E+04  0.27144970820E+04  0.50400001928E-02 0. -1.
    10030    2    1    2    0    0  0.00000000000E+00  0.00000000000E+00 -0.16941990390E+04  0.37347951250E+04  0.33284206828E+04 0.  0.
        4    1    3    3  502    0  0.14823765273E+04 -0.48115053082E+02 -0.57919759888E-01  0.14831577270E+04  0.12699999809E+01 0.  1.
       -4    1    3    3    0  502 -0.14823765273E+04  0.48115053082E+02 -0.16941411192E+04  0.22516373979E+04  0.12699999809E+01 0. -1.
</event>
<event>
 5   0  0.5858859E-07  0.3289027E+04  0.7818609E-02  0.8165693E-01
        1   -1    0    0  501    0  0.00000000000E+00  0.00000000000E+00  0.19085564923E+04  0.19085564923E+04  0.50400001928E-02 0. -1.
       -1   -1    0    0    0  501  0.00000000000E+00  0.00000000000E+00 -0.14170000436E+04  0.14170000436E+04  0.50400001928E-02 0.  1.
    10030    2    1    2    0    0  0.00000000000E+00  0.00000000000E+00  0.49155644865E+03  0.33255565359E+04  0.32890269886E+04 0.  0.
        3    1    3    3  502    0 -0.11057202075E+03 -0.29330338666E+03 -0.13865158351E+04  0.14215059689E+04  0.10100000352E+00 0.  1.
       -3    1    3    3    0  502  0.11057202075E+03  0.29330338666E+03  0.18780722838E+04  0.19040505670E+04  0.10100000352E+00 0. -1.
</event>
<event>
 5   0  0.6085351E-07  0.3302098E+04  0.7818609E-02  0.8162362E-01
        1   -1    0    0  501    0  0.00000000000E+00  0.00000000000E+00  0.12377815957E+04  0.12377815957E+04  0.50400001928E-02 0. -1.
       -1   -1    0    0    0  501  0.00000000000E+00  0.00000000000E+00 -0.22022977236E+04  0.22022977236E+04  0.50400001928E-02 0.  1.
    10030    2    1    2    0    0  0.00000000000E+00  0.00000000000E+00 -0.96451612792E+03  0.34400793193E+04  0.33020984786E+04 0.  0.
        1    1    3    3  502    0 -0.84058638728E+03 -0.12676760932E+04 -0.11512560812E+04  0.19076107350E+04  0.50400001928E-02 0.  1.
       -1    1    3    3    0  502  0.84058638728E+03  0.12676760932E+04  0.18673995324E+03  0.15324685843E+04  0.50400001928E-02 0. -1.
</event>
<event>
 5   0  0.1832626E-06  0.3292730E+04  0.7818609E-02  0.8164748E-01
        2   -1    0    0  501    0  0.00000000000E+00  0.00000000000E+00  0.14163469444E+04  0.14163469444E+04  0.25500000920E-02 0.  1.
       -2   -1    0    0    0  501  0.00000000000E+00  0.00000000000E+00 -0.19137382329E+04  0.19137382329E+04  0.25500000920E-02 0. -1.
    10030    2    1    2    0    0  0.00000000000E+00  0.00000000000E+00 -0.49739128850E+03  0.33300851773E+04  0.32927297482E+04 0.  0.
        3    1    3    3  502    0  0.82014775306E+03  0.36811652924E+03 -0.16436056774E+04  0.18733904422E+04  0.10100000352E+00 0. -1.
       -3    1    3    3    0  502 -0.82014775306E+03 -0.36811652924E+03  0.11462143889E+04  0.14566947352E+04  0.10100000352E+00 0.  1.
</event>
<event>
 5   0  0.1743810E-06  0.3296540E+04  0.7818609E-02  0.8163776E-01
       -2   -1    0    0    0  501  0.00000000000E+00  0.00000000000E+00  0.23455232056E+04  0.23455232056E+04  0.25500000920E-02 0.  1.
        2   -1    0    0  501    0  0.00000000000E+00  0.00000000000E+00 -0.11582890128E+04  0.11582890128E+04  0.25500000920E-02 0. -1.
    10030    2    1    2    0    0  0.00000000000E+00  0.00000000000E+00  0.11872341928E+04  0.35038122185E+04  0.32965398578E+04 0.  0.
        5    1    3    3  502    0 -0.48806065796E+03 -0.12149657345E+04 -0.47054750973E+03  0.13913238267E+04  0.46999998093E+01 0. -1.
       -5    1    3    3    0  502  0.48806065796E+03  0.12149657345E+04  0.16577817025E+04  0.21124883917E+04  0.46999998093E+01 0.  1.
</event>
<event>
 5   0  0.1743810E-06  0.3306983E+04  0.7818609E-02  0.8161121E-01
       -2   -1    0    0    0  501  0.00000000000E+00  0.00000000000E+00  0.14882449533E+04  0.14882449533E+04  0.25500000920E-02 0. -1.
        2   -1    0    0  501    0  0.00000000000E+00  0.00000000000E+00 -0.18370857499E+04  0.18370857499E+04  0.25500000920E-02 0.  1.
    10030    2    1    2    0    0  0.00000000000E+00  0.00000000000E+00 -0.34884079652E+03  0.33253307032E+04  0.33069826707E+04 0.  0.
        5    1    3    3  502    0  0.12004411304E+03  0.16298221556E+04 -0.42737257266E+03  0.16892010697E+04  0.46999998093E+01 0.  1.
       -5    1    3    3    0  502 -0.12004411304E+03 -0.16298221556E+04  0.78531776137E+02  0.16361296335E+04  0.46999998093E+01 0. -1.
</event>
<event>
 5   0  0.6085351E-07  0.3338306E+04  0.7818609E-02  0.8153216E-01
       -1   -1    0    0    0  501  0.00000000000E+00  0.00000000000E+00  0.15954902840E+04  0.15954902840E+04  0.50400001928E-02 0.  1.
        1   -1    0    0  501    0  0.00000000000E+00  0.00000000000E+00 -0.17462171100E+04  0.17462171101E+04  0.50400001928E-02 0. -1.
    10030    2    1    2    0    0  0.00000000000E+00  0.00000000000E+00 -0.15072682608E+03  0.33417073940E+04  0.33383064166E+04 0.  0.
        1    1    3    3  502    0  0.14414237978E+03 -0.12118920771E+04 -0.12152126381E+04  0.17222662941E+04  0.50400001928E-02 0. -1.
       -1    1    3    3    0  502 -0.14414237978E+03  0.12118920771E+04  0.10644858120E+04  0.16194410999E+04  0.50400001928E-02 0.  1.
</event>
<event>
 5   0  0.1728937E-06  0.3402730E+04  0.7818609E-02  0.8137237E-01
       -2   -1    0    0    0  501  0.00000000000E+00  0.00000000000E+00  0.11611729155E+04  0.11611729155E+04  0.25500000920E-02 0. -1.
        2   -1    0    0  501    0  0.00000000000E+00  0.00000000000E+00 -0.24928615620E+04  0.24928615620E+04  0.25500000920E-02 0.  1.
    10030    2    1    2    0    0  0.00000000000E+00  0.00000000000E+00 -0.13316886465E+04  0.36540344774E+04  0.34027302730E+04 0.  0.
        1    1    3    3  502    0  0.19506124755E+03 -0.48643579271E+03 -0.24040199712E+04  0.24604838331E+04  0.50400001928E-02 0.  1.
       -1    1    3    3    0  502 -0.19506124755E+03  0.48643579271E+03  0.10723313247E+04  0.11935506444E+04  0.50400001928E-02 0. -1.
</event>
<event>
 5   0  0.1728937E-06  0.3299510E+04  0.7818609E-02  0.8163020E-01
       -2   -1    0    0    0  501  0.00000000000E+00  0.00000000000E+00  0.22256229894E+04  0.22256229894E+04  0.25500000920E-02 0.  1.
        2   -1    0    0  501    0  0.00000000000E+00  0.00000000000E+00 -0.12228899095E+04  0.12228899095E+04  0.25500000920E-02 0. -1.
    10030    2    1    2    0    0  0.00000000000E+00  0.00000000000E+00  0.10027330800E+04  0.34485128989E+04  0.32995102037E+04 0.  0.
        1    1    3    3  502    0 -0.13787291163E+04  0.85106371759E+03  0.82602003715E+03  0.18186567926E+04  0.50400001928E-02 0.  1.
       -1    1    3    3    0  502  0.13787291163E+04 -0.85106371759E+03  0.17671304280E+03  0.16298561063E+04  0.50400001928E-02 0. -1.
</event>
<event>
 5   0  0.5858859E-07  0.3405671E+04  0.7818609E-02  0.8136516E-01
        1   -1    0    0  501    0  0.00000000000E+00  0.00000000000E+00  0.22195476425E+04  0.22195476425E+04  0.50400001928E-02 0. -1.
       -1   -1    0    0    0  501  0.00000000000E+00  0.00000000000E+00 -0.13064142909E+04  0.13064142910E+04  0.50400001928E-02 0.  1.
    10030    2    1    2    0    0  0.00000000000E+00  0.00000000000E+00  0.91313335154E+03  0.35259619335E+04  0.34056710115E+04 0.  0.
        3    1    3    3  502    0 -0.13895849015E+04 -0.47876131804E+03 -0.43374306256E+03  0.15324136689E+04  0.10100000352E+00 0.  1.
       -3    1    3    3    0  502  0.13895849015E+04  0.47876131804E+03  0.13468764141E+04  0.19935482646E+04  0.10100000352E+00 0. -1.
</event>
<event>
 5   0  0.1696681E-06  0.3362080E+04  0.7818609E-02  0.8147276E-01
       -2   -1    0    0    0  501  0.00000000000E+00  0.00000000000E+00  0.25679498275E+04  0.25679498275E+04  0.25500000920E-02 0.  1.
        2   -1    0    0  501    0  0.00000000000E+00  0.00000000000E+00 -0.11004478612E+04  0.11004478612E+04  0.25500000920E-02 0. -1.
    10030    2    1    2    0    0  0.00000000000E+00  0.00000000000E+00  0.14675019663E+04  0.36683976887E+04  0.33620796512E+04 0.  0.
        4    1    3    3  502    0 -0.58568951487E+03 -0.11307624888E+04 -0.46360818737E+03  0.13552085368E+04  0.12699999809E+01 0. -1.
       -4    1    3    3    0  502  0.58568951487E+03  0.11307624888E+04  0.19311101537E+04  0.23131891519E+04  0.12699999809E+01 0.  1.
</event>
<event>
 5   0  0.5985183E-07  0.3356884E+04  0.7818609E-02  0.8148570E-01
        1   -1    0    0  501    0  0.00000000000E+00  0.00000000000E+00  0.27725696532E+04  0.27725696532E+04  0.50400001928E-02 0. -1.
       -1   -1    0    0    0  501  0.00000000000E+00  0.00000000000E+00 -0.10160853311E+04  0.10160853311E+04  0.50400001928E-02 0.  1.
    10030    2    1    2    0    0  0.00000000000E+00  0.00000000000E+00  0.17564843221E+04  0.37886549843E+04  0.33568838848E+04 0.  0.
        2    1    3    3  502    0  0.14542949654E+04  0.65227482264E+03  0.28452760758E+03  0.16190714160E+04  0.25500000920E-02 0.  1.
       -2    1    3    3    0  502 -0.14542949654E+04 -0.65227482264E+03  0.14719567145E+04  0.21695835683E+04  0.25500000920E-02 0. -1.
</event>
<event>
 5   0  0.1784626E-06  0.3331425E+04  0.7818609E-02  0.8154945E-01
        2   -1    0    0  501    0  0.00000000000E+00  0.00000000000E+00  0.22914017427E+04  0.22914017427E+04  0.25500000920E-02 0. -1.
       -2   -1    0    0    0  501  0.00000000000E+00  0.00000000000E+00 -0.12108738556E+04  0.12108738556E+04  0.25500000920E-02 0.  1.
    10030    2    1    2    0    0  0.00000000000E+00  0.00000000000E+00  0.10805278870E+04  0.35022755983E+04  0.33314251983E+04 0.  0.
        2    1    3    3  502    0 -0.13635619229E+04 -0.95503958923E+03  0.48082472189E+03  0.17327995117E+04  0.25500000920E-02 0. -1.
       -2    1    3    3    0  502  0.13635619229E+04  0.95503958923E+03  0.59970316514E+03  0.17694760866E+04  0.25500000920E-02 0.  1.
</event>
<event>
 5   0  0.6085351E-07  0.2753107E+04  0.7818609E-02  0.8317977E-01
        1   -1    0    0  501    0  0.00000000000E+00  0.00000000000E+00  0.21139796976E+04  0.21139796976E+04  0.50400001928E-02 0.  1.
       -1   -1    0    0    0  501  0.00000000000E+00  0.00000000000E+00 -0.89636572647E+03  0.89636572648E+03  0.50400001928E-02 0. -1.
    10030    2    1    2    0    0  0.00000000000E+00  0.00000000000E+00  0.12176139711E+04  0.30103454241E+04  0.27531065707E+04 0.  0.
        1    1    3    3  502    0 -0.99748169133E+03 -0.83692091086E+03  0.12042828267E+03  0.13076350052E+04  0.50400001928E-02 0.  1.
       -1    1    3    3    0  502  0.99748169133E+03  0.83692091086E+03  0.10971856885E+04  0.17027104189E+04  0.50400001928E-02 0. -1.
</event>
<event>
 5   0  0.1784626E-06  0.3279800E+04  0.7818609E-02  0.8168054E-01
        2   -1    0    0  501    0  0.00000000000E+00  0.00000000000E+00  0.12170443049E+04  0.12170443049E+04  0.25500000920E-02 0. -1.
       -2   -1    0    0    0  501  0.00000000000E+00  0.00000000000E+00 -0.22096742929E+04  0.22096742929E+04  0.25500000920E-02 0.  1.
    10030    2    1    2    0    0  0.00000000000E+00  0.00000000000E+00 -0.99262998802E+03  0.34267185978E+04  0.32797996975E+04 0.  0.
        2    1    3    3  502    0  0.15432667602E+04 -0.24095130474E+03 -0.10182334755E+04  0.18645453159E+04  0.25500000920E-02 0.  1.
       -2    1    3    3    0  502 -0.15432667602E+04  0.24095130474E+03  0.25603487509E+02  0.15621732819E+04  0.25500000920E-02 0. -1.
</event>
<event>
 5   0  0.1743810E-06  0.3305168E+04  0.7818609E-02  0.8161582E-01
        2   -1    0    0  501    0  0.00000000000E+00  0.00000000000E+00  0.17313978361E+04  0.17313978361E+04  0.25500000920E-02 0. -1.
       -2   -1    0    0    0  501  0.00000000000E+00  0.00000000000E+00 -0.15773576375E+04  0.15773576376E+04  0.25500000920E-02 0.  1.
    10030    2    1    2    0    0  0.00000000000E+00  0.00000000000E+00  0.15404019852E+03  0.33087554736E+04  0.33051678326E+04 0.  0.
        5    1    3    3  502    0  0.42132662099E+03 -0.97192569755E+03  0.13468037160E+04  0.17134929304E+04  0.46999998093E+01 0. -1.
       -5    1    3    3    0  502 -0.42132662099E+03  0.97192569755E+03 -0.11927635175E+04  0.15952625432E+04  0.46999998093E+01 0.  1.
</event>
<event>
 5   0  0.1743810E-06  0.3295244E+04  0.7818609E-02  0.8164107E-01
       -2   -1    0    0    0  501  0.00000000000E+00  0.00000000000E+00  0.97202264642E+03  0.97202264643E+03  0.25500000920E-02 0.  1.
        2   -1    0    0  501    0  0.00000000000E+00  0.00000000000E+00 -0.27927926356E+04  0.27927926356E+04  0.25500000920E-02 0. -1.
    10030    2    1    2    0    0  0.00000000000E+00  0.00000000000E+00 -0.18207699892E+04  0.37648152821E+04  0.32952436563E+04 0.  0.
        5    1    3    3  502    0  0.40712940137E+03 -0.31267966331E+03  0.87831612224E+03  0.10173417429E+04  0.46999998093E+01 0.  1.
       -5    1    3    3    0  502 -0.40712940137E+03  0.31267966331E+03 -0.26990861114E+04  0.27474735391E+04  0.46999998093E+01 0. -1.
</event>
<event>
 5   0  0.1743810E-06  0.3354043E+04  0.7818609E-02  0.8149279E-01
       -2   -1    0    0    0  501  0.00000000000E+00  0.00000000000E+00  0.18509568505E+04  0.18509568505E+04  0.25500000920E-02 0. -1.
        2   -1    0    0  501    0  0.00000000000E+00  0.00000000000E+00 -0.15194312159E+04  0.15194312159E+04  0.25500000920E-02 0.  1.
    10030    2    1    2    0    0  0.00000000000E+00  0.00000000000E+00  0.33152563467E+03  0.33703880664E+04  0.33540433020E+04 0.  0.
        5    1    3    3  502    0 -0.10878885862E+04  0.12753762774E+04  0.11764100659E+03  0.16804605682E+04  0.46999998093E+01 0. -1.
       -5    1    3    3    0  502  0.10878885862E+04 -0.12753762774E+04  0.21388462807E+03  0.16899274982E+04  0.46999998093E+01 0.  1.
</event>
<event>
 5   0  0.5858859E-07  0.3319806E+04  0.7818609E-02  0.8157874E-01
       -1   -1    0    0    0  501  0.00000000000E+00  0.00000000000E+00  0.15612095000E+04  0.15612095000E+04  0.50400001928E-02 0. -1.
        1   -1    0    0  501    0  0.00000000000E+00  0.00000000000E+00 -0.17648359370E+04  0.17648359370E+04  0.50400001928E-02 0.  1.
    10030    2    1    2    0    0  0.00000000000E+00  0.00000000000E+00 -0.20362643701E+03  0.33260454369E+04  0.33198063984E+04 0.  0.
        3    1    3    3  502    0 -0.40005315615E+03  0.15810794838E+04  0.20767468552E+03  0.16440753167E+04  0.10100000352E+00 0. -1.
       -3    1    3    3    0  502  0.40005315615E+03 -0.15810794838E+04 -0.41130112253E+03  0.16819701202E+04  0.10100000352E+00 0.  1.
</event>
<event>
 5   0  0.5858859E-07  0.3306308E+04  0.7818609E-02  0.8161292E-01
       -1   -1    0    0    0  501  0.00000000000E+00  0.00000000000E+00  0.10279387428E+04  0.10279387428E+04  0.50400001928E-02 0. -1.
        1   -1    0    0  501    0  0.00000000000E+00  0.00000000000E+00 -0.26586388847E+04  0.26586388847E+04  0.50400001928E-02 0.  1.
    10030    2    1    2    0    0  0.00000000000E+00  0.00000000000E+00 -0.16307001419E+04  0.36865776275E+04  0.33063078578E+04 0.  0.
        3    1    3    3  502    0 -0.94423829155E+03  0.95335935574E+03  0.26133836946E+03  0.13670324670E+04  0.10100000352E+00 0. -1.
       -3    1    3    3    0  502  0.94423829155E+03 -0.95335935574E+03 -0.18920385114E+04  0.23195451604E+04  0.10100000352E+00 0.  1.
</event>
<event>
 5   0  0.5858859E-07  0.3322477E+04  0.7818609E-02  0.8157200E-01
        1   -1    0    0  501    0  0.00000000000E+00  0.00000000000E+00  0.22930561043E+04  0.22930561043E+04  0.50400001928E-02 0. -1.
       -1   -1    0    0    0  501  0.00000000000E+00  0.00000000000E+00 -0.12035086694E+04  0.12035086694E+04  0.50400001928E-02 0.  1.
    10030    2    1    2    0    0  0.00000000000E+00  0.00000000000E+00  0.10895474349E+04  0.34965647737E+04  0.33224767274E+04 0.  0.
        3    1    3    3  502    0  0.12216228184E+04 -0.10030724552E+03 -0.63526754818E+03  0.13805755039E+04  0.10100000352E+00 0.  1.
       -3    1    3    3    0  502 -0.12216228184E+04  0.10030724552E+03  0.17248149830E+04  0.21159892698E+04  0.10100000352E+00 0. -1.
</event>
<event>
 5   0  0.1728937E-06  0.3275409E+04  0.7818609E-02  0.8169181E-01
       -2   -1    0    0    0  501  0.00000000000E+00  0.00000000000E+00  0.15760675123E+04  0.15760675123E+04  0.25500000920E-02 0.  1.
        2   -1    0    0  501    0  0.00000000000E+00  0.00000000000E+00 -0.17017524457E+04  0.17017524457E+04  0.25500000920E-02 0. -1.
    10030    2    1    2    0    0  0.00000000000E+00  0.00000000000E+00 -0.12568493344E+03  0.32778199580E+04  0.32754094362E+04 0.  0.
        1    1    3    3  502    0 -0.44526024670E+03 -0.64119398175E+03  0.13779011710E+04  0.15836660149E+04  0.50400001928E-02 0.  1.
       -1    1    3    3    0  502  0.44526024670E+03  0.64119398175E+03 -0.15035861044E+04  0.16941539431E+04  0.50400001928E-02 0. -1.
</event>
<event>
 5   0  0.6023446E-07  0.3341501E+04  0.7818609E-02  0.8152415E-01
       -1   -1    0    0    0  501  0.00000000000E+00  0.00000000000E+00  0.96475526026E+03  0.96475526027E+03  0.50400001928E-02 0. -1.
        1   -1    0    0  501    0  0.00000000000E+00  0.00000000000E+00 -0.28933835059E+04  0.28933835059E+04  0.50400001928E-02 0.  1.
    10030    2    1    2    0    0  0.00000000000E+00  0.00000000000E+00 -0.19286282457E+04  0.38581387662E+04  0.33415008349E+04 0.  0.
        5    1    3    3  502    0 -0.10345502206E+04  0.12942790719E+04 -0.71685936827E+03  0.18053702997E+04  0.46999998093E+01 0. -1.
       -5    1    3    3    0  502  0.10345502206E+04 -0.12942790719E+04 -0.12117688774E+04  0.20527684665E+04  0.46999998093E+01 0.  1.
</event>
<event>
 5   0  0.1728937E-06  0.3289855E+04  0.7818609E-02  0.8165481E-01
       -2   -1    0    0    0  501  0.00000000000E+00  0.00000000000E+00  0.13622466141E+04  0.13622466141E+04  0.25500000920E-02 0. -1.
        2   -1    0    0  501    0  0.00000000000E+00  0.00000000000E+00 -0.19862681839E+04  0.19862681839E+04  0.25500000920E-02 0.  1.
    10030    2    1    2    0    0  0.00000000000E+00  0.00000000000E+00 -0.62402156984E+03  0.33485147980E+04  0.32898553818E+04 0.  0.
        1    1    3    3  502    0 -0.12255712622E+04  0.10911767631E+04 -0.19553495542E+03  0.16525512294E+04  0.50400001928E-02 0. -1.
       -1    1    3    3    0  502  0.12255712622E+04 -0.10911767631E+04 -0.42848661443E+03  0.16959635686E+04  0.50400001928E-02 0.  1.
</event>
<event>
 5   0  0.1832626E-06  0.3247920E+04  0.7818609E-02  0.8176275E-01
        2   -1    0    0  501    0  0.00000000000E+00  0.00000000000E+00  0.25999752627E+04  0.25999752627E+04  0.25500000920E-02 0. -1.
       -2   -1    0    0    0  501  0.00000000000E+00  0.00000000000E+00 -0.10143348785E+04  0.10143348785E+04  0.25500000920E-02 0.  1.
    10030    2    1    2    0    0  0.00000000000E+00  0.00000000000E+00  0.15856403842E+04  0.36143101411E+04  0.32479196986E+04 0.  0.
        3    1    3    3  502    0 -0.12763185471E+04 -0.92029265126E+03  0.12397728521E+04  0.20032384612E+04  0.10100000352E+00 0. -1.
       -3    1    3    3    0  502  0.12763185471E+04  0.92029265126E+03  0.34586753213E+03  0.16110716799E+04  0.10100000352E+00 0.  1.
</event>
<event>
 5   0  0.1784626E-06  0.3288467E+04  0.7818609E-02  0.8165836E-01
        2   -1    0    0  501    0  0.00000000000E+00  0.00000000000E+00  0.28291744584E+04  0.28291744584E+04  0.25500000920E-02 0.  1.
       -2   -1    0    0    0  501  0.00000000000E+00  0.00000000000E+00 -0.95558033604E+03  0.95558033604E+03  0.25500000920E-02 0. -1.
    10030    2    1    2    0    0  0.00000000000E+00  0.00000000000E+00  0.18735941224E+04  0.37847547945E+04  0.32884668037E+04 0.  0.
        2    1    3    3  502    0 -0.52190573660E+03  0.21562293200E+03  0.27140706972E+04  0.27721938237E+04  0.25500000920E-02 0.  1.
       -2    1    3    3    0  502  0.52190573660E+03 -0.21562293200E+03 -0.84047657482E+03  0.10125609708E+04  0.25500000920E-02 0. -1.
</event>
<event>
 5   0  0.5985183E-07  0.3291857E+04  0.7818609E-02  0.8164971E-01
       -1   -1    0    0    0  501  0.00000000000E+00  0.00000000000E+00  0.22505009561E+04  0.22505009561E+04  0.50400001928E-02 0.  1.
        1   -1    0    0  501    0  0.00000000000E+00  0.00000000000E+00 -0.12037676500E+04  0.12037676501E+04  0.50400001928E-02 0. -1.
    10030    2    1    2    0    0  0.00000000000E+00  0.00000000000E+00  0.10467333060E+04  0.34542686062E+04  0.32918567693E+04 0.  0.
        2    1    3    3  502    0 -0.54821319229E+03 -0.79043692852E+03 -0.87809885032E+03  0.13024537739E+04  0.25500000920E-02 0. -1.
       -2    1    3    3    0  502  0.54821319229E+03  0.79043692852E+03  0.19248321564E+04  0.21518148323E+04  0.25500000920E-02 0.  1.
</event>
<event>
 5   0  0.1743810E-06  0.3122292E+04  0.7818609E-02  0.8209647E-01
       -2   -1    0    0    0  501  0.00000000000E+00  0.00000000000E+00  0.15626564408E+04  0.15626564408E+04  0.25500000920E-02 0. -1.
        2   -1    0    0  501    0  0.00000000000E+00  0.00000000000E+00 -0.15596366328E+04  0.15596366328E+04  0.25500000920E-02 0.  1.
    10030    2    1    2    0    0  0.00000000000E+00  0.00000000000E+00  0.30198080501E+01  0.31222930736E+04  0.31222916133E+04 0.  0.
        5    1    3    3  502    0  0.54951621702E+03  0.78482723496E+02 -0.14576091865E+04  0.15597353113E+04  0.46999998093E+01 0.  1.
       -5    1    3    3    0  502 -0.54951621702E+03 -0.78482723496E+02  0.14606289946E+04  0.15625577623E+04  0.46999998093E+01 0. -1.
</event>
<event>
 5   0  0.1743810E-06  0.3194531E+04  0.7818609E-02  0.8190263E-01
       -2   -1    0    0    0  501  0.00000000000E+00  0.00000000000E+00  0.84696362947E+03  0.84696362948E+03  0.25500000920E-02 0. -1.
        2   -1    0    0  501    0  0.00000000000E+00  0.00000000000E+00 -0.30122393250E+04  0.30122393250E+04  0.25500000920E-02 0.  1.
    10030    2    1    2    0    0  0.00000000000E+00  0.00000000000E+00 -0.21652756955E+04  0.38592029544E+04  0.31945310463E+04 0.  0.
        5    1    3    3  502    0  0.10666266485E+04  0.10735410974E+04 -0.16998779807E+04  0.22759152301E+04  0.46999998093E+01 0.  1.
       -5    1    3    3    0  502 -0.10666266485E+04 -0.10735410974E+04 -0.46539771474E+03  0.15832877243E+04  0.46999998093E+01 0. -1.
</event>
<event>
 5   0  0.1728937E-06  0.3314660E+04  0.7818609E-02  0.8159175E-01
       -2   -1    0    0    0  501  0.00000000000E+00  0.00000000000E+00  0.14540762009E+04  0.14540762009E+04  0.25500000920E-02 0.  1.
        2   -1    0    0  501    0  0.00000000000E+00  0.00000000000E+00 -0.18889951901E+04  0.18889951901E+04  0.25500000920E-02 0. -1.
    10030    2    1    2    0    0  0.00000000000E+00  0.00000000000E+00 -0.43491898919E+03  0.33430713910E+04  0.33146601332E+04 0.  0.
        1    1    3    3  502    0  0.10119986410E+04  0.44068943109E+03  0.10294197129E+04  0.15093221556E+04  0.50400001928E-02 0.  1.
       -1    1    3    3    0  502 -0.10119986410E+04 -0.44068943109E+03 -0.14643387021E+04  0.18337492354E+04  0.50400001928E-02 0. -1.
</event>
<event>
 5   0  0.1696681E-06  0.3310414E+04  0.7818609E-02  0.8160251E-01
       -2   -1    0    0    0  501  0.00000000000E+00  0.00000000000E+00  0.13334317223E+04  0.13334317223E+04  0.25500000920E-02 0.  1.
        2   -1    0    0  501    0  0.00000000000E+00  0.00000000000E+00 -0.20546306951E+04  0.20546306951E+04  0.25500000920E-02 0. -1.
    10030    2    1    2    0    0  0.00000000000E+00  0.00000000000E+00 -0.72119897272E+03  0.33880624174E+04  0.33104137183E+04 0.  0.
        4    1    3    3  502    0  0.12584285581E+03 -0.14603271689E+04 -0.11476072989E+04  0.18615574098E+04  0.12699999809E+01 0. -1.
       -4    1    3    3    0  502 -0.12584285581E+03  0.14603271689E+04  0.42640832615E+03  0.15265050076E+04  0.12699999809E+01 0.  1.
</event>
<event>
 5   0  0.5985183E-07  0.3276493E+04  0.7818609E-02  0.8168903E-01
       -1   -1    0    0    0  501  0.00000000000E+00  0.00000000000E+00  0.17729028023E+04  0.17729028023E+04  0.50400001928E-02 0.  1.
        1   -1    0    0  501    0  0.00000000000E+00  0.00000000000E+00 -0.15138178869E+04  0.15138178869E+04  0.50400001928E-02 0. -1.
    10030    2    1    2    0    0  0.00000000000E+00  0.00000000000E+00  0.25908491544E+03  0.32867206892E+04  0.32764932314E+04 0.  0.
        2    1    3    3  502    0  0.12295105609E+04  0.10000016988E+04  0.54575006133E+03  0.16761690685E+04  0.25500000920E-02 0.  1.
       -2    1    3    3    0  502 -0.12295105609E+04 -0.10000016988E+04 -0.28666514589E+03  0.16105516207E+04  0.25500000920E-02 0. -1.
</event>
<event>
 5   0  0.5985183E-07  0.3342116E+04  0.7818609E-02  0.8152261E-01
       -1   -1    0    0    0  501  0.00000000000E+00  0.00000000000E+00  0.18026829024E+04  0.18026829024E+04  0.50400001928E-02 0.  1.
        1   -1    0    0  501    0  0.00000000000E+00  0.00000000000E+00 -0.15490434034E+04  0.15490434034E+04  0.50400001928E-02 0. -1.
    10030    2    1    2    0    0  0.00000000000E+00  0.00000000000E+00  0.25363949897E+03  0.33517263059E+04  0.33421155327E+04 0.  0.
        2    1    3    3  502    0  0.93180143366E+03 -0.56590134449E+03 -0.11432880461E+04  0.15797486509E+04  0.25500000920E-02 0. -1.
       -2    1    3    3    0  502 -0.93180143366E+03  0.56590134449E+03  0.13969275451E+04  0.17719776550E+04  0.25500000920E-02 0.  1.
</event>
<event>
 5   0  0.1743810E-06  0.3349571E+04  0.7818609E-02  0.8150395E-01
       -2   -1    0    0    0  501  0.00000000000E+00  0.00000000000E+00  0.12320116700E+04  0.12320116700E+04  0.25500000920E-02 0.  1.
        2   -1    0    0  501    0  0.00000000000E+00  0.00000000000E+00 -0.22766876676E+04  0.22766876676E+04  0.25500000920E-02 0. -1.
    10030    2    1    2    0    0  0.00000000000E+00  0.00000000000E+00 -0.10446759976E+04  0.35086993376E+04  0.33495705846E+04 0.  0.
        5    1    3    3  502    0 -0.10734999669E+04  0.12854855390E+04 -0.52538038182E+03  0.17552555043E+04  0.46999998093E+01 0.  1.
       -5    1    3    3    0  502  0.10734999669E+04 -0.12854855390E+04 -0.51929561579E+03  0.17534438333E+04  0.46999998093E+01 0. -1.
</event>
<event>
 5   0  0.1832626E-06  0.3445300E+04  0.7818609E-02  0.8126877E-01
       -2   -1    0    0    0  501  0.00000000000E+00  0.00000000000E+00  0.11074610726E+04  0.11074610726E+04  0.25500000920E-02 0. -1.
        2   -1    0    0  501    0  0.00000000000E+00  0.00000000000E+00 -0.26795729131E+04  0.26795729131E+04  0.25500000920E-02 0.  1.
    10030    2    1    2    0    0  0.00000000000E+00  0.00000000000E+00 -0.15721118405E+04  0.37870339857E+04  0.34452998084E+04 0.  0.
        3    1    3    3  502    0  0.35310361772E+03 -0.13651775975E+04  0.30160244473E+03  0.14419972546E+04  0.10100000352E+00 0.  1.
       -3    1    3    3    0  502 -0.35310361772E+03  0.13651775975E+04 -0.18737142852E+04  0.23450367311E+04  0.10100000352E+00 0. -1.
</event>
<event>
 5   0  0.5985183E-07  0.3321236E+04  0.7818609E-02  0.8157513E-01
        1   -1    0    0  501    0  0.00000000000E+00  0.00000000000E+00  0.28995384114E+04  0.28995384114E+04  0.50400001928E-02 0.  1.
       -1   -1    0    0    0  501  0.00000000000E+00  0.00000000000E+00 -0.95106589922E+03  0.95106589923E+03  0.50400001928E-02 0. -1.
    10030    2    1    2    0    0  0.00000000000E+00  0.00000000000E+00  0.19484725121E+04  0.38506043106E+04  0.33212359787E+04 0.  0.
        2    1    3    3  502    0 -0.55315848005E+03 -0.74552018016E+02  0.27875256963E+04  0.28428580363E+04  0.25500000920E-02 0.  1.
       -2    1    3    3    0  502  0.55315848005E+03  0.74552018016E+02 -0.83905318414E+03  0.10077462742E+04  0.25500000920E-02 0. -1.
</event>
<event>
 5   0  0.1696681E-06  0.3389158E+04  0.7818609E-02  0.8140572E-01
       -2   -1    0    0    0  501  0.00000000000E+00  0.00000000000E+00  0.12262169768E+04  0.12262169768E+04  0.25500000920E-02 0.  1.
        2   -1    0    0  501    0  0.00000000000E+00  0.00000000000E+00 -0.23418349400E+04  0.23418349400E+04  0.25500000920E-02 0. -1.
    10030    2    1    2    0    0  0.00000000000E+00  0.00000000000E+00 -0.11156179633E+04  0.35680519168E+04  0.33891578660E+04 0.  0.
        4    1    3    3  502    0  0.16865852984E+04 -0.66425664538E+02 -0.39949246288E+03  0.17345253468E+04  0.12699999809E+01 0.  1.
       -4    1    3    3    0  502 -0.16865852984E+04  0.66425664538E+02 -0.71612550038E+03  0.18335265700E+04  0.12699999809E+01 0. -1.
</event>
<event>
 5   0  0.5988516E-07  0.3307606E+04  0.7818609E-02  0.8160963E-01
        1   -1    0    0  501    0  0.00000000000E+00  0.00000000000E+00  0.12153837595E+04  0.12153837596E+04  0.50400001928E-02 0.  1.
       -1   -1    0    0    0  501  0.00000000000E+00  0.00000000000E+00 -0.22503704438E+04  0.22503704438E+04  0.50400001928E-02 0. -1.
    10030    2    1    2    0    0  0.00000000000E+00  0.00000000000E+00 -0.10349866843E+04  0.34657542034E+04  0.33076055934E+04 0.  0.
        4    1    3    3  502    0  0.98390131929E+03  0.12743870121E+04 -0.12134493498E+03  0.16145743305E+04  0.12699999809E+01 0.  1.
       -4    1    3    3    0  502 -0.98390131929E+03 -0.12743870121E+04 -0.91364174931E+03  0.18511798729E+04  0.12699999809E+01 0. -1.
</event>
<event>
 5   0  0.5858859E-07  0.3332596E+04  0.7818609E-02  0.8154650E-01
        1   -1    0    0  501    0  0.00000000000E+00  0.00000000000E+00  0.17979341968E+04  0.17979341968E+04  0.50400001928E-02 0. -1.
       -1   -1    0    0    0  501  0.00000000000E+00  0.00000000000E+00 -0.15442997294E+04  0.15442997294E+04  0.50400001928E-02 0.  1.
    10030    2    1    2    0    0  0.00000000000E+00  0.00000000000E+00  0.25363446741E+03  0.33422339262E+04  0.33325961613E+04 0.  0.
        3    1    3    3  502    0 -0.13011344902E+04 -0.10076246397E+04 -0.13526380076E+03  0.16512282345E+04  0.10100000352E+00 0. -1.
       -3    1    3    3    0  502  0.13011344902E+04  0.10076246397E+04  0.38889826817E+03  0.16910056917E+04  0.10100000352E+00 0.  1.
</event>
<event>
 5   0  0.1728937E-06  0.3260253E+04  0.7818609E-02  0.8173083E-01
        2   -1    0    0  501    0  0.00000000000E+00  0.00000000000E+00  0.10507352230E+04  0.10507352230E+04  0.25500000920E-02 0.  1.
       -2   -1    0    0    0  501  0.00000000000E+00  0.00000000000E+00 -0.25290022887E+04  0.25290022887E+04  0.25500000920E-02 0. -1.
    10030    2    1    2    0    0  0.00000000000E+00  0.00000000000E+00 -0.14782670657E+04  0.35797375118E+04  0.32602526184E+04 0.  0.
        1    1    3    3  502    0  0.84635649248E+03  0.13931937563E+04 -0.74122519161E+03  0.17907325148E+04  0.50400001928E-02 0.  1.
       -1    1    3    3    0  502 -0.84635649248E+03 -0.13931937563E+04 -0.73704187405E+03  0.17890049969E+04  0.50400001928E-02 0. -1.
</event>
<event>
 5   0  0.5985183E-07  0.2953948E+04  0.7818609E-02  0.8257005E-01
       -1   -1    0    0    0  501  0.00000000000E+00  0.00000000000E+00  0.11116727621E+04  0.11116727621E+04  0.50400001928E-02 0. -1.
        1   -1    0    0  501    0  0.00000000000E+00  0.00000000000E+00 -0.19623144807E+04  0.19623144807E+04  0.50400001928E-02 0.  1.
    10030    2    1    2    0    0  0.00000000000E+00  0.00000000000E+00 -0.85064171859E+03  0.30739872428E+04  0.29539475682E+04 0.  0.
        2    1    3    3  502    0  0.13794548002E+03 -0.13114388702E+04  0.26695755621E+03  0.13454245436E+04  0.25500000920E-02 0. -1.
       -2    1    3    3    0  502 -0.13794548002E+03  0.13114388702E+04 -0.11175992748E+04  0.17285626991E+04  0.25500000920E-02 0.  1.
</event>
<event>
 5   0  0.1728937E-06  0.3292133E+04  0.7818609E-02  0.8164900E-01
        2   -1    0    0  501    0  0.00000000000E+00  0.00000000000E+00  0.14522172880E+04  0.14522172880E+04  0.25500000920E-02 0.  1.
       -2   -1    0    0    0  501  0.00000000000E+00  0.00000000000E+00 -0.18657921090E+04  0.18657921090E+04  0.25500000920E-02 0. -1.
    10030    2    1    2    0    0  0.00000000000E+00  0.00000000000E+00 -0.41357482100E+03  0.33180093970E+04  0.32921333852E+04 0.  0.
        1    1    3    3  502    0  0.10190435341E+03 -0.15597411935E+04  0.31336838704E+03  0.15941696377E+04  0.50400001928E-02 0.  1.
       -1    1    3    3    0  502 -0.10190435341E+03  0.15597411935E+04 -0.72694320805E+03  0.17238397593E+04  0.50400001928E-02 0. -1.
</event>
<event>
 5   0  0.1832626E-06  0.3235758E+04  0.7818609E-02  0.8179437E-01
       -2   -1    0    0    0  501  0.00000000000E+00  0.00000000000E+00  0.14319975632E+04  0.14319975632E+04  0.25500000920E-02 0.  1.
        2   -1    0    0  501    0  0.00000000000E+00  0.00000000000E+00 -0.18278892474E+04  0.18278892474E+04  0.25500000920E-02 0. -1.
    10030    2    1    2    0    0  0.00000000000E+00  0.00000000000E+00 -0.39589168417E+03  0.32598868107E+04  0.32357583026E+04 0.  0.
        3    1    3    3  502    0  0.13221446585E+04  0.50918090846E+03  0.58903288026E+03  0.15343700465E+04  0.10100000352E+00 0. -1.
       -3    1    3    3    0  502 -0.13221446585E+04 -0.50918090846E+03 -0.98492456443E+03  0.17255167641E+04  0.10100000352E+00 0.  1.
</event>
<event>
 5   0  0.6085351E-07  0.3397327E+04  0.7818609E-02  0.8138563E-01
        1   -1    0    0  501    0  0.00000000000E+00  0.00000000000E+00  0.16788723328E+04  0.16788723328E+04  0.50400001928E-02 0.  1.
       -1   -1    0    0    0  501  0.00000000000E+00  0.00000000000E+00 -0.17186878746E+04  0.17186878746E+04  0.50400001928E-02 0. -1.
    10030    2    1    2    0    0  0.00000000000E+00  0.00000000000E+00 -0.39815541815E+02  0.33975602075E+04  0.33973269030E+04 0.  0.
        1    1    3    3  502    0  0.14160588977E+04  0.74366889001E+03 -0.59195343485E+03  0.17054838284E+04  0.50400001928E-02 0. -1.
       -1    1    3    3    0  502 -0.14160588977E+04 -0.74366889001E+03  0.55213789304E+03  0.16920763791E+04  0.50400001928E-02 0.  1.
</event>
<event>
 5   0  0.6085351E-07  0.3317496E+04  0.7818609E-02  0.8158458E-01
       -1   -1    0    0    0  501  0.00000000000E+00  0.00000000000E+00  0.34113459728E+04  0.34113459728E+04  0.50400001928E-02 0. -1.
        1   -1    0    0  501    0  0.00000000000E+00  0.00000000000E+00 -0.80655688256E+03  0.80655688258E+03  0.50400001928E-02 0.  1.
    10030    2    1    2    0    0  0.00000000000E+00  0.00000000000E+00  0.26047890903E+04  0.42179028554E+04  0.33174957864E+04 0.  0.
        1    1    3    3  502    0  0.10610111727E+04  0.62498759617E+03  0.27153730684E+04  0.29815440806E+04  0.50400001928E-02 0. -1.
       -1    1    3    3    0  502 -0.10610111727E+04 -0.62498759617E+03 -0.11058397812E+03  0.12363587748E+04  0.50400001928E-02 0.  1.
</event>
<event>
 5   0  0.1728937E-06  0.3293472E+04  0.7818609E-02  0.8164558E-01
       -2   -1    0    0    0  501  0.00000000000E+00  0.00000000000E+00  0.13686132179E+04  0.13686132179E+04  0.25500000920E-02 0. -1.
        2   -1    0    0  501    0  0.00000000000E+00  0.00000000000E+00 -0.19813775641E+04  0.19813775641E+04  0.25500000920E-02 0.  1.
    10030    2    1    2    0    0  0.00000000000E+00  0.00000000000E+00 -0.61276434616E+03  0.33499907820E+04  0.32934720426E+04 0.  0.
        1    1    3    3  502    0 -0.53815732674E+03 -0.24526823876E+03 -0.18696262523E+04  0.19609365468E+04  0.50400001928E-02 0.  1.
       -1    1    3    3    0  502  0.53815732674E+03  0.24526823876E+03  0.12568619061E+04  0.13890542352E+04  0.50400001928E-02 0. -1.
</event>
<event>
 5   0  0.5985183E-07  0.3332637E+04  0.7818609E-02  0.8154640E-01
       -1   -1    0    0    0  501  0.00000000000E+00  0.00000000000E+00  0.23455786942E+04  0.23455786942E+04  0.50400001928E-02 0.  1.
        1   -1    0    0  501    0  0.00000000000E+00  0.00000000000E+00 -0.11837662758E+04  0.11837662758E+04  0.50400001928E-02 0. -1.
    10030    2    1    2    0    0  0.00000000000E+00  0.00000000000E+00  0.11618124184E+04  0.35293449700E+04  0.33326367671E+04 0.  0.
        2    1    3    3  502    0 -0.45291974781E+03  0.14709977439E+04  0.12570637225E+04  0.19872543528E+04  0.25500000920E-02 0.  1.
       -2    1    3    3    0  502  0.45291974781E+03 -0.14709977439E+04 -0.95251304129E+02  0.15420906171E+04  0.25500000920E-02 0. -1.
</event>
<event>
 5   0  0.6085351E-07  0.3272282E+04  0.7818609E-02  0.8169984E-01
       -1   -1    0    0    0  501  0.00000000000E+00  0.00000000000E+00  0.10123618391E+04  0.10123618391E+04  0.50400001928E-02 0. -1.
        1   -1    0    0  501    0  0.00000000000E+00  0.00000000000E+00 -0.26442699110E+04  0.26442699110E+04  0.50400001928E-02 0.  1.
    10030    2    1    2    0    0  0.00000000000E+00  0.00000000000E+00 -0.16319080719E+04  0.36566317501E+04  0.32722823534E+04 0.  0.
        1    1    3    3  502    0 -0.63246338964E+03  0.14011429160E+03 -0.24948610177E+04  0.25775906291E+04  0.50400001928E-02 0.  1.
       -1    1    3    3    0  502  0.63246338964E+03 -0.14011429160E+03  0.86295294581E+03  0.10790411209E+04  0.50400001928E-02 0. -1.
</event>
<event>
 5   0  0.1832626E-06  0.3246682E+04  0.7818609E-02  0.8176596E-01
        2   -1    0    0  501    0  0.00000000000E+00  0.00000000000E+00  0.21574960316E+04  0.21574960316E+04  0.25500000920E-02 0. -1.
       -2   -1    0    0    0  501  0.00000000000E+00  0.00000000000E+00 -0.12214327418E+04  0.12214327418E+04  0.25500000920E-02 0.  1.
    10030    2    1    2    0    0  0.00000000000E+00  0.00000000000E+00  0.93606328982E+03  0.33789287734E+04  0.32466821793E+04 0.  0.
        3    1    3    3  502    0  0.87499531541E+03 -0.12846200360E+04 -0.19416826808E+02  0.15544267311E+04  0.10100000352E+00 0.  1.
       -3    1    3    3    0  502 -0.87499531541E+03  0.12846200360E+04  0.95548011663E+03  0.18245020423E+04  0.10100000352E+00 0. -1.
</event>
<event>
 5   0  0.5988516E-07  0.3316862E+04  0.7818609E-02  0.8158618E-01
       -1   -1    0    0    0  501  0.00000000000E+00  0.00000000000E+00  0.26229773574E+04  0.26229773574E+04  0.50400001928E-02 0. -1.
        1   -1    0    0  501    0  0.00000000000E+00  0.00000000000E+00 -0.10485766772E+04  0.10485766772E+04  0.50400001928E-02 0.  1.
    10030    2    1    2    0    0  0.00000000000E+00  0.00000000000E+00  0.15744006802E+04  0.36715540347E+04  0.33168616986E+04 0.  0.
        4    1    3    3  502    0 -0.75610939209E+03 -0.16586924548E+03  0.24107316144E+04  0.25319641682E+04  0.12699999809E+01 0. -1.
       -4    1    3    3    0  502  0.75610939209E+03  0.16586924548E+03 -0.83633093419E+03  0.11395898665E+04  0.12699999809E+01 0.  1.
</event>
<event>
 5   0  0.6085351E-07  0.3263595E+04  0.7818609E-02  0.8172221E-01
        1   -1    0    0  501    0  0.00000000000E+00  0.00000000000E+00  0.15101731645E+04  0.15101731645E+04  0.50400001928E-02 0. -1.
       -1   -1    0    0    0  501  0.00000000000E+00  0.00000000000E+00 -0.17632174905E+04  0.17632174906E+04  0.50400001928E-02 0.  1.
    10030    2    1    2    0    0  0.00000000000E+00  0.00000000000E+00 -0.25304432603E+03  0.32733906551E+04  0.32635954023E+04 0.  0.
        1    1    3    3  502    0  0.15135103537E+04 -0.26580362463E+03 -0.67716770357E+03  0.16792621167E+04  0.50400001928E-02 0.  1.
       -1    1    3    3    0  502 -0.15135103537E+04  0.26580362463E+03  0.42412337754E+03  0.15941285384E+04  0.50400001928E-02 0. -1.
</event>
<event>
 5   0  0.6085351E-07  0.2836295E+04  0.7818609E-02  0.8292088E-01
        1   -1    0    0  501    0  0.00000000000E+00  0.00000000000E+00  0.10537930043E+04  0.10537930043E+04  0.50400001928E-02 0. -1.
       -1   -1    0    0    0  501  0.00000000000E+00  0.00000000000E+00 -0.19084796588E+04  0.19084796589E+04  0.50400001928E-02 0.  1.
    10030    2    1    2    0    0  0.00000000000E+00  0.00000000000E+00 -0.85468665458E+03  0.29622726631E+04  0.28362951280E+04 0.  0.
        1    1    3    3  502    0 -0.58097162936E+03 -0.94449407337E+03  0.49597344404E+03  0.12147373156E+04  0.50400001928E-02 0. -1.
       -1    1    3    3    0  502  0.58097162936E+03  0.94449407337E+03 -0.13506600986E+04  0.17475353475E+04  0.50400001928E-02 0.  1.
</event>
<event>
 5   0  0.1784626E-06  0.3342502E+04  0.7818609E-02  0.8152164E-01
       -2   -1    0    0    0  501  0.00000000000E+00  0.00000000000E+00  0.15039990909E+04  0.15039990909E+04  0.25500000920E-02 0.  1.
        2   -1    0    0  501    0  0.00000000000E+00  0.00000000000E+00 -0.18571023361E+04  0.18571023361E+04  0.25500000920E-02 0. -1.
    10030    2    1    2    0    0  0.00000000000E+00  0.00000000000E+00 -0.35310324516E+03  0.33611014270E+04  0.33425021916E+04 0.  0.
        2    1    3    3  502    0  0.51317398726E+03 -0.90527108342E+03 -0.14915811991E+04  0.18187022156E+04  0.25500000920E-02 0. -1.
       -2    1    3    3    0  502 -0.51317398726E+03  0.90527108342E+03  0.11384779539E+04  0.15423992114E+04  0.25500000920E-02 0.  1.
</event>
<event>
 5   0  0.1696681E-06  0.3294474E+04  0.7818609E-02  0.8164303E-01
        2   -1    0    0  501    0  0.00000000000E+00  0.00000000000E+00  0.20059495550E+04  0.20059495550E+04  0.25500000920E-02 0. -1.
       -2   -1    0    0    0  501  0.00000000000E+00  0.00000000000E+00 -0.13526712334E+04  0.13526712334E+04  0.25500000920E-02 0.  1.
    10030    2    1    2    0    0  0.00000000000E+00  0.00000000000E+00  0.65327832158E+03  0.33586207884E+04  0.32944743184E+04 0.  0.
        4    1    3    3  502    0  0.64510081560E+03 -0.26985423872E+03 -0.11938470526E+04  0.13835637934E+04  0.12699999809E+01 0.  1.
       -4    1    3    3    0  502 -0.64510081560E+03  0.26985423872E+03  0.18471253742E+04  0.19750569950E+04  0.12699999809E+01 0. -1.
</event>
<event>
 5   0  0.1832626E-06  0.3286611E+04  0.7818609E-02  0.8166310E-01
        2   -1    0    0  501    0  0.00000000000E+00  0.00000000000E+00  0.16933712940E+04  0.16933712940E+04  0.25500000920E-02 0.  1.
       -2   -1    0    0    0  501  0.00000000000E+00  0.00000000000E+00 -0.15947203669E+04  0.15947203669E+04  0.25500000920E-02 0. -1.
    10030    2    1    2    0    0  0.00000000000E+00  0.00000000000E+00  0.98650927074E+02  0.32880916609E+04  0.32866114412E+04 0.  0.
        3    1    3    3  502    0 -0.85588488096E+03 -0.11249563689E+02 -0.13540850601E+04  0.16019400246E+04  0.10100000352E+00 0. -1.
       -3    1    3    3    0  502  0.85588488096E+03  0.11249563689E+02  0.14527359872E+04  0.16861516364E+04  0.10100000352E+00 0.  1.
</event>
<event>
 5   0  0.5858859E-07  0.3362972E+04  0.7818609E-02  0.8147055E-01
        1   -1    0    0  501    0  0.00000000000E+00  0.00000000000E+00  0.12332286804E+04  0.12332286804E+04  0.50400001928E-02 0. -1.
       -1   -1    0    0    0  501  0.00000000000E+00  0.00000000000E+00 -0.22926764641E+04  0.22926764641E+04  0.50400001928E-02 0.  1.
    10030    2    1    2    0    0  0.00000000000E+00  0.00000000000E+00 -0.10594477836E+04  0.35259051445E+04  0.33629715256E+04 0.  0.
        3    1    3    3  502    0  0.60643085202E+03  0.12573370669E+03 -0.21687378995E+04  0.22554359734E+04  0.10100000352E+00 0.  1.
       -3    1    3    3    0  502 -0.60643085202E+03 -0.12573370669E+03  0.11092901159E+04  0.12704691711E+04  0.10100000352E+00 0. -1.
</event>
<event>
 5   0  0.1743810E-06  0.3320017E+04  0.7818609E-02  0.8157821E-01
        2   -1    0    0  501    0  0.00000000000E+00  0.00000000000E+00  0.16476783276E+04  0.16476783276E+04  0.25500000920E-02 0.  1.
       -2   -1    0    0    0  501  0.00000000000E+00  0.00000000000E+00 -0.16724305139E+04  0.16724305139E+04  0.25500000920E-02 0. -1.
    10030    2    1    2    0    0  0.00000000000E+00  0.00000000000E+00 -0.24752186261E+02  0.33201088416E+04  0.33200165736E+04 0.  0.
        5    1    3    3  502    0  0.14885891729E+04  0.38454269478E+03 -0.63836043154E+03  0.16647212801E+04  0.46999998093E+01 0.  1.
       -5    1    3    3    0  502 -0.14885891729E+04 -0.38454269478E+03  0.61360824528E+03  0.16553875614E+04  0.46999998093E+01 0. -1.
</event>
<event>
 5   0  0.1784626E-06  0.3327124E+04  0.7818609E-02  0.8156028E-01
       -2   -1    0    0    0  501  0.00000000000E+00  0.00000000000E+00  0.13043064812E+04  0.13043064812E+04  0.25500000920E-02 0.  1.
        2   -1    0    0  501    0  0.00000000000E+00  0.00000000000E+00 -0.21217697505E+04  0.21217697505E+04  0.25500000920E-02 0. -1.
    10030    2    1    2    0    0  0.00000000000E+00  0.00000000000E+00 -0.81746326929E+03  0.34260762318E+04  0.33271237051E+04 0.  0.
        2    1    3    3  502    0 -0.37018606046E+03  0.22156771895E+02 -0.20786624033E+04  0.21114843188E+04  0.25500000920E-02 0. -1.
       -2    1    3    3    0  502  0.37018606046E+03 -0.22156771895E+02  0.12611991340E+04  0.13145919129E+04  0.25500000920E-02 0.  1.
</event>
<event>
 5   0  0.5858859E-07  0.3113456E+04  0.7818609E-02  0.8212055E-01
        1   -1    0    0  501    0  0.00000000000E+00  0.00000000000E+00  0.18742455760E+04  0.18742455760E+04  0.50400001928E-02 0. -1.
       -1   -1    0    0    0  501  0.00000000000E+00  0.00000000000E+00 -0.12930012267E+04  0.12930012267E+04  0.50400001928E-02 0.  1.
    10030    2    1    2    0    0  0.00000000000E+00  0.00000000000E+00  0.58124434937E+03  0.31672468027E+04  0.31134558477E+04 0.  0.
        3    1    3    3  502    0  0.14881926658E+04  0.29488571015E+03 -0.64299354770E+02  0.15184891866E+04  0.10100000352E+00 0.  1.
       -3    1    3    3    0  502 -0.14881926658E+04 -0.29488571015E+03  0.64554370414E+03  0.16487576161E+04  0.10100000352E+00 0. -1.
</event>
<event>
 5   0  0.1743810E-06  0.3268004E+04  0.7818609E-02  0.8171085E-01
        2   -1    0    0  501    0  0.00000000000E+00  0.00000000000E+00  0.18889979817E+04  0.18889979817E+04  0.25500000920E-02 0.  1.
       -2   -1    0    0    0  501  0.00000000000E+00  0.00000000000E+00 -0.14134278578E+04  0.14134278578E+04  0.25500000920E-02 0. -1.
    10030    2    1    2    0    0  0.00000000000E+00  0.00000000000E+00  0.47557012385E+03  0.33024258395E+04  0.32680038989E+04 0.  0.
        5    1    3    3  502    0 -0.55677710263E+02  0.33218444089E+03  0.18535302721E+04  0.18838904081E+04  0.46999998093E+01 0.  1.
       -5    1    3    3    0  502  0.55677710263E+02 -0.33218444089E+03 -0.13779601482E+04  0.14185354315E+04  0.46999998093E+01 0. -1.
</event>
<event>
 5   0  0.5685000E-07  0.3265671E+04  0.7818609E-02  0.8171686E-01
       -3   -1    0    0    0  501  0.00000000000E+00  0.00000000000E+00  0.16267247882E+04  0.16267247914E+04  0.10100000352E+00 0. -1.
        3   -1    0    0  501    0  0.00000000000E+00  0.00000000000E+00 -0.16389689181E+04  0.16389689212E+04  0.10100000352E+00 0.  1.
    10030    2    1    2    0    0  0.00000000000E+00  0.00000000000E+00 -0.12244129856E+02  0.32656937125E+04  0.32656707589E+04 0.  0.
        1    1    3    3  502    0  0.84861693784E+03 -0.13391449163E+04 -0.39688248861E+03  0.16343119420E+04  0.50400001928E-02 0.  1.
       -1    1    3    3    0  502 -0.84861693784E+03  0.13391449163E+04  0.38463835876E+03  0.16313817705E+04  0.50400001928E-02 0. -1.
</event>
<event>
 5   0  0.1743810E-06  0.3252877E+04  0.7818609E-02  0.8174990E-01
       -2   -1    0    0    0  501  0.00000000000E+00  0.00000000000E+00  0.20409824754E+04  0.20409824754E+04  0.25500000920E-02 0.  1.
        2   -1    0    0  501    0  0.00000000000E+00  0.00000000000E+00 -0.12960926352E+04  0.12960926352E+04  0.25500000920E-02 0. -1.
    10030    2    1    2    0    0  0.00000000000E+00  0.00000000000E+00  0.74488984023E+03  0.33370751106E+04  0.32528770988E+04 0.  0.
        5    1    3    3  502    0 -0.50178310651E+03  0.33762168545E+03  0.19213280743E+04  0.20142736526E+04  0.46999998093E+01 0.  1.
       -5    1    3    3    0  502  0.50178310651E+03 -0.33762168545E+03 -0.11764382341E+04  0.13228014579E+04  0.46999998093E+01 0. -1.
</event>
<event>
 5   0  0.1728937E-06  0.3147790E+04  0.7818609E-02  0.8202743E-01
       -2   -1    0    0    0  501  0.00000000000E+00  0.00000000000E+00  0.10870905118E+04  0.10870905118E+04  0.25500000920E-02 0. -1.
        2   -1    0    0  501    0  0.00000000000E+00  0.00000000000E+00 -0.22786933807E+04  0.22786933807E+04  0.25500000920E-02 0.  1.
    10030    2    1    2    0    0  0.00000000000E+00  0.00000000000E+00 -0.11916028689E+04  0.33657838925E+04  0.31477903065E+04 0.  0.
        1    1    3    3  502    0 -0.14497966498E+04 -0.28099111267E+03 -0.13790257290E+02  0.14768400396E+04  0.50400001928E-02 0. -1.
       -1    1    3    3    0  502  0.14497966498E+04  0.28099111267E+03 -0.11778126116E+04  0.18889438529E+04  0.50400001928E-02 0.  1.
</event>
<event>
 5   0  0.1696681E-06  0.3282304E+04  0.7818609E-02  0.8167413E-01
        2   -1    0    0  501    0  0.00000000000E+00  0.00000000000E+00  0.13580454213E+04  0.13580454213E+04  0.25500000920E-02 0. -1.
       -2   -1    0    0    0  501  0.00000000000E+00  0.00000000000E+00 -0.19832761556E+04  0.19832761556E+04  0.25500000920E-02 0.  1.
    10030    2    1    2    0    0  0.00000000000E+00  0.00000000000E+00 -0.62523073431E+03  0.33413215769E+04  0.32823035217E+04 0.  0.
        4    1    3    3  502    0  0.15689484967E+02  0.11789950348E+04 -0.14746758917E+04  0.18881064722E+04  0.12699999809E+01 0.  1.
       -4    1    3    3    0  502 -0.15689484967E+02 -0.11789950348E+04  0.84944515734E+03  0.14532151046E+04  0.12699999809E+01 0. -1.
</event>
<event>
 5   0  0.5858859E-07  0.3308636E+04  0.7818609E-02  0.8160701E-01
        1   -1    0    0  501    0  0.00000000000E+00  0.00000000000E+00  0.15877565493E+04  0.15877565493E+04  0.50400001928E-02 0.  1.
       -1   -1    0    0    0  501  0.00000000000E+00  0.00000000000E+00 -0.17236697963E+04  0.17236697963E+04  0.50400001928E-02 0. -1.
    10030    2    1    2    0    0  0.00000000000E+00  0.00000000000E+00 -0.13591324703E+03  0.33114263456E+04  0.33086359775E+04 0.  0.
        3    1    3    3  502    0  0.29201575873E+03 -0.11083679926E+04 -0.12618646706E+04  0.17047155973E+04  0.10100000352E+00 0. -1.
       -3    1    3    3    0  502 -0.29201575873E+03  0.11083679926E+04  0.11259514236E+04  0.16067107484E+04  0.10100000352E+00 0.  1.
</event>
<event>
 5   0  0.5988516E-07  0.3335294E+04  0.7818609E-02  0.8153972E-01
        1   -1    0    0  501    0  0.00000000000E+00  0.00000000000E+00  0.18557001238E+04  0.18557001238E+04  0.50400001928E-02 0. -1.
       -1   -1    0    0    0  501  0.00000000000E+00  0.00000000000E+00 -0.14986509335E+04  0.14986509335E+04  0.50400001928E-02 0.  1.
    10030    2    1    2    0    0  0.00000000000E+00  0.00000000000E+00  0.35704919033E+03  0.33543510573E+04  0.33352941236E+04 0.  0.
        4    1    3    3  502    0  0.60048889966E+03 -0.14143592162E+04  0.83033742409E+03  0.17465568304E+04  0.12699999809E+01 0. -1.
       -4    1    3    3    0  502 -0.60048889966E+03  0.14143592162E+04 -0.47328823376E+03  0.16077942269E+04  0.12699999809E+01 0.  1.
</event>
<event>
 5   0  0.1728937E-06  0.3334001E+04  0.7818609E-02  0.8154297E-01
        2   -1    0    0  501    0  0.00000000000E+00  0.00000000000E+00  0.14931343094E+04  0.14931343094E+04  0.25500000920E-02 0.  1.
       -2   -1    0    0    0  501  0.00000000000E+00  0.00000000000E+00 -0.18611125817E+04  0.18611125817E+04  0.25500000920E-02 0. -1.
    10030    2    1    2    0    0  0.00000000000E+00  0.00000000000E+00 -0.36797827225E+03  0.33542468911E+04  0.33340012294E+04 0.  0.
        1    1    3    3  502    0 -0.19962051964E+02  0.77840780960E+03 -0.16669051121E+04  0.18398070155E+04  0.50400001928E-02 0. -1.
       -1    1    3    3    0  502  0.19962051964E+02 -0.77840780960E+03  0.12989268398E+04  0.15144398756E+04  0.50400001928E-02 0.  1.
</event>
<event>
 5   0  0.6085351E-07  0.3309707E+04  0.7818609E-02  0.8160430E-01
       -1   -1    0    0    0  501  0.00000000000E+00  0.00000000000E+00  0.13219208408E+04  0.13219208409E+04  0.50400001928E-02 0.  1.
        1   -1    0    0  501    0  0.00000000000E+00  0.00000000000E+00 -0.20716375102E+04  0.20716375102E+04  0.50400001928E-02 0. -1.
    10030    2    1    2    0    0  0.00000000000E+00  0.00000000000E+00 -0.74971666939E+03  0.33935583511E+04  0.33097074188E+04 0.  0.
        1    1    3    3  502    0 -0.10609965315E+04  0.77247596876E+03  0.65870158850E+03  0.14684415361E+04  0.50400001928E-02 0.  1.
       -1    1    3    3    0  502  0.10609965315E+04 -0.77247596876E+03 -0.14084182579E+04  0.19251168150E+04  0.50400001928E-02 0. -1.
</event>
<event>
 5   0  0.1696681E-06  0.3295854E+04  0.7818609E-02  0.8163951E-01
       -2   -1    0    0    0  501  0.00000000000E+00  0.00000000000E+00  0.12404815786E+04  0.12404815787E+04  0.25500000920E-02 0.  1.
        2   -1    0    0  501    0  0.00000000000E+00  0.00000000000E+00 -0.21892007019E+04  0.21892007019E+04  0.25500000920E-02 0. -1.
    10030    2    1    2    0    0  0.00000000000E+00  0.00000000000E+00 -0.94871912321E+03  0.34296822805E+04  0.32958538454E+04 0.  0.
        4    1    3    3  502    0  0.39450180971E+03 -0.11012233254E+04  0.73352121498E+03  0.13807170152E+04  0.12699999809E+01 0.  1.
       -4    1    3    3    0  502 -0.39450180971E+03  0.11012233254E+04 -0.16822403382E+04  0.20489652653E+04  0.12699999809E+01 0. -1.
</event>
<event>
 5   0  0.1743810E-06  0.3321435E+04  0.7818609E-02  0.8157463E-01
        2   -1    0    0  501    0  0.00000000000E+00  0.00000000000E+00  0.20411908791E+04  0.20411908791E+04  0.25500000920E-02 0.  1.
       -2   -1    0    0    0  501  0.00000000000E+00  0.00000000000E+00 -0.13511635029E+04  0.13511635029E+04  0.25500000920E-02 0. -1.
    10030    2    1    2    0    0  0.00000000000E+00  0.00000000000E+00  0.69002737620E+03  0.33923543821E+04  0.33214350022E+04 0.  0.
        5    1    3    3  502    0 -0.37427591462E+03 -0.15648591927E+04 -0.74976618014E+02  0.16107483778E+04  0.46999998093E+01 0. -1.
       -5    1    3    3    0  502  0.37427591462E+03  0.15648591927E+04  0.76500399421E+03  0.17816060043E+04  0.46999998093E+01 0.  1.
</event>
<event>
 5   0  0.1743810E-06  0.3427439E+04  0.7818609E-02  0.8131205E-01
        2   -1    0    0  501    0  0.00000000000E+00  0.00000000000E+00  0.19601756063E+04  0.19601756063E+04  0.25500000920E-02 0. -1.
       -2   -1    0    0    0  501  0.00000000000E+00  0.00000000000E+00 -0.14982505375E+04  0.14982505375E+04  0.25500000920E-02 0.  1.
    10030    2    1    2    0    0  0.00000000000E+00  0.00000000000E+00  0.46192506875E+03  0.34584261438E+04  0.34274387847E+04 0.  0.
        5    1    3    3  502    0 -0.15149646625E+04  0.76116042577E+03  0.48287733320E+03  0.17628600997E+04  0.46999998093E+01 0. -1.
       -5    1    3    3    0  502  0.15149646625E+04 -0.76116042577E+03 -0.20952264451E+02  0.16955660440E+04  0.46999998093E+01 0.  1.
</event>
<event>
 5   0  0.5988516E-07  0.3286715E+04  0.7818609E-02  0.8166284E-01
        1   -1    0    0  501    0  0.00000000000E+00  0.00000000000E+00  0.10419561734E+04  0.10419561734E+04  0.50400001928E-02 0. -1.
       -1   -1    0    0    0  501  0.00000000000E+00  0.00000000000E+00 -0.25918792252E+04  0.25918792252E+04  0.50400001928E-02 0.  1.
    10030    2    1    2    0    0  0.00000000000E+00  0.00000000000E+00 -0.15499230518E+04  0.36338353986E+04  0.32867154178E+04 0.  0.
        4    1    3    3  502    0  0.30967033510E+03 -0.12184023872E+04 -0.19451487796E+04  0.23160322712E+04  0.12699999809E+01 0.  1.
       -4    1    3    3    0  502 -0.30967033510E+03  0.12184023872E+04  0.39522572783E+03  0.13178031274E+04  0.12699999809E+01 0. -1.
</event>
<event>
 5   0  0.5988516E-07  0.3248217E+04  0.7818609E-02  0.8176198E-01
        1   -1    0    0  501    0  0.00000000000E+00  0.00000000000E+00  0.20024509784E+04  0.20024509784E+04  0.50400001928E-02 0.  1.
       -1   -1    0    0    0  501  0.00000000000E+00  0.00000000000E+00 -0.13172497789E+04  0.13172497789E+04  0.50400001928E-02 0. -1.
    10030    2    1    2    0    0  0.00000000000E+00  0.00000000000E+00  0.68520119948E+03  0.33197007573E+04  0.32482168084E+04 0.  0.
        4    1    3    3  502    0 -0.53519122254E+03  0.98835817690E+03 -0.85556709409E+03  0.14125431660E+04  0.12699999809E+01 0. -1.
       -4    1    3    3    0  502  0.53519122254E+03 -0.98835817690E+03  0.15407682936E+04  0.19071575913E+04  0.12699999809E+01 0.  1.
</event>
<event>
 5   0  0.6085351E-07  0.3312941E+04  0.7818609E-02  0.8159610E-01
       -1   -1    0    0    0  501  0.00000000000E+00  0.00000000000E+00  0.12368282723E+04  0.12368282723E+04  0.50400001928E-02 0. -1.
        1   -1    0    0  501    0  0.00000000000E+00  0.00000000000E+00 -0.22184928527E+04  0.22184928527E+04  0.50400001928E-02 0.  1.
    10030    2    1    2    0    0  0.00000000000E+00  0.00000000000E+00 -0.98166458041E+03  0.34553211249E+04  0.33129410994E+04 0.  0.
        1    1    3    3  502    0 -0.53330914319E+03  0.62396636413E+03 -0.19914662509E+04  0.21539940794E+04  0.50400001928E-02 0.  1.
       -1    1    3    3    0  502  0.53330914319E+03 -0.62396636413E+03  0.10098016704E+04  0.13013270455E+04  0.50400001928E-02 0. -1.
</event>
<event>
 5   0  0.1743810E-06  0.3137550E+04  0.7818609E-02  0.8205508E-01
       -2   -1    0    0    0  501  0.00000000000E+00  0.00000000000E+00  0.11203070963E+04  0.11203070963E+04  0.25500000920E-02 0. -1.
        2   -1    0    0  501    0  0.00000000000E+00  0.00000000000E+00 -0.21967677965E+04  0.21967677965E+04  0.25500000920E-02 0.  1.
    10030    2    1    2    0    0  0.00000000000E+00  0.00000000000E+00 -0.10764607002E+04  0.33170748928E+04  0.31375497136E+04 0.  0.
        5    1    3    3  502    0  0.75258190417E+03 -0.17136281189E+02  0.91687968889E+03  0.11863235767E+04  0.46999998093E+01 0. -1.
       -5    1    3    3    0  502 -0.75258190417E+03  0.17136281189E+02 -0.19933403891E+04  0.21307513162E+04  0.46999998093E+01 0.  1.
</event>
<event>
 5   0  0.1696681E-06  0.3293369E+04  0.7818609E-02  0.8164585E-01
       -2   -1    0    0    0  501  0.00000000000E+00  0.00000000000E+00  0.14912479050E+04  0.14912479050E+04  0.25500000920E-02 0.  1.
        2   -1    0    0  501    0  0.00000000000E+00  0.00000000000E+00 -0.18183228562E+04  0.18183228562E+04  0.25500000920E-02 0. -1.
    10030    2    1    2    0    0  0.00000000000E+00  0.00000000000E+00 -0.32707495116E+03  0.33095707612E+04  0.32933691867E+04 0.  0.
        4    1    3    3  502    0 -0.47429465076E+03 -0.12595485211E+02  0.14210693025E+04  0.14981834458E+04  0.12699999809E+01 0.  1.
       -4    1    3    3    0  502  0.47429465076E+03  0.12595485211E+02 -0.17481442536E+04  0.18113873154E+04  0.12699999809E+01 0. -1.
</event>
<event>
 5   0  0.1728937E-06  0.3323951E+04  0.7818609E-02  0.8156828E-01
        2   -1    0    0  501    0  0.00000000000E+00  0.00000000000E+00  0.15457758417E+04  0.15457758417E+04  0.25500000920E-02 0.  1.
       -2   -1    0    0    0  501  0.00000000000E+00  0.00000000000E+00 -0.17869106084E+04  0.17869106084E+04  0.25500000920E-02 0. -1.
    10030    2    1    2    0    0  0.00000000000E+00  0.00000000000E+00 -0.24113476667E+03  0.33326864501E+04  0.33239514134E+04 0.  0.
        1    1    3    3  502    0  0.58739398575E+03  0.15524206623E+04 -0.20517897621E+03  0.16724652521E+04  0.50400001928E-02 0.  1.
       -1    1    3    3    0  502 -0.58739398575E+03 -0.15524206623E+04 -0.35955790459E+02  0.16602211979E+04  0.50400001928E-02 0. -1.
</event>
<event>
 5   0  0.1728937E-06  0.3305192E+04  0.7818609E-02  0.8161576E-01
        2   -1    0    0  501    0  0.00000000000E+00  0.00000000000E+00  0.22123927953E+04  0.22123927953E+04  0.25500000920E-02 0. -1.
       -2   -1    0    0    0  501  0.00000000000E+00  0.00000000000E+00 -0.12344431607E+04  0.12344431607E+04  0.25500000920E-02 0.  1.
    10030    2    1    2    0    0  0.00000000000E+00  0.00000000000E+00  0.97794963452E+03  0.34468359560E+04  0.33051917675E+04 0.  0.
        1    1    3    3  502    0 -0.56041823863E+03  0.11026096156E+04 -0.65401363751E+03  0.13991248710E+04  0.50400001928E-02 0.  1.
       -1    1    3    3    0  502  0.56041823863E+03 -0.11026096156E+04  0.16319632720E+04  0.20477110850E+04  0.50400001928E-02 0. -1.
</event>
<event>
 5   0  0.5985183E-07  0.2954175E+04  0.7818609E-02  0.8256939E-01
       -1   -1    0    0    0  501  0.00000000000E+00  0.00000000000E+00  0.11474340500E+04  0.11474340500E+04  0.50400001928E-02 0.  1.
        1   -1    0    0  501    0  0.00000000000E+00  0.00000000000E+00 -0.19014493340E+04  0.19014493340E+04  0.50400001928E-02 0. -1.
    10030    2    1    2    0    0  0.00000000000E+00  0.00000000000E+00 -0.75401528405E+03  0.30488833840E+04  0.29541751540E+04 0.  0.
        2    1    3    3  502    0  0.12767448403E+03  0.10972181679E+04 -0.13890568407E+04  0.17747302298E+04  0.25500000920E-02 0. -1.
       -2    1    3    3    0  502 -0.12767448403E+03 -0.10972181679E+04  0.63504155665E+03  0.12741531542E+04  0.25500000920E-02 0.  1.
</event>
<event>
 5   0  0.6023446E-07  0.3296767E+04  0.7818609E-02  0.8163718E-01
        1   -1    0    0  501    0  0.00000000000E+00  0.00000000000E+00  0.20713402042E+04  0.20713402042E+04  0.50400001928E-02 0. -1.
       -1   -1    0    0    0  501  0.00000000000E+00  0.00000000000E+00 -0.13117923790E+04  0.13117923790E+04  0.50400001928E-02 0.  1.
    10030    2    1    2    0    0  0.00000000000E+00  0.00000000000E+00  0.75954782521E+03  0.33831325832E+04  0.32967670795E+04 0.  0.
        5    1    3    3  502    0 -0.80012312735E+03 -0.13623659857E+04 -0.10254754080E+03  0.15832801982E+04  0.46999998093E+01 0.  1.
       -5    1    3    3    0  502  0.80012312735E+03  0.13623659857E+04  0.86209536601E+03  0.17998523850E+04  0.46999998093E+01 0. -1.
</event>
<event>
 5   0  0.1743810E-06  0.3372353E+04  0.7818609E-02  0.8144725E-01
        2   -1    0    0  501    0  0.00000000000E+00  0.00000000000E+00  0.11436611102E+04  0.11436611102E+04  0.25500000920E-02 0. -1.
       -2   -1    0    0    0  501  0.00000000000E+00  0.00000000000E+00 -0.24860435943E+04  0.24860435943E+04  0.25500000920E-02 0.  1.
    10030    2    1    2    0    0  0.00000000000E+00  0.00000000000E+00 -0.13423824841E+04  0.36297047045E+04  0.33723531115E+04 0.  0.
        5    1    3    3  502    0 -0.12680210477E+04 -0.75428570070E+03 -0.15497844081E+04  0.21397845913E+04  0.46999998093E+01 0.  1.
       -5    1    3    3    0  502  0.12680210477E+04  0.75428570070E+03  0.20740192405E+03  0.14899201132E+04  0.46999998093E+01 0. -1.
</event>
<event>
 5   0  0.5988516E-07  0.3324035E+04  0.7818609E-02  0.8156807E-01
       -1   -1    0    0    0  501  0.00000000000E+00  0.00000000000E+00  0.29027973074E+04  0.29027973074E+04  0.50400001928E-02 0.  1.
        1   -1    0    0  501    0  0.00000000000E+00  0.00000000000E+00 -0.95159997273E+03  0.95159997275E+03  0.50400001928E-02 0. -1.
    10030    2    1    2    0    0  0.00000000000E+00  0.00000000000E+00  0.19511973347E+04  0.38543972802E+04  0.33240348004E+04 0.  0.
        4    1    3    3  502    0  0.17829761333E+03 -0.13001614693E+04 -0.20697021191E+03  0.13285511532E+04  0.12699999809E+01 0.  1.
       -4    1    3    3    0  502 -0.17829761333E+03  0.13001614693E+04  0.21581675466E+04  0.25258461270E+04  0.12699999809E+01 0. -1.
</event>
<event>
 5   0  0.1784626E-06  0.3360829E+04  0.7818609E-02  0.8147588E-01
        2   -1    0    0  501    0  0.00000000000E+00  0.00000000000E+00  0.16836551302E+04  0.16836551302E+04  0.25500000920E-02 0.  1.
       -2   -1    0    0    0  501  0.00000000000E+00  0.00000000000E+00 -0.16771797447E+04  0.16771797447E+04  0.25500000920E-02 0. -1.
    10030    2    1    2    0    0  0.00000000000E+00  0.00000000000E+00  0.64753855673E+01  0.33608348749E+04  0.33608286367E+04 0.  0.
        2    1    3    3  502    0 -0.52208587587E+03  0.15900785134E+04 -0.14798739024E+03  0.16801260691E+04  0.25500000920E-02 0.  1.
       -2    1    3    3    0  502  0.52208587587E+03 -0.15900785134E+04  0.15446277581E+03  0.16807088057E+04  0.25500000920E-02 0. -1.
</event>
<event>
 5   0  0.6085351E-07  0.3339998E+04  0.7818609E-02  0.8152792E-01
       -1   -1    0    0    0  501  0.00000000000E+00  0.00000000000E+00  0.14102327179E+04  0.14102327179E+04  0.50400001928E-02 0. -1.
        1   -1    0    0  501    0  0.00000000000E+00  0.00000000000E+00 -0.19776146652E+04  0.19776146652E+04  0.50400001928E-02 0.  1.
    10030    2    1    2    0    0  0.00000000000E+00  0.00000000000E+00 -0.56738194728E+03  0.33878473831E+04  0.33399981463E+04 0.  0.
        1    1    3    3  502    0  0.11084555186E+04  0.11077388967E+04 -0.86914065166E+03  0.17919722577E+04  0.50400001928E-02 0.  1.
       -1    1    3    3    0  502 -0.11084555186E+04 -0.11077388967E+04  0.30175870438E+03  0.15958751254E+04  0.50400001928E-02 0. -1.
</event>
<event>
 5   0  0.1832626E-06  0.3281460E+04  0.7818609E-02  0.8167629E-01
        2   -1    0    0  501    0  0.00000000000E+00  0.00000000000E+00  0.16046221580E+04  0.16046221580E+04  0.25500000920E-02 0. -1.
       -2   -1    0    0    0  501  0.00000000000E+00  0.00000000000E+00 -0.16776501751E+04  0.16776501751E+04  0.25500000920E-02 0.  1.
    10030    2    1    2    0    0  0.00000000000E+00  0.00000000000E+00 -0.73028017126E+02  0.32822723331E+04  0.32814598241E+04 0.  0.
        3    1    3    3  502    0 -0.51731609222E+03  0.15566043793E+04 -0.73421670974E+02  0.16419573334E+04  0.10100000352E+00 0.  1.
       -3    1    3    3    0  502  0.51731609222E+03 -0.15566043793E+04  0.39365384814E+00  0.16403149996E+04  0.10100000352E+00 0. -1.
</event>
<event>
 5   0  0.1743810E-06  0.3284907E+04  0.7818609E-02  0.8166747E-01
       -2   -1    0    0    0  501  0.00000000000E+00  0.00000000000E+00  0.10020345332E+04  0.10020345332E+04  0.25500000920E-02 0. -1.
        2   -1    0    0  501    0  0.00000000000E+00  0.00000000000E+00 -0.26921753757E+04  0.26921753757E+04  0.25500000920E-02 0.  1.
    10030    2    1    2    0    0  0.00000000000E+00  0.00000000000E+00 -0.16901408425E+04  0.36942099089E+04  0.32849065106E+04 0.  0.
        5    1    3    3  502    0 -0.50987862967E+02 -0.82214854704E+03 -0.24430740091E+04  0.25782088162E+04  0.46999998093E+01 0.  1.
       -5    1    3    3    0  502  0.50987862967E+02  0.82214854704E+03  0.75293316665E+03  0.11160010927E+04  0.46999998093E+01 0. -1.
</event>
<event>
 5   0  0.6085351E-07  0.3389744E+04  0.7818609E-02  0.8140428E-01
        1   -1    0    0  501    0  0.00000000000E+00  0.00000000000E+00  0.90767822064E+03  0.90767822065E+03  0.50400001928E-02 0. -1.
       -1   -1    0    0    0  501  0.00000000000E+00  0.00000000000E+00 -0.31647673359E+04  0.31647673359E+04  0.50400001928E-02 0.  1.
    10030    2    1    2    0    0  0.00000000000E+00  0.00000000000E+00 -0.22570891152E+04  0.40724455565E+04  0.33897435798E+04 0.  0.
        1    1    3    3  502    0 -0.63810003758E+03 -0.74517191076E+03 -0.27889752832E+04  0.29564904811E+04  0.50400001928E-02 0.  1.
       -1    1    3    3    0  502  0.63810003758E+03  0.74517191076E+03  0.53188616800E+03  0.11159550754E+04  0.50400001928E-02 0. -1.
</event>
<event>
 5   0  0.5988516E-07  0.3281065E+04  0.7818609E-02  0.8167730E-01
       -1   -1    0    0    0  501  0.00000000000E+00  0.00000000000E+00  0.21643339677E+04  0.21643339677E+04  0.50400001928E-02 0.  1.
        1   -1    0    0  501    0  0.00000000000E+00  0.00000000000E+00 -0.12434985688E+04  0.12434985688E+04  0.50400001928E-02 0. -1.
    10030    2    1    2    0    0  0.00000000000E+00  0.00000000000E+00  0.92083539892E+03  0.34078325365E+04  0.32810645780E+04 0.  0.
        4    1    3    3  502    0 -0.17541349316E+03  0.10271980951E+04  0.17764311816E+04  0.20595181902E+04  0.12699999809E+01 0.  1.
       -4    1    3    3    0  502  0.17541349316E+03 -0.10271980951E+04 -0.85559578264E+03  0.13483143463E+04  0.12699999809E+01 0. -1.
</event>
<event>
 5   0  0.5685000E-07  0.3289114E+04  0.7818609E-02  0.8165671E-01
        3   -1    0    0  501    0  0.00000000000E+00  0.00000000000E+00  0.19634291744E+04  0.19634291770E+04  0.10100000352E+00 0. -1.
       -3   -1    0    0    0  501  0.00000000000E+00  0.00000000000E+00 -0.13774715062E+04  0.13774715099E+04  0.10100000352E+00 0.  1.
    10030    2    1    2    0    0  0.00000000000E+00  0.00000000000E+00  0.58595766820E+03  0.33409006869E+04  0.32891140160E+04 0.  0.
        4    1    3    3  502    0 -0.94131325906E+02  0.70471188987E+02 -0.13731955138E+04  0.13782214725E+04  0.12699999809E+01 0.  1.
       -4    1    3    3    0  502  0.94131325906E+02 -0.70471188987E+02  0.19591531820E+04  0.19626792144E+04  0.12699999809E+01 0. -1.
</event>
<event>
 5   0  0.6023446E-07  0.3321437E+04  0.7818609E-02  0.8157462E-01
        1   -1    0    0  501    0  0.00000000000E+00  0.00000000000E+00  0.18434371530E+04  0.18434371530E+04  0.50400001928E-02 0. -1.
       -1   -1    0    0    0  501  0.00000000000E+00  0.00000000000E+00 -0.14961101905E+04  0.14961101905E+04  0.50400001928E-02 0.  1.
    10030    2    1    2    0    0  0.00000000000E+00  0.00000000000E+00  0.34732696249E+03  0.33395473435E+04  0.33214365026E+04 0.  0.
        5    1    3    3  502    0  0.70171624777E+03  0.52088657715E+03 -0.12462103766E+04  0.15221008217E+04  0.46999998093E+01 0.  1.
       -5    1    3    3    0  502 -0.70171624777E+03 -0.52088657715E+03  0.15935373391E+04  0.18174465218E+04  0.46999998093E+01 0. -1.
</event>
<event>
 5   0  0.1743810E-06  0.3309135E+04  0.7818609E-02  0.8160575E-01
        2   -1    0    0  501    0  0.00000000000E+00  0.00000000000E+00  0.11508104608E+04  0.11508104608E+04  0.25500000920E-02 0.  1.
       -2   -1    0    0    0  501  0.00000000000E+00  0.00000000000E+00 -0.23788397040E+04  0.23788397040E+04  0.25500000920E-02 0. -1.
    10030    2    1    2    0    0  0.00000000000E+00  0.00000000000E+00 -0.12280292433E+04  0.35296501648E+04  0.33091350023E+04 0.  0.
        5    1    3    3  502    0  0.12718678004E+04 -0.10362515717E+04 -0.84304773470E+03  0.18445098521E+04  0.46999998093E+01 0. -1.
       -5    1    3    3    0  502 -0.12718678004E+04  0.10362515717E+04 -0.38498150857E+03  0.16851403127E+04  0.46999998093E+01 0.  1.
</event>
<event>
 5   0  0.1743810E-06  0.3404684E+04  0.7818609E-02  0.8136758E-01
       -2   -1    0    0    0  501  0.00000000000E+00  0.00000000000E+00  0.13711132800E+04  0.13711132800E+04  0.25500000920E-02 0.  1.
        2   -1    0    0  501    0  0.00000000000E+00  0.00000000000E+00 -0.21135875203E+04  0.21135875203E+04  0.25500000920E-02 0. -1.
    10030    2    1    2    0    0  0.00000000000E+00  0.00000000000E+00 -0.74247424033E+03  0.34847008003E+04  0.34046837841E+04 0.  0.
        5    1    3    3  502    0 -0.35867229320E+03 -0.28291394452E+03  0.13072000388E+04  0.13847310733E+04  0.46999998093E+01 0.  1.
       -5    1    3    3    0  502  0.35867229320E+03  0.28291394452E+03 -0.20496742791E+04  0.20999697270E+04  0.46999998093E+01 0. -1.
</event>
<event>
 5   0  0.1832626E-06  0.3288208E+04  0.7818609E-02  0.8165902E-01
        2   -1    0    0  501    0  0.00000000000E+00  0.00000000000E+00  0.14583551593E+04  0.14583551593E+04  0.25500000920E-02 0. -1.
       -2   -1    0    0    0  501  0.00000000000E+00  0.00000000000E+00 -0.18535116231E+04  0.18535116231E+04  0.25500000920E-02 0.  1.
    10030    2    1    2    0    0  0.00000000000E+00  0.00000000000E+00 -0.39515646380E+03  0.33118667825E+04  0.32882081677E+04 0.  0.
        3    1    3    3  502    0  0.14379717001E+03 -0.13308027007E+04 -0.11591012262E+04  0.17706578205E+04  0.10100000352E+00 0. -1.
       -3    1    3    3    0  502 -0.14379717001E+03  0.13308027007E+04  0.76394476240E+03  0.15412089620E+04  0.10100000352E+00 0.  1.
</event>
<event>
 5   0  0.1743810E-06  0.3293022E+04  0.7818609E-02  0.8164673E-01
       -2   -1    0    0    0  501  0.00000000000E+00  0.00000000000E+00  0.14571536010E+04  0.14571536010E+04  0.25500000920E-02 0. -1.
        2   -1    0    0  501    0  0.00000000000E+00  0.00000000000E+00 -0.18604749677E+04  0.18604749677E+04  0.25500000920E-02 0.  1.
    10030    2    1    2    0    0  0.00000000000E+00  0.00000000000E+00 -0.40332136667E+03  0.33176285687E+04  0.32930215905E+04 0.  0.
        5    1    3    3  502    0  0.12420728043E+04  0.30486769188E+03  0.84304820673E+03  0.15318098869E+04  0.46999998093E+01 0. -1.
       -5    1    3    3    0  502 -0.12420728043E+04 -0.30486769188E+03 -0.12463695734E+04  0.17858186818E+04  0.46999998093E+01 0.  1.
</event>
<event>
 5   0  0.5985183E-07  0.3040902E+04  0.7818609E-02  0.8232146E-01
        1   -1    0    0  501    0  0.00000000000E+00  0.00000000000E+00  0.10014906998E+04  0.10014906998E+04  0.50400001928E-02 0. -1.
       -1   -1    0    0    0  501  0.00000000000E+00  0.00000000000E+00 -0.23083308531E+04  0.23083308531E+04  0.50400001928E-02 0.  1.
    10030    2    1    2    0    0  0.00000000000E+00  0.00000000000E+00 -0.13068401533E+04  0.33098215529E+04  0.30409024197E+04 0.  0.
        2    1    3    3  502    0  0.50548304831E+03 -0.23770884397E+03 -0.21926032391E+04  0.22626373043E+04  0.25500000920E-02 0.  1.
       -2    1    3    3    0  502 -0.50548304831E+03  0.23770884397E+03  0.88576308573E+03  0.10471842487E+04  0.25500000920E-02 0. -1.
</event>
<event>
 5   0  0.1832626E-06  0.3202264E+04  0.7818609E-02  0.8188220E-01
       -2   -1    0    0    0  501  0.00000000000E+00  0.00000000000E+00  0.25358833857E+04  0.25358833857E+04  0.25500000920E-02 0.  1.
        2   -1    0    0  501    0  0.00000000000E+00  0.00000000000E+00 -0.10109388545E+04  0.10109388545E+04  0.25500000920E-02 0. -1.
    10030    2    1    2    0    0  0.00000000000E+00  0.00000000000E+00  0.15249445312E+04  0.35468222402E+04  0.32022636026E+04 0.  0.
        3    1    3    3  502    0 -0.75281247831E+03  0.12454444655E+04  0.22977543113E+02  0.14554678017E+04  0.10100000352E+00 0.  1.
       -3    1    3    3    0  502  0.75281247831E+03 -0.12454444655E+04  0.15019669880E+04  0.20913544385E+04  0.10100000352E+00 0. -1.
</event>
<event>
 5   0  0.1696681E-06  0.3274122E+04  0.7818609E-02  0.8169512E-01
        2   -1    0    0  501    0  0.00000000000E+00  0.00000000000E+00  0.18188631022E+04  0.18188631022E+04  0.25500000920E-02 0. -1.
       -2   -1    0    0    0  501  0.00000000000E+00  0.00000000000E+00 -0.14734303214E+04  0.14734303214E+04  0.25500000920E-02 0.  1.
    10030    2    1    2    0    0  0.00000000000E+00  0.00000000000E+00  0.34543278076E+03  0.32922934235E+04  0.32741215892E+04 0.  0.
        4    1    3    3  502    0  0.15131421262E+03  0.16250960427E+04  0.44994526722E+02  0.16327459261E+04  0.12699999809E+01 0. -1.
       -4    1    3    3    0  502 -0.15131421262E+03 -0.16250960427E+04  0.30043825404E+03  0.16595474974E+04  0.12699999809E+01 0.  1.
</event>
<event>
 5   0  0.1832626E-06  0.3333312E+04  0.7818609E-02  0.8154471E-01
        2   -1    0    0  501    0  0.00000000000E+00  0.00000000000E+00  0.19547579514E+04  0.19547579514E+04  0.25500000920E-02 0.  1.
       -2   -1    0    0    0  501  0.00000000000E+00  0.00000000000E+00 -0.14210156531E+04  0.14210156531E+04  0.25500000920E-02 0. -1.
    10030    2    1    2    0    0  0.00000000000E+00  0.00000000000E+00  0.53374229828E+03  0.33757736045E+04  0.33333116548E+04 0.  0.
        3    1    3    3  502    0  0.75725155499E+03 -0.44679886396E+03 -0.11670332305E+04  0.14611727187E+04  0.10100000352E+00 0. -1.
       -3    1    3    3    0  502 -0.75725155499E+03  0.44679886396E+03  0.17007755288E+04  0.19146008858E+04  0.10100000352E+00 0.  1.
</event>
<event>
 5   0  0.5985183E-07  0.3232597E+04  0.7818609E-02  0.8180261E-01
        1   -1    0    0  501    0  0.00000000000E+00  0.00000000000E+00  0.15610436504E+04  0.15610436505E+04  0.50400001928E-02 0. -1.
       -1   -1    0    0    0  501  0.00000000000E+00  0.00000000000E+00 -0.16735086581E+04  0.16735086581E+04  0.50400001928E-02 0.  1.
    10030    2    1    2    0    0  0.00000000000E+00  0.00000000000E+00 -0.11246500770E+03  0.32345523086E+04  0.32325965197E+04 0.  0.
        2    1    3    3  502    0  0.12967106152E+03  0.10838150740E+04  0.11365249299E+04  0.15758041170E+04  0.25500000920E-02 0. -1.
       -2    1    3    3    0  502 -0.12967106152E+03 -0.10838150740E+04 -0.12489899376E+04  0.16587481916E+04  0.25500000920E-02 0.  1.
</event>
<event>
 5   0  0.1784626E-06  0.3297983E+04  0.7818609E-02  0.8163409E-01
        2   -1    0    0  501    0  0.00000000000E+00  0.00000000000E+00  0.18556593621E+04  0.18556593621E+04  0.25500000920E-02 0.  1.
       -2   -1    0    0    0  501  0.00000000000E+00  0.00000000000E+00 -0.14653410244E+04  0.14653410244E+04  0.25500000920E-02 0. -1.
    10030    2    1    2    0    0  0.00000000000E+00  0.00000000000E+00  0.39031833765E+03  0.33210003865E+04  0.32979834994E+04 0.  0.
        2    1    3    3  502    0 -0.86820615244E+03 -0.99555401840E+03  0.11890960127E+04  0.17773179384E+04  0.25500000920E-02 0.  1.
       -2    1    3    3    0  502  0.86820615244E+03  0.99555401840E+03 -0.79877767500E+03  0.15436824482E+04  0.25500000920E-02 0. -1.
</event>
<event>
 5   0  0.5988516E-07  0.3314785E+04  0.7818609E-02  0.8159143E-01
        1   -1    0    0  501    0  0.00000000000E+00  0.00000000000E+00  0.97516634774E+03  0.97516634775E+03  0.50400001928E-02 0. -1.
       -1   -1    0    0    0  501  0.00000000000E+00  0.00000000000E+00 -0.28169043470E+04  0.28169043470E+04  0.50400001928E-02 0.  1.
    10030    2    1    2    0    0  0.00000000000E+00  0.00000000000E+00 -0.18417379992E+04  0.37920706947E+04  0.33147852564E+04 0.  0.
        4    1    3    3  502    0 -0.29583196722E+03  0.31847101792E+03  0.90879779824E+03  0.10074003142E+04  0.12699999809E+01 0. -1.
       -4    1    3    3    0  502  0.29583196722E+03 -0.31847101792E+03 -0.27505357975E+04  0.27846703805E+04  0.12699999809E+01 0.  1.
</event>
<event>
 5   0  0.5988516E-07  0.3227666E+04  0.7818609E-02  0.8181549E-01
        1   -1    0    0  501    0  0.00000000000E+00  0.00000000000E+00  0.13594297358E+04  0.13594297358E+04  0.50400001928E-02 0.  1.
       -1   -1    0    0    0  501  0.00000000000E+00  0.00000000000E+00 -0.19158454449E+04  0.19158454449E+04  0.50400001928E-02 0. -1.
    10030    2    1    2    0    0  0.00000000000E+00  0.00000000000E+00 -0.55641570907E+03  0.32752751807E+04  0.32276661953E+04 0.  0.
        4    1    3    3  502    0  0.14082699576E+04 -0.35716357113E+03  0.43476927243E+03  0.15165144322E+04  0.12699999809E+01 0.  1.
       -4    1    3    3    0  502 -0.14082699576E+04  0.35716357113E+03 -0.99118498150E+03  0.17587607485E+04  0.12699999809E+01 0. -1.
</event>
<event>
 5   0  0.1696681E-06  0.3291693E+04  0.7818609E-02  0.8165012E-01
       -2   -1    0    0    0  501  0.00000000000E+00  0.00000000000E+00  0.16759097810E+04  0.16759097810E+04  0.25500000920E-02 0.  1.
        2   -1    0    0  501    0  0.00000000000E+00  0.00000000000E+00 -0.16163229915E+04  0.16163229915E+04  0.25500000920E-02 0. -1.
    10030    2    1    2    0    0  0.00000000000E+00  0.00000000000E+00  0.59586789510E+02  0.32922327725E+04  0.32916934916E+04 0.  0.
        4    1    3    3  502    0 -0.11928638966E+04 -0.58016640196E+03  0.10042694798E+04  0.16637536268E+04  0.12699999809E+01 0.  1.
       -4    1    3    3    0  502  0.11928638966E+04  0.58016640196E+03 -0.94468269031E+03  0.16284791457E+04  0.12699999809E+01 0. -1.
</event>
<event>
 5   0  0.5858859E-07  0.3281822E+04  0.7818609E-02  0.8167536E-01
        1   -1    0    0  501    0  0.00000000000E+00  0.00000000000E+00  0.13249070730E+04  0.13249070730E+04  0.50400001928E-02 0.  1.
       -1   -1    0    0    0  501  0.00000000000E+00  0.00000000000E+00 -0.20322846303E+04  0.20322846304E+04  0.50400001928E-02 0. -1.
    10030    2    1    2    0    0  0.00000000000E+00  0.00000000000E+00 -0.70737755737E+03  0.33571917033E+04  0.32818216168E+04 0.  0.
        3    1    3    3  502    0 -0.46041577915E+03  0.11200347603E+04  0.77904806005E+03  0.14399223743E+04  0.10100000352E+00 0.  1.
       -3    1    3    3    0  502  0.46041577915E+03 -0.11200347603E+04 -0.14864256174E+04  0.19172693291E+04  0.10100000352E+00 0. -1.
</event>
<event>
 5   0  0.5985183E-07  0.3054217E+04  0.7818609E-02  0.8228416E-01
       -1   -1    0    0    0  501  0.00000000000E+00  0.00000000000E+00  0.12509554413E+04  0.12509554413E+04  0.50400001928E-02 0. -1.
        1   -1    0    0  501    0  0.00000000000E+00  0.00000000000E+00 -0.18642234901E+04  0.18642234901E+04  0.50400001928E-02 0.  1.
    10030    2    1    2    0    0  0.00000000000E+00  0.00000000000E+00 -0.61326804881E+03  0.31151789314E+04  0.30542170969E+04 0.  0.
        2    1    3    3  502    0  0.32089526074E+03  0.14634195604E+04 -0.60832488516E+03  0.16169816771E+04  0.25500000920E-02 0. -1.
       -2    1    3    3    0  502 -0.32089526074E+03 -0.14634195604E+04 -0.49431636473E+01  0.14981972544E+04  0.25500000920E-02 0.  1.
</event>
<event>
 5   0  0.1728937E-06  0.3306556E+04  0.7818609E-02  0.8161229E-01
       -2   -1    0    0    0  501  0.00000000000E+00  0.00000000000E+00  0.16054511959E+04  0.16054511959E+04  0.25500000920E-02 0. -1.
        2   -1    0    0  501    0  0.00000000000E+00  0.00000000000E+00 -0.17025293044E+04  0.17025293044E+04  0.25500000920E-02 0.  1.
    10030    2    1    2    0    0  0.00000000000E+00  0.00000000000E+00 -0.97078108455E+02  0.33079805003E+04  0.33065557354E+04 0.  0.
        1    1    3    3  502    0 -0.15775357618E+04  0.31962263078E+03  0.32918157715E+03  0.16429054193E+04  0.50400001928E-02 0. -1.
       -1    1    3    3    0  502  0.15775357618E+04 -0.31962263078E+03 -0.42625968560E+03  0.16650750810E+04  0.50400001928E-02 0.  1.
</event>
<event>
 5   0  0.1832626E-06  0.3288798E+04  0.7818609E-02  0.8165752E-01
        2   -1    0    0  501    0  0.00000000000E+00  0.00000000000E+00  0.30799275283E+04  0.30799275283E+04  0.25500000920E-02 0.  1.
       -2   -1    0    0    0  501  0.00000000000E+00  0.00000000000E+00 -0.87795831176E+03  0.87795831177E+03  0.25500000920E-02 0. -1.
    10030    2    1    2    0    0  0.00000000000E+00  0.00000000000E+00  0.22019692165E+04  0.39578858401E+04  0.32887979403E+04 0.  0.
        3    1    3    3  502    0 -0.79943284804E+02 -0.11544274151E+03  0.30726990834E+04  0.30759059840E+04  0.10100000352E+00 0.  1.
       -3    1    3    3    0  502  0.79943284804E+02  0.11544274151E+03 -0.87072986681E+03  0.88197985607E+03  0.10100000352E+00 0. -1.
</event>
<event>
 5   0  0.1696681E-06  0.3319336E+04  0.7818609E-02  0.8157993E-01
       -2   -1    0    0    0  501  0.00000000000E+00  0.00000000000E+00  0.22731459967E+04  0.22731459968E+04  0.25500000920E-02 0. -1.
        2   -1    0    0  501    0  0.00000000000E+00  0.00000000000E+00 -0.12117558334E+04  0.12117558334E+04  0.25500000920E-02 0.  1.
    10030    2    1    2    0    0  0.00000000000E+00  0.00000000000E+00  0.10613901634E+04  0.34849018301E+04  0.33193360310E+04 0.  0.
        4    1    3    3  502    0 -0.98607501381E+03 -0.12682932535E+04  0.93278821088E+02  0.16092278463E+04  0.12699999809E+01 0.  1.
       -4    1    3    3    0  502  0.98607501381E+03  0.12682932535E+04  0.96811134227E+03  0.18756739839E+04  0.12699999809E+01 0. -1.
</event>
<event>
 5   0  0.6085351E-07  0.3291516E+04  0.7818609E-02  0.8165057E-01
        1   -1    0    0  501    0  0.00000000000E+00  0.00000000000E+00  0.13670725193E+04  0.13670725193E+04  0.50400001928E-02 0.  1.
       -1   -1    0    0    0  501  0.00000000000E+00  0.00000000000E+00 -0.19812555361E+04  0.19812555361E+04  0.50400001928E-02 0. -1.
    10030    2    1    2    0    0  0.00000000000E+00  0.00000000000E+00 -0.61418301680E+03  0.33483280555E+04  0.32915163662E+04 0.  0.
        1    1    3    3  502    0 -0.14105921575E+04 -0.55849704841E+03  0.34175041080E+03  0.15551471092E+04  0.50400001928E-02 0.  1.
       -1    1    3    3    0  502  0.14105921575E+04  0.55849704841E+03 -0.95593342760E+03  0.17931809463E+04  0.50400001928E-02 0. -1.
</event>
<event>
 5   0  0.1696681E-06  0.3262775E+04  0.7818609E-02  0.8172432E-01
       -2   -1    0    0    0  501  0.00000000000E+00  0.00000000000E+00  0.22131811673E+04  0.22131811673E+04  0.25500000920E-02 0.  1.
        2   -1    0    0  501    0  0.00000000000E+00  0.00000000000E+00 -0.12025338515E+04  0.12025338515E+04  0.25500000920E-02 0. -1.
    10030    2    1    2    0    0  0.00000000000E+00  0.00000000000E+00  0.10106473157E+04  0.34157150188E+04  0.32627750601E+04 0.  0.
        4    1    3    3  502    0  0.75469134699E+03  0.10780367830E+04 -0.50408312889E+03  0.14091925874E+04  0.12699999809E+01 0. -1.
       -4    1    3    3    0  502 -0.75469134699E+03 -0.10780367830E+04  0.15147304446E+04  0.20065224313E+04  0.12699999809E+01 0.  1.
</event>
<event>
 5   0  0.5858859E-07  0.3301723E+04  0.7818609E-02  0.8162457E-01
        1   -1    0    0  501    0  0.00000000000E+00  0.00000000000E+00  0.19824122766E+04  0.19824122766E+04  0.50400001928E-02 0.  1.
       -1   -1    0    0    0  501  0.00000000000E+00  0.00000000000E+00 -0.13747615833E+04  0.13747615833E+04  0.50400001928E-02 0. -1.
    10030    2    1    2    0    0  0.00000000000E+00  0.00000000000E+00  0.60765069327E+03  0.33571738599E+04  0.33017233319E+04 0.  0.
        3    1    3    3  502    0 -0.81955025404E+03 -0.25836061621E+03 -0.11294333678E+04  0.14191661529E+04  0.10100000352E+00 0. -1.
       -3    1    3    3    0  502  0.81955025404E+03  0.25836061621E+03  0.17370840611E+04  0.19380077070E+04  0.10100000352E+00 0.  1.
</event>
<event>
 5   0  0.1832626E-06  0.3340923E+04  0.7818609E-02  0.8152560E-01
        2   -1    0    0  501    0  0.00000000000E+00  0.00000000000E+00  0.17715091377E+04  0.17715091377E+04  0.25500000920E-02 0. -1.
       -2   -1    0    0    0  501  0.00000000000E+00  0.00000000000E+00 -0.15751779818E+04  0.15751779818E+04  0.25500000920E-02 0.  1.
    10030    2    1    2    0    0  0.00000000000E+00  0.00000000000E+00  0.19633115589E+03  0.33466871195E+04  0.33409233384E+04 0.  0.
        3    1    3    3  502    0 -0.13556777646E+04  0.50699919312E+03 -0.73725870720E+03  0.16243339542E+04  0.10100000352E+00 0.  1.
       -3    1    3    3    0  502  0.13556777646E+04 -0.50699919312E+03  0.93358986309E+03  0.17223531653E+04  0.10100000352E+00 0. -1.
</event>
<event>
 5   0  0.1832626E-06  0.3308598E+04  0.7818609E-02  0.8160711E-01
       -2   -1    0    0    0  501  0.00000000000E+00  0.00000000000E+00  0.11897614846E+04  0.11897614846E+04  0.25500000920E-02 0.  1.
        2   -1    0    0  501    0  0.00000000000E+00  0.00000000000E+00 -0.23002127844E+04  0.23002127844E+04  0.25500000920E-02 0. -1.
    10030    2    1    2    0    0  0.00000000000E+00  0.00000000000E+00 -0.11104512997E+04  0.34899742690E+04  0.33085976348E+04 0.  0.
        3    1    3    3  502    0  0.12447478025E+04 -0.36018558855E+03  0.52953423201E+03  0.13998347271E+04  0.10100000352E+00 0.  1.
       -3    1    3    3    0  502 -0.12447478025E+04  0.36018558855E+03 -0.16399855317E+04  0.20901395419E+04  0.10100000352E+00 0. -1.
</event>
<event>
 5   0  0.6085351E-07  0.3430011E+04  0.7818609E-02  0.8130580E-01
       -1   -1    0    0    0  501  0.00000000000E+00  0.00000000000E+00  0.15383996899E+04  0.15383996899E+04  0.50400001928E-02 0. -1.
        1   -1    0    0  501    0  0.00000000000E+00  0.00000000000E+00 -0.19118858624E+04  0.19118858624E+04  0.50400001928E-02 0.  1.
    10030    2    1    2    0    0  0.00000000000E+00  0.00000000000E+00 -0.37348617248E+03  0.34502855524E+04  0.34300114390E+04 0.  0.
        1    1    3    3  502    0 -0.68716587352E+03  0.15711870941E+04 -0.20732854621E+03  0.17273711090E+04  0.50400001928E-02 0. -1.
       -1    1    3    3    0  502  0.68716587352E+03 -0.15711870941E+04 -0.16615762627E+03  0.17229144433E+04  0.50400001928E-02 0.  1.
</event>
<event>
 5   0  0.6085351E-07  0.3352373E+04  0.7818609E-02  0.8149695E-01
        1   -1    0    0  501    0  0.00000000000E+00  0.00000000000E+00  0.21009210357E+04  0.21009210357E+04  0.50400001928E-02 0.  1.
       -1   -1    0    0    0  501  0.00000000000E+00  0.00000000000E+00 -0.13373190066E+04  0.13373190066E+04  0.50400001928E-02 0. -1.
    10030    2    1    2    0    0  0.00000000000E+00  0.00000000000E+00  0.76360202907E+03  0.34382400423E+04  0.33523732683E+04 0.  0.
        1    1    3    3  502    0 -0.86008778895E+03 -0.86425075363E+03 -0.79784260568E+03  0.14571318380E+04  0.50400001928E-02 0. -1.
       -1    1    3    3    0  502  0.86008778895E+03  0.86425075363E+03  0.15614446347E+04  0.19811082043E+04  0.50400001928E-02 0.  1.
</event>
<event>
 5   0  0.1728937E-06  0.3310998E+04  0.7818609E-02  0.8160103E-01
       -2   -1    0    0    0  501  0.00000000000E+00  0.00000000000E+00  0.11646852014E+04  0.11646852014E+04  0.25500000920E-02 0.  1.
        2   -1    0    0  501    0  0.00000000000E+00  0.00000000000E+00 -0.23531480742E+04  0.23531480742E+04  0.25500000920E-02 0. -1.
    10030    2    1    2    0    0  0.00000000000E+00  0.00000000000E+00 -0.11884628728E+04  0.35178332756E+04  0.33109978790E+04 0.  0.
        1    1    3    3  502    0 -0.11181796252E+04  0.14314213968E+03 -0.18823461513E+04  0.21940926096E+04  0.50400001928E-02 0. -1.
       -1    1    3    3    0  502  0.11181796252E+04 -0.14314213968E+03  0.69388327849E+03  0.13237406659E+04  0.50400001928E-02 0.  1.
</event>
<event>
 5   0  0.5988516E-07  0.3281766E+04  0.7818609E-02  0.8167551E-01
        1   -1    0    0  501    0  0.00000000000E+00  0.00000000000E+00  0.16288425976E+04  0.16288425976E+04  0.50400001928E-02 0.  1.
       -1   -1    0    0    0  501  0.00000000000E+00  0.00000000000E+00 -0.16530124435E+04  0.16530124435E+04  0.50400001928E-02 0. -1.
    10030    2    1    2    0    0  0.00000000000E+00  0.00000000000E+00 -0.24169845874E+02  0.32818550411E+04  0.32817660382E+04 0.  0.
        4    1    3    3  502    0 -0.12070142316E+04 -0.98553627207E+03 -0.52622956051E+03  0.16447140366E+04  0.12699999809E+01 0. -1.
       -4    1    3    3    0  502  0.12070142316E+04  0.98553627207E+03  0.50205971464E+03  0.16371410046E+04  0.12699999809E+01 0.  1.
</event>
<event>
 5   0  0.1743810E-06  0.3400132E+04  0.7818609E-02  0.8137874E-01
        2   -1    0    0  501    0  0.00000000000E+00  0.00000000000E+00  0.25172848256E+04  0.25172848256E+04  0.25500000920E-02 0. -1.
       -2   -1    0    0    0  501  0.00000000000E+00  0.00000000000E+00 -0.11481514677E+04  0.11481514677E+04  0.25500000920E-02 0.  1.
    10030    2    1    2    0    0  0.00000000000E+00  0.00000000000E+00  0.13691333579E+04  0.36654362933E+04  0.34001319193E+04 0.  0.
        5    1    3    3  502    0  0.43385891097E+03 -0.12534923369E+04  0.18308936686E+04  0.22609003315E+04  0.46999998093E+01 0. -1.
       -5    1    3    3    0  502 -0.43385891097E+03  0.12534923369E+04 -0.46176031073E+03  0.14045359618E+04  0.46999998093E+01 0.  1.
</event>
<event>
 5   0  0.5985183E-07  0.3297652E+04  0.7818609E-02  0.8163493E-01
       -1   -1    0    0    0  501  0.00000000000E+00  0.00000000000E+00  0.11628860279E+04  0.11628860279E+04  0.50400001928E-02 0.  1.
        1   -1    0    0  501    0  0.00000000000E+00  0.00000000000E+00 -0.23378274501E+04  0.23378274501E+04  0.50400001928E-02 0. -1.
    10030    2    1    2    0    0  0.00000000000E+00  0.00000000000E+00 -0.11749414222E+04  0.35007134780E+04  0.32976518175E+04 0.  0.
        2    1    3    3  502    0 -0.90321618117E+03  0.12744632369E+04 -0.27172011798E+02  0.15623041735E+04  0.25500000920E-02 0.  1.
       -2    1    3    3    0  502  0.90321618117E+03 -0.12744632369E+04 -0.11477694104E+04  0.19384093045E+04  0.25500000920E-02 0. -1.
</event>
<event>
 5   0  0.6023446E-07  0.3296813E+04  0.7818609E-02  0.8163707E-01
       -1   -1    0    0    0  501  0.00000000000E+00  0.00000000000E+00  0.99047311346E+03  0.99047311347E+03  0.50400001928E-02 0.  1.
        1   -1    0    0  501    0  0.00000000000E+00  0.00000000000E+00 -0.27433802588E+04  0.27433802588E+04  0.50400001928E-02 0. -1.
    10030    2    1    2    0    0  0.00000000000E+00  0.00000000000E+00 -0.17529071453E+04  0.37338533722E+04  0.32968132409E+04 0.  0.
        5    1    3    3  502    0  0.23176182624E+03  0.44675265079E+03  0.90131935056E+03  0.10323275337E+04  0.46999998093E+01 0.  1.
       -5    1    3    3    0  502 -0.23176182624E+03 -0.44675265079E+03 -0.26542264959E+04  0.27015258386E+04  0.46999998093E+01 0. -1.
</event>
<event>
 5   0  0.6085351E-07  0.3297184E+04  0.7818609E-02  0.8163612E-01
        1   -1    0    0  501    0  0.00000000000E+00  0.00000000000E+00  0.24130769540E+04  0.24130769540E+04  0.50400001928E-02 0. -1.
       -1   -1    0    0    0  501  0.00000000000E+00  0.00000000000E+00 -0.11263027806E+04  0.11263027806E+04  0.50400001928E-02 0.  1.
    10030    2    1    2    0    0  0.00000000000E+00  0.00000000000E+00  0.12867741734E+04  0.35393797347E+04  0.32971838185E+04 0.  0.
        1    1    3    3  502    0 -0.16266921075E+04  0.70400842796E+02  0.92077051786E+03  0.18705351742E+04  0.50400001928E-02 0.  1.
       -1    1    3    3    0  502  0.16266921075E+04 -0.70400842796E+02  0.36600365554E+03  0.16688445605E+04  0.50400001928E-02 0. -1.
</event>
<event>
 5   0  0.1743810E-06  0.3350313E+04  0.7818609E-02  0.8150210E-01
        2   -1    0    0  501    0  0.00000000000E+00  0.00000000000E+00  0.20544258878E+04  0.20544258878E+04  0.25500000920E-02 0.  1.
       -2   -1    0    0    0  501  0.00000000000E+00  0.00000000000E+00 -0.13659047520E+04  0.13659047520E+04  0.25500000920E-02 0. -1.
    10030    2    1    2    0    0  0.00000000000E+00  0.00000000000E+00  0.68852113581E+03  0.34203306398E+04  0.33503134676E+04 0.  0.
        5    1    3    3  502    0 -0.13333539672E+04 -0.25891896161E+02 -0.69064312402E+03  0.15018366112E+04  0.46999998093E+01 0. -1.
       -5    1    3    3    0  502  0.13333539672E+04  0.25891896161E+02  0.13791642598E+04  0.19184940286E+04  0.46999998093E+01 0.  1.
</event>
<event>
 5   0  0.5985183E-07  0.3262873E+04  0.7818609E-02  0.8172407E-01
        1   -1    0    0  501    0  0.00000000000E+00  0.00000000000E+00  0.94622133810E+03  0.94622133811E+03  0.50400001928E-02 0.  1.
       -1   -1    0    0    0  501  0.00000000000E+00  0.00000000000E+00 -0.28128561187E+04  0.28128561187E+04  0.50400001928E-02 0. -1.
    10030    2    1    2    0    0  0.00000000000E+00  0.00000000000E+00 -0.18666347806E+04  0.37590774568E+04  0.32628726488E+04 0.  0.
        2    1    3    3  502    0 -0.12117239244E+04 -0.92125476641E+02  0.32071224265E+03  0.12568286737E+04  0.25500000920E-02 0.  1.
       -2    1    3    3    0  502  0.12117239244E+04  0.92125476641E+02 -0.21873470232E+04  0.25022487831E+04  0.25500000920E-02 0. -1.
</event>
<event>
 5   0  0.5858859E-07  0.3272569E+04  0.7818609E-02  0.8169910E-01
        1   -1    0    0  501    0  0.00000000000E+00  0.00000000000E+00  0.18915406866E+04  0.18915406866E+04  0.50400001928E-02 0.  1.
       -1   -1    0    0    0  501  0.00000000000E+00  0.00000000000E+00 -0.14154743582E+04  0.14154743582E+04  0.50400001928E-02 0. -1.
    10030    2    1    2    0    0  0.00000000000E+00  0.00000000000E+00  0.47606632840E+03  0.33070150447E+04  0.32725692288E+04 0.  0.
        3    1    3    3  502    0  0.15237166833E+04 -0.10741217880E+03 -0.35480822575E+03  0.15681641478E+04  0.10100000352E+00 0. -1.
       -3    1    3    3    0  502 -0.15237166833E+04  0.10741217880E+03  0.83087455415E+03  0.17388508970E+04  0.10100000352E+00 0.  1.
</event>
<event>
 5   0  0.1832626E-06  0.3298006E+04  0.7818609E-02  0.8163403E-01
       -2   -1    0    0    0  501  0.00000000000E+00  0.00000000000E+00  0.27285491294E+04  0.27285491294E+04  0.25500000920E-02 0. -1.
        2   -1    0    0  501    0  0.00000000000E+00  0.00000000000E+00 -0.99657740349E+03  0.99657740350E+03  0.25500000920E-02 0.  1.
    10030    2    1    2    0    0  0.00000000000E+00  0.00000000000E+00  0.17319717259E+04  0.37251265329E+04  0.32980057045E+04 0.  0.
        3    1    3    3  502    0  0.17037554362E+02  0.41197472843E+03  0.26693827723E+04  0.27010401423E+04  0.10100000352E+00 0. -1.
       -3    1    3    3    0  502 -0.17037554362E+02 -0.41197472843E+03 -0.93741104643E+03  0.10240863905E+04  0.10100000352E+00 0.  1.
</event>
<event>
 5   0  0.1743810E-06  0.3007985E+04  0.7818609E-02  0.8241455E-01
        2   -1    0    0  501    0  0.00000000000E+00  0.00000000000E+00  0.14340408056E+04  0.14340408057E+04  0.25500000920E-02 0.  1.
       -2   -1    0    0    0  501  0.00000000000E+00  0.00000000000E+00 -0.15773559194E+04  0.15773559194E+04  0.25500000920E-02 0. -1.
    10030    2    1    2    0    0  0.00000000000E+00  0.00000000000E+00 -0.14331511372E+03  0.30113967250E+04  0.30079845435E+04 0.  0.
        5    1    3    3  502    0 -0.15139608919E+03 -0.26271701759E+03  0.14031155451E+04  0.14355125670E+04  0.46999998093E+01 0.  1.
       -5    1    3    3    0  502  0.15139608919E+03  0.26271701759E+03 -0.15464306588E+04  0.15758841580E+04  0.46999998093E+01 0. -1.
</event>
<event>
 5   0  0.1728937E-06  0.3313364E+04  0.7818609E-02  0.8159503E-01
        2   -1    0    0  501    0  0.00000000000E+00  0.00000000000E+00  0.19244244213E+04  0.19244244213E+04  0.25500000920E-02 0. -1.
       -2   -1    0    0    0  501  0.00000000000E+00  0.00000000000E+00 -0.14261900604E+04  0.14261900604E+04  0.25500000920E-02 0.  1.
    10030    2    1    2    0    0  0.00000000000E+00  0.00000000000E+00  0.49823436091E+03  0.33506144817E+04  0.33133638385E+04 0.  0.
        1    1    3    3  502    0  0.96798238532E+02  0.16472654488E+04  0.10000905061E+03  0.16531349515E+04  0.50400001928E-02 0.  1.
       -1    1    3    3    0  502 -0.96798238532E+02 -0.16472654488E+04  0.39822531030E+03  0.16974795302E+04  0.50400001928E-02 0. -1.
</event>
<event>
 5   0  0.5988516E-07  0.3150302E+04  0.7818609E-02  0.8202067E-01
        1   -1    0    0  501    0  0.00000000000E+00  0.00000000000E+00  0.17854469903E+04  0.17854469903E+04  0.50400001928E-02 0.  1.
       -1   -1    0    0    0  501  0.00000000000E+00  0.00000000000E+00 -0.13896245311E+04  0.13896245311E+04  0.50400001928E-02 0. -1.
    10030    2    1    2    0    0  0.00000000000E+00  0.00000000000E+00  0.39582245921E+03  0.31750715213E+04  0.31503021675E+04 0.  0.
        4    1    3    3  502    0 -0.10956465462E+03 -0.51208132359E+02  0.17807601033E+04  0.17848626963E+04  0.12699999809E+01 0.  1.
       -4    1    3    3    0  502  0.10956465462E+03  0.51208132359E+02 -0.13849376441E+04  0.13902088250E+04  0.12699999809E+01 0. -1.
</event>
<event>
 5   0  0.6023446E-07  0.3315555E+04  0.7818609E-02  0.8158949E-01
       -1   -1    0    0    0  501  0.00000000000E+00  0.00000000000E+00  0.10698571911E+04  0.10698571911E+04  0.50400001928E-02 0. -1.
        1   -1    0    0  501    0  0.00000000000E+00  0.00000000000E+00 -0.25687793125E+04  0.25687793125E+04  0.50400001928E-02 0.  1.
    10030    2    1    2    0    0  0.00000000000E+00  0.00000000000E+00 -0.14989221214E+04  0.36386365037E+04  0.33155554708E+04 0.  0.
        5    1    3    3  502    0  0.64732955075E+03 -0.77499136322E+02 -0.24221771718E+04  0.25083871322E+04  0.46999998093E+01 0.  1.
       -5    1    3    3    0  502 -0.64732955075E+03  0.77499136322E+02  0.92325505046E+03  0.11302493714E+04  0.46999998093E+01 0. -1.
</event>
<event>
 5   0  0.5858859E-07  0.3284016E+04  0.7818609E-02  0.8166974E-01
       -1   -1    0    0    0  501  0.00000000000E+00  0.00000000000E+00  0.98315629231E+03  0.98315629232E+03  0.50400001928E-02 0.  1.
        1   -1    0    0  501    0  0.00000000000E+00  0.00000000000E+00 -0.27423827501E+04  0.27423827501E+04  0.50400001928E-02 0. -1.
    10030    2    1    2    0    0  0.00000000000E+00  0.00000000000E+00 -0.17592264578E+04  0.37255390424E+04  0.32840163561E+04 0.  0.
        3    1    3    3  502    0  0.10580348154E+04 -0.15024149049E+03  0.53466403350E+03  0.11949375779E+04  0.10100000352E+00 0.  1.
       -3    1    3    3    0  502 -0.10580348154E+04  0.15024149049E+03 -0.22938904913E+04  0.25306014646E+04  0.10100000352E+00 0. -1.
</event>
<event>
 5   0  0.1784626E-06  0.3274176E+04  0.7818609E-02  0.8169498E-01
       -2   -1    0    0    0  501  0.00000000000E+00  0.00000000000E+00  0.16610725372E+04  0.16610725372E+04  0.25500000920E-02 0. -1.
        2   -1    0    0  501    0  0.00000000000E+00  0.00000000000E+00 -0.16134495137E+04  0.16134495137E+04  0.25500000920E-02 0.  1.
    10030    2    1    2    0    0  0.00000000000E+00  0.00000000000E+00  0.47623023573E+02  0.32745220509E+04  0.32741757298E+04 0.  0.
        2    1    3    3  502    0 -0.11088233015E+04 -0.51549124803E+03  0.11124285236E+04  0.16530933310E+04  0.25500000920E-02 0.  1.
       -2    1    3    3    0  502  0.11088233015E+04  0.51549124803E+03 -0.10648055001E+04  0.16214287199E+04  0.25500000920E-02 0. -1.
</event>
<event>
 5   0  0.5858859E-07  0.3217067E+04  0.7818609E-02  0.8184324E-01
       -1   -1    0    0    0  501  0.00000000000E+00  0.00000000000E+00  0.21821664302E+04  0.21821664302E+04  0.50400001928E-02 0. -1.
        1   -1    0    0  501    0  0.00000000000E+00  0.00000000000E+00 -0.11856933501E+04  0.11856933501E+04  0.50400001928E-02 0.  1.
    10030    2    1    2    0    0  0.00000000000E+00  0.00000000000E+00  0.99647308010E+03  0.33678597802E+04  0.32170671270E+04 0.  0.
        3    1    3    3  502    0  0.51351463948E+03  0.12634872624E+03 -0.10920864408E+04  0.12133895047E+04  0.10100000352E+00 0.  1.
       -3    1    3    3    0  502 -0.51351463948E+03 -0.12634872624E+03  0.20885595209E+04  0.21544702756E+04  0.10100000352E+00 0. -1.
</event>
<event>
 5   0  0.5985183E-07  0.3665088E+04  0.7818609E-02  0.8075743E-01
        1   -1    0    0  501    0  0.00000000000E+00  0.00000000000E+00  0.18777019245E+04  0.18777019245E+04  0.50400001928E-02 0. -1.
       -1   -1    0    0    0  501  0.00000000000E+00  0.00000000000E+00 -0.17884716614E+04  0.17884716614E+04  0.50400001928E-02 0.  1.
    10030    2    1    2    0    0  0.00000000000E+00  0.00000000000E+00  0.89230263047E+02  0.36661735859E+04  0.36650875463E+04 0.  0.
        2    1    3    3  502    0 -0.70954569613E+03 -0.15201204710E+04  0.78239408251E+03  0.18510434467E+04  0.25500000920E-02 0. -1.
       -2    1    3    3    0  502  0.70954569613E+03  0.15201204710E+04 -0.69316381946E+03  0.18151301391E+04  0.25500000920E-02 0.  1.
</event>
<event>
 5   0  0.5988516E-07  0.3314797E+04  0.7818609E-02  0.8159141E-01
        1   -1    0    0  501    0  0.00000000000E+00  0.00000000000E+00  0.25590006778E+04  0.25590006779E+04  0.50400001928E-02 0. -1.
       -1   -1    0    0    0  501  0.00000000000E+00  0.00000000000E+00 -0.10734539407E+04  0.10734539407E+04  0.50400001928E-02 0.  1.
    10030    2    1    2    0    0  0.00000000000E+00  0.00000000000E+00  0.14855467372E+04  0.36324546185E+04  0.33147967430E+04 0.  0.
        4    1    3    3  502    0  0.15361150503E+03  0.14964522880E+04 -0.19598362126E+02  0.15044439682E+04  0.12699999809E+01 0.  1.
       -4    1    3    3    0  502 -0.15361150503E+03 -0.14964522880E+04  0.15051450993E+04  0.21280106503E+04  0.12699999809E+01 0. -1.
</event>
<event>
 5   0  0.1728937E-06  0.3129503E+04  0.7818609E-02  0.8207688E-01
       -2   -1    0    0    0  501  0.00000000000E+00  0.00000000000E+00  0.12279859771E+04  0.12279859771E+04  0.25500000920E-02 0. -1.
        2   -1    0    0  501    0  0.00000000000E+00  0.00000000000E+00 -0.19938718722E+04  0.19938718722E+04  0.25500000920E-02 0.  1.
    10030    2    1    2    0    0  0.00000000000E+00  0.00000000000E+00 -0.76588589509E+03  0.32218578494E+04  0.31295026438E+04 0.  0.
        1    1    3    3  502    0  0.85386620376E+03  0.10108961059E+04 -0.12427223815E+04  0.18153119149E+04  0.50400001928E-02 0.  1.
       -1    1    3    3    0  502 -0.85386620376E+03 -0.10108961059E+04  0.47683648643E+03  0.14065459345E+04  0.50400001928E-02 0. -1.
</event>
<event>
 5   0  0.1832626E-06  0.3288049E+04  0.7818609E-02  0.8165943E-01
       -2   -1    0    0    0  501  0.00000000000E+00  0.00000000000E+00  0.15271524264E+04  0.15271524264E+04  0.25500000920E-02 0. -1.
        2   -1    0    0  501    0  0.00000000000E+00  0.00000000000E+00 -0.17698410982E+04  0.17698410982E+04  0.25500000920E-02 0.  1.
    10030    2    1    2    0    0  0.00000000000E+00  0.00000000000E+00 -0.24268867179E+03  0.32969935247E+04  0.32880493473E+04 0.  0.
        3    1    3    3  502    0  0.11887734852E+04 -0.88869886644E+03 -0.83026755333E+03  0.17006799507E+04  0.10100000352E+00 0.  1.
       -3    1    3    3    0  502 -0.11887734852E+04  0.88869886644E+03  0.58757888154E+03  0.15963135740E+04  0.10100000352E+00 0. -1.
</event>
<event>
 5   0  0.5985183E-07  0.3271394E+04  0.7818609E-02  0.8170213E-01
        1   -1    0    0  501    0  0.00000000000E+00  0.00000000000E+00  0.18209369425E+04  0.18209369425E+04  0.50400001928E-02 0.  1.
       -1   -1    0    0    0  501  0.00000000000E+00  0.00000000000E+00 -0.14693010940E+04  0.14693010940E+04  0.50400001928E-02 0. -1.
    10030    2    1    2    0    0  0.00000000000E+00  0.00000000000E+00  0.35163584853E+03  0.32902380365E+04  0.32713939792E+04 0.  0.
        2    1    3    3  502    0  0.73034806147E+03 -0.80492031890E+03  0.14052336983E+04  0.17765097122E+04  0.25500000920E-02 0.  1.
       -2    1    3    3    0  502 -0.73034806147E+03  0.80492031890E+03 -0.10535978498E+04  0.15137283243E+04  0.25500000920E-02 0. -1.
</event>
<event>
 5   0  0.6023446E-07  0.3272925E+04  0.7818609E-02  0.8169819E-01
        1   -1    0    0  501    0  0.00000000000E+00  0.00000000000E+00  0.23367408200E+04  0.23367408200E+04  0.50400001928E-02 0. -1.
       -1   -1    0    0    0  501  0.00000000000E+00  0.00000000000E+00 -0.11460450396E+04  0.11460450396E+04  0.50400001928E-02 0.  1.
    10030    2    1    2    0    0  0.00000000000E+00  0.00000000000E+00  0.11906957804E+04  0.34827858596E+04  0.32729254349E+04 0.  0.
        5    1    3    3  502    0  0.97670539492E+03 -0.17915182703E+03  0.19794975628E+04  0.22146063977E+04  0.46999998093E+01 0. -1.
       -5    1    3    3    0  502 -0.97670539492E+03  0.17915182703E+03 -0.78880178243E+03  0.12681794619E+04  0.46999998093E+01 0.  1.
</event>
<event>
 5   0  0.1743810E-06  0.3281445E+04  0.7818609E-02  0.8167633E-01
        2   -1    0    0  501    0  0.00000000000E+00  0.00000000000E+00  0.24632824102E+04  0.24632824102E+04  0.25500000920E-02 0.  1.
       -2   -1    0    0    0  501  0.00000000000E+00  0.00000000000E+00 -0.10928389513E+04  0.10928389513E+04  0.25500000920E-02 0. -1.
    10030    2    1    2    0    0  0.00000000000E+00  0.00000000000E+00  0.13704434589E+04  0.35561213615E+04  0.32814453924E+04 0.  0.
        5    1    3    3  502    0  0.56318582888E+03  0.90806571964E+03 -0.66406258711E+03  0.12580790272E+04  0.46999998093E+01 0. -1.
       -5    1    3    3    0  502 -0.56318582888E+03 -0.90806571964E+03  0.20345060460E+04  0.22980423343E+04  0.46999998093E+01 0.  1.
</event>
<event>
 5   0  0.1728937E-06  0.3309953E+04  0.7818609E-02  0.8160367E-01
        2   -1    0    0  501    0  0.00000000000E+00  0.00000000000E+00  0.21790746583E+04  0.21790746583E+04  0.25500000920E-02 0. -1.
       -2   -1    0    0    0  501  0.00000000000E+00  0.00000000000E+00 -0.12569315590E+04  0.12569315590E+04  0.25500000920E-02 0.  1.
    10030    2    1    2    0    0  0.00000000000E+00  0.00000000000E+00  0.92214309932E+03  0.34360062173E+04  0.33099532973E+04 0.  0.
        1    1    3    3  502    0  0.14422513035E+04  0.49168848065E+03 -0.20935755363E+03  0.15380757360E+04  0.50400001928E-02 0.  1.
       -1    1    3    3    0  502 -0.14422513035E+04 -0.49168848065E+03  0.11315006530E+04  0.18979304813E+04  0.50400001928E-02 0. -1.
</event>
<event>
 5   0  0.5685000E-07  0.3243269E+04  0.7818609E-02  0.8177482E-01
       -3   -1    0    0    0  501  0.00000000000E+00  0.00000000000E+00  0.19025215657E+04  0.19025215684E+04  0.10100000352E+00 0. -1.
        3   -1    0    0  501    0  0.00000000000E+00  0.00000000000E+00 -0.13822176585E+04  0.13822176622E+04  0.10100000352E+00 0.  1.
    10030    2    1    2    0    0  0.00000000000E+00  0.00000000000E+00  0.52030390721E+03  0.32847392305E+04  0.32432692853E+04 0.  0.
        4    1    3    3  502    0  0.72945670436E+03  0.32435193665E+03 -0.11694154373E+04  0.14159256126E+04  0.12699999809E+01 0.  1.
       -4    1    3    3    0  502 -0.72945670436E+03 -0.32435193665E+03  0.16897193446E+04  0.18688136179E+04  0.12699999809E+01 0. -1.
</event>
<event>
 5   0  0.5988516E-07  0.2906764E+04  0.7818609E-02  0.8270868E-01
       -1   -1    0    0    0  501  0.00000000000E+00  0.00000000000E+00  0.15518380170E+04  0.15518380170E+04  0.50400001928E-02 0.  1.
        1   -1    0    0  501    0  0.00000000000E+00  0.00000000000E+00 -0.13611727824E+04  0.13611727824E+04  0.50400001928E-02 0. -1.
    10030    2    1    2    0    0  0.00000000000E+00  0.00000000000E+00  0.19066523455E+03  0.29130107994E+04  0.29067642983E+04 0.  0.
        4    1    3    3  502    0  0.87908426672E+03  0.58695762913E+03 -0.90431267278E+03  0.13910756376E+04  0.12699999809E+01 0. -1.
       -4    1    3    3    0  502 -0.87908426672E+03 -0.58695762913E+03  0.10949779073E+04  0.15219351618E+04  0.12699999809E+01 0.  1.
</event>
<event>
 5   0  0.1696681E-06  0.3290287E+04  0.7818609E-02  0.8165371E-01
       -2   -1    0    0    0  501  0.00000000000E+00  0.00000000000E+00  0.23347724780E+04  0.23347724780E+04  0.25500000920E-02 0. -1.
        2   -1    0    0  501    0  0.00000000000E+00  0.00000000000E+00 -0.11592122895E+04  0.11592122895E+04  0.25500000920E-02 0.  1.
    10030    2    1    2    0    0  0.00000000000E+00  0.00000000000E+00  0.11755601885E+04  0.34939847675E+04  0.32902868870E+04 0.  0.
        4    1    3    3  502    0  0.30319092539E+03 -0.16168992526E+04  0.60307329198E+03  0.17521378196E+04  0.12699999809E+01 0.  1.
       -4    1    3    3    0  502 -0.30319092539E+03  0.16168992526E+04  0.57248689655E+03  0.17418469479E+04  0.12699999809E+01 0. -1.
</event>
<event>
 5   0  0.1728937E-06  0.3292846E+04  0.7818609E-02  0.8164718E-01
        2   -1    0    0  501    0  0.00000000000E+00  0.00000000000E+00  0.10697551113E+04  0.10697551113E+04  0.25500000920E-02 0.  1.
       -2   -1    0    0    0  501  0.00000000000E+00  0.00000000000E+00 -0.25339532752E+04  0.25339532752E+04  0.25500000920E-02 0. -1.
    10030    2    1    2    0    0  0.00000000000E+00  0.00000000000E+00 -0.14641981639E+04  0.36037083865E+04  0.32928464695E+04 0.  0.
        1    1    3    3  502    0 -0.10044280587E+03  0.10116511990E+03 -0.25271860010E+04  0.25312037102E+04  0.50400001928E-02 0. -1.
       -1    1    3    3    0  502  0.10044280587E+03 -0.10116511990E+03  0.10629878371E+04  0.10725046763E+04  0.50400001928E-02 0.  1.
</event>
<event>
 5   0  0.1743810E-06  0.3226721E+04  0.7818609E-02  0.8181796E-01
       -2   -1    0    0    0  501  0.00000000000E+00  0.00000000000E+00  0.88186578616E+03  0.88186578617E+03  0.25500000920E-02 0. -1.
        2   -1    0    0  501    0  0.00000000000E+00  0.00000000000E+00 -0.29516192548E+04  0.29516192548E+04  0.25500000920E-02 0.  1.
    10030    2    1    2    0    0  0.00000000000E+00  0.00000000000E+00 -0.20697534687E+04  0.38334850410E+04  0.32267209576E+04 0.  0.
        5    1    3    3  502    0 -0.30746179215E+03  0.91139794263E+03 -0.25737169418E+04  0.27475843845E+04  0.46999998093E+01 0.  1.
       -5    1    3    3    0  502  0.30746179215E+03 -0.91139794263E+03  0.50396347316E+03  0.10859006565E+04  0.46999998093E+01 0. -1.
</event>
<event>
 5   0  0.1743810E-06  0.3299165E+04  0.7818609E-02  0.8163108E-01
       -2   -1    0    0    0  501  0.00000000000E+00  0.00000000000E+00  0.16876572666E+04  0.16876572666E+04  0.25500000920E-02 0.  1.
        2   -1    0    0  501    0  0.00000000000E+00  0.00000000000E+00 -0.16123662713E+04  0.16123662713E+04  0.25500000920E-02 0. -1.
    10030    2    1    2    0    0  0.00000000000E+00  0.00000000000E+00  0.75290995269E+02  0.33000235379E+04  0.32991645332E+04 0.  0.
        5    1    3    3  502    0  0.65440014395E+03  0.90814819441E+02  0.15495325735E+04  0.16845059116E+04  0.46999998093E+01 0.  1.
       -5    1    3    3    0  502 -0.65440014395E+03 -0.90814819441E+02 -0.14742415783E+04  0.16155176263E+04  0.46999998093E+01 0. -1.
</event>
<event>
 5   0  0.1743810E-06  0.3320311E+04  0.7818609E-02  0.8157746E-01
        2   -1    0    0  501    0  0.00000000000E+00  0.00000000000E+00  0.19904274964E+04  0.19904274964E+04  0.25500000920E-02 0.  1.
       -2   -1    0    0    0  501  0.00000000000E+00  0.00000000000E+00 -0.13846854962E+04  0.13846854962E+04  0.25500000920E-02 0. -1.
    10030    2    1    2    0    0  0.00000000000E+00  0.00000000000E+00  0.60574200021E+03  0.33751129927E+04  0.33203108804E+04 0.  0.
        5    1    3    3  502    0 -0.67245628830E+03 -0.14387554740E+04 -0.18872165834E+03  0.15993288367E+04  0.46999998093E+01 0.  1.
       -5    1    3    3    0  502  0.67245628830E+03  0.14387554740E+04  0.79446365856E+03  0.17757841559E+04  0.46999998093E+01 0. -1.
</event>
<event>
 5   0  0.6023446E-07  0.3226435E+04  0.7818609E-02  0.8181870E-01
        1   -1    0    0  501    0  0.00000000000E+00  0.00000000000E+00  0.21534015174E+04  0.21534015174E+04  0.50400001928E-02 0.  1.
       -1   -1    0    0    0  501  0.00000000000E+00  0.00000000000E+00 -0.12085398054E+04  0.12085398054E+04  0.50400001928E-02 0. -1.
    10030    2    1    2    0    0  0.00000000000E+00  0.00000000000E+00  0.94486171199E+03  0.33619413228E+04  0.32264354640E+04 0.  0.
        5    1    3    3  502    0  0.40220886976E+03  0.87931667572E+03  0.18179733174E+04  0.20591306088E+04  0.46999998093E+01 0.  1.
       -5    1    3    3    0  502 -0.40220886976E+03 -0.87931667572E+03 -0.87311160542E+03  0.13028107140E+04  0.46999998093E+01 0. -1.
</event>
<event>
 5   0  0.1728937E-06  0.3270884E+04  0.7818609E-02  0.8170344E-01
       -2   -1    0    0    0  501  0.00000000000E+00  0.00000000000E+00  0.10968655331E+04  0.10968655331E+04  0.25500000920E-02 0. -1.
        2   -1    0    0  501    0  0.00000000000E+00  0.00000000000E+00 -0.24384676856E+04  0.24384676856E+04  0.25500000920E-02 0.  1.
    10030    2    1    2    0    0  0.00000000000E+00  0.00000000000E+00 -0.13416021526E+04  0.35353332187E+04  0.32708843806E+04 0.  0.
        1    1    3    3  502    0  0.15589137144E+04  0.11468474112E+03 -0.15097366986E+03  0.15704004609E+04  0.50400001928E-02 0.  1.
       -1    1    3    3    0  502 -0.15589137144E+04 -0.11468474112E+03 -0.11906284827E+04  0.19649327578E+04  0.50400001928E-02 0. -1.
</event>
<event>
 5   0  0.5985183E-07  0.3259012E+04  0.7818609E-02  0.8173404E-01
        1   -1    0    0  501    0  0.00000000000E+00  0.00000000000E+00  0.15219767411E+04  0.15219767411E+04  0.50400001928E-02 0. -1.
       -1   -1    0    0    0  501  0.00000000000E+00  0.00000000000E+00 -0.17446320168E+04  0.17446320168E+04  0.50400001928E-02 0.  1.
    10030    2    1    2    0    0  0.00000000000E+00  0.00000000000E+00 -0.22265527570E+03  0.32666087579E+04  0.32590117222E+04 0.  0.
        2    1    3    3  502    0 -0.10978921177E+04 -0.87827250844E+03 -0.93699518525E+03  0.16895826935E+04  0.25500000920E-02 0.  1.
       -2    1    3    3    0  502  0.10978921177E+04  0.87827250844E+03  0.71433990955E+03  0.15770260643E+04  0.25500000920E-02 0. -1.
</event>
<event>
 5   0  0.5988516E-07  0.3270130E+04  0.7818609E-02  0.8170538E-01
        1   -1    0    0  501    0  0.00000000000E+00  0.00000000000E+00  0.28541860748E+04  0.28541860749E+04  0.50400001928E-02 0.  1.
       -1   -1    0    0    0  501  0.00000000000E+00  0.00000000000E+00 -0.93667267513E+03  0.93667267515E+03  0.50400001928E-02 0. -1.
    10030    2    1    2    0    0  0.00000000000E+00  0.00000000000E+00  0.19175133997E+04  0.37908587500E+04  0.32701303375E+04 0.  0.
        4    1    3    3  502    0  0.48537261612E+03 -0.57478859866E+03 -0.72412284912E+03  0.10441858183E+04  0.12699999809E+01 0. -1.
       -4    1    3    3    0  502 -0.48537261612E+03  0.57478859866E+03  0.26416362488E+04  0.27466729317E+04  0.12699999809E+01 0.  1.
</event>
<event>
 5   0  0.5858859E-07  0.3321178E+04  0.7818609E-02  0.8157528E-01
        1   -1    0    0  501    0  0.00000000000E+00  0.00000000000E+00  0.12315095539E+04  0.12315095539E+04  0.50400001928E-02 0. -1.
       -1   -1    0    0    0  501  0.00000000000E+00  0.00000000000E+00 -0.22391667105E+04  0.22391667105E+04  0.50400001928E-02 0.  1.
    10030    2    1    2    0    0  0.00000000000E+00  0.00000000000E+00 -0.10076571566E+04  0.34706762644E+04  0.33211776205E+04 0.  0.
        3    1    3    3  502    0 -0.17432343601E+02  0.10589285597E+04  0.83277693121E+03  0.13472754019E+04  0.10100000352E+00 0. -1.
       -3    1    3    3    0  502  0.17432343601E+02 -0.10589285597E+04 -0.18404340878E+04  0.21234008625E+04  0.10100000352E+00 0.  1.
</event>
<event>
 5   0  0.1728937E-06  0.3297120E+04  0.7818609E-02  0.8163628E-01
        2   -1    0    0  501    0  0.00000000000E+00  0.00000000000E+00  0.21125587670E+04  0.21125587670E+04  0.25500000920E-02 0. -1.
       -2   -1    0    0    0  501  0.00000000000E+00  0.00000000000E+00 -0.12864734607E+04  0.12864734607E+04  0.25500000920E-02 0.  1.
    10030    2    1    2    0    0  0.00000000000E+00  0.00000000000E+00  0.82608530629E+03  0.33990322277E+04  0.32971204333E+04 0.  0.
        1    1    3    3  502    0  0.94466014599E+03  0.13509435269E+04  0.43147211749E+03  0.17039951269E+04  0.50400001928E-02 0. -1.
       -1    1    3    3    0  502 -0.94466014599E+03 -0.13509435269E+04  0.39461318880E+03  0.16950371008E+04  0.50400001928E-02 0.  1.
</event>
<event>
 5   0  0.5988516E-07  0.3271749E+04  0.7818609E-02  0.8170121E-01
       -1   -1    0    0    0  501  0.00000000000E+00  0.00000000000E+00  0.32028398338E+04  0.32028398338E+04  0.50400001928E-02 0. -1.
        1   -1    0    0  501    0  0.00000000000E+00  0.00000000000E+00 -0.83553524504E+03  0.83553524506E+03  0.50400001928E-02 0.  1.
    10030    2    1    2    0    0  0.00000000000E+00  0.00000000000E+00  0.23673045887E+04  0.40383750788E+04  0.32717491135E+04 0.  0.
        4    1    3    3  502    0 -0.86384490701E+01  0.11164489226E+04  0.26594488988E+04  0.28843028409E+04  0.12699999809E+01 0.  1.
       -4    1    3    3    0  502  0.86384490701E+01 -0.11164489226E+04 -0.29214431011E+03  0.11540722379E+04  0.12699999809E+01 0. -1.
</event>
<event>
 5   0  0.5988516E-07  0.3302985E+04  0.7818609E-02  0.8162136E-01
        1   -1    0    0  501    0  0.00000000000E+00  0.00000000000E+00  0.16690618955E+04  0.16690618955E+04  0.50400001928E-02 0. -1.
       -1   -1    0    0    0  501  0.00000000000E+00  0.00000000000E+00 -0.16341078556E+04  0.16341078556E+04  0.50400001928E-02 0.  1.
    10030    2    1    2    0    0  0.00000000000E+00  0.00000000000E+00  0.34954039931E+02  0.33031697512E+04  0.33029848047E+04 0.  0.
        4    1    3    3  502    0 -0.13522223339E+04  0.39566557798E+03 -0.84417963469E+03  0.16424668516E+04  0.12699999809E+01 0.  1.
       -4    1    3    3    0  502  0.13522223339E+04 -0.39566557798E+03  0.87913367462E+03  0.16607028996E+04  0.12699999809E+01 0. -1.
</event>
<event>
 5   0  0.6023446E-07  0.3482662E+04  0.7818609E-02  0.8117911E-01
       -1   -1    0    0    0  501  0.00000000000E+00  0.00000000000E+00  0.14731590853E+04  0.14731590853E+04  0.50400001928E-02 0.  1.
        1   -1    0    0  501    0  0.00000000000E+00  0.00000000000E+00 -0.20583199830E+04  0.20583199830E+04  0.50400001928E-02 0. -1.
    10030    2    1    2    0    0  0.00000000000E+00  0.00000000000E+00 -0.58516089775E+03  0.35314790683E+04  0.34826615015E+04 0.  0.
        5    1    3    3  502    0  0.12916289339E+04 -0.91395015497E+03 -0.10298209032E+04  0.18878991953E+04  0.46999998093E+01 0. -1.
       -5    1    3    3    0  502 -0.12916289339E+04  0.91395015497E+03  0.44466000546E+03  0.16435798731E+04  0.46999998093E+01 0.  1.
</event>
<event>
 5   0  0.1784626E-06  0.3255672E+04  0.7818609E-02  0.8174267E-01
       -2   -1    0    0    0  501  0.00000000000E+00  0.00000000000E+00  0.13883424257E+04  0.13883424257E+04  0.25500000920E-02 0. -1.
        2   -1    0    0  501    0  0.00000000000E+00  0.00000000000E+00 -0.19086430250E+04  0.19086430250E+04  0.25500000920E-02 0.  1.
    10030    2    1    2    0    0  0.00000000000E+00  0.00000000000E+00 -0.52030059934E+03  0.32969854507E+04  0.32556720272E+04 0.  0.
        2    1    3    3  502    0 -0.12286271531E+04  0.10217697437E+04  0.54129578591E+02  0.15988959008E+04  0.25500000920E-02 0. -1.
       -2    1    3    3    0  502  0.12286271531E+04 -0.10217697437E+04 -0.57443017793E+03  0.16980895499E+04  0.25500000920E-02 0.  1.
</event>
<event>
 5   0  0.1696681E-06  0.3288918E+04  0.7818609E-02  0.8165721E-01
       -2   -1    0    0    0  501  0.00000000000E+00  0.00000000000E+00  0.29369207525E+04  0.29369207525E+04  0.25500000920E-02 0. -1.
        2   -1    0    0  501    0  0.00000000000E+00  0.00000000000E+00 -0.92077591176E+03  0.92077591176E+03  0.25500000920E-02 0.  1.
    10030    2    1    2    0    0  0.00000000000E+00  0.00000000000E+00  0.20161448407E+04  0.38576966643E+04  0.32889182925E+04 0.  0.
        4    1    3    3  502    0  0.35137313564E+03  0.80294965181E+03  0.26401230129E+04  0.27818055935E+04  0.12699999809E+01 0. -1.
       -4    1    3    3    0  502 -0.35137313564E+03 -0.80294965181E+03 -0.62397817221E+03  0.10758910707E+04  0.12699999809E+01 0.  1.
</event>
<event>
 5   0  0.1743810E-06  0.3271371E+04  0.7818609E-02  0.8170219E-01
        2   -1    0    0  501    0  0.00000000000E+00  0.00000000000E+00  0.19647869870E+04  0.19647869870E+04  0.25500000920E-02 0.  1.
       -2   -1    0    0    0  501  0.00000000000E+00  0.00000000000E+00 -0.13617082598E+04  0.13617082598E+04  0.25500000920E-02 0. -1.
    10030    2    1    2    0    0  0.00000000000E+00  0.00000000000E+00  0.60307872715E+03  0.33264952468E+04  0.32713707640E+04 0.  0.
        5    1    3    3  502    0  0.24641778171E+02 -0.42965144906E+03  0.19061788663E+04  0.19541615965E+04  0.46999998093E+01 0.  1.
       -5    1    3    3    0  502 -0.24641778171E+02  0.42965144906E+03 -0.13031001392E+04  0.13723336503E+04  0.46999998093E+01 0. -1.
</event>
<event>
 5   0  0.1832626E-06  0.3211934E+04  0.7818609E-02  0.8185673E-01
        2   -1    0    0  501    0  0.00000000000E+00  0.00000000000E+00  0.24822919082E+04  0.24822919082E+04  0.25500000920E-02 0.  1.
       -2   -1    0    0    0  501  0.00000000000E+00  0.00000000000E+00 -0.10390113939E+04  0.10390113939E+04  0.25500000920E-02 0. -1.
    10030    2    1    2    0    0  0.00000000000E+00  0.00000000000E+00  0.14432805143E+04  0.35213033021E+04  0.32119337326E+04 0.  0.
        3    1    3    3  502    0  0.69437252299E+03  0.68624842621E+03 -0.67634437761E+03  0.11876581286E+04  0.10100000352E+00 0.  1.
       -3    1    3    3    0  502 -0.69437252299E+03 -0.68624842621E+03  0.21196248919E+04  0.23336451735E+04  0.10100000352E+00 0. -1.
</event>
<event>
 5   0  0.1743810E-06  0.3347564E+04  0.7818609E-02  0.8150897E-01
        2   -1    0    0  501    0  0.00000000000E+00  0.00000000000E+00  0.11694280622E+04  0.11694280622E+04  0.25500000920E-02 0. -1.
       -2   -1    0    0    0  501  0.00000000000E+00  0.00000000000E+00 -0.23956543179E+04  0.23956543179E+04  0.25500000920E-02 0.  1.
    10030    2    1    2    0    0  0.00000000000E+00  0.00000000000E+00 -0.12262262557E+04  0.35650823801E+04  0.33475635239E+04 0.  0.
        5    1    3    3  502    0  0.76255369299E+03 -0.17202722556E+03 -0.21892959916E+04  0.23246764355E+04  0.46999998093E+01 0.  1.
       -5    1    3    3    0  502 -0.76255369299E+03  0.17202722556E+03  0.96306973589E+03  0.12404059445E+04  0.46999998093E+01 0. -1.
</event>
<event>
 5   0  0.1784626E-06  0.3272559E+04  0.7818609E-02  0.8169913E-01
       -2   -1    0    0    0  501  0.00000000000E+00  0.00000000000E+00  0.12076465962E+04  0.12076465962E+04  0.25500000920E-02 0. -1.
        2   -1    0    0  501    0  0.00000000000E+00  0.00000000000E+00 -0.22170475830E+04  0.22170475830E+04  0.25500000920E-02 0.  1.
    10030    2    1    2    0    0  0.00000000000E+00  0.00000000000E+00 -0.10094009869E+04  0.34246941792E+04  0.32725586120E+04 0.  0.
        2    1    3    3  502    0  0.15774355759E+03  0.90147139086E+03 -0.19241785098E+04  0.21307267859E+04  0.25500000920E-02 0.  1.
       -2    1    3    3    0  502 -0.15774355759E+03 -0.90147139086E+03  0.91477752293E+03  0.12939673933E+04  0.25500000920E-02 0. -1.
</event>
<event>
 5   0  0.6085351E-07  0.3335953E+04  0.7818609E-02  0.8153807E-01
        1   -1    0    0  501    0  0.00000000000E+00  0.00000000000E+00  0.22886881315E+04  0.22886881315E+04  0.50400001928E-02 0. -1.
       -1   -1    0    0    0  501  0.00000000000E+00  0.00000000000E+00 -0.12156069265E+04  0.12156069266E+04  0.50400001928E-02 0.  1.
    10030    2    1    2    0    0  0.00000000000E+00  0.00000000000E+00  0.10730812049E+04  0.35042950580E+04  0.33359527247E+04 0.  0.
        1    1    3    3  502    0 -0.22465481640E+03 -0.94925092088E+03 -0.88473164622E+03  0.13169271746E+04  0.50400001928E-02 0.  1.
       -1    1    3    3    0  502  0.22465481640E+03  0.94925092088E+03  0.19578128511E+04  0.21873678834E+04  0.50400001928E-02 0. -1.
</event>
<event>
 5   0  0.5988516E-07  0.3368297E+04  0.7818609E-02  0.8145731E-01
       -1   -1    0    0    0  501  0.00000000000E+00  0.00000000000E+00  0.12416422969E+04  0.12416422969E+04  0.50400001928E-02 0.  1.
        1   -1    0    0  501    0  0.00000000000E+00  0.00000000000E+00 -0.22843580196E+04  0.22843580196E+04  0.50400001928E-02 0. -1.
    10030    2    1    2    0    0  0.00000000000E+00  0.00000000000E+00 -0.10427157227E+04  0.35260003166E+04  0.33682966250E+04 0.  0.
        4    1    3    3  502    0 -0.10175826435E+04  0.11080624246E+04 -0.13138200762E+04  0.19973486373E+04  0.12699999809E+01 0. -1.
       -4    1    3    3    0  502  0.10175826435E+04 -0.11080624246E+04  0.27110435357E+03  0.15286516793E+04  0.12699999809E+01 0.  1.
</event>
<event>
 5   0  0.1696681E-06  0.3236930E+04  0.7818609E-02  0.8179132E-01
       -2   -1    0    0    0  501  0.00000000000E+00  0.00000000000E+00  0.10065966618E+04  0.10065966618E+04  0.25500000920E-02 0.  1.
        2   -1    0    0  501    0  0.00000000000E+00  0.00000000000E+00 -0.26022629815E+04  0.26022629815E+04  0.25500000920E-02 0. -1.
    10030    2    1    2    0    0  0.00000000000E+00  0.00000000000E+00 -0.15956663197E+04  0.36088596433E+04  0.32369301693E+04 0.  0.
        4    1    3    3  502    0 -0.86857169273E+03  0.10051795955E+03  0.72060716277E+03  0.11330476343E+04  0.12699999809E+01 0.  1.
       -4    1    3    3    0  502  0.86857169273E+03 -0.10051795955E+03 -0.23162734824E+04  0.24758120090E+04  0.12699999809E+01 0. -1.
</event>
<event>
 5   0  0.1696681E-06  0.3288208E+04  0.7818609E-02  0.8165902E-01
        2   -1    0    0  501    0  0.00000000000E+00  0.00000000000E+00  0.22648893790E+04  0.22648893790E+04  0.25500000920E-02 0. -1.
       -2   -1    0    0    0  501  0.00000000000E+00  0.00000000000E+00 -0.11934701133E+04  0.11934701133E+04  0.25500000920E-02 0.  1.
    10030    2    1    2    0    0  0.00000000000E+00  0.00000000000E+00  0.10714192657E+04  0.34583594924E+04  0.32882078912E+04 0.  0.
        4    1    3    3  502    0 -0.14143374750E+03 -0.12511410437E+04  0.16476388388E+04  0.20736616822E+04  0.12699999809E+01 0. -1.
       -4    1    3    3    0  502  0.14143374750E+03  0.12511410437E+04 -0.57621957314E+03  0.13846978102E+04  0.12699999809E+01 0.  1.
</event>
<event>
 5   0  0.5985183E-07  0.3316703E+04  0.7818609E-02  0.8158658E-01
       -1   -1    0    0    0  501  0.00000000000E+00  0.00000000000E+00  0.23852060782E+04  0.23852060782E+04  0.50400001928E-02 0.  1.
        1   -1    0    0  501    0  0.00000000000E+00  0.00000000000E+00 -0.11529945716E+04  0.11529945716E+04  0.50400001928E-02 0. -1.
    10030    2    1    2    0    0  0.00000000000E+00  0.00000000000E+00  0.12322115066E+04  0.35382006498E+04  0.33167029775E+04 0.  0.
        2    1    3    3  502    0 -0.86708693742E+03 -0.48148514023E+03  0.20339483583E+04  0.22628772882E+04  0.25500000920E-02 0.  1.
       -2    1    3    3    0  502  0.86708693742E+03  0.48148514023E+03 -0.80173685163E+03  0.12753233616E+04  0.25500000920E-02 0. -1.
</event>
<event>
 5   0  0.5985183E-07  0.3168317E+04  0.7818609E-02  0.8197235E-01
       -1   -1    0    0    0  501  0.00000000000E+00  0.00000000000E+00  0.23907356457E+04  0.23907356457E+04  0.50400001928E-02 0.  1.
        1   -1    0    0  501    0  0.00000000000E+00  0.00000000000E+00 -0.10497011932E+04  0.10497011932E+04  0.50400001928E-02 0. -1.
    10030    2    1    2    0    0  0.00000000000E+00  0.00000000000E+00  0.13410344525E+04  0.34404368389E+04  0.31683169412E+04 0.  0.
        2    1    3    3  502    0  0.89424423778E+03 -0.54677246880E+03 -0.61932609828E+03  0.12174554224E+04  0.25500000920E-02 0. -1.
       -2    1    3    3    0  502 -0.89424423778E+03  0.54677246880E+03  0.19603605507E+04  0.22229814165E+04  0.25500000920E-02 0.  1.
</event>
<event>
 5   0  0.1784626E-06  0.3279997E+04  0.7818609E-02  0.8168004E-01
       -2   -1    0    0    0  501  0.00000000000E+00  0.00000000000E+00  0.27645992843E+04  0.27645992843E+04  0.25500000920E-02 0.  1.
        2   -1    0    0  501    0  0.00000000000E+00  0.00000000000E+00 -0.97286980468E+03  0.97286980468E+03  0.25500000920E-02 0. -1.
    10030    2    1    2    0    0  0.00000000000E+00  0.00000000000E+00  0.17917294796E+04  0.37374690889E+04  0.32799970522E+04 0.  0.
        2    1    3    3  502    0  0.58679191301E+01  0.20810082426E+03  0.27494816545E+04  0.27573519459E+04  0.25500000920E-02 0.  1.
       -2    1    3    3    0  502 -0.58679191301E+01 -0.20810082426E+03 -0.95775217487E+03  0.98011714301E+03  0.25500000920E-02 0. -1.
</event>
<event>
 5   0  0.1832626E-06  0.3325124E+04  0.7818609E-02  0.8156532E-01
        2   -1    0    0  501    0  0.00000000000E+00  0.00000000000E+00  0.20900748373E+04  0.20900748373E+04  0.25500000920E-02 0. -1.
       -2   -1    0    0    0  501  0.00000000000E+00  0.00000000000E+00 -0.13224941487E+04  0.13224941487E+04  0.25500000920E-02 0.  1.
    10030    2    1    2    0    0  0.00000000000E+00  0.00000000000E+00  0.76758068864E+03  0.34125689860E+04  0.33251236023E+04 0.  0.
        3    1    3    3  502    0  0.46781612777E+03  0.36422146601E+03  0.19778939167E+04  0.20648422607E+04  0.10100000352E+00 0. -1.
       -3    1    3    3    0  502 -0.46781612777E+03 -0.36422146601E+03 -0.12103132281E+04  0.13477267253E+04  0.10100000352E+00 0.  1.
</event>
<event>
 5   0  0.1784626E-06  0.3313542E+04  0.7818609E-02  0.8159458E-01
        2   -1    0    0  501    0  0.00000000000E+00  0.00000000000E+00  0.13311935949E+04  0.13311935949E+04  0.25500000920E-02 0.  1.
       -2   -1    0    0    0  501  0.00000000000E+00  0.00000000000E+00 -0.20619764802E+04  0.20619764802E+04  0.25500000920E-02 0. -1.
    10030    2    1    2    0    0  0.00000000000E+00  0.00000000000E+00 -0.73078288528E+03  0.33931700751E+04  0.33135418411E+04 0.  0.
        2    1    3    3  502    0  0.50304829318E+03  0.15305428227E+04  0.30249147099E+02  0.16113764081E+04  0.25500000920E-02 0.  1.
       -2    1    3    3    0  502 -0.50304829318E+03 -0.15305428227E+04 -0.76103203238E+03  0.17817936670E+04  0.25500000920E-02 0. -1.
</event>
<event>
 5   0  0.1728937E-06  0.3305408E+04  0.7818609E-02  0.8161521E-01
        2   -1    0    0  501    0  0.00000000000E+00  0.00000000000E+00  0.19468968124E+04  0.19468968124E+04  0.25500000920E-02 0.  1.
       -2   -1    0    0    0  501  0.00000000000E+00  0.00000000000E+00 -0.14029663492E+04  0.14029663492E+04  0.25500000920E-02 0. -1.
    10030    2    1    2    0    0  0.00000000000E+00  0.00000000000E+00  0.54393046317E+03  0.33498631616E+04  0.33054081220E+04 0.  0.
        1    1    3    3  502    0  0.42066861104E+03  0.15607479820E+04  0.62088383370E+03  0.17315868672E+04  0.50400001928E-02 0.  1.
       -1    1    3    3    0  502 -0.42066861104E+03 -0.15607479820E+04 -0.76953370529E+02  0.16182762944E+04  0.50400001928E-02 0. -1.
</event>
<event>
 5   0  0.6023446E-07  0.3288998E+04  0.7818609E-02  0.8165701E-01
        1   -1    0    0  501    0  0.00000000000E+00  0.00000000000E+00  0.21634906221E+04  0.21634906221E+04  0.50400001928E-02 0. -1.
       -1   -1    0    0    0  501  0.00000000000E+00  0.00000000000E+00 -0.12500061469E+04  0.12500061469E+04  0.50400001928E-02 0.  1.
    10030    2    1    2    0    0  0.00000000000E+00  0.00000000000E+00  0.91348447517E+03  0.34134967690E+04  0.32889977661E+04 0.  0.
        5    1    3    3  502    0  0.52463770944E+03  0.14052415451E+03  0.20677105980E+04  0.21378589690E+04  0.46999998093E+01 0. -1.
       -5    1    3    3    0  502 -0.52463770944E+03 -0.14052415451E+03 -0.11542261228E+04  0.12756378000E+04  0.46999998093E+01 0.  1.
</event>
<event>
 5   0  0.1743810E-06  0.3307304E+04  0.7818609E-02  0.8161039E-01
        2   -1    0    0  501    0  0.00000000000E+00  0.00000000000E+00  0.20064676647E+04  0.20064676647E+04  0.25500000920E-02 0.  1.
       -2   -1    0    0    0  501  0.00000000000E+00  0.00000000000E+00 -0.13628747491E+04  0.13628747491E+04  0.25500000920E-02 0. -1.
    10030    2    1    2    0    0  0.00000000000E+00  0.00000000000E+00  0.64359291561E+03  0.33693424139E+04  0.33073035030E+04 0.  0.
        5    1    3    3  502    0  0.30693530026E+03 -0.14178028763E+04 -0.48692540730E+03  0.15301936861E+04  0.46999998093E+01 0. -1.
       -5    1    3    3    0  502 -0.30693530026E+03  0.14178028763E+04  0.11305183229E+04  0.18391487278E+04  0.46999998093E+01 0.  1.
</event>
<event>
 5   0  0.1696681E-06  0.3242650E+04  0.7818609E-02  0.8177643E-01
        2   -1    0    0  501    0  0.00000000000E+00  0.00000000000E+00  0.19696113099E+04  0.19696113099E+04  0.25500000920E-02 0. -1.
       -2   -1    0    0    0  501  0.00000000000E+00  0.00000000000E+00 -0.13346262492E+04  0.13346262492E+04  0.25500000920E-02 0.  1.
    10030    2    1    2    0    0  0.00000000000E+00  0.00000000000E+00  0.63498506073E+03  0.33042375591E+04  0.32426501230E+04 0.  0.
        4    1    3    3  502    0  0.24669233966E+03  0.14904459174E+04 -0.28224969444E+03  0.15368645504E+04  0.12699999809E+01 0.  1.
       -4    1    3    3    0  502 -0.24669233966E+03 -0.14904459174E+04  0.91723475517E+03  0.17673730088E+04  0.12699999809E+01 0. -1.
</event>
<event>
 5   0  0.1784626E-06  0.3319813E+04  0.7818609E-02  0.8157872E-01
        2   -1    0    0  501    0  0.00000000000E+00  0.00000000000E+00  0.18271957396E+04  0.18271957396E+04  0.25500000920E-02 0.  1.
       -2   -1    0    0    0  501  0.00000000000E+00  0.00000000000E+00 -0.15079338670E+04  0.15079338670E+04  0.25500000920E-02 0. -1.
    10030    2    1    2    0    0  0.00000000000E+00  0.00000000000E+00  0.31926187251E+03  0.33351296066E+04  0.33198134510E+04 0.  0.
        2    1    3    3  502    0  0.86396384305E+02  0.99257675177E+03  0.14933920806E+04  0.17952417246E+04  0.25500000920E-02 0.  1.
       -2    1    3    3    0  502 -0.86396384305E+02 -0.99257675177E+03 -0.11741302081E+04  0.15398878820E+04  0.25500000920E-02 0. -1.
</event>
<event>
 5   0  0.6023446E-07  0.3281662E+04  0.7818609E-02  0.8167577E-01
        1   -1    0    0  501    0  0.00000000000E+00  0.00000000000E+00  0.17952111811E+04  0.17952111811E+04  0.50400001928E-02 0. -1.
       -1   -1    0    0    0  501  0.00000000000E+00  0.00000000000E+00 -0.14997271642E+04  0.14997271642E+04  0.50400001928E-02 0.  1.
    10030    2    1    2    0    0  0.00000000000E+00  0.00000000000E+00  0.29548401694E+03  0.32949383453E+04  0.32816623676E+04 0.  0.
        5    1    3    3  502    0  0.27462375771E+03  0.47456344027E+03  0.17005029140E+04  0.17867179177E+04  0.46999998093E+01 0. -1.
       -5    1    3    3    0  502 -0.27462375771E+03 -0.47456344027E+03 -0.14050188970E+04  0.15082204276E+04  0.46999998093E+01 0.  1.
</event>
<event>
 5   0  0.6023446E-07  0.3437389E+04  0.7818609E-02  0.8128790E-01
        1   -1    0    0  501    0  0.00000000000E+00  0.00000000000E+00  0.21866017030E+04  0.21866017031E+04  0.50400001928E-02 0.  1.
       -1   -1    0    0    0  501  0.00000000000E+00  0.00000000000E+00 -0.13509138369E+04  0.13509138369E+04  0.50400001928E-02 0. -1.
    10030    2    1    2    0    0  0.00000000000E+00  0.00000000000E+00  0.83568786613E+03  0.35375155400E+04  0.34373888325E+04 0.  0.
        5    1    3    3  502    0  0.15510453649E+04 -0.58820083784E+03  0.88057029728E+03  0.18780703097E+04  0.46999998093E+01 0. -1.
       -5    1    3    3    0  502 -0.15510453649E+04  0.58820083784E+03 -0.44882431158E+02  0.16594452303E+04  0.46999998093E+01 0.  1.
</event>
<event>
 5   0  0.1728937E-06  0.3282212E+04  0.7818609E-02  0.8167436E-01
       -2   -1    0    0    0  501  0.00000000000E+00  0.00000000000E+00  0.16956679215E+04  0.16956679215E+04  0.25500000920E-02 0. -1.
        2   -1    0    0  501    0  0.00000000000E+00  0.00000000000E+00 -0.15882996806E+04  0.15882996806E+04  0.25500000920E-02 0.  1.
    10030    2    1    2    0    0  0.00000000000E+00  0.00000000000E+00  0.10736824093E+03  0.32839676021E+04  0.32822119481E+04 0.  0.
        1    1    3    3  502    0 -0.16829292256E+03  0.13171602203E+04 -0.91119433757E+03  0.16104374171E+04  0.50400001928E-02 0.  1.
       -1    1    3    3    0  502  0.16829292256E+03 -0.13171602203E+04  0.10185625785E+04  0.16735301850E+04  0.50400001928E-02 0. -1.
</event>
<event>
 5   0  0.1743810E-06  0.3360399E+04  0.7818609E-02  0.8147695E-01
        2   -1    0    0  501    0  0.00000000000E+00  0.00000000000E+00  0.23019316743E+04  0.23019316743E+04  0.25500000920E-02 0.  1.
       -2   -1    0    0    0  501  0.00000000000E+00  0.00000000000E+00 -0.12263918602E+04  0.12263918602E+04  0.25500000920E-02 0. -1.
    10030    2    1    2    0    0  0.00000000000E+00  0.00000000000E+00  0.10755398142E+04  0.35283235345E+04  0.33603989454E+04 0.  0.
        5    1    3    3  502    0  0.90175385184E+03 -0.79291763590E+03  0.17717299509E+04  0.21403101400E+04  0.46999998093E+01 0.  1.
       -5    1    3    3    0  502 -0.90175385184E+03  0.79291763590E+03 -0.69619013674E+03  0.13880133944E+04  0.46999998093E+01 0. -1.
</event>
<event>
 5   0  0.1743810E-06  0.3141580E+04  0.7818609E-02  0.8204418E-01
        2   -1    0    0  501    0  0.00000000000E+00  0.00000000000E+00  0.28704762580E+04  0.28704762580E+04  0.25500000920E-02 0. -1.
       -2   -1    0    0    0  501  0.00000000000E+00  0.00000000000E+00 -0.85957191796E+03  0.85957191797E+03  0.25500000920E-02 0.  1.
    10030    2    1    2    0    0  0.00000000000E+00  0.00000000000E+00  0.20109043400E+04  0.37300481759E+04  0.31415797189E+04 0.  0.
        5    1    3    3  502    0 -0.10061226691E+04 -0.11907478136E+04  0.12344395902E+04  0.19884733774E+04  0.46999998093E+01 0.  1.
       -5    1    3    3    0  502  0.10061226691E+04  0.11907478136E+04  0.77646474984E+03  0.17415747985E+04  0.46999998093E+01 0. -1.
</event>
<event>
 5   0  0.5988516E-07  0.3265806E+04  0.7818609E-02  0.8171651E-01
        1   -1    0    0  501    0  0.00000000000E+00  0.00000000000E+00  0.18521666435E+04  0.18521666435E+04  0.50400001928E-02 0.  1.
       -1   -1    0    0    0  501  0.00000000000E+00  0.00000000000E+00 -0.14395958857E+04  0.14395958857E+04  0.50400001928E-02 0. -1.
    10030    2    1    2    0    0  0.00000000000E+00  0.00000000000E+00  0.41257075776E+03  0.32917625292E+04  0.32658055543E+04 0.  0.
        4    1    3    3  502    0 -0.56911377350E+03 -0.13151149708E+04  0.99542055868E+03  0.17447869713E+04  0.12699999809E+01 0.  1.
       -4    1    3    3    0  502  0.56911377350E+03  0.13151149708E+04 -0.58284980093E+03  0.15469755579E+04  0.12699999809E+01 0. -1.
</event>
<event>
 5   0  0.5988516E-07  0.3463507E+04  0.7818609E-02  0.8122493E-01
       -1   -1    0    0    0  501  0.00000000000E+00  0.00000000000E+00  0.12204379927E+04  0.12204379927E+04  0.50400001928E-02 0. -1.
        1   -1    0    0  501    0  0.00000000000E+00  0.00000000000E+00 -0.24572894672E+04  0.24572894672E+04  0.50400001928E-02 0.  1.
    10030    2    1    2    0    0  0.00000000000E+00  0.00000000000E+00 -0.12368514745E+04  0.36777274599E+04  0.34635065612E+04 0.  0.
        4    1    3    3  502    0  0.24380265070E+03 -0.50335411229E+03 -0.23587480416E+04  0.24241491356E+04  0.12699999809E+01 0.  1.
       -4    1    3    3    0  502 -0.24380265070E+03  0.50335411229E+03  0.11218965672E+04  0.12535783243E+04  0.12699999809E+01 0. -1.
</event>
<event>
 5   0  0.5985183E-07  0.3287198E+04  0.7818609E-02  0.8166160E-01
       -1   -1    0    0    0  501  0.00000000000E+00  0.00000000000E+00  0.12385886704E+04  0.12385886704E+04  0.50400001928E-02 0. -1.
        1   -1    0    0  501    0  0.00000000000E+00  0.00000000000E+00 -0.21810453145E+04  0.21810453145E+04  0.50400001928E-02 0.  1.
    10030    2    1    2    0    0  0.00000000000E+00  0.00000000000E+00 -0.94245664404E+03  0.34196339849E+04  0.32871982089E+04 0.  0.
        2    1    3    3  502    0 -0.29089329851E+03  0.52464085556E+03 -0.20630908174E+04  0.21485368647E+04  0.25500000920E-02 0.  1.
       -2    1    3    3    0  502  0.29089329851E+03 -0.52464085556E+03  0.11206341733E+04  0.12710971202E+04  0.25500000920E-02 0. -1.
</event>
<event>
 5   0  0.1728937E-06  0.3328526E+04  0.7818609E-02  0.8155675E-01
       -2   -1    0    0    0  501  0.00000000000E+00  0.00000000000E+00  0.19031212127E+04  0.19031212127E+04  0.25500000920E-02 0. -1.
        2   -1    0    0  501    0  0.00000000000E+00  0.00000000000E+00 -0.14553836323E+04  0.14553836323E+04  0.25500000920E-02 0.  1.
    10030    2    1    2    0    0  0.00000000000E+00  0.00000000000E+00  0.44773758046E+03  0.33585048450E+04  0.33285260782E+04 0.  0.
        1    1    3    3  502    0  0.28268187509E+03  0.48152326984E+03 -0.13580520838E+04  0.14683593444E+04  0.50400001928E-02 0.  1.
       -1    1    3    3    0  502 -0.28268187509E+03 -0.48152326984E+03  0.18057896643E+04  0.18901455006E+04  0.50400001928E-02 0. -1.
</event>
<event>
 5   0  0.1743810E-06  0.3280177E+04  0.7818609E-02  0.8167958E-01
       -2   -1    0    0    0  501  0.00000000000E+00  0.00000000000E+00  0.11394207525E+04  0.11394207525E+04  0.25500000920E-02 0. -1.
        2   -1    0    0  501    0  0.00000000000E+00  0.00000000000E+00 -0.23607522047E+04  0.23607522047E+04  0.25500000920E-02 0.  1.
    10030    2    1    2    0    0  0.00000000000E+00  0.00000000000E+00 -0.12213314523E+04  0.35001729572E+04  0.32801768571E+04 0.  0.
        5    1    3    3  502    0 -0.50376852627E+01 -0.98643764808E+03 -0.20088035712E+04  0.22379451489E+04  0.46999998093E+01 0.  1.
       -5    1    3    3    0  502  0.50376852627E+01  0.98643764808E+03  0.78747211896E+03  0.12622278083E+04  0.46999998093E+01 0. -1.
</event>
<event>
 5   0  0.1832626E-06  0.3306673E+04  0.7818609E-02  0.8161199E-01
        2   -1    0    0  501    0  0.00000000000E+00  0.00000000000E+00  0.19216398549E+04  0.19216398549E+04  0.25500000920E-02 0.  1.
       -2   -1    0    0    0  501  0.00000000000E+00  0.00000000000E+00 -0.14224945495E+04  0.14224945495E+04  0.25500000920E-02 0. -1.
    10030    2    1    2    0    0  0.00000000000E+00  0.00000000000E+00  0.49914530542E+03  0.33441344044E+04  0.33066733855E+04 0.  0.
        3    1    3    3  502    0 -0.12131369677E+04  0.67710265836E+03  0.11560263112E+04  0.18073644222E+04  0.10100000352E+00 0.  1.
       -3    1    3    3    0  502  0.12131369677E+04 -0.67710265836E+03 -0.65688100574E+03  0.15367699822E+04  0.10100000352E+00 0. -1.
</event>
<event>
 5   0  0.5988516E-07  0.3100679E+04  0.7818609E-02  0.8215552E-01
        1   -1    0    0  501    0  0.00000000000E+00  0.00000000000E+00  0.23087345986E+04  0.23087345986E+04  0.50400001928E-02 0.  1.
       -1   -1    0    0    0  501  0.00000000000E+00  0.00000000000E+00 -0.10410689815E+04  0.10410689815E+04  0.50400001928E-02 0. -1.
    10030    2    1    2    0    0  0.00000000000E+00  0.00000000000E+00  0.12676656171E+04  0.33498035801E+04  0.31006786206E+04 0.  0.
        4    1    3    3  502    0 -0.30623851045E+03  0.42062468802E+03 -0.94393122966E+03  0.10778288049E+04  0.12699999809E+01 0. -1.
       -4    1    3    3    0  502  0.30623851045E+03 -0.42062468802E+03  0.22115968468E+04  0.22719747752E+04  0.12699999809E+01 0.  1.
</event>
<event>
 5   0  0.1728937E-06  0.3288157E+04  0.7818609E-02  0.8165915E-01
        2   -1    0    0  501    0  0.00000000000E+00  0.00000000000E+00  0.18925819214E+04  0.18925819214E+04  0.25500000920E-02 0. -1.
       -2   -1    0    0    0  501  0.00000000000E+00  0.00000000000E+00 -0.14282042286E+04  0.14282042286E+04  0.25500000920E-02 0.  1.
    10030    2    1    2    0    0  0.00000000000E+00  0.00000000000E+00  0.46437769278E+03  0.33207861500E+04  0.32881566283E+04 0.  0.
        1    1    3    3  502    0  0.48081714161E+03  0.14129232983E+04  0.92856459643E+03  0.17577740413E+04  0.50400001928E-02 0. -1.
       -1    1    3    3    0  502 -0.48081714161E+03 -0.14129232983E+04 -0.46418690364E+03  0.15630121087E+04  0.50400001928E-02 0.  1.
</event>
<event>
 5   0  0.5988516E-07  0.3344976E+04  0.7818609E-02  0.8151545E-01
        1   -1    0    0  501    0  0.00000000000E+00  0.00000000000E+00  0.14063912693E+04  0.14063912693E+04  0.50400001928E-02 0. -1.
       -1   -1    0    0    0  501  0.00000000000E+00  0.00000000000E+00 -0.19889313920E+04  0.19889313920E+04  0.50400001928E-02 0.  1.
    10030    2    1    2    0    0  0.00000000000E+00  0.00000000000E+00 -0.58254012272E+03  0.33953226613E+04  0.33449757817E+04 0.  0.
        4    1    3    3  502    0 -0.10738145114E+04  0.56196119500E+03  0.87861196604E+03  0.14969430815E+04  0.12699999809E+01 0. -1.
       -4    1    3    3    0  502  0.10738145114E+04 -0.56196119500E+03 -0.14611520888E+04  0.18983795798E+04  0.12699999809E+01 0.  1.
</event>
<event>
 5   0  0.1832626E-06  0.3400107E+04  0.7818609E-02  0.8137880E-01
       -2   -1    0    0    0  501  0.00000000000E+00  0.00000000000E+00  0.18956372061E+04  0.18956372061E+04  0.25500000920E-02 0.  1.
        2   -1    0    0  501    0  0.00000000000E+00  0.00000000000E+00 -0.15246494786E+04  0.15246494786E+04  0.25500000920E-02 0. -1.
    10030    2    1    2    0    0  0.00000000000E+00  0.00000000000E+00  0.37098772752E+03  0.34202866847E+04  0.34001072206E+04 0.  0.
        3    1    3    3  502    0 -0.15498795352E+04  0.58722447486E+03 -0.19520050015E+03  0.16688506233E+04  0.10100000352E+00 0.  1.
       -3    1    3    3    0  502  0.15498795352E+04 -0.58722447486E+03  0.56618822767E+03  0.17514360613E+04  0.10100000352E+00 0. -1.
</event>
<event>
 5   0  0.1696681E-06  0.3288370E+04  0.7818609E-02  0.8165861E-01
        2   -1    0    0  501    0  0.00000000000E+00  0.00000000000E+00  0.14457241031E+04  0.14457241031E+04  0.25500000920E-02 0.  1.
       -2   -1    0    0    0  501  0.00000000000E+00  0.00000000000E+00 -0.18698893552E+04  0.18698893552E+04  0.25500000920E-02 0. -1.
    10030    2    1    2    0    0  0.00000000000E+00  0.00000000000E+00 -0.42416525201E+03  0.33156134583E+04  0.32883698764E+04 0.  0.
        4    1    3    3  502    0 -0.10433129475E+04  0.12197398281E+04 -0.57151225841E+03  0.17037884344E+04  0.12699999809E+01 0. -1.
       -4    1    3    3    0  502  0.10433129475E+04 -0.12197398281E+04  0.14734700640E+03  0.16118250239E+04  0.12699999809E+01 0.  1.
</event>
<event>
 5   0  0.6085351E-07  0.3228245E+04  0.7818609E-02  0.8181397E-01
       -1   -1    0    0    0  501  0.00000000000E+00  0.00000000000E+00  0.10377601281E+04  0.10377601282E+04  0.50400001928E-02 0.  1.
        1   -1    0    0  501    0  0.00000000000E+00  0.00000000000E+00 -0.25105914013E+04  0.25105914013E+04  0.50400001928E-02 0. -1.
    10030    2    1    2    0    0  0.00000000000E+00  0.00000000000E+00 -0.14728312731E+04  0.35483515294E+04  0.32282451297E+04 0.  0.
        1    1    3    3  502    0  0.14559535972E+04  0.27686853067E+03 -0.14393051423E+04  0.20659274801E+04  0.50400001928E-02 0. -1.
       -1    1    3    3    0  502 -0.14559535972E+04 -0.27686853067E+03 -0.33526130833E+02  0.14824240493E+04  0.50400001928E-02 0.  1.
</event>
<event>
 5   0  0.1728937E-06  0.3291610E+04  0.7818609E-02  0.8165033E-01
       -2   -1    0    0    0  501  0.00000000000E+00  0.00000000000E+00  0.14512846234E+04  0.14512846234E+04  0.25500000920E-02 0.  1.
        2   -1    0    0  501    0  0.00000000000E+00  0.00000000000E+00 -0.18663980212E+04  0.18663980212E+04  0.25500000920E-02 0. -1.
    10030    2    1    2    0    0  0.00000000000E+00  0.00000000000E+00 -0.41511339779E+03  0.33176826446E+04  0.32916103957E+04 0.  0.
        1    1    3    3  502    0 -0.11128205516E+04 -0.91126063599E+03 -0.10138361664E+04  0.17597242111E+04  0.50400001928E-02 0. -1.
       -1    1    3    3    0  502  0.11128205516E+04  0.91126063599E+03  0.59872276859E+03  0.15579584335E+04  0.50400001928E-02 0.  1.
</event>
<event>
 5   0  0.6023446E-07  0.3294424E+04  0.7818609E-02  0.8164316E-01
       -1   -1    0    0    0  501  0.00000000000E+00  0.00000000000E+00  0.31350769360E+04  0.31350769360E+04  0.50400001928E-02 0. -1.
        1   -1    0    0  501    0  0.00000000000E+00  0.00000000000E+00 -0.86546774449E+03  0.86546774451E+03  0.50400001928E-02 0.  1.
    10030    2    1    2    0    0  0.00000000000E+00  0.00000000000E+00  0.22696091915E+04  0.40005446805E+04  0.32944243592E+04 0.  0.
        5    1    3    3  502    0 -0.71944522235E+03 -0.35769521629E+03 -0.61136893251E+03  0.10096243645E+04  0.46999998093E+01 0.  1.
       -5    1    3    3    0  502  0.71944522235E+03  0.35769521629E+03  0.28809781240E+04  0.29909203160E+04  0.46999998093E+01 0. -1.
</event>
<event>
 5   0  0.6023446E-07  0.3295661E+04  0.7818609E-02  0.8164000E-01
       -1   -1    0    0    0  501  0.00000000000E+00  0.00000000000E+00  0.12743972488E+04  0.12743972488E+04  0.50400001928E-02 0. -1.
        1   -1    0    0  501    0  0.00000000000E+00  0.00000000000E+00 -0.21306902061E+04  0.21306902062E+04  0.50400001928E-02 0.  1.
    10030    2    1    2    0    0  0.00000000000E+00  0.00000000000E+00 -0.85629295733E+03  0.34050874550E+04  0.32956612307E+04 0.  0.
        5    1    3    3  502    0 -0.11848851756E+04  0.41240396148E+03 -0.15319313192E+04  0.19801175631E+04  0.46999998093E+01 0.  1.
       -5    1    3    3    0  502  0.11848851756E+04 -0.41240396148E+03  0.67563836186E+03  0.14249698919E+04  0.46999998093E+01 0. -1.
</event>
<event>
 5   0  0.6085351E-07  0.3241001E+04  0.7818609E-02  0.8178072E-01
        1   -1    0    0  501    0  0.00000000000E+00  0.00000000000E+00  0.10091296644E+04  0.10091296644E+04  0.50400001928E-02 0. -1.
       -1   -1    0    0    0  501  0.00000000000E+00  0.00000000000E+00 -0.26022646032E+04  0.26022646032E+04  0.50400001928E-02 0.  1.
    10030    2    1    2    0    0  0.00000000000E+00  0.00000000000E+00 -0.15931349387E+04  0.36113942676E+04  0.32410013303E+04 0.  0.
        1    1    3    3  502    0 -0.10038457667E+04 -0.48158768168E+02 -0.22130654032E+04  0.24305727862E+04  0.50400001928E-02 0.  1.
       -1    1    3    3    0  502  0.10038457667E+04  0.48158768168E+02  0.61993046441E+03  0.11808214814E+04  0.50400001928E-02 0. -1.
</event>
<event>
 5   0  0.5858859E-07  0.3333784E+04  0.7818609E-02  0.8154352E-01
        1   -1    0    0  501    0  0.00000000000E+00  0.00000000000E+00  0.25455988234E+04  0.25455988234E+04  0.50400001928E-02 0. -1.
       -1   -1    0    0    0  501  0.00000000000E+00  0.00000000000E+00 -0.10915027965E+04  0.10915027965E+04  0.50400001928E-02 0.  1.
    10030    2    1    2    0    0  0.00000000000E+00  0.00000000000E+00  0.14540960269E+04  0.36371016199E+04  0.33337835769E+04 0.  0.
        3    1    3    3  502    0 -0.69115415872E+03 -0.91377201851E+03  0.20479284771E+04  0.23466325726E+04  0.10100000352E+00 0. -1.
       -3    1    3    3    0  502  0.69115415872E+03  0.91377201851E+03 -0.59383245024E+03  0.12904690473E+04  0.10100000352E+00 0.  1.
</event>
<event>
 5   0  0.5858859E-07  0.3250856E+04  0.7818609E-02  0.8175514E-01
       -1   -1    0    0    0  501  0.00000000000E+00  0.00000000000E+00  0.13582267806E+04  0.13582267806E+04  0.50400001928E-02 0. -1.
        1   -1    0    0  501    0  0.00000000000E+00  0.00000000000E+00 -0.19451947744E+04  0.19451947744E+04  0.50400001928E-02 0.  1.
    10030    2    1    2    0    0  0.00000000000E+00  0.00000000000E+00 -0.58696799378E+03  0.33034215550E+04  0.32508556634E+04 0.  0.
        3    1    3    3  502    0 -0.94334305328E+03 -0.15400178184E+03 -0.16294297129E+04  0.18890881039E+04  0.10100000352E+00 0.  1.
       -3    1    3    3    0  502  0.94334305328E+03  0.15400178184E+03  0.10424617191E+04  0.14143334511E+04  0.10100000352E+00 0. -1.
</event>
<event>
 5   0  0.5988516E-07  0.2812482E+04  0.7818609E-02  0.8299404E-01
        1   -1    0    0  501    0  0.00000000000E+00  0.00000000000E+00  0.16257852494E+04  0.16257852494E+04  0.50400001928E-02 0.  1.
       -1   -1    0    0    0  501  0.00000000000E+00  0.00000000000E+00 -0.12163434803E+04  0.12163434803E+04  0.50400001928E-02 0. -1.
    10030    2    1    2    0    0  0.00000000000E+00  0.00000000000E+00  0.40944176910E+03  0.28421287297E+04  0.28124816717E+04 0.  0.
        4    1    3    3  502    0  0.10269250372E+04  0.54571887195E+03  0.10037054053E+04  0.15361673974E+04  0.12699999809E+01 0.  1.
       -4    1    3    3    0  502 -0.10269250372E+04 -0.54571887195E+03 -0.59426363618E+03  0.13059613323E+04  0.12699999809E+01 0. -1.
</event>
<event>
 5   0  0.5858859E-07  0.3309127E+04  0.7818609E-02  0.8160577E-01
       -1   -1    0    0    0  501  0.00000000000E+00  0.00000000000E+00  0.12245947826E+04  0.12245947826E+04  0.50400001928E-02 0.  1.
        1   -1    0    0  501    0  0.00000000000E+00  0.00000000000E+00 -0.22354987084E+04  0.22354987084E+04  0.50400001928E-02 0. -1.
    10030    2    1    2    0    0  0.00000000000E+00  0.00000000000E+00 -0.10109039258E+04  0.34600934909E+04  0.33091268061E+04 0.  0.
        3    1    3    3  502    0  0.16178848311E+04  0.33755989539E+03 -0.58699725206E+03  0.17538710881E+04  0.10100000352E+00 0. -1.
       -3    1    3    3    0  502 -0.16178848311E+04 -0.33755989539E+03 -0.42390667374E+03  0.17062224028E+04  0.10100000352E+00 0.  1.
</event>
<event>
 5   0  0.6085351E-07  0.3266337E+04  0.7818609E-02  0.8171514E-01
        1   -1    0    0  501    0  0.00000000000E+00  0.00000000000E+00  0.23974994751E+04  0.23974994751E+04  0.50400001928E-02 0.  1.
       -1   -1    0    0    0  501  0.00000000000E+00  0.00000000000E+00 -0.11125088384E+04  0.11125088385E+04  0.50400001928E-02 0. -1.
    10030    2    1    2    0    0  0.00000000000E+00  0.00000000000E+00  0.12849906367E+04  0.35100083136E+04  0.32663370042E+04 0.  0.
        1    1    3    3  502    0  0.68593650803E+03  0.11581081185E+04 -0.35144712135E+03  0.13911284579E+04  0.50400001928E-02 0. -1.
       -1    1    3    3    0  502 -0.68593650803E+03 -0.11581081185E+04  0.16364377580E+04  0.21188798557E+04  0.50400001928E-02 0.  1.
</event>
<event>
 5   0  0.6023446E-07  0.3320003E+04  0.7818609E-02  0.8157824E-01
        1   -1    0    0  501    0  0.00000000000E+00  0.00000000000E+00  0.30666985133E+04  0.30666985133E+04  0.50400001928E-02 0.  1.
       -1   -1    0    0    0  501  0.00000000000E+00  0.00000000000E+00 -0.89855735710E+03  0.89855735711E+03  0.50400001928E-02 0. -1.
    10030    2    1    2    0    0  0.00000000000E+00  0.00000000000E+00  0.21681411562E+04  0.39652558704E+04  0.33200027175E+04 0.  0.
        5    1    3    3  502    0  0.22604083435E+03 -0.26435445286E+03 -0.85453968462E+03  0.92262554600E+03  0.46999998093E+01 0. -1.
       -5    1    3    3    0  502 -0.22604083435E+03  0.26435445286E+03  0.30226808408E+04  0.30426303244E+04  0.46999998093E+01 0.  1.
</event>
<event>
 5   0  0.1832626E-06  0.3316160E+04  0.7818609E-02  0.8158795E-01
       -2   -1    0    0    0  501  0.00000000000E+00  0.00000000000E+00  0.15363208378E+04  0.15363208378E+04  0.25500000920E-02 0. -1.
        2   -1    0    0  501    0  0.00000000000E+00  0.00000000000E+00 -0.17894895583E+04  0.17894895583E+04  0.25500000920E-02 0.  1.
    10030    2    1    2    0    0  0.00000000000E+00  0.00000000000E+00 -0.25316872051E+03  0.33258103961E+04  0.33161604891E+04 0.  0.
        3    1    3    3  502    0  0.15596002017E+04  0.23928065329E+03  0.38442957978E+03  0.16240055826E+04  0.10100000352E+00 0. -1.
       -3    1    3    3    0  502 -0.15596002017E+04 -0.23928065329E+03 -0.63759830029E+03  0.17018048134E+04  0.10100000352E+00 0.  1.
</event>
<event>
 5   0  0.1784626E-06  0.3157108E+04  0.7818609E-02  0.8200238E-01
       -2   -1    0    0    0  501  0.00000000000E+00  0.00000000000E+00  0.97708120667E+03  0.97708120668E+03  0.25500000920E-02 0. -1.
        2   -1    0    0  501    0  0.00000000000E+00  0.00000000000E+00 -0.25502813899E+04  0.25502813899E+04  0.25500000920E-02 0.  1.
    10030    2    1    2    0    0  0.00000000000E+00  0.00000000000E+00 -0.15732001832E+04  0.35273625966E+04  0.31571075482E+04 0.  0.
        2    1    3    3  502    0  0.95994570993E+03 -0.26267512879E+03  0.58238894926E+03  0.11531135580E+04  0.25500000920E-02 0. -1.
       -2    1    3    3    0  502 -0.95994570993E+03  0.26267512879E+03 -0.21555891325E+04  0.23742490386E+04  0.25500000920E-02 0.  1.
</event>
<event>
 5   0  0.6023446E-07  0.3349759E+04  0.7818609E-02  0.8150348E-01
       -1   -1    0    0    0  501  0.00000000000E+00  0.00000000000E+00  0.19866653737E+04  0.19866653737E+04  0.50400001928E-02 0. -1.
        1   -1    0    0  501    0  0.00000000000E+00  0.00000000000E+00 -0.14120248195E+04  0.14120248195E+04  0.50400001928E-02 0.  1.
    10030    2    1    2    0    0  0.00000000000E+00  0.00000000000E+00  0.57464055422E+03  0.33986901932E+04  0.33497586872E+04 0.  0.
        5    1    3    3  502    0 -0.37490290300E+03 -0.69074306235E+03 -0.12133114633E+04  0.14456226900E+04  0.46999998093E+01 0.  1.
       -5    1    3    3    0  502  0.37490290300E+03  0.69074306235E+03  0.17879520175E+04  0.19530675032E+04  0.46999998093E+01 0. -1.
</event>
<event>
 5   0  0.1832626E-06  0.3326522E+04  0.7818609E-02  0.8156180E-01
       -2   -1    0    0    0  501  0.00000000000E+00  0.00000000000E+00  0.14478797191E+04  0.14478797191E+04  0.25500000920E-02 0.  1.
        2   -1    0    0  501    0  0.00000000000E+00  0.00000000000E+00 -0.19106814221E+04  0.19106814221E+04  0.25500000920E-02 0. -1.
    10030    2    1    2    0    0  0.00000000000E+00  0.00000000000E+00 -0.46280170305E+03  0.33585611412E+04  0.33265218356E+04 0.  0.
        3    1    3    3  502    0 -0.95936377589E+03 -0.11601316269E+04 -0.94542706540E+03  0.17776716774E+04  0.10100000352E+00 0. -1.
       -3    1    3    3    0  502  0.95936377589E+03  0.11601316269E+04  0.48262536236E+03  0.15808894638E+04  0.10100000352E+00 0.  1.
</event>
<event>
 5   0  0.1728937E-06  0.3301579E+04  0.7818609E-02  0.8162494E-01
       -2   -1    0    0    0  501  0.00000000000E+00  0.00000000000E+00  0.23256057048E+04  0.23256057048E+04  0.25500000920E-02 0.  1.
        2   -1    0    0  501    0  0.00000000000E+00  0.00000000000E+00 -0.11717831998E+04  0.11717831998E+04  0.25500000920E-02 0. -1.
    10030    2    1    2    0    0  0.00000000000E+00  0.00000000000E+00  0.11538225049E+04  0.34973889046E+04  0.33015788310E+04 0.  0.
        1    1    3    3  502    0  0.94078371632E+03 -0.12547346570E+04  0.30907449836E+02  0.15685625046E+04  0.50400001928E-02 0. -1.
       -1    1    3    3    0  502 -0.94078371632E+03  0.12547346570E+04  0.11229150551E+04  0.19288264000E+04  0.50400001928E-02 0.  1.
</event>
<event>
 5   0  0.1696681E-06  0.3283720E+04  0.7818609E-02  0.8167050E-01
       -2   -1    0    0    0  501  0.00000000000E+00  0.00000000000E+00  0.26578207890E+04  0.26578207890E+04  0.25500000920E-02 0.  1.
        2   -1    0    0  501    0  0.00000000000E+00  0.00000000000E+00 -0.10142533208E+04  0.10142533208E+04  0.25500000920E-02 0. -1.
    10030    2    1    2    0    0  0.00000000000E+00  0.00000000000E+00  0.16435674682E+04  0.36720741098E+04  0.32837195747E+04 0.  0.
        4    1    3    3  502    0  0.56944160936E+03 -0.82312152665E+03  0.22772107537E+04  0.24874652206E+04  0.12699999809E+01 0.  1.
       -4    1    3    3    0  502 -0.56944160936E+03  0.82312152665E+03 -0.63364328555E+03  0.11846088892E+04  0.12699999809E+01 0. -1.
</event>
<event>
 5   0  0.1784626E-06  0.3318396E+04  0.7818609E-02  0.8158230E-01
       -2   -1    0    0    0  501  0.00000000000E+00  0.00000000000E+00  0.17725117354E+04  0.17725117354E+04  0.25500000920E-02 0.  1.
        2   -1    0    0  501    0  0.00000000000E+00  0.00000000000E+00 -0.15531286818E+04  0.15531286818E+04  0.25500000920E-02 0. -1.
    10030    2    1    2    0    0  0.00000000000E+00  0.00000000000E+00  0.21938305359E+03  0.33256404171E+04  0.33183964893E+04 0.  0.
        2    1    3    3  502    0 -0.50840891890E+02 -0.14013041992E+04  0.99858914800E+03  0.17214582602E+04  0.25500000920E-02 0.  1.
       -2    1    3    3    0  502  0.50840891890E+02  0.14013041992E+04 -0.77920609441E+03  0.16041821569E+04  0.25500000920E-02 0. -1.
</event>
<event>
 5   0  0.6023446E-07  0.3280396E+04  0.7818609E-02  0.8167902E-01
       -1   -1    0    0    0  501  0.00000000000E+00  0.00000000000E+00  0.14347131935E+04  0.14347131935E+04  0.50400001928E-02 0.  1.
        1   -1    0    0  501    0  0.00000000000E+00  0.00000000000E+00 -0.18751130894E+04  0.18751130894E+04  0.50400001928E-02 0. -1.
    10030    2    1    2    0    0  0.00000000000E+00  0.00000000000E+00 -0.44039989585E+03  0.33098262829E+04  0.32803960058E+04 0.  0.
        5    1    3    3  502    0  0.86551858956E+03  0.41832688947E+03  0.11206726127E+04  0.14764989029E+04  0.46999998093E+01 0.  1.
       -5    1    3    3    0  502 -0.86551858956E+03 -0.41832688947E+03 -0.15610725086E+04  0.18333273800E+04  0.46999998093E+01 0. -1.
</event>
<event>
 5   0  0.1784626E-06  0.3268320E+04  0.7818609E-02  0.8171003E-01
       -2   -1    0    0    0  501  0.00000000000E+00  0.00000000000E+00  0.11468315085E+04  0.11468315085E+04  0.25500000920E-02 0. -1.
        2   -1    0    0  501    0  0.00000000000E+00  0.00000000000E+00 -0.23285714710E+04  0.23285714710E+04  0.25500000920E-02 0.  1.
    10030    2    1    2    0    0  0.00000000000E+00  0.00000000000E+00 -0.11817399625E+04  0.34754029795E+04  0.32683201390E+04 0.  0.
        2    1    3    3  502    0 -0.18132078481E+03  0.16116783902E+04 -0.80379363690E+03  0.18101018400E+04  0.25500000920E-02 0.  1.
       -2    1    3    3    0  502  0.18132078481E+03 -0.16116783902E+04 -0.37794632560E+03  0.16653011395E+04  0.25500000920E-02 0. -1.
</event>
<event>
 5   0  0.6023446E-07  0.3320992E+04  0.7818609E-02  0.8157574E-01
        1   -1    0    0  501    0  0.00000000000E+00  0.00000000000E+00  0.18439805161E+04  0.18439805161E+04  0.50400001928E-02 0. -1.
       -1   -1    0    0    0  501  0.00000000000E+00  0.00000000000E+00 -0.14952692170E+04  0.14952692170E+04  0.50400001928E-02 0.  1.
    10030    2    1    2    0    0  0.00000000000E+00  0.00000000000E+00  0.34871129911E+03  0.33392497331E+04  0.33209922026E+04 0.  0.
        5    1    3    3  502    0 -0.55300658923E+03 -0.15482125931E+04 -0.60265301200E+02  0.16451238609E+04  0.46999998093E+01 0. -1.
       -5    1    3    3    0  502  0.55300658923E+03  0.15482125931E+04  0.40897660031E+03  0.16941258722E+04  0.46999998093E+01 0.  1.
</event>
<event>
 5   0  0.5988516E-07  0.3032098E+04  0.7818609E-02  0.8234624E-01
       -1   -1    0    0    0  501  0.00000000000E+00  0.00000000000E+00  0.15734515223E+04  0.15734515223E+04  0.50400001928E-02 0.  1.
        1   -1    0    0  501    0  0.00000000000E+00  0.00000000000E+00 -0.14607407423E+04  0.14607407423E+04  0.50400001928E-02 0. -1.
    10030    2    1    2    0    0  0.00000000000E+00  0.00000000000E+00  0.11271077997E+03  0.30341922646E+04  0.30320981149E+04 0.  0.
        4    1    3    3  502    0 -0.53517413032E+03 -0.73790943422E+03  0.12685885405E+04  0.15621268133E+04  0.12699999809E+01 0.  1.
       -4    1    3    3    0  502  0.53517413032E+03  0.73790943422E+03 -0.11558777605E+04  0.14720654513E+04  0.12699999809E+01 0. -1.
</event>
<event>
 5   0  0.5985183E-07  0.3309662E+04  0.7818609E-02  0.8160441E-01
       -1   -1    0    0    0  501  0.00000000000E+00  0.00000000000E+00  0.11812822829E+04  0.11812822829E+04  0.50400001928E-02 0. -1.
        1   -1    0    0  501    0  0.00000000000E+00  0.00000000000E+00 -0.23182140114E+04  0.23182140114E+04  0.50400001928E-02 0.  1.
    10030    2    1    2    0    0  0.00000000000E+00  0.00000000000E+00 -0.11369317285E+04  0.34994962944E+04  0.33096616986E+04 0.  0.
        2    1    3    3  502    0 -0.11863566807E+04  0.94073060418E+03  0.13771048505E+03  0.15203224728E+04  0.25500000920E-02 0. -1.
       -2    1    3    3    0  502  0.11863566807E+04 -0.94073060418E+03 -0.12746422135E+04  0.19791738216E+04  0.25500000920E-02 0.  1.
</event>
<event>
 5   0  0.5988516E-07  0.3318893E+04  0.7818609E-02  0.8158105E-01
       -1   -1    0    0    0  501  0.00000000000E+00  0.00000000000E+00  0.15103455967E+04  0.15103455967E+04  0.50400001928E-02 0. -1.
        1   -1    0    0  501    0  0.00000000000E+00  0.00000000000E+00 -0.18232668362E+04  0.18232668362E+04  0.50400001928E-02 0.  1.
    10030    2    1    2    0    0  0.00000000000E+00  0.00000000000E+00 -0.31292123955E+03  0.33336124329E+04  0.33188932117E+04 0.  0.
        4    1    3    3  502    0  0.15467500413E+04  0.87050444322E+02 -0.75386554254E+03  0.17228837278E+04  0.12699999809E+01 0. -1.
       -4    1    3    3    0  502 -0.15467500413E+04 -0.87050444322E+02  0.44094430299E+03  0.16107287051E+04  0.12699999809E+01 0.  1.
</event>
<event>
 5   0  0.1728937E-06  0.3286317E+04  0.7818609E-02  0.8166386E-01
       -2   -1    0    0    0  501  0.00000000000E+00  0.00000000000E+00  0.13890294282E+04  0.13890294282E+04  0.25500000920E-02 0.  1.
        2   -1    0    0  501    0  0.00000000000E+00  0.00000000000E+00 -0.19437810567E+04  0.19437810567E+04  0.25500000920E-02 0. -1.
    10030    2    1    2    0    0  0.00000000000E+00  0.00000000000E+00 -0.55475162843E+03  0.33328104849E+04  0.32863165336E+04 0.  0.
        1    1    3    3  502    0 -0.17920748643E+03 -0.40202238112E+03  0.13281298524E+04  0.13991662599E+04  0.50400001928E-02 0.  1.
       -1    1    3    3    0  502  0.17920748643E+03  0.40202238112E+03 -0.18828814808E+04  0.19336442250E+04  0.50400001928E-02 0. -1.
</event>
<event>
 5   0  0.1696681E-06  0.3328678E+04  0.7818609E-02  0.8155636E-01
       -2   -1    0    0    0  501  0.00000000000E+00  0.00000000000E+00  0.14903323046E+04  0.14903323046E+04  0.25500000920E-02 0.  1.
        2   -1    0    0  501    0  0.00000000000E+00  0.00000000000E+00 -0.18586624116E+04  0.18586624116E+04  0.25500000920E-02 0. -1.
    10030    2    1    2    0    0  0.00000000000E+00  0.00000000000E+00 -0.36833010698E+03  0.33489947162E+04  0.33286781973E+04 0.  0.
        4    1    3    3  502    0  0.11476195883E+04 -0.11480877850E+04  0.18534587013E+03  0.16338577006E+04  0.12699999809E+01 0.  1.
       -4    1    3    3    0  502 -0.11476195883E+04  0.11480877850E+04 -0.55367597711E+03  0.17151370155E+04  0.12699999809E+01 0. -1.
</event>
<event>
 5   0  0.5858859E-07  0.3332585E+04  0.7818609E-02  0.8154653E-01
        1   -1    0    0  501    0  0.00000000000E+00  0.00000000000E+00  0.13805671494E+04  0.13805671494E+04  0.50400001928E-02 0. -1.
       -1   -1    0    0    0  501  0.00000000000E+00  0.00000000000E+00 -0.20111516534E+04  0.20111516534E+04  0.50400001928E-02 0.  1.
    10030    2    1    2    0    0  0.00000000000E+00  0.00000000000E+00 -0.63058450408E+03  0.33917188028E+04  0.33325845257E+04 0.  0.
        3    1    3    3  502    0 -0.57989472592E+03  0.47266111017E+02  0.12738292793E+04  0.14004117328E+04  0.10100000352E+00 0. -1.
       -3    1    3    3    0  502  0.57989472592E+03 -0.47266111017E+02 -0.19044137834E+04  0.19913070700E+04  0.10100000352E+00 0.  1.
</event>
<event>
 5   0  0.1832626E-06  0.3299790E+04  0.7818609E-02  0.8162949E-01
        2   -1    0    0  501    0  0.00000000000E+00  0.00000000000E+00  0.10919115946E+04  0.10919115946E+04  0.25500000920E-02 0. -1.
       -2   -1    0    0    0  501  0.00000000000E+00  0.00000000000E+00 -0.24930162799E+04  0.24930162799E+04  0.25500000920E-02 0.  1.
    10030    2    1    2    0    0  0.00000000000E+00  0.00000000000E+00 -0.14011046853E+04  0.35849278745E+04  0.32997899215E+04 0.  0.
        3    1    3    3  502    0 -0.11415922455E+02  0.11041338084E+04 -0.20324193053E+04  0.23130002233E+04  0.10100000352E+00 0.  1.
       -3    1    3    3    0  502  0.11415922455E+02 -0.11041338084E+04  0.63131462002E+03  0.12719276512E+04  0.10100000352E+00 0. -1.
</event>
<event>
 5   0  0.5858859E-07  0.3281758E+04  0.7818609E-02  0.8167553E-01
        1   -1    0    0  501    0  0.00000000000E+00  0.00000000000E+00  0.16647721741E+04  0.16647721741E+04  0.50400001928E-02 0.  1.
       -1   -1    0    0    0  501  0.00000000000E+00  0.00000000000E+00 -0.16173282554E+04  0.16173282555E+04  0.50400001928E-02 0. -1.
    10030    2    1    2    0    0  0.00000000000E+00  0.00000000000E+00  0.47443918641E+02  0.32821004296E+04  0.32817575024E+04 0.  0.
        3    1    3    3  502    0  0.14066229965E+04 -0.83039962878E+03  0.17972309174E+03  0.16433052661E+04  0.10100000352E+00 0. -1.
       -3    1    3    3    0  502 -0.14066229965E+04  0.83039962878E+03 -0.13227917310E+03  0.16387951634E+04  0.10100000352E+00 0.  1.
</event>
<event>
 5   0  0.5985183E-07  0.3299097E+04  0.7818609E-02  0.8163125E-01
       -1   -1    0    0    0  501  0.00000000000E+00  0.00000000000E+00  0.16157224365E+04  0.16157224365E+04  0.50400001928E-02 0.  1.
        1   -1    0    0  501    0  0.00000000000E+00  0.00000000000E+00 -0.16840832067E+04  0.16840832067E+04  0.50400001928E-02 0. -1.
    10030    2    1    2    0    0  0.00000000000E+00  0.00000000000E+00 -0.68360770167E+02  0.32998056432E+04  0.32990974657E+04 0.  0.
        2    1    3    3  502    0  0.50310167472E+03 -0.65766213267E+02 -0.16040951272E+04  0.16824261252E+04  0.25500000920E-02 0. -1.
       -2    1    3    3    0  502 -0.50310167472E+03  0.65766213267E+02  0.15357343570E+04  0.16173795180E+04  0.25500000920E-02 0.  1.
</event>
<event>
 5   0  0.1784626E-06  0.2972879E+04  0.7818609E-02  0.8251518E-01
        2   -1    0    0  501    0  0.00000000000E+00  0.00000000000E+00  0.12292117100E+04  0.12292117100E+04  0.25500000920E-02 0. -1.
       -2   -1    0    0    0  501  0.00000000000E+00  0.00000000000E+00 -0.17974959451E+04  0.17974959451E+04  0.25500000920E-02 0.  1.
    10030    2    1    2    0    0  0.00000000000E+00  0.00000000000E+00 -0.56828423502E+03  0.30267076551E+04  0.29728794556E+04 0.  0.
        2    1    3    3  502    0 -0.12643752200E+02  0.14030682201E+04 -0.78368157956E+03  0.16071456414E+04  0.25500000920E-02 0. -1.
       -2    1    3    3    0  502  0.12643752200E+02 -0.14030682201E+04  0.21539734454E+03  0.14195620137E+04  0.25500000920E-02 0.  1.
</event>
<event>
 5   0  0.5685000E-07  0.3301524E+04  0.7818609E-02  0.8162508E-01
        3   -1    0    0  501    0  0.00000000000E+00  0.00000000000E+00  0.29648971989E+04  0.29648972006E+04  0.10100000352E+00 0.  1.
       -3   -1    0    0    0  501  0.00000000000E+00  0.00000000000E+00 -0.91909241737E+03  0.91909242292E+03  0.10100000352E+00 0. -1.
    10030    2    1    2    0    0  0.00000000000E+00  0.00000000000E+00  0.20458047815E+04  0.38839896235E+04  0.33015236167E+04 0.  0.
        2    1    3    3  502    0  0.24519406820E+03 -0.31867231663E+03 -0.86060340498E+03  0.94990020378E+03  0.25500000920E-02 0. -1.
       -2    1    3    3    0  502 -0.24519406820E+03  0.31867231663E+03  0.29064081865E+04  0.29340894197E+04  0.25500000920E-02 0.  1.
</event>
<event>
 5   0  0.6085351E-07  0.3315554E+04  0.7818609E-02  0.8158949E-01
        1   -1    0    0  501    0  0.00000000000E+00  0.00000000000E+00  0.17170952304E+04  0.17170952305E+04  0.50400001928E-02 0. -1.
       -1   -1    0    0    0  501  0.00000000000E+00  0.00000000000E+00 -0.16005080726E+04  0.16005080726E+04  0.50400001928E-02 0.  1.
    10030    2    1    2    0    0  0.00000000000E+00  0.00000000000E+00  0.11658715788E+03  0.33176033030E+04  0.33155541182E+04 0.  0.
        1    1    3    3  502    0 -0.11263302479E+04 -0.11753368035E+04  0.37183744699E+03  0.16698202047E+04  0.50400001928E-02 0. -1.
       -1    1    3    3    0  502  0.11263302479E+04  0.11753368035E+04 -0.25525028911E+03  0.16477830983E+04  0.50400001928E-02 0.  1.
</event>
<event>
 5   0  0.1696681E-06  0.3307990E+04  0.7818609E-02  0.8160865E-01
       -2   -1    0    0    0  501  0.00000000000E+00  0.00000000000E+00  0.12768700644E+04  0.12768700644E+04  0.25500000920E-02 0. -1.
        2   -1    0    0  501    0  0.00000000000E+00  0.00000000000E+00 -0.21425035519E+04  0.21425035519E+04  0.25500000920E-02 0.  1.
    10030    2    1    2    0    0  0.00000000000E+00  0.00000000000E+00 -0.86563348755E+03  0.34193736163E+04  0.33079895092E+04 0.  0.
        4    1    3    3  502    0  0.44016621526E+03 -0.12760692868E+03 -0.20755630366E+04  0.21255571874E+04  0.12699999809E+01 0.  1.
       -4    1    3    3    0  502 -0.44016621526E+03  0.12760692868E+03  0.12099295490E+04  0.12938164289E+04  0.12699999809E+01 0. -1.
</event>
<event>
 5   0  0.6085351E-07  0.3319648E+04  0.7818609E-02  0.8157914E-01
        1   -1    0    0  501    0  0.00000000000E+00  0.00000000000E+00  0.22880489732E+04  0.22880489732E+04  0.50400001928E-02 0. -1.
       -1   -1    0    0    0  501  0.00000000000E+00  0.00000000000E+00 -0.12040896224E+04  0.12040896224E+04  0.50400001928E-02 0.  1.
    10030    2    1    2    0    0  0.00000000000E+00  0.00000000000E+00  0.10839593508E+04  0.34921385956E+04  0.33196481887E+04 0.  0.
        1    1    3    3  502    0  0.79648072823E+03  0.39021348685E+03  0.20178647787E+04  0.22041838355E+04  0.50400001928E-02 0. -1.
       -1    1    3    3    0  502 -0.79648072823E+03 -0.39021348685E+03 -0.93390542787E+03  0.12879547601E+04  0.50400001928E-02 0.  1.
</event>
<event>
 5   0  0.1696681E-06  0.3334026E+04  0.7818609E-02  0.8154291E-01
       -2   -1    0    0    0  501  0.00000000000E+00  0.00000000000E+00  0.11014712815E+04  0.11014712815E+04  0.25500000920E-02 0.  1.
        2   -1    0    0  501    0  0.00000000000E+00  0.00000000000E+00 -0.25229272541E+04  0.25229272541E+04  0.25500000920E-02 0. -1.
    10030    2    1    2    0    0  0.00000000000E+00  0.00000000000E+00 -0.14214559726E+04  0.36243985356E+04  0.33340257442E+04 0.  0.
        4    1    3    3  502    0  0.13257841864E+04 -0.68345054025E+03  0.98497729288E+02  0.14948283398E+04  0.12699999809E+01 0.  1.
       -4    1    3    3    0  502 -0.13257841864E+04  0.68345054025E+03 -0.15199537019E+04  0.21295701958E+04  0.12699999809E+01 0. -1.
</event>
<event>
 5   0  0.1743810E-06  0.3350471E+04  0.7818609E-02  0.8150170E-01
       -2   -1    0    0    0  501  0.00000000000E+00  0.00000000000E+00  0.14282534270E+04  0.14282534270E+04  0.25500000920E-02 0.  1.
        2   -1    0    0  501    0  0.00000000000E+00  0.00000000000E+00 -0.19649271371E+04  0.19649271371E+04  0.25500000920E-02 0. -1.
    10030    2    1    2    0    0  0.00000000000E+00  0.00000000000E+00 -0.53667371016E+03  0.33931805641E+04  0.33504709624E+04 0.  0.
        5    1    3    3  502    0 -0.28961688821E+03  0.12597897157E+04  0.81081838993E+03  0.15259084577E+04  0.46999998093E+01 0.  1.
       -5    1    3    3    0  502  0.28961688821E+03 -0.12597897157E+04 -0.13474921001E+04  0.18672721065E+04  0.46999998093E+01 0. -1.
</event>
<event>
 5   0  0.5988516E-07  0.3305288E+04  0.7818609E-02  0.8161551E-01
       -1   -1    0    0    0  501  0.00000000000E+00  0.00000000000E+00  0.21070676095E+04  0.21070676095E+04  0.50400001928E-02 0.  1.
        1   -1    0    0  501    0  0.00000000000E+00  0.00000000000E+00 -0.12962241956E+04  0.12962241957E+04  0.50400001928E-02 0. -1.
    10030    2    1    2    0    0  0.00000000000E+00  0.00000000000E+00  0.81084341385E+03  0.34032918051E+04  0.33052878951E+04 0.  0.
        4    1    3    3  502    0  0.11931656988E+04 -0.96910756736E+03 -0.21954870371E+03  0.15527450236E+04  0.12699999809E+01 0. -1.
       -4    1    3    3    0  502 -0.11931656988E+04  0.96910756736E+03  0.10303921176E+04  0.18505467816E+04  0.12699999809E+01 0.  1.
</event>
<event>
 5   0  0.1743810E-06  0.3178025E+04  0.7818609E-02  0.8194645E-01
        2   -1    0    0  501    0  0.00000000000E+00  0.00000000000E+00  0.26542486754E+04  0.26542486754E+04  0.25500000920E-02 0.  1.
       -2   -1    0    0    0  501  0.00000000000E+00  0.00000000000E+00 -0.95129043042E+03  0.95129043043E+03  0.25500000920E-02 0. -1.
    10030    2    1    2    0    0  0.00000000000E+00  0.00000000000E+00  0.17029582450E+04  0.36055391058E+04  0.31780254026E+04 0.  0.
        5    1    3    3  502    0  0.11067103193E+04  0.15819792991E+03  0.21325873296E+04  0.24078590333E+04  0.46999998093E+01 0.  1.
       -5    1    3    3    0  502 -0.11067103193E+04 -0.15819792991E+03 -0.42962908460E+03  0.11976800726E+04  0.46999998093E+01 0. -1.
</event>
<event>
 5   0  0.5985183E-07  0.3279597E+04  0.7818609E-02  0.8168106E-01
       -1   -1    0    0    0  501  0.00000000000E+00  0.00000000000E+00  0.14482333182E+04  0.14482333182E+04  0.50400001928E-02 0.  1.
        1   -1    0    0  501    0  0.00000000000E+00  0.00000000000E+00 -0.18567030514E+04  0.18567030514E+04  0.50400001928E-02 0. -1.
    10030    2    1    2    0    0  0.00000000000E+00  0.00000000000E+00 -0.40846973319E+03  0.33049363697E+04  0.32795970613E+04 0.  0.
        2    1    3    3  502    0  0.15400362394E+04 -0.48747889366E+03  0.80065312552E+02  0.16173304377E+04  0.25500000920E-02 0. -1.
       -2    1    3    3    0  502 -0.15400362394E+04  0.48747889366E+03 -0.48853504574E+03  0.16876059319E+04  0.25500000920E-02 0.  1.
</event>
<event>
 5   0  0.1784626E-06  0.3283227E+04  0.7818609E-02  0.8167176E-01
       -2   -1    0    0    0  501  0.00000000000E+00  0.00000000000E+00  0.18657766770E+04  0.18657766770E+04  0.25500000920E-02 0. -1.
        2   -1    0    0  501    0  0.00000000000E+00  0.00000000000E+00 -0.14443822146E+04  0.14443822146E+04  0.25500000920E-02 0.  1.
    10030    2    1    2    0    0  0.00000000000E+00  0.00000000000E+00  0.42139446246E+03  0.33101588916E+04  0.32832268570E+04 0.  0.
        2    1    3    3  502    0  0.10950161093E+04  0.63664230991E+03  0.12635434787E+04  0.17891103467E+04  0.25500000920E-02 0. -1.
       -2    1    3    3    0  502 -0.10950161093E+04 -0.63664230991E+03 -0.84214901621E+03  0.15210485449E+04  0.25500000920E-02 0.  1.
</event>
<event>
 5   0  0.6023446E-07  0.3197220E+04  0.7818609E-02  0.8189552E-01
        1   -1    0    0  501    0  0.00000000000E+00  0.00000000000E+00  0.14555115531E+04  0.14555115531E+04  0.50400001928E-02 0.  1.
       -1   -1    0    0    0  501  0.00000000000E+00  0.00000000000E+00 -0.17557767878E+04  0.17557767878E+04  0.50400001928E-02 0. -1.
    10030    2    1    2    0    0  0.00000000000E+00  0.00000000000E+00 -0.30026523473E+03  0.32112883409E+04  0.31972196667E+04 0.  0.
        5    1    3    3  502    0 -0.20613540711E+03 -0.29076217674E+03  0.14150881443E+04  0.14592912648E+04  0.46999998093E+01 0.  1.
       -5    1    3    3    0  502  0.20613540711E+03  0.29076217674E+03 -0.17153533790E+04  0.17519970760E+04  0.46999998093E+01 0. -1.
</event>
</LesHouchesEvents>
