<LesHouchesEvents version="3.0">
<header>
<!--
#*********************************************************************
#                                                                    *
#                        MadGraph5_aMC@NLO                           *
#                                                                    *
#                           Going Beyond                             *
#                                                                    *
#                   http://madgraph.hep.uiuc.edu                     *
#                   http://madgraph.phys.ucl.ac.be                   *
#                   http://amcatnlo.cern.ch                          *
#                                                                    *
#                     The MadGraph5_aMC@NLO team                     *
#                                                                    *
#....................................................................*
#                                                                    *
# This file contains all the information necessary to reproduce      *
# the events generated:                                              *
#                                                                    *
# 1. software version                                                *
# 2. proc_card          : code generation info including model       *
# 3. param_card         : model primary parameters in the LH format  *
# 4. run_card           : running parameters (collider and cuts)     *
# 5. pythia_card        : present only if pythia has been run        *
# 6. pgs_card           : present only if pgs has been run           *
# 7. delphes_cards      : present only if delphes has been run       *
#                                                                    *
#                                                                    *
#*********************************************************************
-->
<MGVersion>
#5.2.2.3
</MGVersion>
<MG5ProcCard>
#************************************************************
#*                     MadGraph5_aMC@NLO                    *
#*                                                          *
#*                *                       *                 *
#*                  *        * *        *                   *
#*                    * * * * 5 * * * *                     *
#*                  *        * *        *                   *
#*                *                       *                 *
#*                                                          *
#*                                                          *
#*         VERSION 2.2.3                 2015-02-10         *
#*                                                          *
#*    The MadGraph5_aMC@NLO Development Team - Find us at   *
#*    https://server06.fynu.ucl.ac.be/projects/madgraph     *
#*                                                          *
#************************************************************
#*                                                          *
#*               Command File for MadGraph5_aMC@NLO         *
#*                                                          *
#*     run as ./bin/mg5_aMC  filename                       *
#*                                                          *
#************************************************************
set group_subprocesses Auto
set ignore_six_quark_processes False
set loop_optimized_output True
set gauge unitary
set complex_mass_scheme False
import model sm
define p = g u c d s u~ c~ d~ s~
define j = g u c d s u~ c~ d~ s~
define l+ = e+ mu+
define l- = e- mu-
define vl = ve vm vt
define vl~ = ve~ vm~ vt~
import model Zprime_UFO
generate p p > zph, zph > j j
add process p p > zph, zph > b b~
output Dijet_signal
</MG5ProcCard>
<MGProcCard>
#*********************************************************************
#                        MadGraph/MadEvent                           *
#                   http://madgraph.hep.uiuc.edu                     *
#                                                                    *
#                          proc_card.dat                             *
#*********************************************************************
#                                                                    *
#            This Files is generated by MADGRAPH 5                   *
#                                                                    *
# WARNING: This Files is generated for MADEVENT (compatibility issue)*
#          This files is NOT a valid MG4 proc_card.dat               *
#          Running this in MG4 will NEVER reproduce the result of MG5*
#                                                                    *
#*********************************************************************
#*********************************************************************
# Process(es) requested : mg2 input                                  *
#*********************************************************************
# Begin PROCESS # This is TAG. Do not modify this line
p p > zph , zph > j j           #Process
# Be carefull the coupling are here in MG5 convention
          
end_coup           # End the couplings input

done               # this tells MG there are no more procs
# End PROCESS  # This is TAG. Do not modify this line
#*********************************************************************
# Model information                                                  *
#*********************************************************************
# Begin MODEL  # This is TAG. Do not modify this line
Zprime_UFO
# End   MODEL  # This is TAG. Do not modify this line
#*********************************************************************
# Start multiparticle definitions                                    *
#*********************************************************************
# Begin MULTIPARTICLES # This is TAG. Do not modify this line

# End  MULTIPARTICLES # This is TAG. Do not modify this line
</MGProcCard>
<MGRunCard>
#*********************************************************************
#                       MadGraph5_aMC@NLO                            *
#                                                                    *
#                     run_card.dat MadEvent                          *
#                                                                    *
#  This file is used to set the parameters of the run.               *
#                                                                    *
#  Some notation/conventions:                                        *
#                                                                    *
#   Lines starting with a '# ' are info or comments                  *
#                                                                    *
#   mind the format:   value    = variable     ! comment             *
#*********************************************************************
#
#*******************                                                 
# Running parameters
#*******************                                                 
#                                                                    
#*********************************************************************
# Tag name for the run (one word)                                    *
#*********************************************************************
  tag_1     = run_tag ! name of the run 
#*********************************************************************
# Run to generate the grid pack                                      *
#*********************************************************************
  .false.     = gridpack  !True = setting up the grid pack
#*********************************************************************
# Number of events and rnd seed                                      *
# Warning: Do not generate more than 1M events in a single run       *
# If you want to run Pythia, avoid more than 50k events in a run.    *
#*********************************************************************
  2000 = nevents ! Number of unweighted events requested 
 723 = iseed   ! rnd seed (0=assigned automatically=default))
#*********************************************************************
# Collider type and energy                                           *
# lpp: 0=No PDF, 1=proton, -1=antiproton, 2=photon from proton,      *
#                                         3=photon from electron     *
#*********************************************************************
        1     = lpp1    ! beam 1 type 
        1     = lpp2    ! beam 2 type
     4000     = ebeam1  ! beam 1 total energy in GeV
     4000     = ebeam2  ! beam 2 total energy in GeV
#*********************************************************************
# Beam polarization from -100 (left-handed) to 100 (right-handed)    *
#*********************************************************************
        0     = polbeam1 ! beam polarization for beam 1
        0     = polbeam2 ! beam polarization for beam 2
#*********************************************************************
# PDF CHOICE: this automatically fixes also alpha_s and its evol.    *
#*********************************************************************
 'nn23lo1'    = pdlabel     ! PDF set                                     
 230000    = lhaid     ! if pdlabel=lhapdf, this is the lhapdf number
#*********************************************************************
# Renormalization and factorization scales                           *
#*********************************************************************
 F        = fixed_ren_scale  ! if .true. use fixed ren scale
 F        = fixed_fac_scale  ! if .true. use fixed fac scale
 91.1880  = scale            ! fixed ren scale
 91.1880  = dsqrt_q2fact1    ! fixed fact scale for pdf1
 91.1880  = dsqrt_q2fact2    ! fixed fact scale for pdf2
 1        = scalefact        ! scale factor for event-by-event scales
#*********************************************************************
# Matching - Warning! ickkw > 1 is still beta
#*********************************************************************
 0        = ickkw            ! 0 no matching, 1 MLM, 2 CKKW matching
 1        = highestmult      ! for ickkw=2, highest mult group
 1        = ktscheme         ! for ickkw=1, 1 Durham kT, 2 Pythia pTE
 1        = alpsfact         ! scale factor for QCD emission vx
 F        = chcluster        ! cluster only according to channel diag
 T        = pdfwgt           ! for ickkw=1, perform pdf reweighting
 5        = asrwgtflavor     ! highest quark flavor for a_s reweight
 T        = clusinfo         ! include clustering tag in output
 3.0      = lhe_version       ! Change the way clustering information pass to shower.        
#*********************************************************************
#**********************************************************
#
#**********************************************************
# Automatic ptj and mjj cuts if xqcut > 0
# (turn off for VBF and single top processes)
#**********************************************************
   T  = auto_ptj_mjj  ! Automatic setting of ptj and mjj
#**********************************************************
#                                                                    
#**********************************
# BW cutoff (M+/-bwcutoff*Gamma)
#**********************************
  15  = bwcutoff      ! (M+/-bwcutoff*Gamma)
#**********************************************************
# Apply pt/E/eta/dr/mij cuts on decay products or not
# (note that etmiss/ptll/ptheavy/ht/sorted cuts always apply)
#**********************************************************
   T  = cut_decays    ! Cut decay products 
#*************************************************************
# Number of helicities to sum per event (0 = all helicities)
# 0 gives more stable result, but longer run time (needed for
# long decay chains e.g.).
# Use >=2 if most helicities contribute, e.g. pure QCD.
#*************************************************************
   0  = nhel          ! Number of helicities used per event
#*******************                                                 
# Standard Cuts
#*******************                                                 
#                                                                    
#*********************************************************************
# Minimum and maximum pt's (for max, -1 means no cut)                *
#*********************************************************************
 20  = ptj       ! minimum pt for the jets 
  0  = ptb       ! minimum pt for the b 
 10  = pta       ! minimum pt for the photons 
 10  = ptl       ! minimum pt for the charged leptons 
  0  = misset    ! minimum missing Et (sum of neutrino's momenta)
  0  = ptheavy   ! minimum pt for one heavy final state
 1.0 = ptonium   ! minimum pt for the quarkonium states
 -1  = ptjmax    ! maximum pt for the jets
 -1  = ptbmax    ! maximum pt for the b
 -1  = ptamax    ! maximum pt for the photons
 -1  = ptlmax    ! maximum pt for the charged leptons
 -1  = missetmax ! maximum missing Et (sum of neutrino's momenta)
#*********************************************************************
# Minimum and maximum E's (in the center of mass frame)              *
#*********************************************************************
  0  = ej     ! minimum E for the jets 
  0  = eb     ! minimum E for the b 
  0  = ea     ! minimum E for the photons 
  0  = el     ! minimum E for the charged leptons 
 -1   = ejmax ! maximum E for the jets
 -1   = ebmax ! maximum E for the b
 -1   = eamax ! maximum E for the photons
 -1   = elmax ! maximum E for the charged leptons
#*********************************************************************
# Maximum and minimum absolute rapidity (for max, -1 means no cut)   *
#*********************************************************************
   5  = etaj    ! max rap for the jets 
  -1  = etab    ! max rap for the b
 2.5  = etaa    ! max rap for the photons 
 2.5  = etal    ! max rap for the charged leptons 
 0.6  = etaonium ! max rap for the quarkonium states
   0  = etajmin ! min rap for the jets
   0  = etabmin ! min rap for the b
   0  = etaamin ! min rap for the photons
   0  = etalmin ! main rap for the charged leptons
#*********************************************************************
# Minimum and maximum DeltaR distance                                *
#*********************************************************************
 0.4 = drjj    ! min distance between jets 
 0   = drbb    ! min distance between b's 
 0.4 = drll    ! min distance between leptons 
 0.4 = draa    ! min distance between gammas 
 0   = drbj    ! min distance between b and jet 
 0.4 = draj    ! min distance between gamma and jet 
 0.4 = drjl    ! min distance between jet and lepton 
 0   = drab    ! min distance between gamma and b 
 0   = drbl    ! min distance between b and lepton 
 0.4 = dral    ! min distance between gamma and lepton 
 -1  = drjjmax ! max distance between jets
 -1  = drbbmax ! max distance between b's
 -1  = drllmax ! max distance between leptons
 -1  = draamax ! max distance between gammas
 -1  = drbjmax ! max distance between b and jet
 -1  = drajmax ! max distance between gamma and jet
 -1  = drjlmax ! max distance between jet and lepton
 -1  = drabmax ! max distance between gamma and b
 -1  = drblmax ! max distance between b and lepton
 -1  = dralmax ! maxdistance between gamma and lepton
#*********************************************************************
# Minimum and maximum invariant mass for pairs                       *
# WARNING: for four lepton final state mmll cut require to have      *
#          different lepton masses for each flavor!                  *           
#*********************************************************************
 0   = mmjj    ! min invariant mass of a jet pair 
 0   = mmbb    ! min invariant mass of a b pair 
 0   = mmaa    ! min invariant mass of gamma gamma pair
 0   = mmll    ! min invariant mass of l+l- (same flavour) lepton pair
 -1  = mmjjmax ! max invariant mass of a jet pair
 -1  = mmbbmax ! max invariant mass of a b pair
 -1  = mmaamax ! max invariant mass of gamma gamma pair
 -1  = mmllmax ! max invariant mass of l+l- (same flavour) lepton pair
#*********************************************************************
# Minimum and maximum invariant mass for all letpons                 *
#*********************************************************************
 0   = mmnl    ! min invariant mass for all letpons (l+- and vl) 
 -1  = mmnlmax ! max invariant mass for all letpons (l+- and vl) 
#*********************************************************************
# Minimum and maximum pt for 4-momenta sum of leptons                *
#*********************************************************************
 0   = ptllmin  ! Minimum pt for 4-momenta sum of leptons(l and vl)
 -1  = ptllmax  ! Maximum pt for 4-momenta sum of leptons(l and vl)
#*********************************************************************
# Inclusive cuts                                                     *
#*********************************************************************
 0  = xptj ! minimum pt for at least one jet  
 0  = xptb ! minimum pt for at least one b 
 0  = xpta ! minimum pt for at least one photon 
 0  = xptl ! minimum pt for at least one charged lepton 
#*********************************************************************
# Control the pt's of the jets sorted by pt                          *
#*********************************************************************
 0   = ptj1min ! minimum pt for the leading jet in pt
 0   = ptj2min ! minimum pt for the second jet in pt
 0   = ptj3min ! minimum pt for the third jet in pt
 0   = ptj4min ! minimum pt for the fourth jet in pt
 -1  = ptj1max ! maximum pt for the leading jet in pt 
 -1  = ptj2max ! maximum pt for the second jet in pt
 -1  = ptj3max ! maximum pt for the third jet in pt
 -1  = ptj4max ! maximum pt for the fourth jet in pt
 0   = cutuse  ! reject event if fails any (0) / all (1) jet pt cuts
#*********************************************************************
# Control the pt's of leptons sorted by pt                           *
#*********************************************************************
 0   = ptl1min ! minimum pt for the leading lepton in pt
 0   = ptl2min ! minimum pt for the second lepton in pt
 0   = ptl3min ! minimum pt for the third lepton in pt
 0   = ptl4min ! minimum pt for the fourth lepton in pt
 -1  = ptl1max ! maximum pt for the leading lepton in pt 
 -1  = ptl2max ! maximum pt for the second lepton in pt
 -1  = ptl3max ! maximum pt for the third lepton in pt
 -1  = ptl4max ! maximum pt for the fourth lepton in pt
#*********************************************************************
# Control the Ht(k)=Sum of k leading jets                            *
#*********************************************************************
 0   = htjmin ! minimum jet HT=Sum(jet pt)
 -1  = htjmax ! maximum jet HT=Sum(jet pt)
 0   = ihtmin  !inclusive Ht for all partons (including b)
 -1  = ihtmax  !inclusive Ht for all partons (including b)
 0   = ht2min ! minimum Ht for the two leading jets
 0   = ht3min ! minimum Ht for the three leading jets
 0   = ht4min ! minimum Ht for the four leading jets
 -1  = ht2max ! maximum Ht for the two leading jets
 -1  = ht3max ! maximum Ht for the three leading jets
 -1  = ht4max ! maximum Ht for the four leading jets
#***********************************************************************
# Photon-isolation cuts, according to hep-ph/9801442                   *
# When ptgmin=0, all the other parameters are ignored                  *
# When ptgmin>0, pta and draj are not going to be used                 *
#***********************************************************************
   0 = ptgmin ! Min photon transverse momentum
 0.4 = R0gamma ! Radius of isolation code
 1.0 = xn ! n parameter of eq.(3.4) in hep-ph/9801442
 1.0 = epsgamma ! epsilon_gamma parameter of eq.(3.4) in hep-ph/9801442
 .true. = isoEM ! isolate photons from EM energy (photons and leptons)
#*********************************************************************
# WBF cuts                                                           *
#*********************************************************************
 0   = xetamin ! minimum rapidity for two jets in the WBF case  
 0   = deltaeta ! minimum rapidity for two jets in the WBF case 
#*********************************************************************
# KT DURHAM CUT                                                      *
#*********************************************************************
 -1    =  ktdurham        
 0.4  =  dparameter 
#*********************************************************************
# maximal pdg code for quark to be considered as a light jet         *
# (otherwise b cuts are applied)                                     *
#*********************************************************************
 4 = maxjetflavor    ! Maximum jet pdg code
#*********************************************************************
# Jet measure cuts                                                   *
#*********************************************************************
 0   = xqcut   ! minimum kt jet measure between partons
#*********************************************************************
#
#*********************************************************************
# Store info for systematics studies                                 *
# WARNING: If use_syst is T, matched Pythia output is                *
#          meaningful ONLY if plotted taking matchscale              *
#          reweighting into account!                                 *
#*********************************************************************
   F  = use_syst      ! Enable systematics studies
#
#**************************************
# Parameter of the systematics study
#  will be used by SysCalc (if installed)
#**************************************                                  
#
0.5 1 2 = sys_scalefact  # factorization/renormalization scale factor
0.5 1 2 = sys_alpsfact  # \alpha_s emission scale factors
30 50 = sys_matchscale # variation of merging scale
# PDF sets and number of members (0 or none for all members).
CT10nlo.LHgrid = sys_pdf # matching scales
# MSTW2008nlo68cl.LHgrid 1  = sys_pdf
</MGRunCard>
<slha>
######################################################################
## PARAM_CARD AUTOMATICALY GENERATED BY MG5 FOLLOWING UFO MODEL   ####
######################################################################
##                                                                  ##
##  Width set on Auto will be computed following the information    ##
##        present in the decay.py files of the model.               ##
##        See  arXiv:1402.1178 for more details.                    ##
##                                                                  ##
######################################################################

###################################
## INFORMATION FOR CKMBLOCK
###################################
Block ckmblock 
    1 2.277360e-01 # cabi 

###################################
## INFORMATION FOR FRBLOCK
###################################
Block frblock 
    1 2.000000e-01 # gz 

###################################
## INFORMATION FOR MASS
###################################
Block mass 
    1 5.040000e-03 # MD 
    2 2.550000e-03 # MU 
    3 1.010000e-01 # MS 
    4 1.270000e+00 # MC 
    5 4.700000e+00 # MB 
    6 1.720000e+02 # MT 
   11 5.110000e-04 # Me 
   13 1.056600e-01 # MM 
   15 1.777000e+00 # MTA 
   23 9.118760e+01 # MZ 
   25 1.200000e+02 # MH 
  10030 3.000000e+03 # MZph 
  10031 3.000000e+02 # MZpl 
## Dependent parameters, given by model restrictions.
## Those values should be edited following the 
## analytical expression. MG5 ignores those values 
## but they are important for interfacing the output of MG5
## to external program such as Pythia.
  12 0.000000 # ve : 0.0 
  14 0.000000 # vm : 0.0 
  16 0.000000 # vt : 0.0 
  21 0.000000 # g : 0.0 
  22 0.000000 # a : 0.0 
  24 79.824360 # w+ : cmath.sqrt(MZ__exp__2/2. + cmath.sqrt(MZ__exp__4/4. - (aEW*cmath.pi*MZ__exp__2)/(Gf*sqrt__2))) 

###################################
## INFORMATION FOR SMINPUTS
###################################
Block sminputs 
    1 1.279000e+02 # aEWM1 
    2 1.166370e-05 # Gf 
    3 1.184000e-01 # aS 

###################################
## INFORMATION FOR YUKAWA
###################################
Block yukawa 
    1 5.040000e-03 # ymdo 
    2 2.550000e-03 # ymup 
    3 1.010000e-01 # yms 
    4 1.270000e+00 # ymc 
    5 4.700000e+00 # ymb 
    6 1.720000e+02 # ymt 
   11 5.110000e-04 # yme 
   13 1.056600e-01 # ymm 
   15 1.777000e+00 # ymtau 

###################################
## INFORMATION FOR DECAY
###################################
DECAY   6 1.508336e+00 # WT 
DECAY  23 2.495200e+00 # WZ 
DECAY  24 2.085000e+00 # WW 
DECAY  25 5.753088e-03 # WH 
## Dependent parameters, given by model restrictions.
## Those values should be edited following the 
## analytical expression. MG5 ignores those values 
## but they are important for interfacing the output of MG5
## to external program such as Pythia.
DECAY  1 0.000000 # d : 0.0 
DECAY  2 0.000000 # u : 0.0 
DECAY  3 0.000000 # s : 0.0 
DECAY  4 0.000000 # c : 0.0 
DECAY  5 0.000000 # b : 0.0 
DECAY  11 0.000000 # e- : 0.0 
DECAY  12 0.000000 # ve : 0.0 
DECAY  13 0.000000 # mu- : 0.0 
DECAY  14 0.000000 # vm : 0.0 
DECAY  15 0.000000 # ta- : 0.0 
DECAY  16 0.000000 # vt : 0.0 
DECAY  21 0.000000 # g : 0.0 
DECAY  22 0.000000 # a : 0.0 
DECAY  10030 0.308725 # zph : (gz__exp__2*MZph*(5 + cmath.sqrt(1 - (4*MT__exp__2)/MZph__exp__2)))/(144.*cmath.pi) 
DECAY  10031 0.132629 # zpl : (5*gz__exp__2*MZpl)/(144.*cmath.pi) 
#===========================================================
# QUANTUM NUMBERS OF NEW STATE(S) (NON SM PDG CODE)
#===========================================================

Block QNUMBERS 10030  # zph 
        1 0  # 3 times electric charge
        2 3  # number of spin states (2S+1)
        3 1  # colour rep (1: singlet, 3: triplet, 8: octet)
        4 0  # Particle/Antiparticle distinction (0=own anti)
Block QNUMBERS 10031  # zpl 
        1 0  # 3 times electric charge
        2 3  # number of spin states (2S+1)
        3 1  # colour rep (1: singlet, 3: triplet, 8: octet)
        4 0  # Particle/Antiparticle distinction (0=own anti)
</slha>
## END BANNER##
<MGGenerationInfo>
#  Number of Events        :         3938
#  Integrated weight (pb)  :  0.48141E-04
#  Max wgt                 :  0.19144E-07
#  Average wgt             :  0.12225E-07
</MGGenerationInfo>
</header>
<init>
     2212     2212  0.40000000000E+04  0.40000000000E+04 0 0  247000  247000 2   1
  0.48181929438E-04  0.98819945265E-07  0.19144390000E-07   0
</init>
<event>
 5   0  0.1817566E-07  0.2999429E+04  0.7818609E-02  0.8243894E-01
       -2   -1    0    0    0  501  0.00000000000E+00  0.00000000000E+00  0.11554140025E+04  0.11554140025E+04  0.25500000920E-02 0. -1.
        2   -1    0    0  501    0  0.00000000000E+00  0.00000000000E+00 -0.19466124138E+04  0.19466124138E+04  0.25500000920E-02 0.  1.
    10030    2    1    2    0    0  0.00000000000E+00  0.00000000000E+00 -0.79119841136E+03  0.31020264163E+04  0.29994287725E+04 0.  0.
        1    1    3    3  502    0 -0.10204777274E+04 -0.49618047944E+03 -0.14097397708E+04  0.18096784470E+04  0.50400001928E-02 0.  1.
       -1    1    3    3    0  502  0.10204777274E+04  0.49618047944E+03  0.61854135947E+03  0.12923479693E+04  0.50400001928E-02 0. -1.
</event>
<event>
 5   0  0.1817566E-07  0.3009675E+04  0.7818609E-02  0.8240973E-01
        2   -1    0    0  501    0  0.00000000000E+00  0.00000000000E+00  0.23805405904E+04  0.23805405904E+04  0.25500000920E-02 0.  1.
       -2   -1    0    0    0  501  0.00000000000E+00  0.00000000000E+00 -0.95126971863E+03  0.95126971863E+03  0.25500000920E-02 0. -1.
    10030    2    1    2    0    0  0.00000000000E+00  0.00000000000E+00  0.14292708718E+04  0.33318103090E+04  0.30096751835E+04 0.  0.
        1    1    3    3  502    0  0.31803274747E+03  0.59419695414E+03 -0.77485759116E+03  0.10269465105E+04  0.50400001928E-02 0. -1.
       -1    1    3    3    0  502 -0.31803274747E+03 -0.59419695414E+03  0.22041284629E+04  0.23048637985E+04  0.50400001928E-02 0.  1.
</event>
<event>
 5   0  0.1813720E-07  0.3000691E+04  0.7818609E-02  0.8243534E-01
       -2   -1    0    0    0  501  0.00000000000E+00  0.00000000000E+00  0.19853534253E+04  0.19853534253E+04  0.25500000920E-02 0.  1.
        2   -1    0    0  501    0  0.00000000000E+00  0.00000000000E+00 -0.11338218244E+04  0.11338218244E+04  0.25500000920E-02 0. -1.
    10030    2    1    2    0    0  0.00000000000E+00  0.00000000000E+00  0.85153160092E+03  0.31191752497E+04  0.30006912822E+04 0.  0.
        3    1    3    3  502    0 -0.11179968115E+04 -0.90364797285E+03  0.87230985327E+03  0.16814936871E+04  0.10100000352E+00 0.  1.
       -3    1    3    3    0  502  0.11179968115E+04  0.90364797285E+03 -0.20778252351E+02  0.14376815626E+04  0.10100000352E+00 0. -1.
</event>
<event>
 5   0  0.1817566E-07  0.3001211E+04  0.7818609E-02  0.8243385E-01
        2   -1    0    0  501    0  0.00000000000E+00  0.00000000000E+00  0.16368273871E+04  0.16368273871E+04  0.25500000920E-02 0.  1.
       -2   -1    0    0    0  501  0.00000000000E+00  0.00000000000E+00 -0.13757203258E+04  0.13757203258E+04  0.25500000920E-02 0. -1.
    10030    2    1    2    0    0  0.00000000000E+00  0.00000000000E+00  0.26110706139E+03  0.30125477129E+04  0.30012108931E+04 0.  0.
        1    1    3    3  502    0  0.87848718580E+03  0.87180535931E+00  0.13517329010E+04  0.16121173441E+04  0.50400001928E-02 0.  1.
       -1    1    3    3    0  502 -0.87848718580E+03 -0.87180535931E+00 -0.10906258396E+04  0.14004303687E+04  0.50400001928E-02 0. -1.
</event>
<event>
 5   0  0.1813720E-07  0.2996770E+04  0.7818609E-02  0.8244654E-01
       -2   -1    0    0    0  501  0.00000000000E+00  0.00000000000E+00  0.10456606250E+04  0.10456606250E+04  0.25500000920E-02 0.  1.
        2   -1    0    0  501    0  0.00000000000E+00  0.00000000000E+00 -0.21471187819E+04  0.21471187819E+04  0.25500000920E-02 0. -1.
    10030    2    1    2    0    0  0.00000000000E+00  0.00000000000E+00 -0.11014581570E+04  0.31927794069E+04  0.29967699727E+04 0.  0.
        3    1    3    3  502    0 -0.79088573378E+03  0.63443793511E+03 -0.17261321225E+04  0.20018850746E+04  0.10100000352E+00 0. -1.
       -3    1    3    3    0  502  0.79088573378E+03 -0.63443793511E+03  0.62467396549E+03  0.11908943323E+04  0.10100000352E+00 0.  1.
</event>
<event>
 5   0  0.6374748E-08  0.3000134E+04  0.7818609E-02  0.8243693E-01
        1   -1    0    0  501    0  0.00000000000E+00  0.00000000000E+00  0.17481205815E+04  0.17481205815E+04  0.50400001928E-02 0. -1.
       -1   -1    0    0    0  501  0.00000000000E+00  0.00000000000E+00 -0.12872117120E+04  0.12872117120E+04  0.50400001928E-02 0.  1.
    10030    2    1    2    0    0  0.00000000000E+00  0.00000000000E+00  0.46090886948E+03  0.30353322936E+04  0.30001341881E+04 0.  0.
        1    1    3    3  502    0 -0.20350384655E+03 -0.14825071802E+04  0.33637236520E+03  0.15337495633E+04  0.50400001928E-02 0. -1.
       -1    1    3    3    0  502  0.20350384655E+03  0.14825071802E+04  0.12453650428E+03  0.15015827303E+04  0.50400001928E-02 0.  1.
</event>
<event>
 5   0  0.6679022E-08  0.3000806E+04  0.7818609E-02  0.8243501E-01
        1   -1    0    0  501    0  0.00000000000E+00  0.00000000000E+00  0.25435842297E+04  0.25435842297E+04  0.50400001928E-02 0.  1.
       -1   -1    0    0    0  501  0.00000000000E+00  0.00000000000E+00 -0.88505366242E+03  0.88505366244E+03  0.50400001928E-02 0. -1.
    10030    2    1    2    0    0  0.00000000000E+00  0.00000000000E+00  0.16585305673E+04  0.34286378921E+04  0.30008055840E+04 0.  0.
        3    1    3    3  502    0 -0.81095816731E+03 -0.25018589552E+03  0.22429938157E+04  0.23981800180E+04  0.10100000352E+00 0.  1.
       -3    1    3    3    0  502  0.81095816731E+03  0.25018589552E+03 -0.58446324839E+03  0.10304578741E+04  0.10100000352E+00 0. -1.
</event>
<event>
 5   0  0.1817566E-07  0.2999599E+04  0.7818609E-02  0.8243845E-01
       -2   -1    0    0    0  501  0.00000000000E+00  0.00000000000E+00  0.12968649518E+04  0.12968649518E+04  0.25500000920E-02 0.  1.
        2   -1    0    0  501    0  0.00000000000E+00  0.00000000000E+00 -0.17344895769E+04  0.17344895769E+04  0.25500000920E-02 0. -1.
    10030    2    1    2    0    0  0.00000000000E+00  0.00000000000E+00 -0.43762462511E+03  0.30313545287E+04  0.29995991342E+04 0.  0.
        1    1    3    3  502    0  0.88933141608E+03  0.38547789395E+03  0.93781057527E+03  0.13487002074E+04  0.50400001928E-02 0.  1.
       -1    1    3    3    0  502 -0.88933141608E+03 -0.38547789395E+03 -0.13754352004E+04  0.16826543213E+04  0.50400001928E-02 0. -1.
</event>
<event>
 5   0  0.6636007E-08  0.2999668E+04  0.7818609E-02  0.8243826E-01
        1   -1    0    0  501    0  0.00000000000E+00  0.00000000000E+00  0.20116374968E+04  0.20116374968E+04  0.50400001928E-02 0. -1.
       -1   -1    0    0    0  501  0.00000000000E+00  0.00000000000E+00 -0.11182442703E+04  0.11182442703E+04  0.50400001928E-02 0.  1.
    10030    2    1    2    0    0  0.00000000000E+00  0.00000000000E+00  0.89339322650E+03  0.31298817671E+04  0.29996680515E+04 0.  0.
        2    1    3    3  502    0 -0.34957012610E+03 -0.14168408801E+04  0.80794047828E+03  0.16680543064E+04  0.25500000920E-02 0.  1.
       -2    1    3    3    0  502  0.34957012610E+03  0.14168408801E+04  0.85452748220E+02  0.14618274607E+04  0.25500000920E-02 0. -1.
</event>
<event>
 5   0  0.1817566E-07  0.2999733E+04  0.7818609E-02  0.8243807E-01
       -2   -1    0    0    0  501  0.00000000000E+00  0.00000000000E+00  0.99840817737E+03  0.99840817737E+03  0.25500000920E-02 0.  1.
        2   -1    0    0  501    0  0.00000000000E+00  0.00000000000E+00 -0.22531865782E+04  0.22531865783E+04  0.25500000920E-02 0. -1.
    10030    2    1    2    0    0  0.00000000000E+00  0.00000000000E+00 -0.12547784009E+04  0.32515947556E+04  0.29997332581E+04 0.  0.
        1    1    3    3  502    0  0.13205699447E+04  0.66895755676E+03 -0.88887048890E+03  0.17267020408E+04  0.50400001928E-02 0. -1.
       -1    1    3    3    0  502 -0.13205699447E+04 -0.66895755676E+03 -0.36590791198E+03  0.15248927148E+04  0.50400001928E-02 0.  1.
</event>
<event>
 5   0  0.6636007E-08  0.2999906E+04  0.7818609E-02  0.8243758E-01
        1   -1    0    0  501    0  0.00000000000E+00  0.00000000000E+00  0.21204065022E+04  0.21204065022E+04  0.50400001928E-02 0. -1.
       -1   -1    0    0    0  501  0.00000000000E+00  0.00000000000E+00 -0.10610511002E+04  0.10610511002E+04  0.50400001928E-02 0.  1.
    10030    2    1    2    0    0  0.00000000000E+00  0.00000000000E+00  0.10593554020E+04  0.31814576024E+04  0.29999064332E+04 0.  0.
        2    1    3    3  502    0  0.81749834045E+03 -0.75456120281E+03 -0.53728737459E+03  0.12354529001E+04  0.25500000920E-02 0.  1.
       -2    1    3    3    0  502 -0.81749834045E+03  0.75456120281E+03  0.15966427766E+04  0.19460047023E+04  0.25500000920E-02 0. -1.
</event>
<event>
 5   0  0.1914439E-07  0.3000082E+04  0.7818609E-02  0.8243708E-01
        2   -1    0    0  501    0  0.00000000000E+00  0.00000000000E+00  0.15748624932E+04  0.15748624932E+04  0.25500000920E-02 0.  1.
       -2   -1    0    0    0  501  0.00000000000E+00  0.00000000000E+00 -0.14287739487E+04  0.14287739487E+04  0.25500000920E-02 0. -1.
    10030    2    1    2    0    0  0.00000000000E+00  0.00000000000E+00  0.14608854458E+03  0.30036364419E+04  0.30000816676E+04 0.  0.
        5    1    3    3  502    0  0.40250692766E+02  0.10720727919E+04 -0.97659685350E+03  0.14507665883E+04  0.46999998093E+01 0. -1.
       -5    1    3    3    0  502 -0.40250692766E+02 -0.10720727919E+04  0.11226853981E+04  0.15528698537E+04  0.46999998093E+01 0.  1.
</event>
<event>
 5   0  0.6464436E-08  0.2999307E+04  0.7818609E-02  0.8243929E-01
        1   -1    0    0  501    0  0.00000000000E+00  0.00000000000E+00  0.22739845447E+04  0.22739845447E+04  0.50400001928E-02 0. -1.
       -1   -1    0    0    0  501  0.00000000000E+00  0.00000000000E+00 -0.98899585965E+03  0.98899585967E+03  0.50400001928E-02 0.  1.
    10030    2    1    2    0    0  0.00000000000E+00  0.00000000000E+00  0.12849886850E+04  0.32629804043E+04  0.29993074531E+04 0.  0.
        5    1    3    3  502    0 -0.25707880612E+03  0.28210065104E+03  0.22202541231E+04  0.22528250600E+04  0.46999998093E+01 0. -1.
       -5    1    3    3    0  502  0.25707880612E+03 -0.28210065104E+03 -0.93526543812E+03  0.10101553443E+04  0.46999998093E+01 0.  1.
</event>
<event>
 5   0  0.6374748E-08  0.3000051E+04  0.7818609E-02  0.8243716E-01
       -1   -1    0    0    0  501  0.00000000000E+00  0.00000000000E+00  0.15008279487E+04  0.15008279487E+04  0.50400001928E-02 0. -1.
        1   -1    0    0  501    0  0.00000000000E+00  0.00000000000E+00 -0.14992231736E+04  0.14992231737E+04  0.50400001928E-02 0.  1.
    10030    2    1    2    0    0  0.00000000000E+00  0.00000000000E+00  0.16047750333E+01  0.30000511223E+04  0.30000506931E+04 0.  0.
        1    1    3    3  502    0  0.92113372239E+03 -0.11820348017E+04  0.67002346017E+02  0.15000609726E+04  0.50400001928E-02 0.  1.
       -1    1    3    3    0  502 -0.92113372239E+03  0.11820348017E+04 -0.65397570984E+02  0.14999901498E+04  0.50400001928E-02 0. -1.
</event>
<event>
 5   0  0.6679022E-08  0.2999957E+04  0.7818609E-02  0.8243743E-01
        1   -1    0    0  501    0  0.00000000000E+00  0.00000000000E+00  0.22404398239E+04  0.22404398239E+04  0.50400001928E-02 0.  1.
       -1   -1    0    0    0  501  0.00000000000E+00  0.00000000000E+00 -0.10042384405E+04  0.10042384405E+04  0.50400001928E-02 0. -1.
    10030    2    1    2    0    0  0.00000000000E+00  0.00000000000E+00  0.12362013835E+04  0.32446782644E+04  0.29999571962E+04 0.  0.
        3    1    3    3  502    0 -0.14481835384E+04  0.29249299924E+03  0.89836858249E+03  0.17291193816E+04  0.10100000352E+00 0.  1.
       -3    1    3    3    0  502  0.14481835384E+04 -0.29249299924E+03  0.33783280096E+03  0.15155588828E+04  0.10100000352E+00 0. -1.
</event>
<event>
 5   0  0.6679022E-08  0.3000286E+04  0.7818609E-02  0.8243649E-01
        1   -1    0    0  501    0  0.00000000000E+00  0.00000000000E+00  0.18253751823E+04  0.18253751823E+04  0.50400001928E-02 0. -1.
       -1   -1    0    0    0  501  0.00000000000E+00  0.00000000000E+00 -0.12328580448E+04  0.12328580448E+04  0.50400001928E-02 0.  1.
    10030    2    1    2    0    0  0.00000000000E+00  0.00000000000E+00  0.59251713744E+03  0.30582332271E+04  0.30002856386E+04 0.  0.
        3    1    3    3  502    0 -0.69539833869E+02  0.71335541481E+02 -0.12294825598E+04  0.12335120279E+04  0.10100000352E+00 0.  1.
       -3    1    3    3    0  502  0.69539833869E+02 -0.71335541481E+02  0.18219996972E+04  0.18247211992E+04  0.10100000352E+00 0. -1.
</event>
<event>
 5   0  0.1817566E-07  0.3002931E+04  0.7818609E-02  0.8242894E-01
        2   -1    0    0  501    0  0.00000000000E+00  0.00000000000E+00  0.77035793077E+03  0.77035793077E+03  0.25500000920E-02 0. -1.
       -2   -1    0    0    0  501  0.00000000000E+00  0.00000000000E+00 -0.29264297135E+04  0.29264297135E+04  0.25500000920E-02 0.  1.
    10030    2    1    2    0    0  0.00000000000E+00  0.00000000000E+00 -0.21560717827E+04  0.36967876442E+04  0.30029307941E+04 0.  0.
        1    1    3    3  502    0 -0.11957654860E+04 -0.68507336552E+03 -0.18117493655E+04  0.22763164053E+04  0.50400001928E-02 0.  1.
       -1    1    3    3    0  502  0.11957654860E+04  0.68507336552E+03 -0.34432241724E+03  0.14204712390E+04  0.50400001928E-02 0. -1.
</event>
<event>
 5   0  0.6525507E-08  0.3002392E+04  0.7818609E-02  0.8243048E-01
        1   -1    0    0  501    0  0.00000000000E+00  0.00000000000E+00  0.12262717802E+04  0.12262717802E+04  0.50400001928E-02 0.  1.
       -1   -1    0    0    0  501  0.00000000000E+00  0.00000000000E+00 -0.18377567772E+04  0.18377567772E+04  0.50400001928E-02 0. -1.
    10030    2    1    2    0    0  0.00000000000E+00  0.00000000000E+00 -0.61148499695E+03  0.30640285574E+04  0.30023918964E+04 0.  0.
        4    1    3    3  502    0 -0.35837678333E+03 -0.34014039680E+03 -0.17523973358E+04  0.18207216821E+04  0.12699999809E+01 0. -1.
       -4    1    3    3    0  502  0.35837678333E+03  0.34014039680E+03  0.11409123388E+04  0.12433068753E+04  0.12699999809E+01 0.  1.
</event>
<event>
 5   0  0.6374748E-08  0.3003316E+04  0.7818609E-02  0.8242784E-01
       -1   -1    0    0    0  501  0.00000000000E+00  0.00000000000E+00  0.14252769829E+04  0.14252769829E+04  0.50400001928E-02 0.  1.
        1   -1    0    0  501    0  0.00000000000E+00  0.00000000000E+00 -0.15821328132E+04  0.15821328132E+04  0.50400001928E-02 0. -1.
    10030    2    1    2    0    0  0.00000000000E+00  0.00000000000E+00 -0.15685583033E+03  0.30074097961E+04  0.30033164885E+04 0.  0.
        1    1    3    3  502    0 -0.97580533312E+03 -0.11291888018E+04  0.88274455566E+02  0.14950102935E+04  0.50400001928E-02 0.  1.
       -1    1    3    3    0  502  0.97580533312E+03  0.11291888018E+04 -0.24513028590E+03  0.15123995026E+04  0.50400001928E-02 0. -1.
</event>
<event>
 5   0  0.1821305E-07  0.2999715E+04  0.7818609E-02  0.8243812E-01
        2   -1    0    0  501    0  0.00000000000E+00  0.00000000000E+00  0.14520485650E+04  0.14520485650E+04  0.25500000920E-02 0. -1.
       -2   -1    0    0    0  501  0.00000000000E+00  0.00000000000E+00 -0.15492407351E+04  0.15492407351E+04  0.25500000920E-02 0.  1.
    10030    2    1    2    0    0  0.00000000000E+00  0.00000000000E+00 -0.97192170077E+02  0.30012893000E+04  0.29997151772E+04 0.  0.
        2    1    3    3  502    0 -0.18197660217E+02 -0.27307596952E+03 -0.15240465568E+04  0.15484248601E+04  0.25500000920E-02 0.  1.
       -2    1    3    3    0  502  0.18197660217E+02  0.27307596952E+03  0.14268543867E+04  0.14528644400E+04  0.25500000920E-02 0. -1.
</event>
<event>
 5   0  0.6679022E-08  0.2999819E+04  0.7818609E-02  0.8243782E-01
       -1   -1    0    0    0  501  0.00000000000E+00  0.00000000000E+00  0.13193194561E+04  0.13193194561E+04  0.50400001928E-02 0. -1.
        1   -1    0    0  501    0  0.00000000000E+00  0.00000000000E+00 -0.17052193927E+04  0.17052193927E+04  0.50400001928E-02 0.  1.
    10030    2    1    2    0    0  0.00000000000E+00  0.00000000000E+00 -0.38589993655E+03  0.30245388488E+04  0.29998194091E+04 0.  0.
        3    1    3    3  502    0  0.11249057685E+04 -0.94839395688E+03  0.10076659032E+03  0.14747942234E+04  0.10100000352E+00 0. -1.
       -3    1    3    3    0  502 -0.11249057685E+04  0.94839395688E+03 -0.48666652687E+03  0.15497446254E+04  0.10100000352E+00 0.  1.
</event>
<event>
 5   0  0.1813720E-07  0.2998983E+04  0.7818609E-02  0.8244021E-01
       -2   -1    0    0    0  501  0.00000000000E+00  0.00000000000E+00  0.10333040415E+04  0.10333040415E+04  0.25500000920E-02 0.  1.
        2   -1    0    0  501    0  0.00000000000E+00  0.00000000000E+00 -0.21760053219E+04  0.21760053219E+04  0.25500000920E-02 0. -1.
    10030    2    1    2    0    0  0.00000000000E+00  0.00000000000E+00 -0.11427012804E+04  0.32093093634E+04  0.29989832233E+04 0.  0.
        3    1    3    3  502    0 -0.33688066812E+03  0.80732956963E+03 -0.18746320648E+04  0.20686988682E+04  0.10100000352E+00 0. -1.
       -3    1    3    3    0  502  0.33688066812E+03 -0.80732956963E+03  0.73193078437E+03  0.11406104952E+04  0.10100000352E+00 0.  1.
</event>
<event>
 5   0  0.6374748E-08  0.2998984E+04  0.7818609E-02  0.8244021E-01
        1   -1    0    0  501    0  0.00000000000E+00  0.00000000000E+00  0.17316414208E+04  0.17316414208E+04  0.50400001928E-02 0. -1.
       -1   -1    0    0    0  501  0.00000000000E+00  0.00000000000E+00 -0.12984653264E+04  0.12984653264E+04  0.50400001928E-02 0.  1.
    10030    2    1    2    0    0  0.00000000000E+00  0.00000000000E+00  0.43317609443E+03  0.30301067472E+04  0.29989840564E+04 0.  0.
        1    1    3    3  502    0  0.82858948442E+02 -0.41240650780E+03 -0.12376300798E+04  0.13071621733E+04  0.50400001928E-02 0.  1.
       -1    1    3    3    0  502 -0.82858948442E+02  0.41240650780E+03  0.16708061742E+04  0.17229445739E+04  0.50400001928E-02 0. -1.
</event>
<event>
 5   0  0.1821305E-07  0.2997937E+04  0.7818609E-02  0.8244320E-01
        2   -1    0    0  501    0  0.00000000000E+00  0.00000000000E+00  0.21288184825E+04  0.21288184825E+04  0.25500000920E-02 0.  1.
       -2   -1    0    0    0  501  0.00000000000E+00  0.00000000000E+00 -0.10554711276E+04  0.10554711276E+04  0.25500000920E-02 0. -1.
    10030    2    1    2    0    0  0.00000000000E+00  0.00000000000E+00  0.10733473549E+04  0.31842896101E+04  0.29979369201E+04 0.  0.
        2    1    3    3  502    0 -0.11445189497E+03 -0.63245625737E+03 -0.90168367711E+03  0.11073091742E+04  0.25500000920E-02 0. -1.
       -2    1    3    3    0  502  0.11445189497E+03  0.63245625737E+03  0.19750310320E+04  0.20769804359E+04  0.25500000920E-02 0.  1.
</event>
<event>
 5   0  0.6636007E-08  0.2999071E+04  0.7818609E-02  0.8243996E-01
        1   -1    0    0  501    0  0.00000000000E+00  0.00000000000E+00  0.20644288686E+04  0.20644288686E+04  0.50400001928E-02 0.  1.
       -1   -1    0    0    0  501  0.00000000000E+00  0.00000000000E+00 -0.10892152320E+04  0.10892152320E+04  0.50400001928E-02 0. -1.
    10030    2    1    2    0    0  0.00000000000E+00  0.00000000000E+00  0.97521363657E+03  0.31536441006E+04  0.29990714357E+04 0.  0.
        2    1    3    3  502    0  0.14051915442E+04  0.51375930821E+03  0.38195205989E+03  0.15441500182E+04  0.25500000920E-02 0.  1.
       -2    1    3    3    0  502 -0.14051915442E+04 -0.51375930821E+03  0.59326157669E+03  0.16094940824E+04  0.25500000920E-02 0. -1.
</event>
<event>
 5   0  0.1813720E-07  0.3000235E+04  0.7818609E-02  0.8243664E-01
       -2   -1    0    0    0  501  0.00000000000E+00  0.00000000000E+00  0.15041743450E+04  0.15041743450E+04  0.25500000920E-02 0. -1.
        2   -1    0    0  501    0  0.00000000000E+00  0.00000000000E+00 -0.14960717983E+04  0.14960717983E+04  0.25500000920E-02 0.  1.
    10030    2    1    2    0    0  0.00000000000E+00  0.00000000000E+00  0.81025467204E+01  0.30002461432E+04  0.30002352022E+04 0.  0.
        3    1    3    3  502    0  0.24777306829E+03  0.14702647330E+04  0.16922732353E+03  0.15005691506E+04  0.10100000352E+00 0. -1.
       -3    1    3    3    0  502 -0.24777306829E+03 -0.14702647330E+04 -0.16112477681E+03  0.14996769927E+04  0.10100000352E+00 0.  1.
</event>
<event>
 5   0  0.1914439E-07  0.2996963E+04  0.7818609E-02  0.8244599E-01
        2   -1    0    0  501    0  0.00000000000E+00  0.00000000000E+00  0.20337018696E+04  0.20337018696E+04  0.25500000920E-02 0.  1.
       -2   -1    0    0    0  501  0.00000000000E+00  0.00000000000E+00 -0.11041180015E+04  0.11041180015E+04  0.25500000920E-02 0. -1.
    10030    2    1    2    0    0  0.00000000000E+00  0.00000000000E+00  0.92958386804E+03  0.31378198711E+04  0.29969630254E+04 0.  0.
        5    1    3    3  502    0  0.13245733303E+03 -0.12602386720E+04  0.13021812830E+04  0.18169877928E+04  0.46999998093E+01 0.  1.
       -5    1    3    3    0  502 -0.13245733303E+03  0.12602386720E+04 -0.37259741501E+03  0.13208320783E+04  0.46999998093E+01 0. -1.
</event>
<event>
 5   0  0.6636007E-08  0.3003724E+04  0.7818609E-02  0.8242668E-01
        1   -1    0    0  501    0  0.00000000000E+00  0.00000000000E+00  0.12885012790E+04  0.12885012790E+04  0.50400001928E-02 0. -1.
       -1   -1    0    0    0  501  0.00000000000E+00  0.00000000000E+00 -0.17505528925E+04  0.17505528925E+04  0.50400001928E-02 0.  1.
    10030    2    1    2    0    0  0.00000000000E+00  0.00000000000E+00 -0.46205161349E+03  0.30390541715E+04  0.30037241157E+04 0.  0.
        2    1    3    3  502    0  0.99534180834E+03 -0.95097708070E+03 -0.83852715732E+03  0.16118903551E+04  0.25500000920E-02 0.  1.
       -2    1    3    3    0  502 -0.99534180834E+03  0.95097708070E+03  0.37647554383E+03  0.14271638163E+04  0.25500000920E-02 0. -1.
</event>
<event>
 5   0  0.1813720E-07  0.2999324E+04  0.7818609E-02  0.8243924E-01
        2   -1    0    0  501    0  0.00000000000E+00  0.00000000000E+00  0.21416618016E+04  0.21416618016E+04  0.25500000920E-02 0. -1.
       -2   -1    0    0    0  501  0.00000000000E+00  0.00000000000E+00 -0.10501127783E+04  0.10501127783E+04  0.25500000920E-02 0.  1.
    10030    2    1    2    0    0  0.00000000000E+00  0.00000000000E+00  0.10915490233E+04  0.31917745799E+04  0.29993242071E+04 0.  0.
        3    1    3    3  502    0  0.91089810961E+03  0.20966240987E+03  0.17937509079E+04  0.20226804053E+04  0.10100000352E+00 0. -1.
       -3    1    3    3    0  502 -0.91089810961E+03 -0.20966240987E+03 -0.70220188464E+03  0.11690941746E+04  0.10100000352E+00 0.  1.
</event>
<event>
 5   0  0.1817566E-07  0.3000288E+04  0.7818609E-02  0.8243649E-01
       -2   -1    0    0    0  501  0.00000000000E+00  0.00000000000E+00  0.15493644113E+04  0.15493644113E+04  0.25500000920E-02 0.  1.
        2   -1    0    0  501    0  0.00000000000E+00  0.00000000000E+00 -0.14524869450E+04  0.14524869450E+04  0.25500000920E-02 0. -1.
    10030    2    1    2    0    0  0.00000000000E+00  0.00000000000E+00  0.96877466329E+02  0.30018513563E+04  0.30002877065E+04 0.  0.
        1    1    3    3  502    0  0.65608444308E+03  0.12542189001E+04 -0.44873042741E+03  0.14848807502E+04  0.50400001928E-02 0.  1.
       -1    1    3    3    0  502 -0.65608444308E+03 -0.12542189001E+04  0.54560789374E+03  0.15169706061E+04  0.50400001928E-02 0. -1.
</event>
<event>
 5   0  0.6464436E-08  0.3000724E+04  0.7818609E-02  0.8243524E-01
        1   -1    0    0  501    0  0.00000000000E+00  0.00000000000E+00  0.12938426656E+04  0.12938426656E+04  0.50400001928E-02 0.  1.
       -1   -1    0    0    0  501  0.00000000000E+00  0.00000000000E+00 -0.17398453627E+04  0.17398453627E+04  0.50400001928E-02 0. -1.
    10030    2    1    2    0    0  0.00000000000E+00  0.00000000000E+00 -0.44600269706E+03  0.30336880283E+04  0.30007240205E+04 0.  0.
        5    1    3    3  502    0 -0.57759126331E+03 -0.82692164246E+02  0.11744329149E+04  0.13113978889E+04  0.46999998093E+01 0.  1.
       -5    1    3    3    0  502  0.57759126331E+03  0.82692164246E+02 -0.16204356120E+04  0.17222901393E+04  0.46999998093E+01 0. -1.
</event>
<event>
 5   0  0.1813720E-07  0.3001075E+04  0.7818609E-02  0.8243424E-01
       -2   -1    0    0    0  501  0.00000000000E+00  0.00000000000E+00  0.22029202879E+04  0.22029202879E+04  0.25500000920E-02 0.  1.
        2   -1    0    0  501    0  0.00000000000E+00  0.00000000000E+00 -0.10221038418E+04  0.10221038418E+04  0.25500000920E-02 0. -1.
    10030    2    1    2    0    0  0.00000000000E+00  0.00000000000E+00  0.11808164461E+04  0.32250241297E+04  0.30010753336E+04 0.  0.
        3    1    3    3  502    0 -0.18827379310E+03  0.69487941755E+03 -0.82438851131E+03  0.10944957076E+04  0.10100000352E+00 0. -1.
       -3    1    3    3    0  502  0.18827379310E+03 -0.69487941755E+03  0.20052049574E+04  0.21305284222E+04  0.10100000352E+00 0.  1.
</event>
<event>
 5   0  0.6525507E-08  0.3001872E+04  0.7818609E-02  0.8243196E-01
        1   -1    0    0  501    0  0.00000000000E+00  0.00000000000E+00  0.14321522059E+04  0.14321522059E+04  0.50400001928E-02 0. -1.
       -1   -1    0    0    0  501  0.00000000000E+00  0.00000000000E+00 -0.15730236760E+04  0.15730236760E+04  0.50400001928E-02 0.  1.
    10030    2    1    2    0    0  0.00000000000E+00  0.00000000000E+00 -0.14087147010E+03  0.30051758820E+04  0.30018723009E+04 0.  0.
        4    1    3    3  502    0 -0.13709634423E+04 -0.47778637982E+03 -0.45162653278E+03  0.15204567481E+04  0.12699999809E+01 0.  1.
       -4    1    3    3    0  502  0.13709634423E+04  0.47778637982E+03  0.31075506268E+03  0.14847191339E+04  0.12699999809E+01 0. -1.
</event>
<event>
 5   0  0.6374748E-08  0.2999336E+04  0.7818609E-02  0.8243920E-01
        1   -1    0    0  501    0  0.00000000000E+00  0.00000000000E+00  0.17519558102E+04  0.17519558102E+04  0.50400001928E-02 0.  1.
       -1   -1    0    0    0  501  0.00000000000E+00  0.00000000000E+00 -0.12837107025E+04  0.12837107025E+04  0.50400001928E-02 0. -1.
    10030    2    1    2    0    0  0.00000000000E+00  0.00000000000E+00  0.46824510776E+03  0.30356665127E+04  0.29993362091E+04 0.  0.
        1    1    3    3  502    0  0.41636822692E+03  0.49459985008E+03  0.16036622119E+04  0.17290818379E+04  0.50400001928E-02 0.  1.
       -1    1    3    3    0  502 -0.41636822692E+03 -0.49459985008E+03 -0.11354171041E+04  0.13065846748E+04  0.50400001928E-02 0. -1.
</event>
<event>
 5   0  0.6679022E-08  0.3005582E+04  0.7818609E-02  0.8242139E-01
        1   -1    0    0  501    0  0.00000000000E+00  0.00000000000E+00  0.13975726591E+04  0.13975726591E+04  0.50400001928E-02 0. -1.
       -1   -1    0    0    0  501  0.00000000000E+00  0.00000000000E+00 -0.16159305885E+04  0.16159305885E+04  0.50400001928E-02 0.  1.
    10030    2    1    2    0    0  0.00000000000E+00  0.00000000000E+00 -0.21835792940E+03  0.30135032476E+04  0.30055817470E+04 0.  0.
        3    1    3    3  502    0  0.11486337204E+04 -0.48119590369E+03 -0.95250903709E+03  0.15678591765E+04  0.10100000352E+00 0. -1.
       -3    1    3    3    0  502 -0.11486337204E+04  0.48119590369E+03  0.73415110769E+03  0.14456440712E+04  0.10100000352E+00 0.  1.
</event>
<event>
 5   0  0.1810055E-07  0.2999831E+04  0.7818609E-02  0.8243779E-01
       -2   -1    0    0    0  501  0.00000000000E+00  0.00000000000E+00  0.14360725476E+04  0.14360725476E+04  0.25500000920E-02 0. -1.
        2   -1    0    0  501    0  0.00000000000E+00  0.00000000000E+00 -0.15665969330E+04  0.15665969330E+04  0.25500000920E-02 0.  1.
    10030    2    1    2    0    0  0.00000000000E+00  0.00000000000E+00 -0.13052438542E+03  0.30026694806E+04  0.29998312277E+04 0.  0.
        4    1    3    3  502    0 -0.96387920195E+03 -0.31398742447E+03 -0.11717917445E+04  0.15494349693E+04  0.12699999809E+01 0.  1.
       -4    1    3    3    0  502  0.96387920195E+03  0.31398742447E+03  0.10412673591E+04  0.14532345113E+04  0.12699999809E+01 0. -1.
</event>
<event>
 5   0  0.1810055E-07  0.2999860E+04  0.7818609E-02  0.8243771E-01
       -2   -1    0    0    0  501  0.00000000000E+00  0.00000000000E+00  0.15312747722E+04  0.15312747722E+04  0.25500000920E-02 0.  1.
        2   -1    0    0  501    0  0.00000000000E+00  0.00000000000E+00 -0.14692269138E+04  0.14692269138E+04  0.25500000920E-02 0. -1.
    10030    2    1    2    0    0  0.00000000000E+00  0.00000000000E+00  0.62047858449E+02  0.30005016860E+04  0.29998600685E+04 0.  0.
        4    1    3    3  502    0  0.61721531703E+02  0.59347381187E+03 -0.13454127587E+04  0.14717872867E+04  0.12699999809E+01 0. -1.
       -4    1    3    3    0  502 -0.61721531703E+02 -0.59347381187E+03  0.14074606172E+04  0.15287143993E+04  0.12699999809E+01 0.  1.
</event>
<event>
 5   0  0.6636007E-08  0.3001434E+04  0.7818609E-02  0.8243322E-01
        1   -1    0    0  501    0  0.00000000000E+00  0.00000000000E+00  0.10697051297E+04  0.10697051297E+04  0.50400001928E-02 0. -1.
       -1   -1    0    0    0  501  0.00000000000E+00  0.00000000000E+00 -0.21053943029E+04  0.21053943029E+04  0.50400001928E-02 0.  1.
    10030    2    1    2    0    0  0.00000000000E+00  0.00000000000E+00 -0.10356891732E+04  0.31750994326E+04  0.30014337146E+04 0.  0.
        2    1    3    3  502    0 -0.75293708743E+02 -0.21347666447E+03  0.10515410798E+04  0.10756300811E+04  0.25500000920E-02 0. -1.
       -2    1    3    3    0  502  0.75293708743E+02  0.21347666447E+03 -0.20872302530E+04  0.20994693515E+04  0.25500000920E-02 0.  1.
</event>
<event>
 5   0  0.6679022E-08  0.3000979E+04  0.7818609E-02  0.8243451E-01
        1   -1    0    0  501    0  0.00000000000E+00  0.00000000000E+00  0.24757701988E+04  0.24757701988E+04  0.50400001928E-02 0. -1.
       -1   -1    0    0    0  501  0.00000000000E+00  0.00000000000E+00 -0.90940159391E+03  0.90940159393E+03  0.50400001928E-02 0.  1.
    10030    2    1    2    0    0  0.00000000000E+00  0.00000000000E+00  0.15663686049E+04  0.33851717927E+04  0.30009794168E+04 0.  0.
        3    1    3    3  502    0  0.81376600279E+03  0.34754772584E+03 -0.58375575632E+03  0.10600826960E+04  0.10100000352E+00 0.  1.
       -3    1    3    3    0  502 -0.81376600279E+03 -0.34754772584E+03  0.21501243612E+04  0.23250890967E+04  0.10100000352E+00 0. -1.
</event>
<event>
 5   0  0.6464436E-08  0.3000401E+04  0.7818609E-02  0.8243616E-01
       -1   -1    0    0    0  501  0.00000000000E+00  0.00000000000E+00  0.10110854933E+04  0.10110854934E+04  0.50400001928E-02 0. -1.
        1   -1    0    0  501    0  0.00000000000E+00  0.00000000000E+00 -0.22259255773E+04  0.22259255773E+04  0.50400001928E-02 0.  1.
    10030    2    1    2    0    0  0.00000000000E+00  0.00000000000E+00 -0.12148400839E+04  0.32370110706E+04  0.30004006802E+04 0.  0.
        5    1    3    3  502    0 -0.12311538844E+04 -0.51059141687E+03 -0.13502957563E+04  0.18973044568E+04  0.46999998093E+01 0.  1.
       -5    1    3    3    0  502  0.12311538844E+04  0.51059141687E+03  0.13545567242E+03  0.13397066139E+04  0.46999998093E+01 0. -1.
</event>
<event>
 5   0  0.1821305E-07  0.3000117E+04  0.7818609E-02  0.8243697E-01
       -2   -1    0    0    0  501  0.00000000000E+00  0.00000000000E+00  0.18263643515E+04  0.18263643515E+04  0.25500000920E-02 0.  1.
        2   -1    0    0  501    0  0.00000000000E+00  0.00000000000E+00 -0.12320518854E+04  0.12320518854E+04  0.25500000920E-02 0. -1.
    10030    2    1    2    0    0  0.00000000000E+00  0.00000000000E+00  0.59431246614E+03  0.30584162369E+04  0.30001170929E+04 0.  0.
        2    1    3    3  502    0  0.12205871973E+04  0.69704836376E+03 -0.23691938638E+03  0.14254263655E+04  0.25500000920E-02 0. -1.
       -2    1    3    3    0  502 -0.12205871973E+04 -0.69704836376E+03  0.83123185252E+03  0.16329898715E+04  0.25500000920E-02 0.  1.
</event>
<event>
 5   0  0.1813720E-07  0.2998992E+04  0.7818609E-02  0.8244019E-01
        2   -1    0    0  501    0  0.00000000000E+00  0.00000000000E+00  0.13285875694E+04  0.13285875694E+04  0.25500000920E-02 0.  1.
       -2   -1    0    0    0  501  0.00000000000E+00  0.00000000000E+00 -0.16923893902E+04  0.16923893902E+04  0.25500000920E-02 0. -1.
    10030    2    1    2    0    0  0.00000000000E+00  0.00000000000E+00 -0.36380182079E+03  0.30209769595E+04  0.29989915013E+04 0.  0.
        3    1    3    3  502    0 -0.44152151569E+03 -0.10646551912E+04 -0.11481279961E+04  0.16268465910E+04  0.10100000352E+00 0. -1.
       -3    1    3    3    0  502  0.44152151569E+03  0.10646551912E+04  0.78432617530E+03  0.13941303685E+04  0.10100000352E+00 0.  1.
</event>
<event>
 5   0  0.1817566E-07  0.3000045E+04  0.7818609E-02  0.8243718E-01
       -2   -1    0    0    0  501  0.00000000000E+00  0.00000000000E+00  0.13985524516E+04  0.13985524516E+04  0.25500000920E-02 0. -1.
        2   -1    0    0  501    0  0.00000000000E+00  0.00000000000E+00 -0.16088548333E+04  0.16088548333E+04  0.25500000920E-02 0.  1.
    10030    2    1    2    0    0  0.00000000000E+00  0.00000000000E+00 -0.21030238170E+03  0.30074072850E+04  0.30000452473E+04 0.  0.
        1    1    3    3  502    0 -0.23120384292E+02 -0.12935623976E+04 -0.86611191246E+03  0.15569162063E+04  0.50400001928E-02 0.  1.
       -1    1    3    3    0  502  0.23120384292E+02  0.12935623976E+04  0.65580953076E+03  0.14504910787E+04  0.50400001928E-02 0. -1.
</event>
<event>
 5   0  0.1821305E-07  0.3002175E+04  0.7818609E-02  0.8243110E-01
        2   -1    0    0  501    0  0.00000000000E+00  0.00000000000E+00  0.19544674872E+04  0.19544674872E+04  0.25500000920E-02 0.  1.
       -2   -1    0    0    0  501  0.00000000000E+00  0.00000000000E+00 -0.11528784970E+04  0.11528784970E+04  0.25500000920E-02 0. -1.
    10030    2    1    2    0    0  0.00000000000E+00  0.00000000000E+00  0.80158899019E+03  0.31073459841E+04  0.30021749043E+04 0.  0.
        2    1    3    3  502    0  0.70915109604E+03 -0.51076051091E+03  0.16639962017E+04  0.18795358298E+04  0.25500000920E-02 0.  1.
       -2    1    3    3    0  502 -0.70915109604E+03  0.51076051091E+03 -0.86240721147E+03  0.12278101543E+04  0.25500000920E-02 0. -1.
</event>
<event>
 5   0  0.1813720E-07  0.2997949E+04  0.7818609E-02  0.8244317E-01
       -2   -1    0    0    0  501  0.00000000000E+00  0.00000000000E+00  0.10277637090E+04  0.10277637090E+04  0.25500000920E-02 0. -1.
        2   -1    0    0  501    0  0.00000000000E+00  0.00000000000E+00 -0.21862267814E+04  0.21862267814E+04  0.25500000920E-02 0.  1.
    10030    2    1    2    0    0  0.00000000000E+00  0.00000000000E+00 -0.11584630724E+04  0.32139904904E+04  0.29979489960E+04 0.  0.
        3    1    3    3  502    0  0.67580494563E+03  0.12901538629E+04 -0.19911717402E+03  0.14699853651E+04  0.10100000352E+00 0. -1.
       -3    1    3    3    0  502 -0.67580494563E+03 -0.12901538629E+04 -0.95934589834E+03  0.17440051253E+04  0.10100000352E+00 0.  1.
</event>
<event>
 5   0  0.6679022E-08  0.3004125E+04  0.7818609E-02  0.8242554E-01
       -1   -1    0    0    0  501  0.00000000000E+00  0.00000000000E+00  0.13115318256E+04  0.13115318257E+04  0.50400001928E-02 0. -1.
        1   -1    0    0  501    0  0.00000000000E+00  0.00000000000E+00 -0.17202725237E+04  0.17202725237E+04  0.50400001928E-02 0.  1.
    10030    2    1    2    0    0  0.00000000000E+00  0.00000000000E+00 -0.40874069809E+03  0.30318043494E+04  0.30041252728E+04 0.  0.
        3    1    3    3  502    0 -0.54174169914E+02 -0.87659907251E+03  0.10253934409E+04  0.13501083265E+04  0.10100000352E+00 0. -1.
       -3    1    3    3    0  502  0.54174169914E+02  0.87659907251E+03 -0.14341341390E+04  0.16816960229E+04  0.10100000352E+00 0.  1.
</event>
<event>
 5   0  0.1914439E-07  0.2996997E+04  0.7818609E-02  0.8244589E-01
       -2   -1    0    0    0  501  0.00000000000E+00  0.00000000000E+00  0.11922863528E+04  0.11922863528E+04  0.25500000920E-02 0. -1.
        2   -1    0    0  501    0  0.00000000000E+00  0.00000000000E+00 -0.18833549953E+04  0.18833549953E+04  0.25500000920E-02 0.  1.
    10030    2    1    2    0    0  0.00000000000E+00  0.00000000000E+00 -0.69106864251E+03  0.30756413481E+04  0.29969974698E+04 0.  0.
        5    1    3    3  502    0  0.43427884611E+03  0.13030605781E+04  0.26927852050E+03  0.13996778193E+04  0.46999998093E+01 0. -1.
       -5    1    3    3    0  502 -0.43427884611E+03 -0.13030605781E+04 -0.96034716301E+03  0.16759635288E+04  0.46999998093E+01 0.  1.
</event>
<event>
 5   0  0.6464436E-08  0.2999851E+04  0.7818609E-02  0.8243773E-01
        1   -1    0    0  501    0  0.00000000000E+00  0.00000000000E+00  0.17213646093E+04  0.17213646093E+04  0.50400001928E-02 0.  1.
       -1   -1    0    0    0  501  0.00000000000E+00  0.00000000000E+00 -0.13069729089E+04  0.13069729089E+04  0.50400001928E-02 0. -1.
    10030    2    1    2    0    0  0.00000000000E+00  0.00000000000E+00  0.41439170038E+03  0.30283375182E+04  0.29998512701E+04 0.  0.
        5    1    3    3  502    0 -0.16702262599E+03  0.14129297351E+04 -0.27216890970E+03  0.14485734360E+04  0.46999998093E+01 0. -1.
       -5    1    3    3    0  502  0.16702262599E+03 -0.14129297351E+04  0.68656061008E+03  0.15797640822E+04  0.46999998093E+01 0.  1.
</event>
<event>
 5   0  0.6679022E-08  0.2999757E+04  0.7818609E-02  0.8243800E-01
        1   -1    0    0  501    0  0.00000000000E+00  0.00000000000E+00  0.14777024483E+04  0.14777024483E+04  0.50400001928E-02 0. -1.
       -1   -1    0    0    0  501  0.00000000000E+00  0.00000000000E+00 -0.15223870709E+04  0.15223870709E+04  0.50400001928E-02 0.  1.
    10030    2    1    2    0    0  0.00000000000E+00  0.00000000000E+00 -0.44684622591E+02  0.30000895192E+04  0.29997567248E+04 0.  0.
        3    1    3    3  502    0  0.45421035943E+03 -0.84382612948E+03  0.11315991550E+04  0.14828574595E+04  0.10100000352E+00 0. -1.
       -3    1    3    3    0  502 -0.45421035943E+03  0.84382612948E+03 -0.11762837776E+04  0.15172320597E+04  0.10100000352E+00 0.  1.
</event>
<event>
 5   0  0.1813720E-07  0.3003490E+04  0.7818609E-02  0.8242735E-01
       -2   -1    0    0    0  501  0.00000000000E+00  0.00000000000E+00  0.14109479989E+04  0.14109479989E+04  0.25500000920E-02 0.  1.
        2   -1    0    0  501    0  0.00000000000E+00  0.00000000000E+00 -0.15983852155E+04  0.15983852155E+04  0.25500000920E-02 0. -1.
    10030    2    1    2    0    0  0.00000000000E+00  0.00000000000E+00 -0.18743721663E+03  0.30093332144E+04  0.30034902506E+04 0.  0.
        3    1    3    3  502    0  0.11750576696E+04  0.93190172451E+03 -0.15868934258E+02  0.14998177170E+04  0.10100000352E+00 0. -1.
       -3    1    3    3    0  502 -0.11750576696E+04 -0.93190172451E+03 -0.17156828237E+03  0.15095154974E+04  0.10100000352E+00 0.  1.
</event>
<event>
 5   0  0.6374748E-08  0.3000656E+04  0.7818609E-02  0.8243543E-01
        1   -1    0    0  501    0  0.00000000000E+00  0.00000000000E+00  0.21279037703E+04  0.21279037703E+04  0.50400001928E-02 0.  1.
       -1   -1    0    0    0  501  0.00000000000E+00  0.00000000000E+00 -0.10578413331E+04  0.10578413331E+04  0.50400001928E-02 0. -1.
    10030    2    1    2    0    0  0.00000000000E+00  0.00000000000E+00  0.10700624372E+04  0.31857451034E+04  0.30006563023E+04 0.  0.
        1    1    3    3  502    0  0.23529185377E+03  0.13626446651E+04  0.11530198088E+04  0.18004492270E+04  0.50400001928E-02 0.  1.
       -1    1    3    3    0  502 -0.23529185377E+03 -0.13626446651E+04 -0.82957371544E+02  0.13852958764E+04  0.50400001928E-02 0. -1.
</event>
<event>
 5   0  0.6679022E-08  0.3000495E+04  0.7818609E-02  0.8243590E-01
       -1   -1    0    0    0  501  0.00000000000E+00  0.00000000000E+00  0.13510557383E+04  0.13510557383E+04  0.50400001928E-02 0.  1.
        1   -1    0    0  501    0  0.00000000000E+00  0.00000000000E+00 -0.16659140776E+04  0.16659140776E+04  0.50400001928E-02 0. -1.
    10030    2    1    2    0    0  0.00000000000E+00  0.00000000000E+00 -0.31485833930E+03  0.30169698160E+04  0.30004951419E+04 0.  0.
        3    1    3    3  502    0  0.41315190816E+03 -0.14415168393E+04 -0.11159967530E+03  0.15037020300E+04  0.10100000352E+00 0.  1.
       -3    1    3    3    0  502 -0.41315190816E+03  0.14415168393E+04 -0.20325866400E+03  0.15132677860E+04  0.10100000352E+00 0. -1.
</event>
<event>
 5   0  0.6525507E-08  0.2999412E+04  0.7818609E-02  0.8243899E-01
        1   -1    0    0  501    0  0.00000000000E+00  0.00000000000E+00  0.15355352925E+04  0.15355352925E+04  0.50400001928E-02 0.  1.
       -1   -1    0    0    0  501  0.00000000000E+00  0.00000000000E+00 -0.14647129083E+04  0.14647129083E+04  0.50400001928E-02 0. -1.
    10030    2    1    2    0    0  0.00000000000E+00  0.00000000000E+00  0.70822384202E+02  0.30002482008E+04  0.29994121851E+04 0.  0.
        4    1    3    3  502    0 -0.53253659979E+03 -0.99854882344E+03 -0.94894732648E+03  0.14768878171E+04  0.12699999809E+01 0. -1.
       -4    1    3    3    0  502  0.53253659979E+03  0.99854882344E+03  0.10197697107E+04  0.15233603837E+04  0.12699999809E+01 0.  1.
</event>
<event>
 5   0  0.6464436E-08  0.3000972E+04  0.7818609E-02  0.8243453E-01
       -1   -1    0    0    0  501  0.00000000000E+00  0.00000000000E+00  0.23150196282E+04  0.23150196282E+04  0.50400001928E-02 0. -1.
        1   -1    0    0  501    0  0.00000000000E+00  0.00000000000E+00 -0.97254405239E+03  0.97254405240E+03  0.50400001928E-02 0.  1.
    10030    2    1    2    0    0  0.00000000000E+00  0.00000000000E+00  0.13424755759E+04  0.32875636807E+04  0.30009722229E+04 0.  0.
        5    1    3    3  502    0 -0.32317283282E+03  0.11150644172E+04 -0.37013645798E+03  0.12185370006E+04  0.46999998093E+01 0.  1.
       -5    1    3    3    0  502  0.32317283282E+03 -0.11150644172E+04  0.17126120338E+04  0.20690266800E+04  0.46999998093E+01 0. -1.
</event>
<event>
 5   0  0.1810055E-07  0.3000096E+04  0.7818609E-02  0.8243703E-01
       -2   -1    0    0    0  501  0.00000000000E+00  0.00000000000E+00  0.11513187851E+04  0.11513187851E+04  0.25500000920E-02 0.  1.
        2   -1    0    0  501    0  0.00000000000E+00  0.00000000000E+00 -0.19544062687E+04  0.19544062687E+04  0.25500000920E-02 0. -1.
    10030    2    1    2    0    0  0.00000000000E+00  0.00000000000E+00 -0.80308748367E+03  0.31057250538E+04  0.30000964324E+04 0.  0.
        4    1    3    3  502    0 -0.10024243821E+04  0.25326891233E+03 -0.15266125336E+04  0.18437861114E+04  0.12699999809E+01 0. -1.
       -4    1    3    3    0  502  0.10024243821E+04 -0.25326891233E+03  0.72352504995E+03  0.12619389425E+04  0.12699999809E+01 0.  1.
</event>
<event>
 5   0  0.1817566E-07  0.3000206E+04  0.7818609E-02  0.8243672E-01
        2   -1    0    0  501    0  0.00000000000E+00  0.00000000000E+00  0.17488751201E+04  0.17488751202E+04  0.25500000920E-02 0.  1.
       -2   -1    0    0    0  501  0.00000000000E+00  0.00000000000E+00 -0.12867177931E+04  0.12867177931E+04  0.25500000920E-02 0. -1.
    10030    2    1    2    0    0  0.00000000000E+00  0.00000000000E+00  0.46215732702E+03  0.30355929133E+04  0.30002058163E+04 0.  0.
        1    1    3    3  502    0  0.81035905103E+03 -0.70441895221E+03  0.12910133183E+04  0.16791674246E+04  0.50400001928E-02 0.  1.
       -1    1    3    3    0  502 -0.81035905103E+03  0.70441895221E+03 -0.82885599133E+03  0.13564254886E+04  0.50400001928E-02 0. -1.
</event>
<event>
 5   0  0.6525507E-08  0.3000129E+04  0.7818609E-02  0.8243694E-01
        1   -1    0    0  501    0  0.00000000000E+00  0.00000000000E+00  0.23241663024E+04  0.23241663024E+04  0.50400001928E-02 0.  1.
       -1   -1    0    0    0  501  0.00000000000E+00  0.00000000000E+00 -0.96817240911E+03  0.96817240912E+03  0.50400001928E-02 0. -1.
    10030    2    1    2    0    0  0.00000000000E+00  0.00000000000E+00  0.13559938933E+04  0.32923387115E+04  0.30001291227E+04 0.  0.
        4    1    3    3  502    0 -0.12166806154E+04 -0.29558171268E+03 -0.22861125996E+03  0.12727705959E+04  0.12699999809E+01 0. -1.
       -4    1    3    3    0  502  0.12166806154E+04  0.29558171268E+03  0.15846051532E+04  0.20195681156E+04  0.12699999809E+01 0.  1.
</event>
<event>
 5   0  0.1821305E-07  0.2980277E+04  0.7818609E-02  0.8249385E-01
        2   -1    0    0  501    0  0.00000000000E+00  0.00000000000E+00  0.18438445713E+04  0.18438445713E+04  0.25500000920E-02 0.  1.
       -2   -1    0    0    0  501  0.00000000000E+00  0.00000000000E+00 -0.12042839782E+04  0.12042839782E+04  0.25500000920E-02 0. -1.
    10030    2    1    2    0    0  0.00000000000E+00  0.00000000000E+00  0.63956059306E+03  0.30481285495E+04  0.29802768163E+04 0.  0.
        2    1    3    3  502    0  0.11459911628E+04  0.14079079654E+03  0.12832433942E+04  0.17262188165E+04  0.25500000920E-02 0.  1.
       -2    1    3    3    0  502 -0.11459911628E+04 -0.14079079654E+03 -0.64368280113E+03  0.13219097330E+04  0.25500000920E-02 0. -1.
</event>
<event>
 5   0  0.6464436E-08  0.3000261E+04  0.7818609E-02  0.8243656E-01
       -1   -1    0    0    0  501  0.00000000000E+00  0.00000000000E+00  0.20086522149E+04  0.20086522149E+04  0.50400001928E-02 0. -1.
        1   -1    0    0  501    0  0.00000000000E+00  0.00000000000E+00 -0.11203490200E+04  0.11203490201E+04  0.50400001928E-02 0.  1.
    10030    2    1    2    0    0  0.00000000000E+00  0.00000000000E+00  0.88830319486E+03  0.31290012350E+04  0.30002610157E+04 0.  0.
        5    1    3    3  502    0  0.62485454899E+03 -0.29528451702E+03  0.18327235751E+04  0.19587072129E+04  0.46999998093E+01 0. -1.
       -5    1    3    3    0  502 -0.62485454899E+03  0.29528451702E+03 -0.94442038022E+03  0.11702940220E+04  0.46999998093E+01 0.  1.
</event>
<event>
 5   0  0.1821305E-07  0.3000656E+04  0.7818609E-02  0.8243544E-01
        2   -1    0    0  501    0  0.00000000000E+00  0.00000000000E+00  0.22085988007E+04  0.22085988007E+04  0.25500000920E-02 0.  1.
       -2   -1    0    0    0  501  0.00000000000E+00  0.00000000000E+00 -0.10191912283E+04  0.10191912283E+04  0.25500000920E-02 0. -1.
    10030    2    1    2    0    0  0.00000000000E+00  0.00000000000E+00  0.11894075724E+04  0.32277900290E+04  0.30006562779E+04 0.  0.
        2    1    3    3  502    0 -0.94235690644E+03  0.43825422118E+03 -0.56927602071E+03  0.11849803750E+04  0.25500000920E-02 0. -1.
       -2    1    3    3    0  502  0.94235690644E+03 -0.43825422118E+03  0.17586835932E+04  0.20428096540E+04  0.25500000920E-02 0.  1.
</event>
<event>
 5   0  0.6525507E-08  0.3001613E+04  0.7818609E-02  0.8243270E-01
       -1   -1    0    0    0  501  0.00000000000E+00  0.00000000000E+00  0.12285732288E+04  0.12285732288E+04  0.50400001928E-02 0.  1.
        1   -1    0    0  501    0  0.00000000000E+00  0.00000000000E+00 -0.18333630466E+04  0.18333630466E+04  0.50400001928E-02 0. -1.
    10030    2    1    2    0    0  0.00000000000E+00  0.00000000000E+00 -0.60478981779E+03  0.30619362755E+04  0.30016134047E+04 0.  0.
        4    1    3    3  502    0  0.49572157565E+03 -0.54531896914E+03 -0.16360740602E+04  0.17943947731E+04  0.12699999809E+01 0. -1.
       -4    1    3    3    0  502 -0.49572157565E+03  0.54531896914E+03  0.10312842424E+04  0.12675415023E+04  0.12699999809E+01 0.  1.
</event>
<event>
 5   0  0.6525507E-08  0.2998943E+04  0.7818609E-02  0.8244033E-01
       -1   -1    0    0    0  501  0.00000000000E+00  0.00000000000E+00  0.95191434352E+03  0.95191434353E+03  0.50400001928E-02 0.  1.
        1   -1    0    0  501    0  0.00000000000E+00  0.00000000000E+00 -0.23619927978E+04  0.23619927978E+04  0.50400001928E-02 0. -1.
    10030    2    1    2    0    0  0.00000000000E+00  0.00000000000E+00 -0.14100784542E+04  0.33139071413E+04  0.29989430295E+04 0.  0.
        4    1    3    3  502    0 -0.13978224775E+04  0.12584531523E+03 -0.12170689238E+03  0.14087437320E+04  0.12699999809E+01 0.  1.
       -4    1    3    3    0  502  0.13978224775E+04 -0.12584531523E+03 -0.12883715619E+04  0.19051634093E+04  0.12699999809E+01 0. -1.
</event>
<event>
 5   0  0.6636007E-08  0.2999384E+04  0.7818609E-02  0.8243907E-01
       -1   -1    0    0    0  501  0.00000000000E+00  0.00000000000E+00  0.94873025436E+03  0.94873025438E+03  0.50400001928E-02 0. -1.
        1   -1    0    0  501    0  0.00000000000E+00  0.00000000000E+00 -0.23706178045E+04  0.23706178046E+04  0.50400001928E-02 0.  1.
    10030    2    1    2    0    0  0.00000000000E+00  0.00000000000E+00 -0.14218875502E+04  0.33193480589E+04  0.29993844920E+04 0.  0.
        2    1    3    3  502    0 -0.76448487920E+03 -0.15312112195E+03  0.70680918521E+03  0.10523604101E+04  0.25500000920E-02 0. -1.
       -2    1    3    3    0  502  0.76448487920E+03  0.15312112195E+03 -0.21286967354E+04  0.22669876488E+04  0.25500000920E-02 0.  1.
</event>
<event>
 5   0  0.1821305E-07  0.2999151E+04  0.7818609E-02  0.8243973E-01
       -2   -1    0    0    0  501  0.00000000000E+00  0.00000000000E+00  0.16556058341E+04  0.16556058341E+04  0.25500000920E-02 0.  1.
        2   -1    0    0  501    0  0.00000000000E+00  0.00000000000E+00 -0.13582501933E+04  0.13582501933E+04  0.25500000920E-02 0. -1.
    10030    2    1    2    0    0  0.00000000000E+00  0.00000000000E+00  0.29735564075E+03  0.30138560274E+04  0.29991511760E+04 0.  0.
        2    1    3    3  502    0  0.26801810535E+03 -0.13929314108E+04 -0.34015902450E+03  0.14586979748E+04  0.25500000920E-02 0. -1.
       -2    1    3    3    0  502 -0.26801810535E+03  0.13929314108E+04  0.63751466526E+03  0.15551580525E+04  0.25500000920E-02 0.  1.
</event>
<event>
 5   0  0.6017625E-08  0.3000623E+04  0.7818609E-02  0.8243553E-01
        3   -1    0    0  501    0  0.00000000000E+00  0.00000000000E+00  0.19665996039E+04  0.19665996065E+04  0.10100000352E+00 0.  1.
       -3   -1    0    0    0  501  0.00000000000E+00  0.00000000000E+00 -0.11445821795E+04  0.11445821839E+04  0.10100000352E+00 0. -1.
    10030    2    1    2    0    0  0.00000000000E+00  0.00000000000E+00  0.82201742440E+03  0.31111817904E+04  0.30006231831E+04 0.  0.
        2    1    3    3  502    0 -0.10420975454E+04 -0.10328167709E+04  0.85999337356E+02  0.14697189060E+04  0.25500000920E-02 0. -1.
       -2    1    3    3    0  502  0.10420975454E+04  0.10328167709E+04  0.73601808705E+03  0.16414628844E+04  0.25500000920E-02 0.  1.
</event>
<event>
 5   0  0.1914439E-07  0.2998116E+04  0.7818609E-02  0.8244269E-01
       -2   -1    0    0    0  501  0.00000000000E+00  0.00000000000E+00  0.21632939835E+04  0.21632939835E+04  0.25500000920E-02 0. -1.
        2   -1    0    0  501    0  0.00000000000E+00  0.00000000000E+00 -0.10387747314E+04  0.10387747314E+04  0.25500000920E-02 0.  1.
    10030    2    1    2    0    0  0.00000000000E+00  0.00000000000E+00  0.11245192521E+04  0.32020687149E+04  0.29981161597E+04 0.  0.
        5    1    3    3  502    0  0.51532833424E+03 -0.15674806521E+03  0.20563600905E+04  0.21257403792E+04  0.46999998093E+01 0. -1.
       -5    1    3    3    0  502 -0.51532833424E+03  0.15674806521E+03 -0.93184083846E+03  0.10763283357E+04  0.46999998093E+01 0.  1.
</event>
<event>
 5   0  0.1914439E-07  0.2999268E+04  0.7818609E-02  0.8243940E-01
       -2   -1    0    0    0  501  0.00000000000E+00  0.00000000000E+00  0.10825497717E+04  0.10825497717E+04  0.25500000920E-02 0.  1.
        2   -1    0    0  501    0  0.00000000000E+00  0.00000000000E+00 -0.20774121437E+04  0.20774121437E+04  0.25500000920E-02 0. -1.
    10030    2    1    2    0    0  0.00000000000E+00  0.00000000000E+00 -0.99486237201E+03  0.31599619155E+04  0.29992679387E+04 0.  0.
        5    1    3    3  502    0 -0.51660479970E+03  0.42758767038E+03  0.91576503897E+03  0.11350592194E+04  0.46999998093E+01 0.  1.
       -5    1    3    3    0  502  0.51660479970E+03 -0.42758767038E+03 -0.19106274110E+04  0.20249026961E+04  0.46999998093E+01 0. -1.
</event>
<event>
 5   0  0.1810055E-07  0.3000530E+04  0.7818609E-02  0.8243580E-01
        2   -1    0    0  501    0  0.00000000000E+00  0.00000000000E+00  0.26824361835E+04  0.26824361835E+04  0.25500000920E-02 0.  1.
       -2   -1    0    0    0  501  0.00000000000E+00  0.00000000000E+00 -0.83908595483E+03  0.83908595484E+03  0.25500000920E-02 0. -1.
    10030    2    1    2    0    0  0.00000000000E+00  0.00000000000E+00  0.18433502287E+04  0.35215221383E+04  0.30005296375E+04 0.  0.
        4    1    3    3  502    0 -0.66139639906E+03 -0.61558731657E+03  0.23272941703E+04  0.24965361421E+04  0.12699999809E+01 0.  1.
       -4    1    3    3    0  502  0.66139639906E+03  0.61558731657E+03 -0.48394394158E+03  0.10249859962E+04  0.12699999809E+01 0. -1.
</event>
<event>
 5   0  0.6525507E-08  0.2998447E+04  0.7818609E-02  0.8244175E-01
       -1   -1    0    0    0  501  0.00000000000E+00  0.00000000000E+00  0.20036646907E+04  0.20036646907E+04  0.50400001928E-02 0. -1.
        1   -1    0    0  501    0  0.00000000000E+00  0.00000000000E+00 -0.11217798476E+04  0.11217798476E+04  0.50400001928E-02 0.  1.
    10030    2    1    2    0    0  0.00000000000E+00  0.00000000000E+00  0.88188484311E+03  0.31254445383E+04  0.29984467121E+04 0.  0.
        4    1    3    3  502    0  0.12420621697E+04 -0.14791443932E+03  0.13024293366E+04  0.18058020114E+04  0.12699999809E+01 0. -1.
       -4    1    3    3    0  502 -0.12420621697E+04  0.14791443932E+03 -0.42054449347E+03  0.13196425268E+04  0.12699999809E+01 0.  1.
</event>
<event>
 5   0  0.6636007E-08  0.3000445E+04  0.7818609E-02  0.8243604E-01
        1   -1    0    0  501    0  0.00000000000E+00  0.00000000000E+00  0.27130066224E+04  0.27130066224E+04  0.50400001928E-02 0. -1.
       -1   -1    0    0    0  501  0.00000000000E+00  0.00000000000E+00 -0.82958439547E+03  0.82958439549E+03  0.50400001928E-02 0.  1.
    10030    2    1    2    0    0  0.00000000000E+00  0.00000000000E+00  0.18834222270E+04  0.35425910179E+04  0.30004452728E+04 0.  0.
        2    1    3    3  502    0  0.88840237606E+03 -0.10026383558E+04  0.14430881031E+03  0.13473557389E+04  0.25500000920E-02 0.  1.
       -2    1    3    3    0  502 -0.88840237606E+03  0.10026383558E+04  0.17391134166E+04  0.21952352790E+04  0.25500000920E-02 0. -1.
</event>
<event>
 5   0  0.1821305E-07  0.3000417E+04  0.7818609E-02  0.8243612E-01
        2   -1    0    0  501    0  0.00000000000E+00  0.00000000000E+00  0.18367045997E+04  0.18367045997E+04  0.25500000920E-02 0. -1.
       -2   -1    0    0    0  501  0.00000000000E+00  0.00000000000E+00 -0.12253607656E+04  0.12253607656E+04  0.25500000920E-02 0.  1.
    10030    2    1    2    0    0  0.00000000000E+00  0.00000000000E+00  0.61134383415E+03  0.30620653653E+04  0.30004171407E+04 0.  0.
        2    1    3    3  502    0  0.51264663445E+03  0.11400310962E+04 -0.54091944808E+03  0.13620100298E+04  0.25500000920E-02 0. -1.
       -2    1    3    3    0  502 -0.51264663445E+03 -0.11400310962E+04  0.11522632822E+04  0.17000553355E+04  0.25500000920E-02 0.  1.
</event>
<event>
 5   0  0.6636007E-08  0.2999733E+04  0.7818609E-02  0.8243807E-01
       -1   -1    0    0    0  501  0.00000000000E+00  0.00000000000E+00  0.14661104429E+04  0.14661104429E+04  0.50400001928E-02 0. -1.
        1   -1    0    0  501    0  0.00000000000E+00  0.00000000000E+00 -0.15344002174E+04  0.15344002174E+04  0.50400001928E-02 0.  1.
    10030    2    1    2    0    0  0.00000000000E+00  0.00000000000E+00 -0.68289774514E+02  0.30005106603E+04  0.29997334430E+04 0.  0.
        2    1    3    3  502    0 -0.48945838453E+03  0.12016864341E+04 -0.78665648854E+03  0.15173820307E+04  0.25500000920E-02 0.  1.
       -2    1    3    3    0  502  0.48945838453E+03 -0.12016864341E+04  0.71836671403E+03  0.14831286296E+04  0.25500000920E-02 0. -1.
</event>
<event>
 5   0  0.1813720E-07  0.3000275E+04  0.7818609E-02  0.8243652E-01
        2   -1    0    0  501    0  0.00000000000E+00  0.00000000000E+00  0.11557868795E+04  0.11557868795E+04  0.25500000920E-02 0.  1.
       -2   -1    0    0    0  501  0.00000000000E+00  0.00000000000E+00 -0.19470825875E+04  0.19470825875E+04  0.25500000920E-02 0. -1.
    10030    2    1    2    0    0  0.00000000000E+00  0.00000000000E+00 -0.79129570809E+03  0.31028694670E+04  0.30002749927E+04 0.  0.
        3    1    3    3  502    0  0.92711553224E+03 -0.12711288844E+03  0.81692611994E+03  0.12422033618E+04  0.10100000352E+00 0.  1.
       -3    1    3    3    0  502 -0.92711553224E+03  0.12711288844E+03 -0.16082218280E+04  0.18606661052E+04  0.10100000352E+00 0. -1.
</event>
<event>
 5   0  0.1914439E-07  0.3001649E+04  0.7818609E-02  0.8243260E-01
       -2   -1    0    0    0  501  0.00000000000E+00  0.00000000000E+00  0.15106883900E+04  0.15106883900E+04  0.25500000920E-02 0.  1.
        2   -1    0    0  501    0  0.00000000000E+00  0.00000000000E+00 -0.14910248462E+04  0.14910248462E+04  0.25500000920E-02 0. -1.
    10030    2    1    2    0    0  0.00000000000E+00  0.00000000000E+00  0.19663543855E+02  0.30017132362E+04  0.30016488298E+04 0.  0.
        5    1    3    3  502    0 -0.91037759614E+03 -0.11901871572E+04 -0.74544191824E+02  0.15003038903E+04  0.46999998093E+01 0. -1.
       -5    1    3    3    0  502  0.91037759614E+03  0.11901871572E+04  0.94207735679E+02  0.15014093460E+04  0.46999998093E+01 0.  1.
</event>
<event>
 5   0  0.6464436E-08  0.2999590E+04  0.7818609E-02  0.8243848E-01
       -1   -1    0    0    0  501  0.00000000000E+00  0.00000000000E+00  0.27618291661E+04  0.27618291661E+04  0.50400001928E-02 0.  1.
        1   -1    0    0  501    0  0.00000000000E+00  0.00000000000E+00 -0.81445502438E+03  0.81445502440E+03  0.50400001928E-02 0. -1.
    10030    2    1    2    0    0  0.00000000000E+00  0.00000000000E+00  0.19473741417E+04  0.35762841905E+04  0.29995903993E+04 0.  0.
        5    1    3    3  502    0  0.17336366014E+03  0.12395205903E+03 -0.79630121789E+03  0.82434021569E+03  0.46999998093E+01 0. -1.
       -5    1    3    3    0  502 -0.17336366014E+03 -0.12395205903E+03  0.27436753596E+04  0.27519439748E+04  0.46999998093E+01 0.  1.
</event>
<event>
 5   0  0.6679022E-08  0.3002493E+04  0.7818609E-02  0.8243019E-01
       -1   -1    0    0    0  501  0.00000000000E+00  0.00000000000E+00  0.16381782969E+04  0.16381782969E+04  0.50400001928E-02 0.  1.
        1   -1    0    0  501    0  0.00000000000E+00  0.00000000000E+00 -0.13757605725E+04  0.13757605725E+04  0.50400001928E-02 0. -1.
    10030    2    1    2    0    0  0.00000000000E+00  0.00000000000E+00  0.26241772432E+03  0.30139388694E+04  0.30024930385E+04 0.  0.
        3    1    3    3  502    0 -0.92576400324E+03  0.36257228121E+03 -0.99790952462E+03  0.14086593195E+04  0.10100000352E+00 0. -1.
       -3    1    3    3    0  502  0.92576400324E+03 -0.36257228121E+03  0.12603272489E+04  0.16052795499E+04  0.10100000352E+00 0.  1.
</event>
<event>
 5   0  0.1813720E-07  0.2999732E+04  0.7818609E-02  0.8243807E-01
        2   -1    0    0  501    0  0.00000000000E+00  0.00000000000E+00  0.14218687037E+04  0.14218687037E+04  0.25500000920E-02 0. -1.
       -2   -1    0    0    0  501  0.00000000000E+00  0.00000000000E+00 -0.15821419008E+04  0.15821419008E+04  0.25500000920E-02 0.  1.
    10030    2    1    2    0    0  0.00000000000E+00  0.00000000000E+00 -0.16027319709E+03  0.30040106044E+04  0.29997320237E+04 0.  0.
        3    1    3    3  502    0 -0.76044115991E+03  0.52003359513E+03 -0.12654177634E+04  0.15652436947E+04  0.10100000352E+00 0.  1.
       -3    1    3    3    0  502  0.76044115991E+03 -0.52003359513E+03  0.11051445663E+04  0.14387669097E+04  0.10100000352E+00 0. -1.
</event>
<event>
 5   0  0.1817566E-07  0.3000993E+04  0.7818609E-02  0.8243447E-01
        2   -1    0    0  501    0  0.00000000000E+00  0.00000000000E+00  0.16359757549E+04  0.16359757549E+04  0.25500000920E-02 0. -1.
       -2   -1    0    0    0  501  0.00000000000E+00  0.00000000000E+00 -0.13762367495E+04  0.13762367495E+04  0.25500000920E-02 0.  1.
    10030    2    1    2    0    0  0.00000000000E+00  0.00000000000E+00  0.25973900537E+03  0.30122125044E+04  0.30009931391E+04 0.  0.
        1    1    3    3  502    0 -0.14708593008E+04  0.94086558201E+01 -0.16784407175E+03  0.14804348138E+04  0.50400001928E-02 0.  1.
       -1    1    3    3    0  502  0.14708593008E+04 -0.94086558201E+01  0.42758307713E+03  0.15317776906E+04  0.50400001928E-02 0. -1.
</event>
<event>
 5   0  0.1817566E-07  0.2998677E+04  0.7818609E-02  0.8244109E-01
       -2   -1    0    0    0  501  0.00000000000E+00  0.00000000000E+00  0.10355325095E+04  0.10355325096E+04  0.25500000920E-02 0.  1.
        2   -1    0    0  501    0  0.00000000000E+00  0.00000000000E+00 -0.21708788159E+04  0.21708788159E+04  0.25500000920E-02 0. -1.
    10030    2    1    2    0    0  0.00000000000E+00  0.00000000000E+00 -0.11353463064E+04  0.32064113255E+04  0.29986767670E+04 0.  0.
        1    1    3    3  502    0  0.10581667830E+04 -0.82375708314E+03 -0.12847440355E+04  0.18571106347E+04  0.50400001928E-02 0. -1.
       -1    1    3    3    0  502 -0.10581667830E+04  0.82375708314E+03  0.14939772909E+03  0.13493006908E+04  0.50400001928E-02 0.  1.
</event>
<event>
 5   0  0.1821305E-07  0.3008215E+04  0.7818609E-02  0.8241389E-01
       -2   -1    0    0    0  501  0.00000000000E+00  0.00000000000E+00  0.22274893497E+04  0.22274893497E+04  0.25500000920E-02 0. -1.
        2   -1    0    0  501    0  0.00000000000E+00  0.00000000000E+00 -0.10156455873E+04  0.10156455873E+04  0.25500000920E-02 0.  1.
    10030    2    1    2    0    0  0.00000000000E+00  0.00000000000E+00  0.12118437625E+04  0.32431349370E+04  0.30082152375E+04 0.  0.
        2    1    3    3  502    0  0.13852213180E+04 -0.46366604373E+03  0.99240786339E+03  0.17659834844E+04  0.25500000920E-02 0.  1.
       -2    1    3    3    0  502 -0.13852213180E+04  0.46366604373E+03  0.21943589908E+03  0.14771514526E+04  0.25500000920E-02 0. -1.
</event>
<event>
 5   0  0.6374748E-08  0.3003363E+04  0.7818609E-02  0.8242771E-01
        1   -1    0    0  501    0  0.00000000000E+00  0.00000000000E+00  0.17183012531E+04  0.17183012531E+04  0.50400001928E-02 0.  1.
       -1   -1    0    0    0  501  0.00000000000E+00  0.00000000000E+00 -0.13123700942E+04  0.13123700942E+04  0.50400001928E-02 0. -1.
    10030    2    1    2    0    0  0.00000000000E+00  0.00000000000E+00  0.40593115894E+03  0.30306713474E+04  0.30033629001E+04 0.  0.
        1    1    3    3  502    0 -0.39066690374E+03  0.14244156607E+04 -0.70546129726E+02  0.14787012411E+04  0.50400001928E-02 0. -1.
       -1    1    3    3    0  502  0.39066690374E+03 -0.14244156607E+04  0.47647728867E+03  0.15519701062E+04  0.50400001928E-02 0.  1.
</event>
<event>
 5   0  0.1817566E-07  0.2999429E+04  0.7818609E-02  0.8243894E-01
        2   -1    0    0  501    0  0.00000000000E+00  0.00000000000E+00  0.17163885189E+04  0.17163885189E+04  0.25500000920E-02 0. -1.
       -2   -1    0    0    0  501  0.00000000000E+00  0.00000000000E+00 -0.13103933107E+04  0.13103933107E+04  0.25500000920E-02 0.  1.
    10030    2    1    2    0    0  0.00000000000E+00  0.00000000000E+00  0.40599520812E+03  0.30267818296E+04  0.29994293015E+04 0.  0.
        1    1    3    3  502    0 -0.29650141547E+03 -0.62459792623E+03  0.15459637245E+04  0.16935287114E+04  0.50400001928E-02 0. -1.
       -1    1    3    3    0  502  0.29650141547E+03  0.62459792623E+03 -0.11399685164E+04  0.13332531182E+04  0.50400001928E-02 0.  1.
</event>
<event>
 5   0  0.1810055E-07  0.3000817E+04  0.7818609E-02  0.8243498E-01
        2   -1    0    0  501    0  0.00000000000E+00  0.00000000000E+00  0.14792018089E+04  0.14792018089E+04  0.25500000920E-02 0. -1.
       -2   -1    0    0    0  501  0.00000000000E+00  0.00000000000E+00 -0.15219188007E+04  0.15219188007E+04  0.25500000920E-02 0.  1.
    10030    2    1    2    0    0  0.00000000000E+00  0.00000000000E+00 -0.42716991814E+02  0.30011206095E+04  0.30008165841E+04 0.  0.
        4    1    3    3  502    0 -0.94931596439E+03 -0.70707353296E+03  0.90072713230E+03  0.14874356326E+04  0.12699999809E+01 0. -1.
       -4    1    3    3    0  502  0.94931596439E+03  0.70707353296E+03 -0.94344412412E+03  0.15136849770E+04  0.12699999809E+01 0.  1.
</event>
<event>
 5   0  0.1813720E-07  0.3015727E+04  0.7818609E-02  0.8239254E-01
       -2   -1    0    0    0  501  0.00000000000E+00  0.00000000000E+00  0.10749968421E+04  0.10749968421E+04  0.25500000920E-02 0. -1.
        2   -1    0    0  501    0  0.00000000000E+00  0.00000000000E+00 -0.21150316348E+04  0.21150316348E+04  0.25500000920E-02 0.  1.
    10030    2    1    2    0    0  0.00000000000E+00  0.00000000000E+00 -0.10400347927E+04  0.31900284769E+04  0.30157269958E+04 0.  0.
        3    1    3    3  502    0  0.84194878910E+02  0.12859854372E+04 -0.13480809782E+04  0.18649851625E+04  0.10100000352E+00 0.  1.
       -3    1    3    3    0  502 -0.84194878910E+02 -0.12859854372E+04  0.30804618551E+03  0.13250433144E+04  0.10100000352E+00 0. -1.
</event>
<event>
 5   0  0.6464436E-08  0.2998677E+04  0.7818609E-02  0.8244109E-01
       -1   -1    0    0    0  501  0.00000000000E+00  0.00000000000E+00  0.16143321499E+04  0.16143321499E+04  0.50400001928E-02 0.  1.
        1   -1    0    0  501    0  0.00000000000E+00  0.00000000000E+00 -0.13925362538E+04  0.13925362538E+04  0.50400001928E-02 0. -1.
    10030    2    1    2    0    0  0.00000000000E+00  0.00000000000E+00  0.22179589616E+03  0.30068684037E+04  0.29986770713E+04 0.  0.
        5    1    3    3  502    0  0.12864022369E+04  0.62502997241E+03 -0.34033215492E+03  0.14701500764E+04  0.46999998093E+01 0.  1.
       -5    1    3    3    0  502 -0.12864022369E+04 -0.62502997241E+03  0.56212805107E+03  0.15367183273E+04  0.46999998093E+01 0. -1.
</event>
<event>
 5   0  0.6636007E-08  0.2999726E+04  0.7818609E-02  0.8243809E-01
       -1   -1    0    0    0  501  0.00000000000E+00  0.00000000000E+00  0.23535149741E+04  0.23535149742E+04  0.50400001928E-02 0. -1.
        1   -1    0    0  501    0  0.00000000000E+00  0.00000000000E+00 -0.95584249639E+03  0.95584249640E+03  0.50400001928E-02 0.  1.
    10030    2    1    2    0    0  0.00000000000E+00  0.00000000000E+00  0.13976724778E+04  0.33093574706E+04  0.29997264063E+04 0.  0.
        2    1    3    3  502    0 -0.78206077442E+02 -0.74638823119E+03 -0.73381178494E+03  0.10496148427E+04  0.25500000920E-02 0.  1.
       -2    1    3    3    0  502  0.78206077442E+02  0.74638823119E+03  0.21314842627E+04  0.22597426279E+04  0.25500000920E-02 0. -1.
</event>
<event>
 5   0  0.1817566E-07  0.2997288E+04  0.7818609E-02  0.8244506E-01
       -2   -1    0    0    0  501  0.00000000000E+00  0.00000000000E+00  0.10427921760E+04  0.10427921760E+04  0.25500000920E-02 0. -1.
        2   -1    0    0  501    0  0.00000000000E+00  0.00000000000E+00 -0.21537692945E+04  0.21537692945E+04  0.25500000920E-02 0.  1.
    10030    2    1    2    0    0  0.00000000000E+00  0.00000000000E+00 -0.11109771186E+04  0.31965614705E+04  0.29972879536E+04 0.  0.
        1    1    3    3  502    0 -0.83080716360E+03  0.96290297871E+03  0.29000647488E+03  0.13044257146E+04  0.50400001928E-02 0. -1.
       -1    1    3    3    0  502  0.83080716360E+03 -0.96290297871E+03 -0.14009835934E+04  0.18921357559E+04  0.50400001928E-02 0.  1.
</event>
<event>
 5   0  0.1810055E-07  0.3000939E+04  0.7818609E-02  0.8243463E-01
        2   -1    0    0  501    0  0.00000000000E+00  0.00000000000E+00  0.14027134582E+04  0.14027134582E+04  0.25500000920E-02 0.  1.
       -2   -1    0    0    0  501  0.00000000000E+00  0.00000000000E+00 -0.16050382751E+04  0.16050382751E+04  0.25500000920E-02 0. -1.
    10030    2    1    2    0    0  0.00000000000E+00  0.00000000000E+00 -0.20232481685E+03  0.30077517333E+04  0.30009390459E+04 0.  0.
        4    1    3    3  502    0  0.12971811991E+04 -0.64389014442E+03 -0.49465219622E+03  0.15303450557E+04  0.12699999809E+01 0. -1.
       -4    1    3    3    0  502 -0.12971811991E+04  0.64389014442E+03  0.29232737937E+03  0.14774066776E+04  0.12699999809E+01 0.  1.
</event>
<event>
 5   0  0.1813720E-07  0.2997939E+04  0.7818609E-02  0.8244320E-01
        2   -1    0    0  501    0  0.00000000000E+00  0.00000000000E+00  0.23184523347E+04  0.23184523347E+04  0.25500000920E-02 0.  1.
       -2   -1    0    0    0  501  0.00000000000E+00  0.00000000000E+00 -0.96914223425E+03  0.96914223425E+03  0.25500000920E-02 0. -1.
    10030    2    1    2    0    0  0.00000000000E+00  0.00000000000E+00  0.13493101004E+04  0.32875945689E+04  0.29979393427E+04 0.  0.
        3    1    3    3  502    0 -0.14918940262E+04 -0.75543249247E+02  0.53832333231E+03  0.15878433765E+04  0.10100000352E+00 0.  1.
       -3    1    3    3    0  502  0.14918940262E+04  0.75543249247E+02  0.81098676812E+03  0.16997511924E+04  0.10100000352E+00 0. -1.
</event>
<event>
 5   0  0.6374748E-08  0.2988850E+04  0.7818609E-02  0.8246922E-01
        1   -1    0    0  501    0  0.00000000000E+00  0.00000000000E+00  0.16891448429E+04  0.16891448430E+04  0.50400001928E-02 0. -1.
       -1   -1    0    0    0  501  0.00000000000E+00  0.00000000000E+00 -0.13221522518E+04  0.13221522518E+04  0.50400001928E-02 0.  1.
    10030    2    1    2    0    0  0.00000000000E+00  0.00000000000E+00  0.36699259112E+03  0.30112970948E+04  0.29888503862E+04 0.  0.
        1    1    3    3  502    0  0.94436129133E+03  0.19766311131E+03 -0.96630971516E+03  0.13655194688E+04  0.50400001928E-02 0.  1.
       -1    1    3    3    0  502 -0.94436129133E+03 -0.19766311131E+03  0.13333023063E+04  0.16457776260E+04  0.50400001928E-02 0. -1.
</event>
<event>
 5   0  0.1821305E-07  0.2997172E+04  0.7818609E-02  0.8244539E-01
        2   -1    0    0  501    0  0.00000000000E+00  0.00000000000E+00  0.25903869638E+04  0.25903869639E+04  0.25500000920E-02 0.  1.
       -2   -1    0    0    0  501  0.00000000000E+00  0.00000000000E+00 -0.86695908950E+03  0.86695908951E+03  0.25500000920E-02 0. -1.
    10030    2    1    2    0    0  0.00000000000E+00  0.00000000000E+00  0.17234278743E+04  0.34573460534E+04  0.29971716825E+04 0.  0.
        2    1    3    3  502    0 -0.14286440809E+04 -0.84061321401E+02  0.13745763267E+04  0.19843261560E+04  0.25500000920E-02 0.  1.
       -2    1    3    3    0  502  0.14286440809E+04  0.84061321401E+02  0.34885154765E+03  0.14730198973E+04  0.25500000920E-02 0. -1.
</event>
<event>
 5   0  0.6374748E-08  0.3000163E+04  0.7818609E-02  0.8243684E-01
       -1   -1    0    0    0  501  0.00000000000E+00  0.00000000000E+00  0.12916739532E+04  0.12916739532E+04  0.50400001928E-02 0. -1.
        1   -1    0    0  501    0  0.00000000000E+00  0.00000000000E+00 -0.17421148883E+04  0.17421148883E+04  0.50400001928E-02 0.  1.
    10030    2    1    2    0    0  0.00000000000E+00  0.00000000000E+00 -0.45044093504E+03  0.30337888415E+04  0.30001629454E+04 0.  0.
        1    1    3    3  502    0  0.86877411512E+03 -0.18128050004E+03  0.99771987599E+03  0.13353187012E+04  0.50400001928E-02 0. -1.
       -1    1    3    3    0  502 -0.86877411512E+03  0.18128050004E+03 -0.14481608110E+04  0.16984701403E+04  0.50400001928E-02 0.  1.
</event>
<event>
 5   0  0.6636007E-08  0.3002369E+04  0.7818609E-02  0.8243055E-01
       -1   -1    0    0    0  501  0.00000000000E+00  0.00000000000E+00  0.13061608879E+04  0.13061608879E+04  0.50400001928E-02 0. -1.
        1   -1    0    0  501    0  0.00000000000E+00  0.00000000000E+00 -0.17253268030E+04  0.17253268030E+04  0.50400001928E-02 0.  1.
    10030    2    1    2    0    0  0.00000000000E+00  0.00000000000E+00 -0.41916591507E+03  0.30314876909E+04  0.30023686575E+04 0.  0.
        2    1    3    3  502    0  0.56860153466E+03  0.75887833307E+03  0.96546963515E+03  0.13532685048E+04  0.25500000920E-02 0. -1.
       -2    1    3    3    0  502 -0.56860153466E+03 -0.75887833307E+03 -0.13846355502E+04  0.16782191861E+04  0.25500000920E-02 0.  1.
</event>
<event>
 5   0  0.1914439E-07  0.3000367E+04  0.7818609E-02  0.8243626E-01
       -2   -1    0    0    0  501  0.00000000000E+00  0.00000000000E+00  0.17922941301E+04  0.17922941301E+04  0.25500000920E-02 0.  1.
        2   -1    0    0  501    0  0.00000000000E+00  0.00000000000E+00 -0.12556812659E+04  0.12556812659E+04  0.25500000920E-02 0. -1.
    10030    2    1    2    0    0  0.00000000000E+00  0.00000000000E+00  0.53661286414E+03  0.30479753960E+04  0.30003667524E+04 0.  0.
        5    1    3    3  502    0  0.37614883120E+02  0.10137672577E+04 -0.85439464604E+03  0.13263299866E+04  0.46999998093E+01 0. -1.
       -5    1    3    3    0  502 -0.37614883120E+02 -0.10137672577E+04  0.13910075102E+04  0.17216454094E+04  0.46999998093E+01 0.  1.
</event>
<event>
 5   0  0.6374748E-08  0.3000246E+04  0.7818609E-02  0.8243661E-01
        1   -1    0    0  501    0  0.00000000000E+00  0.00000000000E+00  0.26454278964E+04  0.26454278964E+04  0.50400001928E-02 0. -1.
       -1   -1    0    0    0  501  0.00000000000E+00  0.00000000000E+00 -0.85066367914E+03  0.85066367915E+03  0.50400001928E-02 0.  1.
    10030    2    1    2    0    0  0.00000000000E+00  0.00000000000E+00  0.17947642172E+04  0.34960915755E+04  0.30002462747E+04 0.  0.
        1    1    3    3  502    0 -0.80454049656E+03 -0.10879446417E+04  0.16520770099E+04  0.21354782604E+04  0.50400001928E-02 0. -1.
       -1    1    3    3    0  502  0.80454049656E+03  0.10879446417E+04  0.14268720731E+03  0.13606133151E+04  0.50400001928E-02 0.  1.
</event>
<event>
 5   0  0.1810055E-07  0.2994648E+04  0.7818609E-02  0.8245261E-01
        2   -1    0    0  501    0  0.00000000000E+00  0.00000000000E+00  0.21766574593E+04  0.21766574593E+04  0.25500000920E-02 0. -1.
       -2   -1    0    0    0  501  0.00000000000E+00  0.00000000000E+00 -0.10300104073E+04  0.10300104073E+04  0.25500000920E-02 0.  1.
    10030    2    1    2    0    0  0.00000000000E+00  0.00000000000E+00  0.11466470519E+04  0.32066678666E+04  0.29946484510E+04 0.  0.
        4    1    3    3  502    0  0.12828390636E+04  0.70827774534E+03  0.90274848628E+03  0.17211304047E+04  0.12699999809E+01 0.  1.
       -4    1    3    3    0  502 -0.12828390636E+04 -0.70827774534E+03  0.24389856566E+03  0.14855374619E+04  0.12699999809E+01 0. -1.
</event>
<event>
 5   0  0.6017625E-08  0.2999510E+04  0.7818609E-02  0.8243871E-01
        3   -1    0    0  501    0  0.00000000000E+00  0.00000000000E+00  0.19584984979E+04  0.19584985005E+04  0.10100000352E+00 0.  1.
       -3   -1    0    0    0  501  0.00000000000E+00  0.00000000000E+00 -0.11484641059E+04  0.11484641103E+04  0.10100000352E+00 0. -1.
    10030    2    1    2    0    0  0.00000000000E+00  0.00000000000E+00  0.81003439204E+03  0.31069626109E+04  0.29995101182E+04 0.  0.
        2    1    3    3  502    0  0.35804307597E+03 -0.78492791033E+03 -0.86569725156E+03  0.12221859106E+04  0.25500000920E-02 0. -1.
       -2    1    3    3    0  502 -0.35804307597E+03  0.78492791033E+03  0.16757316436E+04  0.18847767003E+04  0.25500000920E-02 0.  1.
</event>
<event>
 5   0  0.1813720E-07  0.3000421E+04  0.7818609E-02  0.8243611E-01
        2   -1    0    0  501    0  0.00000000000E+00  0.00000000000E+00  0.30788313368E+04  0.30788313368E+04  0.25500000920E-02 0. -1.
       -2   -1    0    0    0  501  0.00000000000E+00  0.00000000000E+00 -0.73100196627E+03  0.73100196628E+03  0.25500000920E-02 0.  1.
    10030    2    1    2    0    0  0.00000000000E+00  0.00000000000E+00  0.23478293705E+04  0.38098333031E+04  0.30004211445E+04 0.  0.
        3    1    3    3  502    0  0.95831428562E+03 -0.74966592162E+03  0.59506591031E+02  0.12181569310E+04  0.10100000352E+00 0.  1.
       -3    1    3    3    0  502 -0.95831428562E+03  0.74966592162E+03  0.22883227795E+04  0.25916763721E+04  0.10100000352E+00 0. -1.
</event>
<event>
 5   0  0.1813720E-07  0.3000105E+04  0.7818609E-02  0.8243701E-01
       -2   -1    0    0    0  501  0.00000000000E+00  0.00000000000E+00  0.15203819145E+04  0.15203819145E+04  0.25500000920E-02 0.  1.
        2   -1    0    0  501    0  0.00000000000E+00  0.00000000000E+00 -0.14799949162E+04  0.14799949162E+04  0.25500000920E-02 0. -1.
    10030    2    1    2    0    0  0.00000000000E+00  0.00000000000E+00  0.40386998348E+02  0.30003768307E+04  0.30001050009E+04 0.  0.
        3    1    3    3  502    0 -0.60334336897E+03  0.11800052283E+04 -0.68252366118E+03  0.14907293912E+04  0.10100000352E+00 0. -1.
       -3    1    3    3    0  502  0.60334336897E+03 -0.11800052283E+04  0.72291065953E+03  0.15096474395E+04  0.10100000352E+00 0.  1.
</event>
<event>
 5   0  0.6679022E-08  0.3001386E+04  0.7818609E-02  0.8243335E-01
       -1   -1    0    0    0  501  0.00000000000E+00  0.00000000000E+00  0.10039016233E+04  0.10039016233E+04  0.50400001928E-02 0.  1.
        1   -1    0    0  501    0  0.00000000000E+00  0.00000000000E+00 -0.22433263206E+04  0.22433263206E+04  0.50400001928E-02 0. -1.
    10030    2    1    2    0    0  0.00000000000E+00  0.00000000000E+00 -0.12394246973E+04  0.32472279439E+04  0.30013856366E+04 0.  0.
        3    1    3    3  502    0 -0.11918740305E+04 -0.87023015982E+03 -0.91445019908E+03  0.17361115783E+04  0.10100000352E+00 0. -1.
       -3    1    3    3    0  502  0.11918740305E+04  0.87023015982E+03 -0.32497449827E+03  0.15111163656E+04  0.10100000352E+00 0.  1.
</event>
<event>
 5   0  0.1821305E-07  0.2999286E+04  0.7818609E-02  0.8243935E-01
       -2   -1    0    0    0  501  0.00000000000E+00  0.00000000000E+00  0.13110409679E+04  0.13110409679E+04  0.25500000920E-02 0. -1.
        2   -1    0    0  501    0  0.00000000000E+00  0.00000000000E+00 -0.17153769469E+04  0.17153769469E+04  0.25500000920E-02 0.  1.
    10030    2    1    2    0    0  0.00000000000E+00  0.00000000000E+00 -0.40433597900E+03  0.30264179147E+04  0.29992862169E+04 0.  0.
        2    1    3    3  502    0  0.76327271108E+03  0.80100935980E+03 -0.12236138129E+04  0.16496763286E+04  0.25500000920E-02 0.  1.
       -2    1    3    3    0  502 -0.76327271108E+03 -0.80100935980E+03  0.81927783389E+03  0.13767415862E+04  0.25500000920E-02 0. -1.
</event>
<event>
 5   0  0.1810055E-07  0.2999755E+04  0.7818609E-02  0.8243801E-01
       -2   -1    0    0    0  501  0.00000000000E+00  0.00000000000E+00  0.10437532116E+04  0.10437532116E+04  0.25500000920E-02 0. -1.
        2   -1    0    0  501    0  0.00000000000E+00  0.00000000000E+00 -0.21553294256E+04  0.21553294256E+04  0.25500000920E-02 0.  1.
    10030    2    1    2    0    0  0.00000000000E+00  0.00000000000E+00 -0.11115762140E+04  0.31990826372E+04  0.29997546633E+04 0.  0.
        4    1    3    3  502    0 -0.12033564466E+04  0.11800291702E+03  0.39067419318E+03  0.12706767347E+04  0.12699999809E+01 0. -1.
       -4    1    3    3    0  502  0.12033564466E+04 -0.11800291702E+03 -0.15022504072E+04  0.19284059025E+04  0.12699999809E+01 0.  1.
</event>
<event>
 5   0  0.1810055E-07  0.2999846E+04  0.7818609E-02  0.8243775E-01
        2   -1    0    0  501    0  0.00000000000E+00  0.00000000000E+00  0.14250725457E+04  0.14250725457E+04  0.25500000920E-02 0. -1.
       -2   -1    0    0    0  501  0.00000000000E+00  0.00000000000E+00 -0.15787049206E+04  0.15787049206E+04  0.25500000920E-02 0.  1.
    10030    2    1    2    0    0  0.00000000000E+00  0.00000000000E+00 -0.15363237492E+03  0.30037774662E+04  0.29998460227E+04 0.  0.
        4    1    3    3  502    0 -0.11876578405E+04  0.74196929294E+03 -0.61484509249E+03  0.15294069695E+04  0.12699999809E+01 0.  1.
       -4    1    3    3    0  502  0.11876578405E+04 -0.74196929294E+03  0.46121271758E+03  0.14743704967E+04  0.12699999809E+01 0. -1.
</event>
<event>
 5   0  0.6525507E-08  0.2999845E+04  0.7818609E-02  0.8243775E-01
        1   -1    0    0  501    0  0.00000000000E+00  0.00000000000E+00  0.25322671521E+04  0.25322671521E+04  0.50400001928E-02 0.  1.
       -1   -1    0    0    0  501  0.00000000000E+00  0.00000000000E+00 -0.88843983110E+03  0.88843983112E+03  0.50400001928E-02 0. -1.
    10030    2    1    2    0    0  0.00000000000E+00  0.00000000000E+00  0.16438273210E+04  0.34207069832E+04  0.29998446633E+04 0.  0.
        4    1    3    3  502    0  0.66628627401E+03  0.12182373599E+04  0.14686987521E+04  0.20211673116E+04  0.12699999809E+01 0.  1.
       -4    1    3    3    0  502 -0.66628627401E+03 -0.12182373599E+04  0.17512856884E+03  0.13995396716E+04  0.12699999809E+01 0. -1.
</event>
<event>
 5   0  0.6679022E-08  0.3000102E+04  0.7818609E-02  0.8243702E-01
        1   -1    0    0  501    0  0.00000000000E+00  0.00000000000E+00  0.11588693206E+04  0.11588693207E+04  0.50400001928E-02 0. -1.
       -1   -1    0    0    0  501  0.00000000000E+00  0.00000000000E+00 -0.19416792384E+04  0.19416792384E+04  0.50400001928E-02 0.  1.
    10030    2    1    2    0    0  0.00000000000E+00  0.00000000000E+00 -0.78280991776E+03  0.31005485591E+04  0.30001016649E+04 0.  0.
        3    1    3    3  502    0 -0.51410631927E+03 -0.32058244807E+03  0.10267910791E+04  0.11922157287E+04  0.10100000352E+00 0. -1.
       -3    1    3    3    0  502  0.51410631927E+03  0.32058244807E+03 -0.18096009968E+04  0.19083328304E+04  0.10100000352E+00 0.  1.
</event>
<event>
 5   0  0.6374748E-08  0.2997356E+04  0.7818609E-02  0.8244486E-01
       -1   -1    0    0    0  501  0.00000000000E+00  0.00000000000E+00  0.16071351521E+04  0.16071351521E+04  0.50400001928E-02 0.  1.
        1   -1    0    0  501    0  0.00000000000E+00  0.00000000000E+00 -0.13975404528E+04  0.13975404528E+04  0.50400001928E-02 0. -1.
    10030    2    1    2    0    0  0.00000000000E+00  0.00000000000E+00  0.20959469930E+03  0.30046756049E+04  0.29973564273E+04 0.  0.
        1    1    3    3  502    0 -0.42637906514E+03 -0.21375473809E+02 -0.13352969785E+04  0.14018823199E+04  0.50400001928E-02 0. -1.
       -1    1    3    3    0  502  0.42637906514E+03  0.21375473809E+02  0.15448916778E+04  0.16027932849E+04  0.50400001928E-02 0.  1.
</event>
<event>
 5   0  0.6525507E-08  0.3000956E+04  0.7818609E-02  0.8243458E-01
       -1   -1    0    0    0  501  0.00000000000E+00  0.00000000000E+00  0.12026921057E+04  0.12026921057E+04  0.50400001928E-02 0. -1.
        1   -1    0    0  501    0  0.00000000000E+00  0.00000000000E+00 -0.18719956846E+04  0.18719956846E+04  0.50400001928E-02 0.  1.
    10030    2    1    2    0    0  0.00000000000E+00  0.00000000000E+00 -0.66930357893E+03  0.30746877903E+04  0.30009561355E+04 0.  0.
        4    1    3    3  502    0 -0.58217626987E+03 -0.19218170092E+03  0.10685107826E+04  0.12319009379E+04  0.12699999809E+01 0. -1.
       -4    1    3    3    0  502  0.58217626987E+03  0.19218170092E+03 -0.17378143615E+04  0.18427868524E+04  0.12699999809E+01 0.  1.
</event>
<event>
 5   0  0.6374748E-08  0.3002366E+04  0.7818609E-02  0.8243056E-01
       -1   -1    0    0    0  501  0.00000000000E+00  0.00000000000E+00  0.16383966418E+04  0.16383966418E+04  0.50400001928E-02 0.  1.
        1   -1    0    0  501    0  0.00000000000E+00  0.00000000000E+00 -0.13754609675E+04  0.13754609675E+04  0.50400001928E-02 0. -1.
    10030    2    1    2    0    0  0.00000000000E+00  0.00000000000E+00  0.26293567433E+03  0.30138576093E+04  0.30023661536E+04 0.  0.
        1    1    3    3  502    0 -0.10336709970E+04  0.69406526525E+03 -0.71040073643E+03  0.14334823085E+04  0.50400001928E-02 0. -1.
       -1    1    3    3    0  502  0.10336709970E+04 -0.69406526525E+03  0.97333641076E+03  0.15803753007E+04  0.50400001928E-02 0.  1.
</event>
<event>
 5   0  0.1821305E-07  0.3000186E+04  0.7818609E-02  0.8243678E-01
        2   -1    0    0  501    0  0.00000000000E+00  0.00000000000E+00  0.20352345787E+04  0.20352345787E+04  0.25500000920E-02 0. -1.
       -2   -1    0    0    0  501  0.00000000000E+00  0.00000000000E+00 -0.11056610128E+04  0.11056610128E+04  0.25500000920E-02 0.  1.
    10030    2    1    2    0    0  0.00000000000E+00  0.00000000000E+00  0.92957356589E+03  0.31408955915E+04  0.30001863446E+04 0.  0.
        2    1    3    3  502    0 -0.66276971790E+03  0.11270454260E+04 -0.30508315463E+03  0.13425985336E+04  0.25500000920E-02 0.  1.
       -2    1    3    3    0  502  0.66276971790E+03 -0.11270454260E+04  0.12346567205E+04  0.17982970580E+04  0.25500000920E-02 0. -1.
</event>
<event>
 5   0  0.6525507E-08  0.2994716E+04  0.7818609E-02  0.8245241E-01
       -1   -1    0    0    0  501  0.00000000000E+00  0.00000000000E+00  0.22023399816E+04  0.22023399816E+04  0.50400001928E-02 0. -1.
        1   -1    0    0  501    0  0.00000000000E+00  0.00000000000E+00 -0.10180450445E+04  0.10180450445E+04  0.50400001928E-02 0.  1.
    10030    2    1    2    0    0  0.00000000000E+00  0.00000000000E+00  0.11842949371E+04  0.32203850261E+04  0.29947162167E+04 0.  0.
        4    1    3    3  502    0  0.10827145608E+04  0.77347087928E+03  0.13305901116E+04  0.18817544153E+04  0.12699999809E+01 0. -1.
       -4    1    3    3    0  502 -0.10827145608E+04 -0.77347087928E+03 -0.14629517449E+03  0.13386306108E+04  0.12699999809E+01 0.  1.
</event>
<event>
 5   0  0.1821305E-07  0.3000221E+04  0.7818609E-02  0.8243668E-01
        2   -1    0    0  501    0  0.00000000000E+00  0.00000000000E+00  0.22944664164E+04  0.22944664164E+04  0.25500000920E-02 0.  1.
       -2   -1    0    0    0  501  0.00000000000E+00  0.00000000000E+00 -0.98076490717E+03  0.98076490718E+03  0.25500000920E-02 0. -1.
    10030    2    1    2    0    0  0.00000000000E+00  0.00000000000E+00  0.13137015092E+04  0.32752313235E+04  0.30002214197E+04 0.  0.
        2    1    3    3  502    0 -0.54662576525E+03 -0.12888224646E+04  0.12452046297E+04  0.18736055194E+04  0.25500000920E-02 0.  1.
       -2    1    3    3    0  502  0.54662576525E+03  0.12888224646E+04  0.68496879531E+02  0.14016258042E+04  0.25500000920E-02 0. -1.
</event>
<event>
 5   0  0.6374748E-08  0.3000924E+04  0.7818609E-02  0.8243467E-01
       -1   -1    0    0    0  501  0.00000000000E+00  0.00000000000E+00  0.13647824469E+04  0.13647824470E+04  0.50400001928E-02 0. -1.
        1   -1    0    0  501    0  0.00000000000E+00  0.00000000000E+00 -0.16496305829E+04  0.16496305829E+04  0.50400001928E-02 0.  1.
    10030    2    1    2    0    0  0.00000000000E+00  0.00000000000E+00 -0.28484813592E+03  0.30144130298E+04  0.30009244332E+04 0.  0.
        1    1    3    3  502    0  0.91772329795E+03 -0.98862911758E+03  0.51763166763E+03  0.14448342905E+04  0.50400001928E-02 0. -1.
       -1    1    3    3    0  502 -0.91772329795E+03  0.98862911758E+03 -0.80247980355E+03  0.15695787393E+04  0.50400001928E-02 0.  1.
</event>
<event>
 5   0  0.6679022E-08  0.3001263E+04  0.7818609E-02  0.8243370E-01
       -1   -1    0    0    0  501  0.00000000000E+00  0.00000000000E+00  0.11512062066E+04  0.11512062066E+04  0.50400001928E-02 0.  1.
        1   -1    0    0  501    0  0.00000000000E+00  0.00000000000E+00 -0.19561177108E+04  0.19561177109E+04  0.50400001928E-02 0. -1.
    10030    2    1    2    0    0  0.00000000000E+00  0.00000000000E+00 -0.80491150429E+03  0.31073239174E+04  0.30012629672E+04 0.  0.
        3    1    3    3  502    0 -0.65544789383E+03 -0.83659031586E+03 -0.14993284298E+04  0.18377924390E+04  0.10100000352E+00 0. -1.
       -3    1    3    3    0  502  0.65544789383E+03  0.83659031586E+03  0.69441692553E+03  0.12695314784E+04  0.10100000352E+00 0.  1.
</event>
<event>
 5   0  0.1821305E-07  0.3000359E+04  0.7818609E-02  0.8243628E-01
       -2   -1    0    0    0  501  0.00000000000E+00  0.00000000000E+00  0.81138304891E+03  0.81138304891E+03  0.25500000920E-02 0.  1.
        2   -1    0    0  501    0  0.00000000000E+00  0.00000000000E+00 -0.27737065676E+04  0.27737065676E+04  0.25500000920E-02 0. -1.
    10030    2    1    2    0    0  0.00000000000E+00  0.00000000000E+00 -0.19623235187E+04  0.35850896165E+04  0.30003589729E+04 0.  0.
        2    1    3    3  502    0 -0.10963898989E+04  0.99679657159E+03 -0.12610416044E+04  0.19457389710E+04  0.25500000920E-02 0.  1.
       -2    1    3    3    0  502  0.10963898989E+04 -0.99679657159E+03 -0.70128191435E+03  0.16393506455E+04  0.25500000920E-02 0. -1.
</event>
<event>
 5   0  0.1817566E-07  0.2994626E+04  0.7818609E-02  0.8245267E-01
       -2   -1    0    0    0  501  0.00000000000E+00  0.00000000000E+00  0.19398026946E+04  0.19398026946E+04  0.25500000920E-02 0.  1.
        2   -1    0    0  501    0  0.00000000000E+00  0.00000000000E+00 -0.11557598557E+04  0.11557598557E+04  0.25500000920E-02 0. -1.
    10030    2    1    2    0    0  0.00000000000E+00  0.00000000000E+00  0.78404283895E+03  0.30955625503E+04  0.29946259081E+04 0.  0.
        1    1    3    3  502    0  0.17209384485E+03 -0.13572374842E+04 -0.23695801793E+03  0.13884736160E+04  0.50400001928E-02 0. -1.
       -1    1    3    3    0  502 -0.17209384485E+03  0.13572374842E+04  0.10210008569E+04  0.17070889343E+04  0.50400001928E-02 0.  1.
</event>
<event>
 5   0  0.1914439E-07  0.3000750E+04  0.7818609E-02  0.8243517E-01
        2   -1    0    0  501    0  0.00000000000E+00  0.00000000000E+00  0.29041973391E+04  0.29041973391E+04  0.25500000920E-02 0. -1.
       -2   -1    0    0    0  501  0.00000000000E+00  0.00000000000E+00 -0.77512803921E+03  0.77512803922E+03  0.25500000920E-02 0.  1.
    10030    2    1    2    0    0  0.00000000000E+00  0.00000000000E+00  0.21290692999E+04  0.36793253784E+04  0.30007497656E+04 0.  0.
        5    1    3    3  502    0  0.45977376245E+03  0.30801663602E+03  0.27744710908E+04  0.28291302699E+04  0.46999998093E+01 0. -1.
       -5    1    3    3    0  502 -0.45977376245E+03 -0.30801663602E+03 -0.64540179087E+03  0.85019510841E+03  0.46999998093E+01 0.  1.
</event>
<event>
 5   0  0.6525507E-08  0.3000469E+04  0.7818609E-02  0.8243597E-01
       -1   -1    0    0    0  501  0.00000000000E+00  0.00000000000E+00  0.13735061930E+04  0.13735061931E+04  0.50400001928E-02 0.  1.
        1   -1    0    0  501    0  0.00000000000E+00  0.00000000000E+00 -0.16386551017E+04  0.16386551017E+04  0.50400001928E-02 0. -1.
    10030    2    1    2    0    0  0.00000000000E+00  0.00000000000E+00 -0.26514890868E+03  0.30121612948E+04  0.30004685838E+04 0.  0.
        4    1    3    3  502    0  0.67408114716E+03 -0.54678419140E+03  0.10958537642E+04  0.13979468625E+04  0.12699999809E+01 0.  1.
       -4    1    3    3    0  502 -0.67408114716E+03  0.54678419140E+03 -0.13610026729E+04  0.16142144323E+04  0.12699999809E+01 0. -1.
</event>
<event>
 5   0  0.6374748E-08  0.3000237E+04  0.7818609E-02  0.8243663E-01
       -1   -1    0    0    0  501  0.00000000000E+00  0.00000000000E+00  0.13717486075E+04  0.13717486075E+04  0.50400001928E-02 0.  1.
        1   -1    0    0  501    0  0.00000000000E+00  0.00000000000E+00 -0.16405015969E+04  0.16405015969E+04  0.50400001928E-02 0. -1.
    10030    2    1    2    0    0  0.00000000000E+00  0.00000000000E+00 -0.26875298940E+03  0.30122502044E+04  0.30002371780E+04 0.  0.
        1    1    3    3  502    0 -0.89613260307E+03  0.11357538230E+04 -0.53265793460E+03  0.15416597757E+04  0.50400001928E-02 0. -1.
       -1    1    3    3    0  502  0.89613260307E+03 -0.11357538230E+04  0.26390494520E+03  0.14705904287E+04  0.50400001928E-02 0.  1.
</event>
<event>
 5   0  0.6679022E-08  0.2998222E+04  0.7818609E-02  0.8244239E-01
        1   -1    0    0  501    0  0.00000000000E+00  0.00000000000E+00  0.13218973915E+04  0.13218973915E+04  0.50400001928E-02 0. -1.
       -1   -1    0    0    0  501  0.00000000000E+00  0.00000000000E+00 -0.17000821939E+04  0.17000821940E+04  0.50400001928E-02 0.  1.
    10030    2    1    2    0    0  0.00000000000E+00  0.00000000000E+00 -0.37818480242E+03  0.30219795855E+04  0.29982222850E+04 0.  0.
        3    1    3    3  502    0 -0.98849362738E+03  0.30754802269E+03  0.90376324684E+03  0.13742246738E+04  0.10100000352E+00 0. -1.
       -3    1    3    3    0  502  0.98849362738E+03 -0.30754802269E+03 -0.12819480493E+04  0.16477549116E+04  0.10100000352E+00 0.  1.
</event>
<event>
 5   0  0.1813720E-07  0.3000160E+04  0.7818609E-02  0.8243685E-01
       -2   -1    0    0    0  501  0.00000000000E+00  0.00000000000E+00  0.10469247863E+04  0.10469247863E+04  0.25500000920E-02 0.  1.
        2   -1    0    0  501    0  0.00000000000E+00  0.00000000000E+00 -0.21493804710E+04  0.21493804710E+04  0.25500000920E-02 0. -1.
    10030    2    1    2    0    0  0.00000000000E+00  0.00000000000E+00 -0.11024556847E+04  0.31963052573E+04  0.30001597893E+04 0.  0.
        3    1    3    3  502    0 -0.10492996937E+04 -0.32485134491E+03  0.53717042727E+03  0.12227470391E+04  0.10100000352E+00 0.  1.
       -3    1    3    3    0  502  0.10492996937E+04  0.32485134491E+03 -0.16396261119E+04  0.19735582182E+04  0.10100000352E+00 0. -1.
</event>
<event>
 5   0  0.1821305E-07  0.3001780E+04  0.7818609E-02  0.8243223E-01
        2   -1    0    0  501    0  0.00000000000E+00  0.00000000000E+00  0.16713394980E+04  0.16713394980E+04  0.25500000920E-02 0. -1.
       -2   -1    0    0    0  501  0.00000000000E+00  0.00000000000E+00 -0.13478237993E+04  0.13478237993E+04  0.25500000920E-02 0.  1.
    10030    2    1    2    0    0  0.00000000000E+00  0.00000000000E+00  0.32351569865E+03  0.30191632973E+04  0.30017802399E+04 0.  0.
        2    1    3    3  502    0  0.13878193371E+03  0.28954545785E+03  0.16363907688E+04  0.16675945987E+04  0.25500000920E-02 0. -1.
       -2    1    3    3    0  502 -0.13878193371E+03 -0.28954545785E+03 -0.13128750702E+04  0.13515686986E+04  0.25500000920E-02 0.  1.
</event>
<event>
 5   0  0.6636007E-08  0.2999566E+04  0.7818609E-02  0.8243855E-01
       -1   -1    0    0    0  501  0.00000000000E+00  0.00000000000E+00  0.10228765367E+04  0.10228765367E+04  0.50400001928E-02 0.  1.
        1   -1    0    0  501    0  0.00000000000E+00  0.00000000000E+00 -0.21990418664E+04  0.21990418664E+04  0.50400001928E-02 0. -1.
    10030    2    1    2    0    0  0.00000000000E+00  0.00000000000E+00 -0.11761653297E+04  0.32219184031E+04  0.29995655207E+04 0.  0.
        2    1    3    3  502    0 -0.53658770622E+02  0.53818596563E+03  0.91447853862E+03  0.10624473610E+04  0.25500000920E-02 0.  1.
       -2    1    3    3    0  502  0.53658770622E+02 -0.53818596563E+03 -0.20906438684E+04  0.21594710421E+04  0.25500000920E-02 0. -1.
</event>
<event>
 5   0  0.6636007E-08  0.2999957E+04  0.7818609E-02  0.8243743E-01
       -1   -1    0    0    0  501  0.00000000000E+00  0.00000000000E+00  0.12504933608E+04  0.12504933608E+04  0.50400001928E-02 0.  1.
        1   -1    0    0  501    0  0.00000000000E+00  0.00000000000E+00 -0.17992387038E+04  0.17992387038E+04  0.50400001928E-02 0. -1.
    10030    2    1    2    0    0  0.00000000000E+00  0.00000000000E+00 -0.54874534303E+03  0.30497320646E+04  0.29999573687E+04 0.  0.
        2    1    3    3  502    0  0.17138301938E+03  0.12346748209E+04 -0.11225673069E+04  0.16774836545E+04  0.25500000920E-02 0. -1.
       -2    1    3    3    0  502 -0.17138301938E+03 -0.12346748209E+04  0.57382196388E+03  0.13722484100E+04  0.25500000920E-02 0.  1.
</event>
<event>
 5   0  0.1810055E-07  0.2999648E+04  0.7818609E-02  0.8243831E-01
       -2   -1    0    0    0  501  0.00000000000E+00  0.00000000000E+00  0.13366017596E+04  0.13366017596E+04  0.25500000920E-02 0.  1.
        2   -1    0    0  501    0  0.00000000000E+00  0.00000000000E+00 -0.16829783516E+04  0.16829783516E+04  0.25500000920E-02 0. -1.
    10030    2    1    2    0    0  0.00000000000E+00  0.00000000000E+00 -0.34637659197E+03  0.30195801112E+04  0.29996478634E+04 0.  0.
        4    1    3    3  502    0  0.26766835278E+03  0.79116310430E+03  0.10808362067E+04  0.13659406734E+04  0.12699999809E+01 0.  1.
       -4    1    3    3    0  502 -0.26766835278E+03 -0.79116310430E+03 -0.14272127986E+04  0.16536394378E+04  0.12699999809E+01 0. -1.
</event>
<event>
 5   0  0.6679022E-08  0.3000403E+04  0.7818609E-02  0.8243616E-01
       -1   -1    0    0    0  501  0.00000000000E+00  0.00000000000E+00  0.82985469707E+03  0.82985469708E+03  0.50400001928E-02 0.  1.
        1   -1    0    0  501    0  0.00000000000E+00  0.00000000000E+00 -0.27120460778E+04  0.27120460778E+04  0.50400001928E-02 0. -1.
    10030    2    1    2    0    0  0.00000000000E+00  0.00000000000E+00 -0.18821913807E+04  0.35419007748E+04  0.30004027572E+04 0.  0.
        3    1    3    3  502    0  0.88843131664E+03 -0.79747491675E+03 -0.20135283962E+04  0.23408487905E+04  0.10100000352E+00 0. -1.
       -3    1    3    3    0  502 -0.88843131664E+03  0.79747491675E+03  0.13133701557E+03  0.12010519843E+04  0.10100000352E+00 0.  1.
</event>
<event>
 5   0  0.1817566E-07  0.3001004E+04  0.7818609E-02  0.8243444E-01
        2   -1    0    0  501    0  0.00000000000E+00  0.00000000000E+00  0.21047724061E+04  0.21047724061E+04  0.25500000920E-02 0. -1.
       -2   -1    0    0    0  501  0.00000000000E+00  0.00000000000E+00 -0.10697147449E+04  0.10697147449E+04  0.25500000920E-02 0.  1.
    10030    2    1    2    0    0  0.00000000000E+00  0.00000000000E+00  0.10350576612E+04  0.31744871510E+04  0.30010038837E+04 0.  0.
        1    1    3    3  502    0  0.77260172096E+03 -0.85140809535E+03  0.15374760790E+04  0.19198025569E+04  0.50400001928E-02 0. -1.
       -1    1    3    3    0  502 -0.77260172096E+03  0.85140809535E+03 -0.50241841783E+03  0.12546845941E+04  0.50400001928E-02 0.  1.
</event>
<event>
 5   0  0.6636007E-08  0.2999977E+04  0.7818609E-02  0.8243737E-01
       -1   -1    0    0    0  501  0.00000000000E+00  0.00000000000E+00  0.13974758625E+04  0.13974758625E+04  0.50400001928E-02 0.  1.
        1   -1    0    0  501    0  0.00000000000E+00  0.00000000000E+00 -0.16100213670E+04  0.16100213670E+04  0.50400001928E-02 0. -1.
    10030    2    1    2    0    0  0.00000000000E+00  0.00000000000E+00 -0.21254550455E+03  0.30074972295E+04  0.29999773323E+04 0.  0.
        2    1    3    3  502    0 -0.11060464012E+04  0.74932344814E+03 -0.78999531735E+03  0.15520685787E+04  0.25500000920E-02 0. -1.
       -2    1    3    3    0  502  0.11060464012E+04 -0.74932344814E+03  0.57744981280E+03  0.14554286509E+04  0.25500000920E-02 0.  1.
</event>
<event>
 5   0  0.6525507E-08  0.3004095E+04  0.7818609E-02  0.8242562E-01
        1   -1    0    0  501    0  0.00000000000E+00  0.00000000000E+00  0.22704879938E+04  0.22704879938E+04  0.50400001928E-02 0. -1.
       -1   -1    0    0    0  501  0.00000000000E+00  0.00000000000E+00 -0.99368393419E+03  0.99368393420E+03  0.50400001928E-02 0.  1.
    10030    2    1    2    0    0  0.00000000000E+00  0.00000000000E+00  0.12768040596E+04  0.32641719280E+04  0.30040954993E+04 0.  0.
        4    1    3    3  502    0  0.19272123370E+03 -0.14889555024E+04  0.58961658713E+03  0.16130031912E+04  0.12699999809E+01 0.  1.
       -4    1    3    3    0  502 -0.19272123370E+03  0.14889555024E+04  0.68718747246E+03  0.16511687368E+04  0.12699999809E+01 0. -1.
</event>
<event>
 5   0  0.1810055E-07  0.3001990E+04  0.7818609E-02  0.8243163E-01
       -2   -1    0    0    0  501  0.00000000000E+00  0.00000000000E+00  0.10768140366E+04  0.10768140366E+04  0.25500000920E-02 0.  1.
        2   -1    0    0  501    0  0.00000000000E+00  0.00000000000E+00 -0.20922702862E+04  0.20922702862E+04  0.25500000920E-02 0. -1.
    10030    2    1    2    0    0  0.00000000000E+00  0.00000000000E+00 -0.10154562496E+04  0.31690843228E+04  0.30019900150E+04 0.  0.
        4    1    3    3  502    0  0.14806049736E+04  0.24163024156E+03 -0.55953235712E+03  0.16011415718E+04  0.12699999809E+01 0. -1.
       -4    1    3    3    0  502 -0.14806049736E+04 -0.24163024156E+03 -0.45592389247E+03  0.15679427509E+04  0.12699999809E+01 0.  1.
</event>
<event>
 5   0  0.1821305E-07  0.2999569E+04  0.7818609E-02  0.8243854E-01
       -2   -1    0    0    0  501  0.00000000000E+00  0.00000000000E+00  0.12253405342E+04  0.12253405342E+04  0.25500000920E-02 0.  1.
        2   -1    0    0  501    0  0.00000000000E+00  0.00000000000E+00 -0.18356965913E+04  0.18356965913E+04  0.25500000920E-02 0. -1.
    10030    2    1    2    0    0  0.00000000000E+00  0.00000000000E+00 -0.61035605719E+03  0.30610371255E+04  0.29995689302E+04 0.  0.
        2    1    3    3  502    0  0.13330366008E+04  0.35248607965E+03 -0.90728617593E+03  0.16505760269E+04  0.25500000920E-02 0. -1.
       -2    1    3    3    0  502 -0.13330366008E+04 -0.35248607965E+03  0.29693011875E+03  0.14104610986E+04  0.25500000920E-02 0.  1.
</event>
<event>
 5   0  0.6464436E-08  0.2999825E+04  0.7818609E-02  0.8243781E-01
       -1   -1    0    0    0  501  0.00000000000E+00  0.00000000000E+00  0.12201659179E+04  0.12201659179E+04  0.50400001928E-02 0. -1.
        1   -1    0    0  501    0  0.00000000000E+00  0.00000000000E+00 -0.18437958365E+04  0.18437958365E+04  0.50400001928E-02 0.  1.
    10030    2    1    2    0    0  0.00000000000E+00  0.00000000000E+00 -0.62362991853E+03  0.30639617544E+04  0.29998245544E+04 0.  0.
        5    1    3    3  502    0  0.79093557846E+03 -0.10532998848E+04  0.42094623932E+03  0.13828367810E+04  0.46999998093E+01 0. -1.
       -5    1    3    3    0  502 -0.79093557846E+03  0.10532998848E+04 -0.10445761579E+04  0.16811249734E+04  0.46999998093E+01 0.  1.
</event>
<event>
 5   0  0.1914439E-07  0.3000598E+04  0.7818609E-02  0.8243560E-01
        2   -1    0    0  501    0  0.00000000000E+00  0.00000000000E+00  0.15222993372E+04  0.15222993372E+04  0.25500000920E-02 0.  1.
       -2   -1    0    0    0  501  0.00000000000E+00  0.00000000000E+00 -0.14786164850E+04  0.14786164850E+04  0.25500000920E-02 0. -1.
    10030    2    1    2    0    0  0.00000000000E+00  0.00000000000E+00  0.43682852230E+02  0.30009158223E+04  0.30005978705E+04 0.  0.
        5    1    3    3  502    0 -0.99289461120E+03  0.56768209006E+03 -0.94922600150E+03  0.14863225613E+04  0.46999998093E+01 0. -1.
       -5    1    3    3    0  502  0.99289461120E+03 -0.56768209006E+03  0.99290885373E+03  0.15145932610E+04  0.46999998093E+01 0.  1.
</event>
<event>
 5   0  0.1821305E-07  0.3000156E+04  0.7818609E-02  0.8243686E-01
       -2   -1    0    0    0  501  0.00000000000E+00  0.00000000000E+00  0.83205711967E+03  0.83205711967E+03  0.25500000920E-02 0.  1.
        2   -1    0    0  501    0  0.00000000000E+00  0.00000000000E+00 -0.27044220692E+04  0.27044220692E+04  0.25500000920E-02 0. -1.
    10030    2    1    2    0    0  0.00000000000E+00  0.00000000000E+00 -0.18723649495E+04  0.35364791889E+04  0.30001557541E+04 0.  0.
        2    1    3    3  502    0 -0.62460952548E+03 -0.13470853002E+04 -0.68485997137E+03  0.16351785975E+04  0.25500000920E-02 0.  1.
       -2    1    3    3    0  502  0.62460952548E+03  0.13470853002E+04 -0.11875049781E+04  0.19013005913E+04  0.25500000920E-02 0. -1.
</event>
<event>
 5   0  0.6017625E-08  0.3001749E+04  0.7818609E-02  0.8243232E-01
       -4   -1    0    0    0  501  0.00000000000E+00  0.00000000000E+00  0.12722924811E+04  0.12722931150E+04  0.12699999809E+01 0. -1.
        4   -1    0    0  501    0  0.00000000000E+00  0.00000000000E+00 -0.17705224188E+04  0.17705228743E+04  0.12699999809E+01 0.  1.
    10030    2    1    2    0    0  0.00000000000E+00  0.00000000000E+00 -0.49822993767E+03  0.30428159893E+04  0.30017488359E+04 0.  0.
        4    1    3    3  502    0  0.13412634497E+04 -0.23287439071E+03  0.39151565790E+03  0.14165112942E+04  0.12699999809E+01 0. -1.
       -4    1    3    3    0  502 -0.13412634497E+04  0.23287439071E+03 -0.88974559557E+03  0.16263046951E+04  0.12699999809E+01 0.  1.
</event>
<event>
 5   0  0.6679022E-08  0.2999992E+04  0.7818609E-02  0.8243733E-01
       -1   -1    0    0    0  501  0.00000000000E+00  0.00000000000E+00  0.14633520624E+04  0.14633520624E+04  0.50400001928E-02 0. -1.
        1   -1    0    0  501    0  0.00000000000E+00  0.00000000000E+00 -0.15375576774E+04  0.15375576774E+04  0.50400001928E-02 0.  1.
    10030    2    1    2    0    0  0.00000000000E+00  0.00000000000E+00 -0.74205615008E+02  0.30009097397E+04  0.29999921321E+04 0.  0.
        3    1    3    3  502    0 -0.90869156717E+03  0.64469942963E+03  0.96751034351E+03  0.14756130908E+04  0.10100000352E+00 0. -1.
       -3    1    3    3    0  502  0.90869156717E+03 -0.64469942963E+03 -0.10417159585E+04  0.15252966489E+04  0.10100000352E+00 0.  1.
</event>
<event>
 5   0  0.1817566E-07  0.3000738E+04  0.7818609E-02  0.8243520E-01
        2   -1    0    0  501    0  0.00000000000E+00  0.00000000000E+00  0.17981531199E+04  0.17981531199E+04  0.25500000920E-02 0. -1.
       -2   -1    0    0    0  501  0.00000000000E+00  0.00000000000E+00 -0.12518996570E+04  0.12518996570E+04  0.25500000920E-02 0.  1.
    10030    2    1    2    0    0  0.00000000000E+00  0.00000000000E+00  0.54625346295E+03  0.30500527769E+04  0.30007380919E+04 0.  0.
        1    1    3    3  502    0 -0.41670054298E+03  0.13318765433E+04  0.83315596093E+03  0.16253256057E+04  0.50400001928E-02 0. -1.
       -1    1    3    3    0  502  0.41670054298E+03 -0.13318765433E+04 -0.28690249799E+03  0.14247271712E+04  0.50400001928E-02 0.  1.
</event>
<event>
 5   0  0.6679022E-08  0.3000538E+04  0.7818609E-02  0.8243577E-01
       -1   -1    0    0    0  501  0.00000000000E+00  0.00000000000E+00  0.16119617498E+04  0.16119617498E+04  0.50400001928E-02 0. -1.
        1   -1    0    0  501    0  0.00000000000E+00  0.00000000000E+00 -0.13963155811E+04  0.13963155811E+04  0.50400001928E-02 0.  1.
    10030    2    1    2    0    0  0.00000000000E+00  0.00000000000E+00  0.21564616869E+03  0.30082773309E+04  0.30005381566E+04 0.  0.
        3    1    3    3  502    0 -0.98695698187E+03 -0.84060053191E+03  0.86482949000E+03  0.15584041181E+04  0.10100000352E+00 0. -1.
       -3    1    3    3    0  502  0.98695698187E+03  0.84060053191E+03 -0.64918332130E+03  0.14498732128E+04  0.10100000352E+00 0.  1.
</event>
<event>
 5   0  0.1821305E-07  0.2998805E+04  0.7818609E-02  0.8244072E-01
        2   -1    0    0  501    0  0.00000000000E+00  0.00000000000E+00  0.20873587669E+04  0.20873587669E+04  0.25500000920E-02 0. -1.
       -2   -1    0    0    0  501  0.00000000000E+00  0.00000000000E+00 -0.10770586410E+04  0.10770586410E+04  0.25500000920E-02 0.  1.
    10030    2    1    2    0    0  0.00000000000E+00  0.00000000000E+00  0.10103001259E+04  0.31644174079E+04  0.29988049598E+04 0.  0.
        2    1    3    3  502    0  0.98217505927E+03  0.40450410793E+03  0.16218547582E+04  0.19387378051E+04  0.25500000920E-02 0. -1.
       -2    1    3    3    0  502 -0.98217505927E+03 -0.40450410793E+03 -0.61155463227E+03  0.12256796028E+04  0.25500000920E-02 0.  1.
</event>
<event>
 5   0  0.1813720E-07  0.2999550E+04  0.7818609E-02  0.8243859E-01
       -2   -1    0    0    0  501  0.00000000000E+00  0.00000000000E+00  0.88351058393E+03  0.88351058393E+03  0.25500000920E-02 0. -1.
        2   -1    0    0  501    0  0.00000000000E+00  0.00000000000E+00 -0.25458955160E+04  0.25458955160E+04  0.25500000920E-02 0.  1.
    10030    2    1    2    0    0  0.00000000000E+00  0.00000000000E+00 -0.16623849321E+04  0.34294060999E+04  0.29995503889E+04 0.  0.
        3    1    3    3  502    0 -0.18381559313E+03 -0.11616134138E+04 -0.18952614152E+04  0.22305043684E+04  0.10100000352E+00 0.  1.
       -3    1    3    3    0  502  0.18381559313E+03  0.11616134138E+04  0.23287648313E+03  0.11989017315E+04  0.10100000352E+00 0. -1.
</event>
<event>
 5   0  0.1817566E-07  0.2997662E+04  0.7818609E-02  0.8244399E-01
        2   -1    0    0  501    0  0.00000000000E+00  0.00000000000E+00  0.91631250292E+03  0.91631250293E+03  0.25500000920E-02 0.  1.
       -2   -1    0    0    0  501  0.00000000000E+00  0.00000000000E+00 -0.24516677266E+04  0.24516677266E+04  0.25500000920E-02 0. -1.
    10030    2    1    2    0    0  0.00000000000E+00  0.00000000000E+00 -0.15353552237E+04  0.33679802295E+04  0.29976616159E+04 0.  0.
        1    1    3    3  502    0 -0.39764612115E+02  0.14679287347E+03 -0.24429763143E+04  0.24477055878E+04  0.50400001928E-02 0. -1.
       -1    1    3    3    0  502  0.39764612115E+02 -0.14679287347E+03  0.90762109063E+03  0.92027464176E+03  0.50400001928E-02 0.  1.
</event>
<event>
 5   0  0.1914439E-07  0.2998712E+04  0.7818609E-02  0.8244099E-01
        2   -1    0    0  501    0  0.00000000000E+00  0.00000000000E+00  0.15393577584E+04  0.15393577584E+04  0.25500000920E-02 0. -1.
       -2   -1    0    0    0  501  0.00000000000E+00  0.00000000000E+00 -0.14603936468E+04  0.14603936468E+04  0.25500000920E-02 0.  1.
    10030    2    1    2    0    0  0.00000000000E+00  0.00000000000E+00  0.78964111623E+02  0.29997514052E+04  0.29987119171E+04 0.  0.
        5    1    3    3  502    0  0.88657873571E+03 -0.10731291790E+04  0.59682697422E+03  0.15145470004E+04  0.46999998093E+01 0. -1.
       -5    1    3    3    0  502 -0.88657873571E+03  0.10731291790E+04 -0.51786286260E+03  0.14852044047E+04  0.46999998093E+01 0.  1.
</event>
<event>
 5   0  0.6525507E-08  0.3000690E+04  0.7818609E-02  0.8243534E-01
        1   -1    0    0  501    0  0.00000000000E+00  0.00000000000E+00  0.16588363481E+04  0.16588363481E+04  0.50400001928E-02 0. -1.
       -1   -1    0    0    0  501  0.00000000000E+00  0.00000000000E+00 -0.13569962386E+04  0.13569962386E+04  0.50400001928E-02 0.  1.
    10030    2    1    2    0    0  0.00000000000E+00  0.00000000000E+00  0.30184010944E+03  0.30158325867E+04  0.30006897106E+04 0.  0.
        4    1    3    3  502    0 -0.90673758067E+03  0.46868146907E+03  0.12561045891E+04  0.16185288725E+04  0.12699999809E+01 0. -1.
       -4    1    3    3    0  502  0.90673758067E+03 -0.46868146907E+03 -0.95426447963E+03  0.13973037142E+04  0.12699999809E+01 0.  1.
</event>
<event>
 5   0  0.6464436E-08  0.2999735E+04  0.7818609E-02  0.8243806E-01
       -1   -1    0    0    0  501  0.00000000000E+00  0.00000000000E+00  0.15697617126E+04  0.15697617126E+04  0.50400001928E-02 0. -1.
        1   -1    0    0  501    0  0.00000000000E+00  0.00000000000E+00 -0.14330856234E+04  0.14330856234E+04  0.50400001928E-02 0.  1.
    10030    2    1    2    0    0  0.00000000000E+00  0.00000000000E+00  0.13667608922E+03  0.30028473360E+04  0.29997352834E+04 0.  0.
        5    1    3    3  502    0  0.30040664291E+03 -0.11055536399E+04 -0.90069921404E+03  0.14573174555E+04  0.46999998093E+01 0.  1.
       -5    1    3    3    0  502 -0.30040664291E+03  0.11055536399E+04  0.10373753033E+04  0.15455298806E+04  0.46999998093E+01 0. -1.
</event>
<event>
 5   0  0.1810055E-07  0.3004576E+04  0.7818609E-02  0.8242425E-01
        2   -1    0    0  501    0  0.00000000000E+00  0.00000000000E+00  0.20855565420E+04  0.20855565420E+04  0.25500000920E-02 0. -1.
       -2   -1    0    0    0  501  0.00000000000E+00  0.00000000000E+00 -0.10821425831E+04  0.10821425831E+04  0.25500000920E-02 0.  1.
    10030    2    1    2    0    0  0.00000000000E+00  0.00000000000E+00  0.10034139588E+04  0.31676991251E+04  0.30045762054E+04 0.  0.
        4    1    3    3  502    0 -0.74915425814E+03 -0.87204168358E+03  0.15212559825E+04  0.19068062769E+04  0.12699999809E+01 0. -1.
       -4    1    3    3    0  502  0.74915425814E+03  0.87204168358E+03 -0.51784202363E+03  0.12608928482E+04  0.12699999809E+01 0.  1.
</event>
<event>
 5   0  0.6525507E-08  0.3000105E+04  0.7818609E-02  0.8243701E-01
       -1   -1    0    0    0  501  0.00000000000E+00  0.00000000000E+00  0.11205213518E+04  0.11205213519E+04  0.50400001928E-02 0. -1.
        1   -1    0    0  501    0  0.00000000000E+00  0.00000000000E+00 -0.20081339876E+04  0.20081339877E+04  0.50400001928E-02 0.  1.
    10030    2    1    2    0    0  0.00000000000E+00  0.00000000000E+00 -0.88761263580E+03  0.31286553395E+04  0.30001046719E+04 0.  0.
        4    1    3    3  502    0 -0.51608816073E+03 -0.13953127139E+04 -0.64416043487E+03  0.16211689727E+04  0.12699999809E+01 0.  1.
       -4    1    3    3    0  502  0.51608816073E+03  0.13953127139E+04 -0.24345220093E+03  0.15074863668E+04  0.12699999809E+01 0. -1.
</event>
<event>
 5   0  0.6374748E-08  0.2986525E+04  0.7818609E-02  0.8247589E-01
       -1   -1    0    0    0  501  0.00000000000E+00  0.00000000000E+00  0.90440114143E+03  0.90440114144E+03  0.50400001928E-02 0.  1.
        1   -1    0    0  501    0  0.00000000000E+00  0.00000000000E+00 -0.24655358540E+04  0.24655358540E+04  0.50400001928E-02 0. -1.
    10030    2    1    2    0    0  0.00000000000E+00  0.00000000000E+00 -0.15611347125E+04  0.33699369954E+04  0.29865253661E+04 0.  0.
        1    1    3    3  502    0 -0.80479904742E+03  0.93981590999E+03 -0.17238813019E+04  0.21219618740E+04  0.50400001928E-02 0. -1.
       -1    1    3    3    0  502  0.80479904742E+03 -0.93981590999E+03  0.16274658938E+03  0.12479751215E+04  0.50400001928E-02 0.  1.
</event>
<event>
 5   0  0.1817566E-07  0.3000956E+04  0.7818609E-02  0.8243458E-01
        2   -1    0    0  501    0  0.00000000000E+00  0.00000000000E+00  0.25591738367E+04  0.25591738367E+04  0.25500000920E-02 0. -1.
       -2   -1    0    0    0  501  0.00000000000E+00  0.00000000000E+00 -0.87975012079E+03  0.87975012080E+03  0.25500000920E-02 0.  1.
    10030    2    1    2    0    0  0.00000000000E+00  0.00000000000E+00  0.16794237159E+04  0.34389239575E+04  0.30009555092E+04 0.  0.
        1    1    3    3  502    0 -0.37364279186E+03 -0.10483905734E+04  0.19929096404E+04  0.22826345667E+04  0.50400001928E-02 0. -1.
       -1    1    3    3    0  502  0.37364279186E+03  0.10483905734E+04 -0.31348592446E+03  0.11562893908E+04  0.50400001928E-02 0.  1.
</event>
<event>
 5   0  0.6464436E-08  0.2986794E+04  0.7818609E-02  0.8247512E-01
       -1   -1    0    0    0  501  0.00000000000E+00  0.00000000000E+00  0.13579663472E+04  0.13579663472E+04  0.50400001928E-02 0. -1.
        1   -1    0    0  501    0  0.00000000000E+00  0.00000000000E+00 -0.16423337673E+04  0.16423337673E+04  0.50400001928E-02 0.  1.
    10030    2    1    2    0    0  0.00000000000E+00  0.00000000000E+00 -0.28436742006E+03  0.30003001145E+04  0.29867935897E+04 0.  0.
        5    1    3    3  502    0  0.12024687166E+04 -0.11011127174E+03  0.74051425015E+03  0.14164882461E+04  0.46999998093E+01 0. -1.
       -5    1    3    3    0  502 -0.12024687166E+04  0.11011127174E+03 -0.10248816702E+04  0.15838118684E+04  0.46999998093E+01 0.  1.
</event>
<event>
 5   0  0.1810055E-07  0.3001095E+04  0.7818609E-02  0.8243418E-01
        2   -1    0    0  501    0  0.00000000000E+00  0.00000000000E+00  0.22279724725E+04  0.22279724725E+04  0.25500000920E-02 0. -1.
       -2   -1    0    0    0  501  0.00000000000E+00  0.00000000000E+00 -0.10106239861E+04  0.10106239861E+04  0.25500000920E-02 0.  1.
    10030    2    1    2    0    0  0.00000000000E+00  0.00000000000E+00  0.12173484864E+04  0.32385964586E+04  0.30010947476E+04 0.  0.
        4    1    3    3  502    0  0.90723188973E+03 -0.98823827219E+03 -0.11680554170E+03  0.13465993212E+04  0.12699999809E+01 0.  1.
       -4    1    3    3    0  502 -0.90723188973E+03  0.98823827219E+03  0.13341540281E+04  0.18919971374E+04  0.12699999809E+01 0. -1.
</event>
<event>
 5   0  0.1817566E-07  0.2999476E+04  0.7818609E-02  0.8243880E-01
       -2   -1    0    0    0  501  0.00000000000E+00  0.00000000000E+00  0.21160004177E+04  0.21160004177E+04  0.25500000920E-02 0.  1.
        2   -1    0    0  501    0  0.00000000000E+00  0.00000000000E+00 -0.10629556604E+04  0.10629556604E+04  0.25500000920E-02 0. -1.
    10030    2    1    2    0    0  0.00000000000E+00  0.00000000000E+00  0.10530447573E+04  0.31789560781E+04  0.29994763686E+04 0.  0.
        1    1    3    3  502    0 -0.11276830090E+04 -0.67008174775E+03  0.12970290659E+04  0.18447121497E+04  0.50400001928E-02 0.  1.
       -1    1    3    3    0  502  0.11276830090E+04  0.67008174775E+03 -0.24398430863E+03  0.13342439284E+04  0.50400001928E-02 0. -1.
</event>
<event>
 5   0  0.1813720E-07  0.2995460E+04  0.7818609E-02  0.8245029E-01
        2   -1    0    0  501    0  0.00000000000E+00  0.00000000000E+00  0.10398718460E+04  0.10398718460E+04  0.25500000920E-02 0.  1.
       -2   -1    0    0    0  501  0.00000000000E+00  0.00000000000E+00 -0.21571837132E+04  0.21571837132E+04  0.25500000920E-02 0. -1.
    10030    2    1    2    0    0  0.00000000000E+00  0.00000000000E+00 -0.11173118672E+04  0.31970555593E+04  0.29954596376E+04 0.  0.
        3    1    3    3  502    0 -0.21601623679E+03 -0.82349633204E+03 -0.18738132877E+04  0.20581509835E+04  0.10100000352E+00 0. -1.
       -3    1    3    3    0  502  0.21601623679E+03  0.82349633204E+03  0.75650142047E+03  0.11389045758E+04  0.10100000352E+00 0.  1.
</event>
<event>
 5   0  0.1821305E-07  0.2998817E+04  0.7818609E-02  0.8244069E-01
       -2   -1    0    0    0  501  0.00000000000E+00  0.00000000000E+00  0.11974688796E+04  0.11974688796E+04  0.25500000920E-02 0. -1.
        2   -1    0    0  501    0  0.00000000000E+00  0.00000000000E+00 -0.18774812439E+04  0.18774812439E+04  0.25500000920E-02 0.  1.
    10030    2    1    2    0    0  0.00000000000E+00  0.00000000000E+00 -0.68001236428E+03  0.30749501234E+04  0.29988166743E+04 0.  0.
        2    1    3    3  502    0 -0.33051990080E+03  0.14021146399E+04 -0.76656812760E+03  0.16318074526E+04  0.25500000920E-02 0.  1.
       -2    1    3    3    0  502  0.33051990080E+03 -0.14021146399E+04  0.86555763314E+02  0.14431426708E+04  0.25500000920E-02 0. -1.
</event>
<event>
 5   0  0.1817566E-07  0.2999534E+04  0.7818609E-02  0.8243864E-01
        2   -1    0    0  501    0  0.00000000000E+00  0.00000000000E+00  0.19201511571E+04  0.19201511571E+04  0.25500000920E-02 0. -1.
       -2   -1    0    0    0  501  0.00000000000E+00  0.00000000000E+00 -0.11714184435E+04  0.11714184435E+04  0.25500000920E-02 0.  1.
    10030    2    1    2    0    0  0.00000000000E+00  0.00000000000E+00  0.74873271359E+03  0.30915696006E+04  0.29995336169E+04 0.  0.
        1    1    3    3  502    0  0.12114233955E+04  0.26565313604E+03 -0.49482569911E+03  0.13352792608E+04  0.50400001928E-02 0.  1.
       -1    1    3    3    0  502 -0.12114233955E+04 -0.26565313604E+03  0.12435584127E+04  0.17562903398E+04  0.50400001928E-02 0. -1.
</event>
<event>
 5   0  0.1914439E-07  0.3000387E+04  0.7818609E-02  0.8243620E-01
       -2   -1    0    0    0  501  0.00000000000E+00  0.00000000000E+00  0.14724362866E+04  0.14724362866E+04  0.25500000920E-02 0.  1.
        2   -1    0    0  501    0  0.00000000000E+00  0.00000000000E+00 -0.15284735847E+04  0.15284735847E+04  0.25500000920E-02 0. -1.
    10030    2    1    2    0    0  0.00000000000E+00  0.00000000000E+00 -0.56037298102E+02  0.30009098713E+04  0.30003866212E+04 0.  0.
        5    1    3    3  502    0  0.38813190049E+03  0.61783465990E+03  0.12830081156E+04  0.14759735614E+04  0.46999998093E+01 0.  1.
       -5    1    3    3    0  502 -0.38813190049E+03 -0.61783465990E+03 -0.13390454137E+04  0.15249363099E+04  0.46999998093E+01 0. -1.
</event>
<event>
 5   0  0.1821305E-07  0.3003401E+04  0.7818609E-02  0.8242761E-01
       -2   -1    0    0    0  501  0.00000000000E+00  0.00000000000E+00  0.91050663484E+03  0.91050663485E+03  0.25500000920E-02 0. -1.
        2   -1    0    0  501    0  0.00000000000E+00  0.00000000000E+00 -0.24767569854E+04  0.24767569854E+04  0.25500000920E-02 0.  1.
    10030    2    1    2    0    0  0.00000000000E+00  0.00000000000E+00 -0.15662503505E+04  0.33872636202E+04  0.30034005181E+04 0.  0.
        2    1    3    3  502    0  0.12510173999E+04  0.80775153099E+03 -0.56444469555E+03  0.15925152699E+04  0.25500000920E-02 0. -1.
       -2    1    3    3    0  502 -0.12510173999E+04 -0.80775153099E+03 -0.10018056550E+04  0.17947483503E+04  0.25500000920E-02 0.  1.
</event>
<event>
 5   0  0.6679022E-08  0.3000231E+04  0.7818609E-02  0.8243665E-01
        1   -1    0    0  501    0  0.00000000000E+00  0.00000000000E+00  0.10891226493E+04  0.10891226493E+04  0.50400001928E-02 0. -1.
       -1   -1    0    0    0  501  0.00000000000E+00  0.00000000000E+00 -0.20662015506E+04  0.20662015507E+04  0.50400001928E-02 0.  1.
    10030    2    1    2    0    0  0.00000000000E+00  0.00000000000E+00 -0.97707890134E+03  0.31553242000E+04  0.30002312623E+04 0.  0.
        3    1    3    3  502    0  0.77042913434E+03  0.82772718391E+03  0.54814116539E+03  0.12566431830E+04  0.10100000352E+00 0. -1.
       -3    1    3    3    0  502 -0.77042913434E+03 -0.82772718391E+03 -0.15252200667E+04  0.18986810170E+04  0.10100000352E+00 0.  1.
</event>
<event>
 5   0  0.6374748E-08  0.3002308E+04  0.7818609E-02  0.8243072E-01
       -1   -1    0    0    0  501  0.00000000000E+00  0.00000000000E+00  0.10414082682E+04  0.10414082682E+04  0.50400001928E-02 0. -1.
        1   -1    0    0  501    0  0.00000000000E+00  0.00000000000E+00 -0.21638615622E+04  0.21638615622E+04  0.50400001928E-02 0.  1.
    10030    2    1    2    0    0  0.00000000000E+00  0.00000000000E+00 -0.11224532939E+04  0.32052698304E+04  0.30023079937E+04 0.  0.
        1    1    3    3  502    0  0.11801991697E+04 -0.92502108086E+03 -0.63618144198E+03  0.16288833314E+04  0.50400001928E-02 0.  1.
       -1    1    3    3    0  502 -0.11801991697E+04  0.92502108086E+03 -0.48627185197E+03  0.15763864990E+04  0.50400001928E-02 0. -1.
</event>
<event>
 5   0  0.1821305E-07  0.2999687E+04  0.7818609E-02  0.8243820E-01
        2   -1    0    0  501    0  0.00000000000E+00  0.00000000000E+00  0.16248468142E+04  0.16248468142E+04  0.25500000920E-02 0. -1.
       -2   -1    0    0    0  501  0.00000000000E+00  0.00000000000E+00 -0.13844566512E+04  0.13844566512E+04  0.25500000920E-02 0.  1.
    10030    2    1    2    0    0  0.00000000000E+00  0.00000000000E+00  0.24039016300E+03  0.30093034654E+04  0.29996866364E+04 0.  0.
        2    1    3    3  502    0  0.84309761791E+03 -0.55651325048E+03 -0.99196600918E+03  0.14158097170E+04  0.25500000920E-02 0.  1.
       -2    1    3    3    0  502 -0.84309761791E+03  0.55651325048E+03  0.12323561722E+04  0.15934937485E+04  0.25500000920E-02 0. -1.
</event>
<event>
 5   0  0.1914439E-07  0.2997413E+04  0.7818609E-02  0.8244470E-01
       -2   -1    0    0    0  501  0.00000000000E+00  0.00000000000E+00  0.96001383084E+03  0.96001383084E+03  0.25500000920E-02 0.  1.
        2   -1    0    0  501    0  0.00000000000E+00  0.00000000000E+00 -0.23396760642E+04  0.23396760642E+04  0.25500000920E-02 0. -1.
    10030    2    1    2    0    0  0.00000000000E+00  0.00000000000E+00 -0.13796622333E+04  0.32996898950E+04  0.29974131389E+04 0.  0.
        5    1    3    3  502    0  0.13871098901E+04  0.30991544909E+03 -0.12131416356E+04  0.18686508906E+04  0.46999998093E+01 0.  1.
       -5    1    3    3    0  502 -0.13871098901E+04 -0.30991544909E+03 -0.16652059773E+03  0.14310390044E+04  0.46999998093E+01 0. -1.
</event>
<event>
 5   0  0.1914439E-07  0.3002211E+04  0.7818609E-02  0.8243100E-01
       -2   -1    0    0    0  501  0.00000000000E+00  0.00000000000E+00  0.19438441786E+04  0.19438441786E+04  0.25500000920E-02 0.  1.
        2   -1    0    0  501    0  0.00000000000E+00  0.00000000000E+00 -0.11592068778E+04  0.11592068778E+04  0.25500000920E-02 0. -1.
    10030    2    1    2    0    0  0.00000000000E+00  0.00000000000E+00  0.78463730080E+03  0.31030510563E+04  0.30022108794E+04 0.  0.
        5    1    3    3  502    0  0.17427395487E+03  0.10811776504E+04 -0.66879937255E+03  0.12832112896E+04  0.46999998093E+01 0. -1.
       -5    1    3    3    0  502 -0.17427395487E+03 -0.10811776504E+04  0.14534366734E+04  0.18198397667E+04  0.46999998093E+01 0.  1.
</event>
<event>
 5   0  0.6525507E-08  0.2977613E+04  0.7818609E-02  0.8250153E-01
        1   -1    0    0  501    0  0.00000000000E+00  0.00000000000E+00  0.16123795468E+04  0.16123795468E+04  0.50400001928E-02 0.  1.
       -1   -1    0    0    0  501  0.00000000000E+00  0.00000000000E+00 -0.13747037599E+04  0.13747037599E+04  0.50400001928E-02 0. -1.
    10030    2    1    2    0    0  0.00000000000E+00  0.00000000000E+00  0.23767578692E+03  0.29870833067E+04  0.29776126178E+04 0.  0.
        4    1    3    3  502    0  0.14632543969E+04 -0.23654769284E+03  0.25883235852E+03  0.15046807115E+04  0.12699999809E+01 0. -1.
       -4    1    3    3    0  502 -0.14632543969E+04  0.23654769284E+03 -0.21156571596E+02  0.14824025952E+04  0.12699999809E+01 0.  1.
</event>
<event>
 5   0  0.6464436E-08  0.2994344E+04  0.7818609E-02  0.8245348E-01
        1   -1    0    0  501    0  0.00000000000E+00  0.00000000000E+00  0.26757232377E+04  0.26757232377E+04  0.50400001928E-02 0. -1.
       -1   -1    0    0    0  501  0.00000000000E+00  0.00000000000E+00 -0.83772625214E+03  0.83772625216E+03  0.50400001928E-02 0.  1.
    10030    2    1    2    0    0  0.00000000000E+00  0.00000000000E+00  0.18379969856E+04  0.35134494899E+04  0.29943437343E+04 0.  0.
        5    1    3    3  502    0 -0.11745668420E+04  0.49816677526E+03 -0.21978724200E+00  0.12758524761E+04  0.46999998093E+01 0.  1.
       -5    1    3    3    0  502  0.11745668420E+04 -0.49816677526E+03  0.18382167728E+04  0.22375970138E+04  0.46999998093E+01 0. -1.
</event>
<event>
 5   0  0.1817566E-07  0.2997832E+04  0.7818609E-02  0.8244350E-01
        2   -1    0    0  501    0  0.00000000000E+00  0.00000000000E+00  0.25071284313E+04  0.25071284313E+04  0.25500000920E-02 0.  1.
       -2   -1    0    0    0  501  0.00000000000E+00  0.00000000000E+00 -0.89614466198E+03  0.89614466198E+03  0.25500000920E-02 0. -1.
    10030    2    1    2    0    0  0.00000000000E+00  0.00000000000E+00  0.16109837693E+04  0.34032730933E+04  0.29978323907E+04 0.  0.
        1    1    3    3  502    0  0.43874681265E+03 -0.30203680226E+03  0.23960602543E+04  0.24545528591E+04  0.50400001928E-02 0.  1.
       -1    1    3    3    0  502 -0.43874681265E+03  0.30203680226E+03 -0.78507648500E+03  0.94872023423E+03  0.50400001928E-02 0. -1.
</event>
<event>
 5   0  0.1810055E-07  0.2998536E+04  0.7818609E-02  0.8244149E-01
       -2   -1    0    0    0  501  0.00000000000E+00  0.00000000000E+00  0.14317133323E+04  0.14317133323E+04  0.25500000920E-02 0.  1.
        2   -1    0    0  501    0  0.00000000000E+00  0.00000000000E+00 -0.15700104278E+04  0.15700104278E+04  0.25500000920E-02 0. -1.
    10030    2    1    2    0    0  0.00000000000E+00  0.00000000000E+00 -0.13829709553E+03  0.30017237601E+04  0.29985362171E+04 0.  0.
        4    1    3    3  502    0 -0.92835246418E+03 -0.10207515390E+04 -0.65631382974E+03  0.15279140873E+04  0.12699999809E+01 0. -1.
       -4    1    3    3    0  502  0.92835246418E+03  0.10207515390E+04  0.51801673421E+03  0.14738096729E+04  0.12699999809E+01 0.  1.
</event>
<event>
 5   0  0.1821305E-07  0.2999443E+04  0.7818609E-02  0.8243890E-01
       -2   -1    0    0    0  501  0.00000000000E+00  0.00000000000E+00  0.15731398618E+04  0.15731398618E+04  0.25500000920E-02 0.  1.
        2   -1    0    0  501    0  0.00000000000E+00  0.00000000000E+00 -0.14297292446E+04  0.14297292446E+04  0.25500000920E-02 0. -1.
    10030    2    1    2    0    0  0.00000000000E+00  0.00000000000E+00  0.14341061725E+03  0.30028691064E+04  0.29994426590E+04 0.  0.
        2    1    3    3  502    0 -0.10745145024E+04  0.73911996124E+03  0.81301342704E+03  0.15368378462E+04  0.25500000920E-02 0. -1.
       -2    1    3    3    0  502  0.10745145024E+04 -0.73911996124E+03 -0.66960280979E+03  0.14660312602E+04  0.25500000920E-02 0.  1.
</event>
<event>
 5   0  0.1821305E-07  0.3008334E+04  0.7818609E-02  0.8241355E-01
       -2   -1    0    0    0  501  0.00000000000E+00  0.00000000000E+00  0.11580139744E+04  0.11580139744E+04  0.25500000920E-02 0. -1.
        2   -1    0    0  501    0  0.00000000000E+00  0.00000000000E+00 -0.19537922170E+04  0.19537922170E+04  0.25500000920E-02 0.  1.
    10030    2    1    2    0    0  0.00000000000E+00  0.00000000000E+00 -0.79577824266E+03  0.31118061914E+04  0.30083342171E+04 0.  0.
        2    1    3    3  502    0 -0.55428456692E+03 -0.15242622484E+03  0.10399027946E+04  0.11882183963E+04  0.25500000920E-02 0. -1.
       -2    1    3    3    0  502  0.55428456692E+03  0.15242622484E+03 -0.18356810372E+04  0.19235877951E+04  0.25500000920E-02 0.  1.
</event>
<event>
 5   0  0.6636007E-08  0.2996599E+04  0.7818609E-02  0.8244703E-01
       -1   -1    0    0    0  501  0.00000000000E+00  0.00000000000E+00  0.89870322362E+03  0.89870322363E+03  0.50400001928E-02 0. -1.
        1   -1    0    0  501    0  0.00000000000E+00  0.00000000000E+00 -0.24979338697E+04  0.24979338697E+04  0.50400001928E-02 0.  1.
    10030    2    1    2    0    0  0.00000000000E+00  0.00000000000E+00 -0.15992306461E+04  0.33966370933E+04  0.29965988861E+04 0.  0.
        2    1    3    3  502    0  0.62765567449E+03  0.10950954343E+04  0.11544469715E+03  0.12674829916E+04  0.25500000920E-02 0. -1.
       -2    1    3    3    0  502 -0.62765567449E+03 -0.10950954343E+04 -0.17146753432E+04  0.21291541017E+04  0.25500000920E-02 0.  1.
</event>
<event>
 5   0  0.6679022E-08  0.2987602E+04  0.7818609E-02  0.8247280E-01
       -1   -1    0    0    0  501  0.00000000000E+00  0.00000000000E+00  0.93553947486E+03  0.93553947488E+03  0.50400001928E-02 0. -1.
        1   -1    0    0  501    0  0.00000000000E+00  0.00000000000E+00 -0.23851915095E+04  0.23851915095E+04  0.50400001928E-02 0.  1.
    10030    2    1    2    0    0  0.00000000000E+00  0.00000000000E+00 -0.14496520346E+04  0.33207309844E+04  0.29876015881E+04 0.  0.
        3    1    3    3  502    0  0.12986645646E+04  0.67611496415E+03 -0.39551362492E+03  0.15166054641E+04  0.10100000352E+00 0. -1.
       -3    1    3    3    0  502 -0.12986645646E+04 -0.67611496415E+03 -0.10541384097E+04  0.18041255203E+04  0.10100000352E+00 0.  1.
</event>
<event>
 5   0  0.1914439E-07  0.3000111E+04  0.7818609E-02  0.8243699E-01
        2   -1    0    0  501    0  0.00000000000E+00  0.00000000000E+00  0.13699751799E+04  0.13699751799E+04  0.25500000920E-02 0. -1.
       -2   -1    0    0    0  501  0.00000000000E+00  0.00000000000E+00 -0.16424874916E+04  0.16424874916E+04  0.25500000920E-02 0.  1.
    10030    2    1    2    0    0  0.00000000000E+00  0.00000000000E+00 -0.27251231167E+03  0.30124626715E+04  0.30001113958E+04 0.  0.
        5    1    3    3  502    0 -0.42327894334E+03 -0.13991891325E+04 -0.47416756189E+03  0.15367993555E+04  0.46999998093E+01 0.  1.
       -5    1    3    3    0  502  0.42327894334E+03  0.13991891325E+04  0.20165525022E+03  0.14756633160E+04  0.46999998093E+01 0. -1.
</event>
<event>
 5   0  0.1817566E-07  0.3000906E+04  0.7818609E-02  0.8243472E-01
       -2   -1    0    0    0  501  0.00000000000E+00  0.00000000000E+00  0.11036149018E+04  0.11036149018E+04  0.25500000920E-02 0.  1.
        2   -1    0    0  501    0  0.00000000000E+00  0.00000000000E+00 -0.20399862143E+04  0.20399862143E+04  0.25500000920E-02 0. -1.
    10030    2    1    2    0    0  0.00000000000E+00  0.00000000000E+00 -0.93637131252E+03  0.31436011162E+04  0.30009059870E+04 0.  0.
        1    1    3    3  502    0  0.69157910817E+03 -0.50464618237E+02 -0.18620701696E+04  0.19869911064E+04  0.50400001928E-02 0. -1.
       -1    1    3    3    0  502 -0.69157910817E+03  0.50464618237E+02  0.92569885707E+03  0.11566100097E+04  0.50400001928E-02 0.  1.
</event>
<event>
 5   0  0.6525507E-08  0.3000783E+04  0.7818609E-02  0.8243507E-01
       -1   -1    0    0    0  501  0.00000000000E+00  0.00000000000E+00  0.11637605946E+04  0.11637605947E+04  0.50400001928E-02 0.  1.
        1   -1    0    0  501    0  0.00000000000E+00  0.00000000000E+00 -0.19343960812E+04  0.19343960812E+04  0.50400001928E-02 0. -1.
    10030    2    1    2    0    0  0.00000000000E+00  0.00000000000E+00 -0.77063548652E+03  0.30981566758E+04  0.30007825204E+04 0.  0.
        4    1    3    3  502    0 -0.27789115623E+03  0.15816721446E+03 -0.18988099446E+04  0.19255443856E+04  0.12699999809E+01 0. -1.
       -4    1    3    3    0  502  0.27789115623E+03 -0.15816721446E+03  0.11281744581E+04  0.11726122902E+04  0.12699999809E+01 0.  1.
</event>
<event>
 5   0  0.6679022E-08  0.3000543E+04  0.7818609E-02  0.8243576E-01
       -1   -1    0    0    0  501  0.00000000000E+00  0.00000000000E+00  0.16394678805E+04  0.16394678805E+04  0.50400001928E-02 0. -1.
        1   -1    0    0  501    0  0.00000000000E+00  0.00000000000E+00 -0.13728929831E+04  0.13728929831E+04  0.50400001928E-02 0.  1.
    10030    2    1    2    0    0  0.00000000000E+00  0.00000000000E+00  0.26657489734E+03  0.30123608636E+04  0.30005425837E+04 0.  0.
        3    1    3    3  502    0 -0.11138118049E+04 -0.86775412831E+03  0.64247342183E+03  0.15512401722E+04  0.10100000352E+00 0. -1.
       -3    1    3    3    0  502  0.11138118049E+04  0.86775412831E+03 -0.37589852449E+03  0.14611206914E+04  0.10100000352E+00 0.  1.
</event>
<event>
 5   0  0.1914439E-07  0.3000101E+04  0.7818609E-02  0.8243702E-01
        2   -1    0    0  501    0  0.00000000000E+00  0.00000000000E+00  0.21933468386E+04  0.21933468386E+04  0.25500000920E-02 0.  1.
       -2   -1    0    0    0  501  0.00000000000E+00  0.00000000000E+00 -0.10258988287E+04  0.10258988287E+04  0.25500000920E-02 0. -1.
    10030    2    1    2    0    0  0.00000000000E+00  0.00000000000E+00  0.11674480100E+04  0.32192456673E+04  0.30001013000E+04 0.  0.
        5    1    3    3  502    0 -0.12659508524E+04 -0.59940364715E+03  0.76538008304E+01  0.14007130197E+04  0.46999998093E+01 0.  1.
       -5    1    3    3    0  502  0.12659508524E+04  0.59940364715E+03  0.11597942091E+04  0.18185326476E+04  0.46999998093E+01 0. -1.
</event>
<event>
 5   0  0.1914439E-07  0.3000305E+04  0.7818609E-02  0.8243644E-01
       -2   -1    0    0    0  501  0.00000000000E+00  0.00000000000E+00  0.23450264950E+04  0.23450264950E+04  0.25500000920E-02 0.  1.
        2   -1    0    0  501    0  0.00000000000E+00  0.00000000000E+00 -0.95967265625E+03  0.95967265625E+03  0.25500000920E-02 0. -1.
    10030    2    1    2    0    0  0.00000000000E+00  0.00000000000E+00  0.13853538388E+04  0.33046991513E+04  0.30003051881E+04 0.  0.
        5    1    3    3  502    0  0.58139375441E+03 -0.95095880637E+03 -0.41322621717E+03  0.11887469645E+04  0.46999998093E+01 0. -1.
       -5    1    3    3    0  502 -0.58139375441E+03  0.95095880637E+03  0.17985800560E+04  0.21159521868E+04  0.46999998093E+01 0.  1.
</event>
<event>
 5   0  0.1821305E-07  0.2999307E+04  0.7818609E-02  0.8243929E-01
       -2   -1    0    0    0  501  0.00000000000E+00  0.00000000000E+00  0.12820316545E+04  0.12820316545E+04  0.25500000920E-02 0.  1.
        2   -1    0    0  501    0  0.00000000000E+00  0.00000000000E+00 -0.17542155622E+04  0.17542155622E+04  0.25500000920E-02 0. -1.
    10030    2    1    2    0    0  0.00000000000E+00  0.00000000000E+00 -0.47218390777E+03  0.30362472167E+04  0.29993065062E+04 0.  0.
        2    1    3    3  502    0 -0.57866129377E+02 -0.84168884228E+03  0.10190053926E+04  0.13229363501E+04  0.25500000920E-02 0.  1.
       -2    1    3    3    0  502  0.57866129377E+02  0.84168884228E+03 -0.14911893004E+04  0.17133108666E+04  0.25500000920E-02 0. -1.
</event>
<event>
 5   0  0.1810055E-07  0.2998980E+04  0.7818609E-02  0.8244022E-01
        2   -1    0    0  501    0  0.00000000000E+00  0.00000000000E+00  0.22446793507E+04  0.22446793507E+04  0.25500000920E-02 0. -1.
       -2   -1    0    0    0  501  0.00000000000E+00  0.00000000000E+00 -0.10016886429E+04  0.10016886429E+04  0.25500000920E-02 0.  1.
    10030    2    1    2    0    0  0.00000000000E+00  0.00000000000E+00  0.12429907078E+04  0.32463679936E+04  0.29989797015E+04 0.  0.
        4    1    3    3  502    0 -0.35600448921E+03 -0.12255367994E+04 -0.23071341464E+03  0.12968847040E+04  0.12699999809E+01 0.  1.
       -4    1    3    3    0  502  0.35600448921E+03  0.12255367994E+04  0.14737041224E+04  0.19494832895E+04  0.12699999809E+01 0. -1.
</event>
<event>
 5   0  0.6374748E-08  0.3000624E+04  0.7818609E-02  0.8243553E-01
        1   -1    0    0  501    0  0.00000000000E+00  0.00000000000E+00  0.25717058512E+04  0.25717058513E+04  0.50400001928E-02 0.  1.
       -1   -1    0    0    0  501  0.00000000000E+00  0.00000000000E+00 -0.87526965809E+03  0.87526965811E+03  0.50400001928E-02 0. -1.
    10030    2    1    2    0    0  0.00000000000E+00  0.00000000000E+00  0.16964361932E+04  0.34469755094E+04  0.30006240025E+04 0.  0.
        1    1    3    3  502    0  0.53937698878E+03  0.10021148226E+04 -0.27484543917E+03  0.11707696910E+04  0.50400001928E-02 0. -1.
       -1    1    3    3    0  502 -0.53937698878E+03 -0.10021148226E+04  0.19712816323E+04  0.22762058184E+04  0.50400001928E-02 0.  1.
</event>
<event>
 5   0  0.6374748E-08  0.2999899E+04  0.7818609E-02  0.8243760E-01
        1   -1    0    0  501    0  0.00000000000E+00  0.00000000000E+00  0.18133715658E+04  0.18133715658E+04  0.50400001928E-02 0.  1.
       -1   -1    0    0    0  501  0.00000000000E+00  0.00000000000E+00 -0.12406988136E+04  0.12406988136E+04  0.50400001928E-02 0. -1.
    10030    2    1    2    0    0  0.00000000000E+00  0.00000000000E+00  0.57267275225E+03  0.30540703795E+04  0.29998986319E+04 0.  0.
        1    1    3    3  502    0  0.13680556223E+04 -0.27609927572E+03  0.84584318763E+03  0.16319490476E+04  0.50400001928E-02 0.  1.
       -1    1    3    3    0  502 -0.13680556223E+04  0.27609927572E+03 -0.27317043538E+03  0.14221213319E+04  0.50400001928E-02 0. -1.
</event>
<event>
 5   0  0.6679022E-08  0.3002160E+04  0.7818609E-02  0.8243114E-01
       -1   -1    0    0    0  501  0.00000000000E+00  0.00000000000E+00  0.12502191762E+04  0.12502191762E+04  0.50400001928E-02 0. -1.
        1   -1    0    0  501    0  0.00000000000E+00  0.00000000000E+00 -0.18022770496E+04  0.18022770496E+04  0.50400001928E-02 0.  1.
    10030    2    1    2    0    0  0.00000000000E+00  0.00000000000E+00 -0.55205787343E+03  0.30524962258E+04  0.30021601078E+04 0.  0.
        3    1    3    3  502    0  0.35621776252E+03  0.63922939708E+03 -0.16086279729E+04  0.17672547303E+04  0.10100000352E+00 0.  1.
       -3    1    3    3    0  502 -0.35621776252E+03 -0.63922939708E+03  0.10565700995E+04  0.12852414955E+04  0.10100000352E+00 0. -1.
</event>
<event>
 5   0  0.1817566E-07  0.2998465E+04  0.7818609E-02  0.8244169E-01
        2   -1    0    0  501    0  0.00000000000E+00  0.00000000000E+00  0.22117730228E+04  0.22117730228E+04  0.25500000920E-02 0.  1.
       -2   -1    0    0    0  501  0.00000000000E+00  0.00000000000E+00 -0.10162427320E+04  0.10162427320E+04  0.25500000920E-02 0. -1.
    10030    2    1    2    0    0  0.00000000000E+00  0.00000000000E+00  0.11955302908E+04  0.32280157547E+04  0.29984651135E+04 0.  0.
        1    1    3    3  502    0 -0.43054491365E+03  0.62225832747E+03 -0.79558450913E+03  0.10979658738E+04  0.50400001928E-02 0. -1.
       -1    1    3    3    0  502  0.43054491365E+03 -0.62225832747E+03  0.19911148000E+04  0.21300498810E+04  0.50400001928E-02 0.  1.
</event>
<event>
 5   0  0.1810055E-07  0.2999909E+04  0.7818609E-02  0.8243757E-01
        2   -1    0    0  501    0  0.00000000000E+00  0.00000000000E+00  0.16978738278E+04  0.16978738278E+04  0.25500000920E-02 0. -1.
       -2   -1    0    0    0  501  0.00000000000E+00  0.00000000000E+00 -0.13251062762E+04  0.13251062762E+04  0.25500000920E-02 0.  1.
    10030    2    1    2    0    0  0.00000000000E+00  0.00000000000E+00  0.37276755165E+03  0.30229801040E+04  0.29999088422E+04 0.  0.
        4    1    3    3  502    0 -0.41425917955E+03  0.12383370098E+04 -0.55737960657E+03  0.14197756359E+04  0.12699999809E+01 0.  1.
       -4    1    3    3    0  502  0.41425917955E+03 -0.12383370098E+04  0.93014715822E+03  0.16032044681E+04  0.12699999809E+01 0. -1.
</event>
<event>
 5   0  0.6525507E-08  0.3000333E+04  0.7818609E-02  0.8243636E-01
        1   -1    0    0  501    0  0.00000000000E+00  0.00000000000E+00  0.21766590174E+04  0.21766590174E+04  0.50400001928E-02 0.  1.
       -1   -1    0    0    0  501  0.00000000000E+00  0.00000000000E+00 -0.10339239509E+04  0.10339239510E+04  0.50400001928E-02 0. -1.
    10030    2    1    2    0    0  0.00000000000E+00  0.00000000000E+00  0.11427350664E+04  0.32105829683E+04  0.30003332422E+04 0.  0.
        4    1    3    3  502    0  0.67338866537E+03  0.42907849793E+03  0.19303792163E+04  0.20890012407E+04  0.12699999809E+01 0.  1.
       -4    1    3    3    0  502 -0.67338866537E+03 -0.42907849793E+03 -0.78764414987E+03  0.11215817276E+04  0.12699999809E+01 0. -1.
</event>
<event>
 5   0  0.6464436E-08  0.3003487E+04  0.7818609E-02  0.8242736E-01
       -1   -1    0    0    0  501  0.00000000000E+00  0.00000000000E+00  0.13848161594E+04  0.13848161594E+04  0.50400001928E-02 0.  1.
        1   -1    0    0  501    0  0.00000000000E+00  0.00000000000E+00 -0.16285438001E+04  0.16285438001E+04  0.50400001928E-02 0. -1.
    10030    2    1    2    0    0  0.00000000000E+00  0.00000000000E+00 -0.24372764065E+03  0.30133599595E+04  0.30034871538E+04 0.  0.
        5    1    3    3  502    0 -0.14000777096E+04 -0.45523913030E+03  0.17533858234E+03  0.14826415504E+04  0.46999998093E+01 0.  1.
       -5    1    3    3    0  502  0.14000777096E+04  0.45523913030E+03 -0.41906622300E+03  0.15307184091E+04  0.46999998093E+01 0. -1.
</event>
<event>
 5   0  0.1817566E-07  0.2999266E+04  0.7818609E-02  0.8243941E-01
        2   -1    0    0  501    0  0.00000000000E+00  0.00000000000E+00  0.20980103069E+04  0.20980103069E+04  0.25500000920E-02 0.  1.
       -2   -1    0    0    0  501  0.00000000000E+00  0.00000000000E+00 -0.10719198593E+04  0.10719198593E+04  0.25500000920E-02 0. -1.
    10030    2    1    2    0    0  0.00000000000E+00  0.00000000000E+00  0.10260904476E+04  0.31699301662E+04  0.29992658521E+04 0.  0.
        1    1    3    3  502    0  0.10886324302E+04  0.97390209419E+03  0.87191452321E+03  0.17011292699E+04  0.50400001928E-02 0. -1.
       -1    1    3    3    0  502 -0.10886324302E+04 -0.97390209419E+03  0.15417592440E+03  0.14688008963E+04  0.50400001928E-02 0.  1.
</event>
<event>
 5   0  0.6679022E-08  0.2992999E+04  0.7818609E-02  0.8245733E-01
        1   -1    0    0  501    0  0.00000000000E+00  0.00000000000E+00  0.20336119160E+04  0.20336119160E+04  0.50400001928E-02 0.  1.
       -1   -1    0    0    0  501  0.00000000000E+00  0.00000000000E+00 -0.11012477172E+04  0.11012477172E+04  0.50400001928E-02 0. -1.
    10030    2    1    2    0    0  0.00000000000E+00  0.00000000000E+00  0.93236419883E+03  0.31348596333E+04  0.29929988174E+04 0.  0.
        3    1    3    3  502    0 -0.11156699513E+04  0.15447327686E+03 -0.56587873887E+03  0.12604761762E+04  0.10100000352E+00 0. -1.
       -3    1    3    3    0  502  0.11156699513E+04 -0.15447327686E+03  0.14982429377E+04  0.18743834571E+04  0.10100000352E+00 0.  1.
</event>
<event>
 5   0  0.1821305E-07  0.2999418E+04  0.7818609E-02  0.8243897E-01
       -2   -1    0    0    0  501  0.00000000000E+00  0.00000000000E+00  0.14241471526E+04  0.14241471526E+04  0.25500000920E-02 0. -1.
        2   -1    0    0  501    0  0.00000000000E+00  0.00000000000E+00 -0.15792802233E+04  0.15792802233E+04  0.25500000920E-02 0.  1.
    10030    2    1    2    0    0  0.00000000000E+00  0.00000000000E+00 -0.15513307061E+03  0.30034273759E+04  0.29994182324E+04 0.  0.
        2    1    3    3  502    0 -0.38849798337E+03 -0.51160789146E+03 -0.14345362306E+04  0.15718039046E+04  0.25500000920E-02 0.  1.
       -2    1    3    3    0  502  0.38849798337E+03  0.51160789146E+03  0.12794031600E+04  0.14316234713E+04  0.25500000920E-02 0. -1.
</event>
<event>
 5   0  0.1821305E-07  0.2999548E+04  0.7818609E-02  0.8243860E-01
        2   -1    0    0  501    0  0.00000000000E+00  0.00000000000E+00  0.22616102268E+04  0.22616102268E+04  0.25500000920E-02 0. -1.
       -2   -1    0    0    0  501  0.00000000000E+00  0.00000000000E+00 -0.99456691337E+03  0.99456691338E+03  0.25500000920E-02 0.  1.
    10030    2    1    2    0    0  0.00000000000E+00  0.00000000000E+00  0.12670433135E+04  0.32561771402E+04  0.29995484344E+04 0.  0.
        2    1    3    3  502    0 -0.17038695081E+03  0.10146799088E+04  0.18180792445E+04  0.20890234967E+04  0.25500000920E-02 0. -1.
       -2    1    3    3    0  502  0.17038695081E+03 -0.10146799088E+04 -0.55103593102E+03  0.11671536436E+04  0.25500000920E-02 0.  1.
</event>
<event>
 5   0  0.1810055E-07  0.3000520E+04  0.7818609E-02  0.8243582E-01
        2   -1    0    0  501    0  0.00000000000E+00  0.00000000000E+00  0.12180962059E+04  0.12180962059E+04  0.25500000920E-02 0.  1.
       -2   -1    0    0    0  501  0.00000000000E+00  0.00000000000E+00 -0.18477853226E+04  0.18477853226E+04  0.25500000920E-02 0. -1.
    10030    2    1    2    0    0  0.00000000000E+00  0.00000000000E+00 -0.62968911672E+03  0.30658815286E+04  0.30005201488E+04 0.  0.
        4    1    3    3  502    0 -0.11562002945E+04 -0.91379286001E+03 -0.60196779945E+03  0.15919118558E+04  0.12699999809E+01 0.  1.
       -4    1    3    3    0  502  0.11562002945E+04  0.91379286001E+03 -0.27721317277E+02  0.14739696728E+04  0.12699999809E+01 0. -1.
</event>
<event>
 5   0  0.1813720E-07  0.2999581E+04  0.7818609E-02  0.8243851E-01
        2   -1    0    0  501    0  0.00000000000E+00  0.00000000000E+00  0.22588386589E+04  0.22588386589E+04  0.25500000920E-02 0. -1.
       -2   -1    0    0    0  501  0.00000000000E+00  0.00000000000E+00 -0.99580867461E+03  0.99580867461E+03  0.25500000920E-02 0.  1.
    10030    2    1    2    0    0  0.00000000000E+00  0.00000000000E+00  0.12630299843E+04  0.32546473335E+04  0.29995807248E+04 0.  0.
        3    1    3    3  502    0  0.34495454015E+03  0.14441628250E+04  0.40193034027E+03  0.15382288219E+04  0.10100000352E+00 0. -1.
       -3    1    3    3    0  502 -0.34495454015E+03 -0.14441628250E+04  0.86109964404E+03  0.17164185116E+04  0.10100000352E+00 0.  1.
</event>
<event>
 5   0  0.1817566E-07  0.2995815E+04  0.7818609E-02  0.8244927E-01
        2   -1    0    0  501    0  0.00000000000E+00  0.00000000000E+00  0.11132042775E+04  0.11132042775E+04  0.25500000920E-02 0. -1.
       -2   -1    0    0    0  501  0.00000000000E+00  0.00000000000E+00 -0.20155566743E+04  0.20155566743E+04  0.25500000920E-02 0.  1.
    10030    2    1    2    0    0  0.00000000000E+00  0.00000000000E+00 -0.90235239681E+03  0.31287609518E+04  0.29958146213E+04 0.  0.
        1    1    3    3  502    0  0.47766606133E+03 -0.13677038529E+04 -0.84879140450E+03  0.16790549556E+04  0.50400001928E-02 0.  1.
       -1    1    3    3    0  502 -0.47766606133E+03  0.13677038529E+04 -0.53560992314E+02  0.14497059962E+04  0.50400001928E-02 0. -1.
</event>
<event>
 5   0  0.1914439E-07  0.2998764E+04  0.7818609E-02  0.8244084E-01
        2   -1    0    0  501    0  0.00000000000E+00  0.00000000000E+00  0.16587294157E+04  0.16587294157E+04  0.25500000920E-02 0. -1.
       -2   -1    0    0    0  501  0.00000000000E+00  0.00000000000E+00 -0.13553423938E+04  0.13553423938E+04  0.25500000920E-02 0.  1.
    10030    2    1    2    0    0  0.00000000000E+00  0.00000000000E+00  0.30338702192E+03  0.30140718096E+04  0.29987639434E+04 0.  0.
        5    1    3    3  502    0  0.74551739999E+03 -0.11489370255E+04 -0.46156183178E+03  0.14453075440E+04  0.46999998093E+01 0.  1.
       -5    1    3    3    0  502 -0.74551739999E+03  0.11489370255E+04  0.76494885371E+03  0.15687642656E+04  0.46999998093E+01 0. -1.
</event>
<event>
 5   0  0.6525507E-08  0.2998813E+04  0.7818609E-02  0.8244070E-01
       -1   -1    0    0    0  501  0.00000000000E+00  0.00000000000E+00  0.15323734347E+04  0.15323734347E+04  0.50400001928E-02 0. -1.
        1   -1    0    0  501    0  0.00000000000E+00  0.00000000000E+00 -0.14671488697E+04  0.14671488697E+04  0.50400001928E-02 0.  1.
    10030    2    1    2    0    0  0.00000000000E+00  0.00000000000E+00  0.65224564985E+02  0.29995223044E+04  0.29988130670E+04 0.  0.
        4    1    3    3  502    0 -0.27623988483E+03  0.74390855056E+02 -0.14395971828E+04  0.14677479807E+04  0.12699999809E+01 0.  1.
       -4    1    3    3    0  502  0.27623988483E+03 -0.74390855056E+02  0.15048217478E+04  0.15317743237E+04  0.12699999809E+01 0. -1.
</event>
<event>
 5   0  0.6464436E-08  0.2999384E+04  0.7818609E-02  0.8243907E-01
       -1   -1    0    0    0  501  0.00000000000E+00  0.00000000000E+00  0.13811041349E+04  0.13811041349E+04  0.50400001928E-02 0.  1.
        1   -1    0    0  501    0  0.00000000000E+00  0.00000000000E+00 -0.16284625570E+04  0.16284625570E+04  0.50400001928E-02 0. -1.
    10030    2    1    2    0    0  0.00000000000E+00  0.00000000000E+00 -0.24735842210E+03  0.30095666919E+04  0.29993841841E+04 0.  0.
        5    1    3    3  502    0  0.55578707639E+02  0.13045168840E+04 -0.86388339815E+03  0.15656212534E+04  0.46999998093E+01 0.  1.
       -5    1    3    3    0  502 -0.55578707639E+02 -0.13045168840E+04  0.61652497605E+03  0.14439454385E+04  0.46999998093E+01 0. -1.
</event>
<event>
 5   0  0.1810055E-07  0.3000361E+04  0.7818609E-02  0.8243628E-01
       -2   -1    0    0    0  501  0.00000000000E+00  0.00000000000E+00  0.16450791230E+04  0.16450791230E+04  0.25500000920E-02 0.  1.
        2   -1    0    0  501    0  0.00000000000E+00  0.00000000000E+00 -0.13680447814E+04  0.13680447814E+04  0.25500000920E-02 0. -1.
    10030    2    1    2    0    0  0.00000000000E+00  0.00000000000E+00  0.27703434160E+03  0.30131239044E+04  0.30003612510E+04 0.  0.
        4    1    3    3  502    0  0.10969346866E+04 -0.10108694718E+04  0.29862400270E+03  0.15212825850E+04  0.12699999809E+01 0.  1.
       -4    1    3    3    0  502 -0.10969346866E+04  0.10108694718E+04 -0.21589661103E+02  0.14918413193E+04  0.12699999809E+01 0. -1.
</event>
<event>
 5   0  0.1821305E-07  0.3000376E+04  0.7818609E-02  0.8243623E-01
        2   -1    0    0  501    0  0.00000000000E+00  0.00000000000E+00  0.16383907584E+04  0.16383907584E+04  0.25500000920E-02 0. -1.
       -2   -1    0    0    0  501  0.00000000000E+00  0.00000000000E+00 -0.13736431808E+04  0.13736431808E+04  0.25500000920E-02 0.  1.
    10030    2    1    2    0    0  0.00000000000E+00  0.00000000000E+00  0.26474757767E+03  0.30120339392E+04  0.30003761716E+04 0.  0.
        2    1    3    3  502    0 -0.81072993247E+03 -0.22015515082E+03 -0.11153604947E+04  0.13963453538E+04  0.25500000920E-02 0.  1.
       -2    1    3    3    0  502  0.81072993247E+03  0.22015515082E+03  0.13801080724E+04  0.16156885855E+04  0.25500000920E-02 0. -1.
</event>
<event>
 5   0  0.6464436E-08  0.2999870E+04  0.7818609E-02  0.8243768E-01
       -1   -1    0    0    0  501  0.00000000000E+00  0.00000000000E+00  0.13089029366E+04  0.13089029366E+04  0.50400001928E-02 0.  1.
        1   -1    0    0  501    0  0.00000000000E+00  0.00000000000E+00 -0.17188473985E+04  0.17188473985E+04  0.50400001928E-02 0. -1.
    10030    2    1    2    0    0  0.00000000000E+00  0.00000000000E+00 -0.40994446191E+03  0.30277503352E+04  0.29998696022E+04 0.  0.
        5    1    3    3  502    0  0.12124941652E+04  0.41824224430E+03 -0.98983290074E+03  0.16201419496E+04  0.46999998093E+01 0. -1.
       -5    1    3    3    0  502 -0.12124941652E+04 -0.41824224430E+03  0.57988843883E+03  0.14076083855E+04  0.46999998093E+01 0.  1.
</event>
<event>
 5   0  0.6525507E-08  0.3000061E+04  0.7818609E-02  0.8243713E-01
       -1   -1    0    0    0  501  0.00000000000E+00  0.00000000000E+00  0.11473157013E+04  0.11473157013E+04  0.50400001928E-02 0. -1.
        1   -1    0    0  501    0  0.00000000000E+00  0.00000000000E+00 -0.19611791545E+04  0.19611791545E+04  0.50400001928E-02 0.  1.
    10030    2    1    2    0    0  0.00000000000E+00  0.00000000000E+00 -0.81386345315E+03  0.31084948558E+04  0.30000610907E+04 0.  0.
        4    1    3    3  502    0  0.14366902601E+04  0.30687157119E+03 -0.72093795345E+03  0.16364602685E+04  0.12699999809E+01 0. -1.
       -4    1    3    3    0  502 -0.14366902601E+04 -0.30687157119E+03 -0.92925499706E+02  0.14720345873E+04  0.12699999809E+01 0.  1.
</event>
<event>
 5   0  0.1914439E-07  0.2998593E+04  0.7818609E-02  0.8244133E-01
        2   -1    0    0  501    0  0.00000000000E+00  0.00000000000E+00  0.16297012332E+04  0.16297012333E+04  0.25500000920E-02 0.  1.
       -2   -1    0    0    0  501  0.00000000000E+00  0.00000000000E+00 -0.13793260290E+04  0.13793260290E+04  0.25500000920E-02 0. -1.
    10030    2    1    2    0    0  0.00000000000E+00  0.00000000000E+00  0.25037520424E+03  0.30090272623E+04  0.29985925569E+04 0.  0.
        5    1    3    3  502    0 -0.93063954920E+03  0.81685032303E+03  0.97342956745E+03  0.15750941666E+04  0.46999998093E+01 0.  1.
       -5    1    3    3    0  502  0.93063954920E+03 -0.81685032303E+03 -0.72305436322E+03  0.14339330957E+04  0.46999998093E+01 0. -1.
</event>
<event>
 5   0  0.6636007E-08  0.2983324E+04  0.7818609E-02  0.8248509E-01
        1   -1    0    0  501    0  0.00000000000E+00  0.00000000000E+00  0.14210552007E+04  0.14210552008E+04  0.50400001928E-02 0.  1.
       -1   -1    0    0    0  501  0.00000000000E+00  0.00000000000E+00 -0.15657774220E+04  0.15657774220E+04  0.50400001928E-02 0. -1.
    10030    2    1    2    0    0  0.00000000000E+00  0.00000000000E+00 -0.14472222128E+03  0.29868326228E+04  0.29833244201E+04 0.  0.
        2    1    3    3  502    0 -0.71909131877E+03 -0.12894148720E+04 -0.28562124869E+03  0.15037494920E+04  0.25500000920E-02 0. -1.
       -2    1    3    3    0  502  0.71909131877E+03  0.12894148720E+04  0.14089902741E+03  0.14830831308E+04  0.25500000920E-02 0.  1.
</event>
<event>
 5   0  0.6679022E-08  0.2998382E+04  0.7818609E-02  0.8244193E-01
       -1   -1    0    0    0  501  0.00000000000E+00  0.00000000000E+00  0.14585434195E+04  0.14585434195E+04  0.50400001928E-02 0.  1.
        1   -1    0    0  501    0  0.00000000000E+00  0.00000000000E+00 -0.15409715910E+04  0.15409715910E+04  0.50400001928E-02 0. -1.
    10030    2    1    2    0    0  0.00000000000E+00  0.00000000000E+00 -0.82428171487E+02  0.29995150105E+04  0.29983822129E+04 0.  0.
        3    1    3    3  502    0 -0.10875813156E+04  0.91073557568E+02  0.98701004376E+03  0.14715013923E+04  0.10100000352E+00 0.  1.
       -3    1    3    3    0  502  0.10875813156E+04 -0.91073557568E+02 -0.10694382152E+04  0.15280136182E+04  0.10100000352E+00 0. -1.
</event>
<event>
 5   0  0.6374748E-08  0.2999702E+04  0.7818609E-02  0.8243816E-01
       -1   -1    0    0    0  501  0.00000000000E+00  0.00000000000E+00  0.13254939288E+04  0.13254939288E+04  0.50400001928E-02 0. -1.
        1   -1    0    0  501    0  0.00000000000E+00  0.00000000000E+00 -0.16971432385E+04  0.16971432385E+04  0.50400001928E-02 0.  1.
    10030    2    1    2    0    0  0.00000000000E+00  0.00000000000E+00 -0.37164930965E+03  0.30226371673E+04  0.29997020245E+04 0.  0.
        1    1    3    3  502    0  0.48674945316E+03 -0.12326280326E+04 -0.89351645192E+03  0.15983330526E+04  0.50400001928E-02 0.  1.
       -1    1    3    3    0  502 -0.48674945316E+03  0.12326280326E+04  0.52186714227E+03  0.14243041147E+04  0.50400001928E-02 0. -1.
</event>
<event>
 5   0  0.1817566E-07  0.2998359E+04  0.7818609E-02  0.8244200E-01
        2   -1    0    0  501    0  0.00000000000E+00  0.00000000000E+00  0.12929113530E+04  0.12929113530E+04  0.25500000920E-02 0. -1.
       -2   -1    0    0    0  501  0.00000000000E+00  0.00000000000E+00 -0.17383555671E+04  0.17383555671E+04  0.25500000920E-02 0.  1.
    10030    2    1    2    0    0  0.00000000000E+00  0.00000000000E+00 -0.44544421413E+03  0.30312669201E+04  0.29983593169E+04 0.  0.
        1    1    3    3  502    0 -0.67996298069E+03 -0.71824939673E+03 -0.13617227718E+04  0.16830094350E+04  0.50400001928E-02 0.  1.
       -1    1    3    3    0  502  0.67996298069E+03  0.71824939673E+03  0.91627855767E+03  0.13482574852E+04  0.50400001928E-02 0. -1.
</event>
<event>
 5   0  0.1813720E-07  0.3000361E+04  0.7818609E-02  0.8243628E-01
       -2   -1    0    0    0  501  0.00000000000E+00  0.00000000000E+00  0.15723994217E+04  0.15723994217E+04  0.25500000920E-02 0.  1.
        2   -1    0    0  501    0  0.00000000000E+00  0.00000000000E+00 -0.14312786731E+04  0.14312786731E+04  0.25500000920E-02 0. -1.
    10030    2    1    2    0    0  0.00000000000E+00  0.00000000000E+00  0.14112074859E+03  0.30036780947E+04  0.30003611501E+04 0.  0.
        3    1    3    3  502    0  0.25246876546E+03 -0.92267921324E+02  0.15480944089E+04  0.15712575078E+04  0.10100000352E+00 0.  1.
       -3    1    3    3    0  502 -0.25246876546E+03  0.92267921324E+02 -0.14069736603E+04  0.14324205869E+04  0.10100000352E+00 0. -1.
</event>
<event>
 5   0  0.1914439E-07  0.2998863E+04  0.7818609E-02  0.8244056E-01
        2   -1    0    0  501    0  0.00000000000E+00  0.00000000000E+00  0.69179465143E+03  0.69179465144E+03  0.25500000920E-02 0. -1.
       -2   -1    0    0    0  501  0.00000000000E+00  0.00000000000E+00 -0.32499454691E+04  0.32499454691E+04  0.25500000920E-02 0.  1.
    10030    2    1    2    0    0  0.00000000000E+00  0.00000000000E+00 -0.25581508177E+04  0.39417401205E+04  0.29988630465E+04 0.  0.
        5    1    3    3  502    0  0.11625440820E+04  0.59216469499E+03 -0.22504113199E+04  0.26012575742E+04  0.46999998093E+01 0.  1.
       -5    1    3    3    0  502 -0.11625440820E+04 -0.59216469499E+03 -0.30773949777E+03  0.13404825463E+04  0.46999998093E+01 0. -1.
</event>
<event>
 5   0  0.1810055E-07  0.3000040E+04  0.7818609E-02  0.8243719E-01
       -2   -1    0    0    0  501  0.00000000000E+00  0.00000000000E+00  0.20718661267E+04  0.20718661267E+04  0.25500000920E-02 0.  1.
        2   -1    0    0  501    0  0.00000000000E+00  0.00000000000E+00 -0.10860067547E+04  0.10860067547E+04  0.25500000920E-02 0. -1.
    10030    2    1    2    0    0  0.00000000000E+00  0.00000000000E+00  0.98585937199E+03  0.31578728815E+04  0.30000404054E+04 0.  0.
        4    1    3    3  502    0 -0.12323792417E+04  0.10071090022E+03  0.13868167795E+04  0.18579999122E+04  0.12699999809E+01 0. -1.
       -4    1    3    3    0  502  0.12323792417E+04 -0.10071090022E+03 -0.40095740750E+03  0.12998729693E+04  0.12699999809E+01 0.  1.
</event>
<event>
 5   0  0.1817566E-07  0.2997248E+04  0.7818609E-02  0.8244517E-01
       -2   -1    0    0    0  501  0.00000000000E+00  0.00000000000E+00  0.15573876215E+04  0.15573876215E+04  0.25500000920E-02 0.  1.
        2   -1    0    0  501    0  0.00000000000E+00  0.00000000000E+00 -0.14420773672E+04  0.14420773672E+04  0.25500000920E-02 0. -1.
    10030    2    1    2    0    0  0.00000000000E+00  0.00000000000E+00  0.11531025434E+03  0.29994649887E+04  0.29972476981E+04 0.  0.
        1    1    3    3  502    0  0.48237221403E+03  0.13407887478E+04  0.52219247481E+03  0.15175909857E+04  0.50400001928E-02 0.  1.
       -1    1    3    3    0  502 -0.48237221403E+03 -0.13407887478E+04 -0.40688222047E+03  0.14818740029E+04  0.50400001928E-02 0. -1.
</event>
<event>
 5   0  0.6636007E-08  0.3001493E+04  0.7818609E-02  0.8243305E-01
        1   -1    0    0  501    0  0.00000000000E+00  0.00000000000E+00  0.99702687087E+03  0.99702687089E+03  0.50400001928E-02 0. -1.
       -1   -1    0    0    0  501  0.00000000000E+00  0.00000000000E+00 -0.22589559430E+04  0.22589559431E+04  0.50400001928E-02 0.  1.
    10030    2    1    2    0    0  0.00000000000E+00  0.00000000000E+00 -0.12619290722E+04  0.32559828139E+04  0.30014928122E+04 0.  0.
        2    1    3    3  502    0 -0.63407850549E+03 -0.59531072032E+03 -0.19576868012E+04  0.21421923388E+04  0.25500000920E-02 0.  1.
       -2    1    3    3    0  502  0.63407850549E+03  0.59531072032E+03  0.69575772906E+03  0.11137904751E+04  0.25500000920E-02 0. -1.
</event>
<event>
 5   0  0.6679022E-08  0.3000812E+04  0.7818609E-02  0.8243499E-01
        1   -1    0    0  501    0  0.00000000000E+00  0.00000000000E+00  0.18379605949E+04  0.18379605949E+04  0.50400001928E-02 0. -1.
       -1   -1    0    0    0  501  0.00000000000E+00  0.00000000000E+00 -0.12248453776E+04  0.12248453776E+04  0.50400001928E-02 0.  1.
    10030    2    1    2    0    0  0.00000000000E+00  0.00000000000E+00  0.61311521731E+03  0.30628059725E+04  0.30008115828E+04 0.  0.
        3    1    3    3  502    0  0.13307304010E+04 -0.27218935622E+03 -0.34401723386E+03  0.14011703370E+04  0.10100000352E+00 0.  1.
       -3    1    3    3    0  502 -0.13307304010E+04  0.27218935622E+03  0.95713245117E+03  0.16616356355E+04  0.10100000352E+00 0. -1.
</event>
<event>
 5   0  0.1813720E-07  0.3000679E+04  0.7818609E-02  0.8243537E-01
       -2   -1    0    0    0  501  0.00000000000E+00  0.00000000000E+00  0.13658471555E+04  0.13658471555E+04  0.25500000920E-02 0.  1.
        2   -1    0    0  501    0  0.00000000000E+00  0.00000000000E+00 -0.16480755748E+04  0.16480755748E+04  0.25500000920E-02 0. -1.
    10030    2    1    2    0    0  0.00000000000E+00  0.00000000000E+00 -0.28222841931E+03  0.30139227304E+04  0.30006794804E+04 0.  0.
        3    1    3    3  502    0  0.26705334665E+03  0.11942359054E+04  0.73076201787E+03  0.14253175171E+04  0.10100000352E+00 0.  1.
       -3    1    3    3    0  502 -0.26705334665E+03 -0.11942359054E+04 -0.10129904372E+04  0.15886052133E+04  0.10100000352E+00 0. -1.
</event>
<event>
 5   0  0.1813720E-07  0.3000871E+04  0.7818609E-02  0.8243482E-01
        2   -1    0    0  501    0  0.00000000000E+00  0.00000000000E+00  0.29008585081E+04  0.29008585081E+04  0.25500000920E-02 0.  1.
       -2   -1    0    0    0  501  0.00000000000E+00  0.00000000000E+00 -0.77608269459E+03  0.77608269460E+03  0.25500000920E-02 0. -1.
    10030    2    1    2    0    0  0.00000000000E+00  0.00000000000E+00  0.21247758135E+04  0.36769412027E+04  0.30008705987E+04 0.  0.
        3    1    3    3  502    0  0.11968941152E+04 -0.14286000524E+02 -0.46176895353E+02  0.11978697461E+04  0.10100000352E+00 0. -1.
       -3    1    3    3    0  502 -0.11968941152E+04  0.14286000524E+02  0.21709527088E+04  0.24790714566E+04  0.10100000352E+00 0.  1.
</event>
<event>
 5   0  0.6525507E-08  0.2992491E+04  0.7818609E-02  0.8245878E-01
        1   -1    0    0  501    0  0.00000000000E+00  0.00000000000E+00  0.21191571349E+04  0.21191571349E+04  0.50400001928E-02 0.  1.
       -1   -1    0    0    0  501  0.00000000000E+00  0.00000000000E+00 -0.10564343432E+04  0.10564343432E+04  0.50400001928E-02 0. -1.
    10030    2    1    2    0    0  0.00000000000E+00  0.00000000000E+00  0.10627227917E+04  0.31755914781E+04  0.29924908527E+04 0.  0.
        4    1    3    3  502    0 -0.61809074952E+03  0.67402394560E+03  0.17880521360E+04  0.20083516893E+04  0.12699999809E+01 0.  1.
       -4    1    3    3    0  502  0.61809074952E+03 -0.67402394560E+03 -0.72532934429E+03  0.11672397888E+04  0.12699999809E+01 0. -1.
</event>
<event>
 5   0  0.6374748E-08  0.3001980E+04  0.7818609E-02  0.8243166E-01
        1   -1    0    0  501    0  0.00000000000E+00  0.00000000000E+00  0.24922417840E+04  0.24922417840E+04  0.50400001928E-02 0. -1.
       -1   -1    0    0    0  501  0.00000000000E+00  0.00000000000E+00 -0.90399383261E+03  0.90399383263E+03  0.50400001928E-02 0.  1.
    10030    2    1    2    0    0  0.00000000000E+00  0.00000000000E+00  0.15882479514E+04  0.33962356167E+04  0.30019801480E+04 0.  0.
        1    1    3    3  502    0  0.89698128207E+03 -0.52027178850E+03  0.20218734011E+04  0.22722742361E+04  0.50400001928E-02 0. -1.
       -1    1    3    3    0  502 -0.89698128207E+03  0.52027178850E+03 -0.43362544965E+03  0.11239613805E+04  0.50400001928E-02 0.  1.
</event>
<event>
 5   0  0.1914439E-07  0.2999331E+04  0.7818609E-02  0.8243922E-01
       -2   -1    0    0    0  501  0.00000000000E+00  0.00000000000E+00  0.11426462812E+04  0.11426462812E+04  0.25500000920E-02 0. -1.
        2   -1    0    0  501    0  0.00000000000E+00  0.00000000000E+00 -0.19682345719E+04  0.19682345719E+04  0.25500000920E-02 0.  1.
    10030    2    1    2    0    0  0.00000000000E+00  0.00000000000E+00 -0.82558829071E+03  0.31108808530E+04  0.29993305346E+04 0.  0.
        5    1    3    3  502    0 -0.94515631028E+03  0.10611243123E+04 -0.90985530573E+03  0.16873541491E+04  0.46999998093E+01 0. -1.
       -5    1    3    3    0  502  0.94515631028E+03 -0.10611243123E+04  0.84267015021E+02  0.14235267039E+04  0.46999998093E+01 0.  1.
</event>
<event>
 5   0  0.6525507E-08  0.3000743E+04  0.7818609E-02  0.8243519E-01
       -1   -1    0    0    0  501  0.00000000000E+00  0.00000000000E+00  0.14956997449E+04  0.14956997449E+04  0.50400001928E-02 0. -1.
        1   -1    0    0  501    0  0.00000000000E+00  0.00000000000E+00 -0.15050580828E+04  0.15050580828E+04  0.50400001928E-02 0.  1.
    10030    2    1    2    0    0  0.00000000000E+00  0.00000000000E+00 -0.93583378670E+01  0.30007578278E+04  0.30007432350E+04 0.  0.
        4    1    3    3  502    0  0.14462742896E+04 -0.15643633899E+03  0.36265316162E+03  0.14992333299E+04  0.12699999809E+01 0.  1.
       -4    1    3    3    0  502 -0.14462742896E+04  0.15643633899E+03 -0.37201149948E+03  0.15015244978E+04  0.12699999809E+01 0. -1.
</event>
<event>
 5   0  0.6374748E-08  0.2997496E+04  0.7818609E-02  0.8244446E-01
        1   -1    0    0  501    0  0.00000000000E+00  0.00000000000E+00  0.15756633256E+04  0.15756633256E+04  0.50400001928E-02 0.  1.
       -1   -1    0    0    0  501  0.00000000000E+00  0.00000000000E+00 -0.14255871062E+04  0.14255871062E+04  0.50400001928E-02 0. -1.
    10030    2    1    2    0    0  0.00000000000E+00  0.00000000000E+00  0.15007621935E+03  0.30012504318E+04  0.29974958354E+04 0.  0.
        1    1    3    3  502    0  0.49816544891E+03  0.12895793027E+04 -0.50453210677E+03  0.14716440599E+04  0.50400001928E-02 0. -1.
       -1    1    3    3    0  502 -0.49816544891E+03 -0.12895793027E+04  0.65460832612E+03  0.15296063719E+04  0.50400001928E-02 0.  1.
</event>
<event>
 5   0  0.1810055E-07  0.3000984E+04  0.7818609E-02  0.8243450E-01
        2   -1    0    0  501    0  0.00000000000E+00  0.00000000000E+00  0.18400860049E+04  0.18400860049E+04  0.25500000920E-02 0. -1.
       -2   -1    0    0    0  501  0.00000000000E+00  0.00000000000E+00 -0.12235710648E+04  0.12235710648E+04  0.25500000920E-02 0.  1.
    10030    2    1    2    0    0  0.00000000000E+00  0.00000000000E+00  0.61651494012E+03  0.30636570697E+04  0.30009838335E+04 0.  0.
        4    1    3    3  502    0 -0.24957958628E+03 -0.14244239708E+04  0.71686727368E+03  0.16140551166E+04  0.12699999809E+01 0. -1.
       -4    1    3    3    0  502  0.24957958628E+03  0.14244239708E+04 -0.10035233356E+03  0.14496019530E+04  0.12699999809E+01 0.  1.
</event>
<event>
 5   0  0.6679022E-08  0.3000763E+04  0.7818609E-02  0.8243513E-01
        1   -1    0    0  501    0  0.00000000000E+00  0.00000000000E+00  0.15619307938E+04  0.15619307938E+04  0.50400001928E-02 0.  1.
       -1   -1    0    0    0  501  0.00000000000E+00  0.00000000000E+00 -0.14412573422E+04  0.14412573422E+04  0.50400001928E-02 0. -1.
    10030    2    1    2    0    0  0.00000000000E+00  0.00000000000E+00  0.12067345157E+03  0.30031881360E+04  0.30007627194E+04 0.  0.
        3    1    3    3  502    0  0.12556824134E+04 -0.25880621773E+02  0.88181444389E+03  0.15346025067E+04  0.10100000352E+00 0. -1.
       -3    1    3    3    0  502 -0.12556824134E+04  0.25880621773E+02 -0.76114099232E+03  0.14685856292E+04  0.10100000352E+00 0.  1.
</event>
<event>
 5   0  0.6374748E-08  0.2999928E+04  0.7818609E-02  0.8243751E-01
        1   -1    0    0  501    0  0.00000000000E+00  0.00000000000E+00  0.14371324419E+04  0.14371324419E+04  0.50400001928E-02 0.  1.
       -1   -1    0    0    0  501  0.00000000000E+00  0.00000000000E+00 -0.15655424159E+04  0.15655424159E+04  0.50400001928E-02 0. -1.
    10030    2    1    2    0    0  0.00000000000E+00  0.00000000000E+00 -0.12840997396E+03  0.30026748578E+04  0.29999278625E+04 0.  0.
        1    1    3    3  502    0 -0.12258153464E+03  0.33073194243E+03 -0.15234432402E+04  0.15637420364E+04  0.50400001928E-02 0. -1.
       -1    1    3    3    0  502  0.12258153464E+03 -0.33073194243E+03  0.13950332662E+04  0.14389328213E+04  0.50400001928E-02 0.  1.
</event>
<event>
 5   0  0.6374748E-08  0.2998980E+04  0.7818609E-02  0.8244022E-01
       -1   -1    0    0    0  501  0.00000000000E+00  0.00000000000E+00  0.14558106518E+04  0.14558106518E+04  0.50400001928E-02 0. -1.
        1   -1    0    0  501    0  0.00000000000E+00  0.00000000000E+00 -0.15444798003E+04  0.15444798003E+04  0.50400001928E-02 0.  1.
    10030    2    1    2    0    0  0.00000000000E+00  0.00000000000E+00 -0.88669148498E+02  0.30002904521E+04  0.29989799231E+04 0.  0.
        1    1    3    3  502    0 -0.37923863863E+01  0.13942771154E+04 -0.59634293261E+03  0.15164590170E+04  0.50400001928E-02 0.  1.
       -1    1    3    3    0  502  0.37923863863E+01 -0.13942771154E+04  0.50767378411E+03  0.14838314351E+04  0.50400001928E-02 0. -1.
</event>
<event>
 5   0  0.6464436E-08  0.2999054E+04  0.7818609E-02  0.8244001E-01
       -1   -1    0    0    0  501  0.00000000000E+00  0.00000000000E+00  0.10996935057E+04  0.10996935057E+04  0.50400001928E-02 0.  1.
        1   -1    0    0  501    0  0.00000000000E+00  0.00000000000E+00 -0.20447339521E+04  0.20447339521E+04  0.50400001928E-02 0. -1.
    10030    2    1    2    0    0  0.00000000000E+00  0.00000000000E+00 -0.94504044644E+03  0.31444274578E+04  0.29990536161E+04 0.  0.
        5    1    3    3  502    0  0.12247619896E+04  0.54883704878E+03 -0.11737399724E+04  0.17829614831E+04  0.46999998093E+01 0.  1.
       -5    1    3    3    0  502 -0.12247619896E+04 -0.54883704878E+03  0.22869952601E+03  0.13614659748E+04  0.46999998093E+01 0. -1.
</event>
<event>
 5   0  0.6464436E-08  0.2999148E+04  0.7818609E-02  0.8243974E-01
        1   -1    0    0  501    0  0.00000000000E+00  0.00000000000E+00  0.24157080080E+04  0.24157080080E+04  0.50400001928E-02 0.  1.
       -1   -1    0    0    0  501  0.00000000000E+00  0.00000000000E+00 -0.93087488403E+03  0.93087488405E+03  0.50400001928E-02 0. -1.
    10030    2    1    2    0    0  0.00000000000E+00  0.00000000000E+00  0.14848331239E+04  0.33465828920E+04  0.29991478202E+04 0.  0.
        5    1    3    3  502    0 -0.98636516534E+02  0.22304349069E+03 -0.90858940480E+03  0.94076264682E+03  0.46999998093E+01 0. -1.
       -5    1    3    3    0  502  0.98636516534E+02 -0.22304349069E+03  0.23934225287E+04  0.24058202452E+04  0.46999998093E+01 0.  1.
</event>
<event>
 5   0  0.6636007E-08  0.3000457E+04  0.7818609E-02  0.8243601E-01
        1   -1    0    0  501    0  0.00000000000E+00  0.00000000000E+00  0.16103896977E+04  0.16103896977E+04  0.50400001928E-02 0.  1.
       -1   -1    0    0    0  501  0.00000000000E+00  0.00000000000E+00 -0.13976026611E+04  0.13976026611E+04  0.50400001928E-02 0. -1.
    10030    2    1    2    0    0  0.00000000000E+00  0.00000000000E+00  0.21278703658E+03  0.30079923589E+04  0.30004565833E+04 0.  0.
        2    1    3    3  502    0  0.14861081051E+04 -0.18375784851E+03  0.14508098804E+02  0.14974961542E+04  0.25500000920E-02 0. -1.
       -2    1    3    3    0  502 -0.14861081051E+04  0.18375784851E+03  0.19827893778E+03  0.15104962046E+04  0.25500000920E-02 0.  1.
</event>
<event>
 5   0  0.6636007E-08  0.2998173E+04  0.7818609E-02  0.8244253E-01
        1   -1    0    0  501    0  0.00000000000E+00  0.00000000000E+00  0.16557975085E+04  0.16557975085E+04  0.50400001928E-02 0.  1.
       -1   -1    0    0    0  501  0.00000000000E+00  0.00000000000E+00 -0.13572072808E+04  0.13572072808E+04  0.50400001928E-02 0. -1.
    10030    2    1    2    0    0  0.00000000000E+00  0.00000000000E+00  0.29859022772E+03  0.30130047893E+04  0.29981730664E+04 0.  0.
        2    1    3    3  502    0  0.14844593970E+04  0.13892786254E+03 -0.74887859250E+01  0.14909650345E+04  0.25500000920E-02 0.  1.
       -2    1    3    3    0  502 -0.14844593970E+04 -0.13892786254E+03  0.30607901365E+03  0.15220397547E+04  0.25500000920E-02 0. -1.
</event>
<event>
 5   0  0.6636007E-08  0.2998758E+04  0.7818609E-02  0.8244086E-01
        1   -1    0    0  501    0  0.00000000000E+00  0.00000000000E+00  0.21003843874E+04  0.21003843874E+04  0.50400001928E-02 0.  1.
       -1   -1    0    0    0  501  0.00000000000E+00  0.00000000000E+00 -0.10703459907E+04  0.10703459907E+04  0.50400001928E-02 0. -1.
    10030    2    1    2    0    0  0.00000000000E+00  0.00000000000E+00  0.10300383968E+04  0.31707303781E+04  0.29987584151E+04 0.  0.
        2    1    3    3  502    0  0.64666754316E+03 -0.32843625363E+03  0.19025594653E+04  0.20361192998E+04  0.25500000920E-02 0.  1.
       -2    1    3    3    0  502 -0.64666754316E+03  0.32843625363E+03 -0.87252106853E+03  0.11346110783E+04  0.25500000920E-02 0. -1.
</event>
<event>
 5   0  0.1914439E-07  0.3000699E+04  0.7818609E-02  0.8243531E-01
        2   -1    0    0  501    0  0.00000000000E+00  0.00000000000E+00  0.17412054089E+04  0.17412054089E+04  0.25500000920E-02 0.  1.
       -2   -1    0    0    0  501  0.00000000000E+00  0.00000000000E+00 -0.12928105866E+04  0.12928105866E+04  0.25500000920E-02 0. -1.
    10030    2    1    2    0    0  0.00000000000E+00  0.00000000000E+00  0.44839482223E+03  0.30340159955E+04  0.30006991093E+04 0.  0.
        5    1    3    3  502    0 -0.68614254663E+03  0.87414479481E+03  0.12434103309E+04  0.16676366683E+04  0.46999998093E+01 0.  1.
       -5    1    3    3    0  502  0.68614254663E+03 -0.87414479481E+03 -0.79501550869E+03  0.13663793271E+04  0.46999998093E+01 0. -1.
</event>
<event>
 5   0  0.6374748E-08  0.3000148E+04  0.7818609E-02  0.8243689E-01
       -1   -1    0    0    0  501  0.00000000000E+00  0.00000000000E+00  0.13619945498E+04  0.13619945498E+04  0.50400001928E-02 0.  1.
        1   -1    0    0  501    0  0.00000000000E+00  0.00000000000E+00 -0.16521522589E+04  0.16521522589E+04  0.50400001928E-02 0. -1.
    10030    2    1    2    0    0  0.00000000000E+00  0.00000000000E+00 -0.29015770914E+03  0.30141468087E+04  0.30001482444E+04 0.  0.
        1    1    3    3  502    0 -0.34619887538E+03 -0.14539383722E+04 -0.16293685736E+02  0.14946758630E+04  0.50400001928E-02 0.  1.
       -1    1    3    3    0  502  0.34619887538E+03  0.14539383722E+04 -0.27386402340E+03  0.15194709457E+04  0.50400001928E-02 0. -1.
</event>
<event>
 5   0  0.6017625E-08  0.2999920E+04  0.7818609E-02  0.8243754E-01
        3   -1    0    0  501    0  0.00000000000E+00  0.00000000000E+00  0.15173975449E+04  0.15173975483E+04  0.10100000352E+00 0. -1.
       -3   -1    0    0    0  501  0.00000000000E+00  0.00000000000E+00 -0.14827226883E+04  0.14827226917E+04  0.10100000352E+00 0.  1.
    10030    2    1    2    0    0  0.00000000000E+00  0.00000000000E+00  0.34674856654E+02  0.30001202400E+04  0.29999198504E+04 0.  0.
        4    1    3    3  502    0  0.13949722729E+04  0.94174618207E+02  0.56056950028E+03  0.15063386998E+04  0.12699999809E+01 0. -1.
       -4    1    3    3    0  502 -0.13949722729E+04 -0.94174618207E+02 -0.52589464363E+03  0.14937815402E+04  0.12699999809E+01 0.  1.
</event>
<event>
 5   0  0.1813720E-07  0.2996942E+04  0.7818609E-02  0.8244605E-01
        2   -1    0    0  501    0  0.00000000000E+00  0.00000000000E+00  0.18451300153E+04  0.18451300153E+04  0.25500000920E-02 0.  1.
       -2   -1    0    0    0  501  0.00000000000E+00  0.00000000000E+00 -0.12169418595E+04  0.12169418595E+04  0.25500000920E-02 0. -1.
    10030    2    1    2    0    0  0.00000000000E+00  0.00000000000E+00  0.62818815578E+03  0.30620718748E+04  0.29969424097E+04 0.  0.
        3    1    3    3  502    0  0.23311654747E+03 -0.94495859482E+03  0.14782077386E+04  0.17698554177E+04  0.10100000352E+00 0.  1.
       -3    1    3    3    0  502 -0.23311654747E+03  0.94495859482E+03 -0.85001958287E+03  0.12922164571E+04  0.10100000352E+00 0. -1.
</event>
<event>
 5   0  0.6525507E-08  0.3000709E+04  0.7818609E-02  0.8243528E-01
        1   -1    0    0  501    0  0.00000000000E+00  0.00000000000E+00  0.13124662311E+04  0.13124662311E+04  0.50400001928E-02 0.  1.
       -1   -1    0    0    0  501  0.00000000000E+00  0.00000000000E+00 -0.17151403642E+04  0.17151403642E+04  0.50400001928E-02 0. -1.
    10030    2    1    2    0    0  0.00000000000E+00  0.00000000000E+00 -0.40267413308E+03  0.30276065953E+04  0.30007091226E+04 0.  0.
        4    1    3    3  502    0  0.76867286632E+03  0.12143668319E+04 -0.63591522031E+03  0.15716025446E+04  0.12699999809E+01 0. -1.
       -4    1    3    3    0  502 -0.76867286632E+03 -0.12143668319E+04  0.23324108723E+03  0.14560040507E+04  0.12699999809E+01 0.  1.
</event>
<event>
 5   0  0.1810055E-07  0.2996281E+04  0.7818609E-02  0.8244794E-01
        2   -1    0    0  501    0  0.00000000000E+00  0.00000000000E+00  0.97569430928E+03  0.97569430928E+03  0.25500000920E-02 0. -1.
       -2   -1    0    0    0  501  0.00000000000E+00  0.00000000000E+00 -0.23003368972E+04  0.23003368972E+04  0.25500000920E-02 0.  1.
    10030    2    1    2    0    0  0.00000000000E+00  0.00000000000E+00 -0.13246425879E+04  0.32760312065E+04  0.29962814421E+04 0.  0.
        4    1    3    3  502    0  0.10646282158E+04  0.41414029815E+03  0.39744198638E+03  0.12095069946E+04  0.12699999809E+01 0.  1.
       -4    1    3    3    0  502 -0.10646282158E+04 -0.41414029815E+03 -0.17220845743E+04  0.20665242119E+04  0.12699999809E+01 0. -1.
</event>
<event>
 5   0  0.1817566E-07  0.3014174E+04  0.7818609E-02  0.8239695E-01
       -2   -1    0    0    0  501  0.00000000000E+00  0.00000000000E+00  0.97286082758E+03  0.97286082759E+03  0.25500000920E-02 0.  1.
        2   -1    0    0  501    0  0.00000000000E+00  0.00000000000E+00 -0.23346729421E+04  0.23346729421E+04  0.25500000920E-02 0. -1.
    10030    2    1    2    0    0  0.00000000000E+00  0.00000000000E+00 -0.13618121145E+04  0.33075337697E+04  0.30141744147E+04 0.  0.
        1    1    3    3  502    0  0.11462543026E+04 -0.27579509198E+02  0.39237377021E+03  0.12118649806E+04  0.50400001928E-02 0.  1.
       -1    1    3    3    0  502 -0.11462543026E+04  0.27579509198E+02 -0.17541858848E+04  0.20956687892E+04  0.50400001928E-02 0. -1.
</event>
<event>
 5   0  0.6679022E-08  0.2999699E+04  0.7818609E-02  0.8243817E-01
        1   -1    0    0  501    0  0.00000000000E+00  0.00000000000E+00  0.29837387875E+04  0.29837387875E+04  0.50400001928E-02 0. -1.
       -1   -1    0    0    0  501  0.00000000000E+00  0.00000000000E+00 -0.75393639113E+03  0.75393639115E+03  0.50400001928E-02 0.  1.
    10030    2    1    2    0    0  0.00000000000E+00  0.00000000000E+00  0.22298023964E+04  0.37376751787E+04  0.29996994873E+04 0.  0.
        3    1    3    3  502    0  0.54244833523E+03 -0.13942161220E+04  0.98151076443E+03  0.17892602332E+04  0.10100000352E+00 0.  1.
       -3    1    3    3    0  502 -0.54244833523E+03  0.13942161220E+04  0.12482916319E+04  0.19484149455E+04  0.10100000352E+00 0. -1.
</event>
<event>
 5   0  0.1813720E-07  0.3004612E+04  0.7818609E-02  0.8242415E-01
        2   -1    0    0  501    0  0.00000000000E+00  0.00000000000E+00  0.14582163427E+04  0.14582163427E+04  0.25500000920E-02 0. -1.
       -2   -1    0    0    0  501  0.00000000000E+00  0.00000000000E+00 -0.15477286797E+04  0.15477286797E+04  0.25500000920E-02 0.  1.
    10030    2    1    2    0    0  0.00000000000E+00  0.00000000000E+00 -0.89512337046E+02  0.30059450224E+04  0.30046119582E+04 0.  0.
        3    1    3    3  502    0 -0.11756392480E+03  0.26161656812E+03  0.14305705210E+04  0.14590395920E+04  0.10100000352E+00 0. -1.
       -3    1    3    3    0  502  0.11756392480E+03 -0.26161656812E+03 -0.15200828581E+04  0.15469054304E+04  0.10100000352E+00 0.  1.
</event>
<event>
 5   0  0.6525507E-08  0.3008854E+04  0.7818609E-02  0.8241207E-01
       -1   -1    0    0    0  501  0.00000000000E+00  0.00000000000E+00  0.13740411152E+04  0.13740411152E+04  0.50400001928E-02 0.  1.
        1   -1    0    0  501    0  0.00000000000E+00  0.00000000000E+00 -0.16471852307E+04  0.16471852307E+04  0.50400001928E-02 0. -1.
    10030    2    1    2    0    0  0.00000000000E+00  0.00000000000E+00 -0.27314411548E+03  0.30212263458E+04  0.30088537560E+04 0.  0.
        4    1    3    3  502    0 -0.78311987412E+03 -0.11085847820E+04  0.51498887132E+03  0.14517066187E+04  0.12699999809E+01 0.  1.
       -4    1    3    3    0  502  0.78311987412E+03  0.11085847820E+04 -0.78813298680E+03  0.15695197272E+04  0.12699999809E+01 0. -1.
</event>
<event>
 5   0  0.1821305E-07  0.2999230E+04  0.7818609E-02  0.8243951E-01
       -2   -1    0    0    0  501  0.00000000000E+00  0.00000000000E+00  0.13508524848E+04  0.13508524848E+04  0.25500000920E-02 0. -1.
        2   -1    0    0  501    0  0.00000000000E+00  0.00000000000E+00 -0.16647598121E+04  0.16647598121E+04  0.25500000920E-02 0.  1.
    10030    2    1    2    0    0  0.00000000000E+00  0.00000000000E+00 -0.31390732723E+03  0.30156122969E+04  0.29992298537E+04 0.  0.
        2    1    3    3  502    0 -0.78862224411E+03  0.12454154855E+04  0.11997799928E+03  0.14789792073E+04  0.25500000920E-02 0. -1.
       -2    1    3    3    0  502  0.78862224411E+03 -0.12454154855E+04 -0.43388532651E+03  0.15366330896E+04  0.25500000920E-02 0.  1.
</event>
<event>
 5   0  0.6525507E-08  0.3004581E+04  0.7818609E-02  0.8242424E-01
       -1   -1    0    0    0  501  0.00000000000E+00  0.00000000000E+00  0.21159017543E+04  0.21159017543E+04  0.50400001928E-02 0.  1.
        1   -1    0    0  501    0  0.00000000000E+00  0.00000000000E+00 -0.10666261523E+04  0.10666261523E+04  0.50400001928E-02 0. -1.
    10030    2    1    2    0    0  0.00000000000E+00  0.00000000000E+00  0.10492756020E+04  0.31825279066E+04  0.30045806009E+04 0.  0.
        4    1    3    3  502    0 -0.15495025604E+03  0.11955290859E+04 -0.42487672365E+03  0.12782101628E+04  0.12699999809E+01 0. -1.
       -4    1    3    3    0  502  0.15495025604E+03 -0.11955290859E+04  0.14741523257E+04  0.19043177438E+04  0.12699999809E+01 0.  1.
</event>
<event>
 5   0  0.6525507E-08  0.2999783E+04  0.7818609E-02  0.8243793E-01
       -1   -1    0    0    0  501  0.00000000000E+00  0.00000000000E+00  0.12475698721E+04  0.12475698721E+04  0.50400001928E-02 0.  1.
        1   -1    0    0  501    0  0.00000000000E+00  0.00000000000E+00 -0.18032457244E+04  0.18032457244E+04  0.50400001928E-02 0. -1.
    10030    2    1    2    0    0  0.00000000000E+00  0.00000000000E+00 -0.55567585231E+03  0.30508155965E+04  0.29997833507E+04 0.  0.
        4    1    3    3  502    0 -0.53640756372E+03  0.13974472810E+04 -0.37475573797E+03  0.15430604180E+04  0.12699999809E+01 0.  1.
       -4    1    3    3    0  502  0.53640756372E+03 -0.13974472810E+04 -0.18092011434E+03  0.15077551785E+04  0.12699999809E+01 0. -1.
</event>
<event>
 5   0  0.6636007E-08  0.3004667E+04  0.7818609E-02  0.8242399E-01
       -1   -1    0    0    0  501  0.00000000000E+00  0.00000000000E+00  0.99756009991E+03  0.99756009992E+03  0.50400001928E-02 0.  1.
        1   -1    0    0  501    0  0.00000000000E+00  0.00000000000E+00 -0.22625264695E+04  0.22625264695E+04  0.50400001928E-02 0. -1.
    10030    2    1    2    0    0  0.00000000000E+00  0.00000000000E+00 -0.12649663696E+04  0.32600865694E+04  0.30046671236E+04 0.  0.
        2    1    3    3  502    0 -0.54155386289E+03  0.11858119343E+04  0.17770265444E+03  0.13156780622E+04  0.25500000920E-02 0.  1.
       -2    1    3    3    0  502  0.54155386289E+03 -0.11858119343E+04 -0.14426690240E+04  0.19444085072E+04  0.25500000920E-02 0. -1.
</event>
<event>
 5   0  0.1821305E-07  0.3000890E+04  0.7818609E-02  0.8243477E-01
        2   -1    0    0  501    0  0.00000000000E+00  0.00000000000E+00  0.17906710596E+04  0.17906710596E+04  0.25500000920E-02 0.  1.
       -2   -1    0    0    0  501  0.00000000000E+00  0.00000000000E+00 -0.12572577774E+04  0.12572577774E+04  0.25500000920E-02 0. -1.
    10030    2    1    2    0    0  0.00000000000E+00  0.00000000000E+00  0.53341328221E+03  0.30479288370E+04  0.30008899456E+04 0.  0.
        2    1    3    3  502    0 -0.95203563592E+03  0.99582783049E+03  0.87040576763E+03  0.16296168631E+04  0.25500000920E-02 0.  1.
       -2    1    3    3    0  502  0.95203563592E+03 -0.99582783049E+03 -0.33699248542E+03  0.14183119739E+04  0.25500000920E-02 0. -1.
</event>
<event>
 5   0  0.1817566E-07  0.3000853E+04  0.7818609E-02  0.8243487E-01
       -2   -1    0    0    0  501  0.00000000000E+00  0.00000000000E+00  0.14415243899E+04  0.14415243899E+04  0.25500000920E-02 0. -1.
        2   -1    0    0  501    0  0.00000000000E+00  0.00000000000E+00 -0.15617357005E+04  0.15617357005E+04  0.25500000920E-02 0.  1.
    10030    2    1    2    0    0  0.00000000000E+00  0.00000000000E+00 -0.12021131056E+03  0.30032600904E+04  0.30008532805E+04 0.  0.
        1    1    3    3  502    0  0.14610180603E+04 -0.23149047793E+03 -0.31154108809E+03  0.15116942361E+04  0.50400001928E-02 0.  1.
       -1    1    3    3    0  502 -0.14610180603E+04  0.23149047793E+03  0.19132977753E+03  0.14915658543E+04  0.50400001928E-02 0. -1.
</event>
<event>
 5   0  0.1914439E-07  0.2999941E+04  0.7818609E-02  0.8243748E-01
        2   -1    0    0  501    0  0.00000000000E+00  0.00000000000E+00  0.20088372984E+04  0.20088372984E+04  0.25500000920E-02 0.  1.
       -2   -1    0    0    0  501  0.00000000000E+00  0.00000000000E+00 -0.11200065751E+04  0.11200065751E+04  0.25500000920E-02 0. -1.
    10030    2    1    2    0    0  0.00000000000E+00  0.00000000000E+00  0.88883072337E+03  0.31288438735E+04  0.29999406544E+04 0.  0.
        5    1    3    3  502    0 -0.93928021172E+03 -0.91525660822E+03 -0.31483920800E+03  0.13487356271E+04  0.46999998093E+01 0.  1.
       -5    1    3    3    0  502  0.93928021172E+03  0.91525660822E+03  0.12036699314E+04  0.17801082463E+04  0.46999998093E+01 0. -1.
</event>
<event>
 5   0  0.1817566E-07  0.3002745E+04  0.7818609E-02  0.8242948E-01
       -2   -1    0    0    0  501  0.00000000000E+00  0.00000000000E+00  0.97310966596E+03  0.97310966596E+03  0.25500000920E-02 0.  1.
        2   -1    0    0  501    0  0.00000000000E+00  0.00000000000E+00 -0.23164076899E+04  0.23164076899E+04  0.25500000920E-02 0. -1.
    10030    2    1    2    0    0  0.00000000000E+00  0.00000000000E+00 -0.13432980239E+04  0.32895173559E+04  0.30027445535E+04 0.  0.
        1    1    3    3  502    0 -0.84498191164E+03  0.70902120082E+03  0.44415953323E+03  0.11891102494E+04  0.50400001928E-02 0.  1.
       -1    1    3    3    0  502  0.84498191164E+03 -0.70902120082E+03 -0.17874575572E+04  0.21004071065E+04  0.50400001928E-02 0. -1.
</event>
<event>
 5   0  0.6374748E-08  0.2999364E+04  0.7818609E-02  0.8243912E-01
       -1   -1    0    0    0  501  0.00000000000E+00  0.00000000000E+00  0.12843764452E+04  0.12843764452E+04  0.50400001928E-02 0. -1.
        1   -1    0    0  501    0  0.00000000000E+00  0.00000000000E+00 -0.17510805469E+04  0.17510805470E+04  0.50400001928E-02 0.  1.
    10030    2    1    2    0    0  0.00000000000E+00  0.00000000000E+00 -0.46670410173E+03  0.30354569922E+04  0.29993643381E+04 0.  0.
        1    1    3    3  502    0 -0.24304247421E+03 -0.36722537028E+03 -0.16841726613E+04  0.17407934025E+04  0.50400001928E-02 0.  1.
       -1    1    3    3    0  502  0.24304247421E+03  0.36722537028E+03  0.12174685596E+04  0.12946635897E+04  0.50400001928E-02 0. -1.
</event>
<event>
 5   0  0.1914439E-07  0.3001519E+04  0.7818609E-02  0.8243297E-01
       -2   -1    0    0    0  501  0.00000000000E+00  0.00000000000E+00  0.16869425862E+04  0.16869425862E+04  0.25500000920E-02 0.  1.
        2   -1    0    0  501    0  0.00000000000E+00  0.00000000000E+00 -0.13351252938E+04  0.13351252938E+04  0.25500000920E-02 0. -1.
    10030    2    1    2    0    0  0.00000000000E+00  0.00000000000E+00  0.35181729237E+03  0.30220678799E+04  0.30015194258E+04 0.  0.
        5    1    3    3  502    0 -0.72088694580E+03  0.11710508587E+04 -0.42922132631E+03  0.14405870814E+04  0.46999998093E+01 0. -1.
       -5    1    3    3    0  502  0.72088694580E+03 -0.11710508587E+04  0.78103861868E+03  0.15814807985E+04  0.46999998093E+01 0.  1.
</event>
<event>
 5   0  0.6017625E-08  0.2991832E+04  0.7818609E-02  0.8246067E-01
        3   -1    0    0  501    0  0.00000000000E+00  0.00000000000E+00  0.27283321879E+04  0.27283321898E+04  0.10100000352E+00 0.  1.
       -3   -1    0    0    0  501  0.00000000000E+00  0.00000000000E+00 -0.82019523677E+03  0.82019524299E+03  0.10100000352E+00 0. -1.
    10030    2    1    2    0    0  0.00000000000E+00  0.00000000000E+00  0.19081369511E+04  0.35485274328E+04  0.29918322675E+04 0.  0.
        5    1    3    3  502    0 -0.10440423045E+02 -0.47003852753E+03  0.26384145711E+04  0.26799811116E+04  0.46999998093E+01 0.  1.
       -5    1    3    3    0  502  0.10440423045E+02  0.47003852753E+03 -0.73027761994E+03  0.86854632115E+03  0.46999998093E+01 0. -1.
</event>
<event>
 5   0  0.1810055E-07  0.2999222E+04  0.7818609E-02  0.8243953E-01
       -2   -1    0    0    0  501  0.00000000000E+00  0.00000000000E+00  0.12821325355E+04  0.12821325355E+04  0.25500000920E-02 0. -1.
        2   -1    0    0  501    0  0.00000000000E+00  0.00000000000E+00 -0.17539781597E+04  0.17539781597E+04  0.25500000920E-02 0.  1.
    10030    2    1    2    0    0  0.00000000000E+00  0.00000000000E+00 -0.47184562416E+03  0.30361106952E+04  0.29992215424E+04 0.  0.
        4    1    3    3  502    0 -0.13142489010E+04 -0.61968447051E+02  0.49246917909E+03  0.14048550699E+04  0.12699999809E+01 0. -1.
       -4    1    3    3    0  502  0.13142489010E+04  0.61968447051E+02 -0.96431480325E+03  0.16312556252E+04  0.12699999809E+01 0.  1.
</event>
<event>
 5   0  0.1810055E-07  0.2998884E+04  0.7818609E-02  0.8244050E-01
        2   -1    0    0  501    0  0.00000000000E+00  0.00000000000E+00  0.16161269492E+04  0.16161269492E+04  0.25500000920E-02 0.  1.
       -2   -1    0    0    0  501  0.00000000000E+00  0.00000000000E+00 -0.13911814038E+04  0.13911814038E+04  0.25500000920E-02 0. -1.
    10030    2    1    2    0    0  0.00000000000E+00  0.00000000000E+00  0.22494554546E+03  0.30073083530E+04  0.29988836309E+04 0.  0.
        4    1    3    3  502    0  0.10390329340E+04 -0.58519081064E+03  0.10240294046E+04  0.15718382733E+04  0.12699999809E+01 0.  1.
       -4    1    3    3    0  502 -0.10390329340E+04  0.58519081064E+03 -0.79908385917E+03  0.14354700797E+04  0.12699999809E+01 0. -1.
</event>
<event>
 5   0  0.6636007E-08  0.2999623E+04  0.7818609E-02  0.8243838E-01
        1   -1    0    0  501    0  0.00000000000E+00  0.00000000000E+00  0.17761827118E+04  0.17761827118E+04  0.50400001928E-02 0.  1.
       -1   -1    0    0    0  501  0.00000000000E+00  0.00000000000E+00 -0.12664436015E+04  0.12664436015E+04  0.50400001928E-02 0. -1.
    10030    2    1    2    0    0  0.00000000000E+00  0.00000000000E+00  0.50973911025E+03  0.30426263133E+04  0.29996234633E+04 0.  0.
        2    1    3    3  502    0  0.90185850462E+03 -0.42745273801E+03 -0.88072063127E+03  0.13310647753E+04  0.25500000920E-02 0. -1.
       -2    1    3    3    0  502 -0.90185850462E+03  0.42745273801E+03  0.13904597415E+04  0.17115615380E+04  0.25500000920E-02 0.  1.
</event>
<event>
 5   0  0.6679022E-08  0.2999246E+04  0.7818609E-02  0.8243946E-01
       -1   -1    0    0    0  501  0.00000000000E+00  0.00000000000E+00  0.11194516199E+04  0.11194516200E+04  0.50400001928E-02 0. -1.
        1   -1    0    0  501    0  0.00000000000E+00  0.00000000000E+00 -0.20089028744E+04  0.20089028744E+04  0.50400001928E-02 0.  1.
    10030    2    1    2    0    0  0.00000000000E+00  0.00000000000E+00 -0.88945125448E+03  0.31283544944E+04  0.29992462901E+04 0.  0.
        3    1    3    3  502    0  0.13912045644E+04  0.80213371556E+02  0.13318752508E+03  0.13998654407E+04  0.10100000352E+00 0. -1.
       -3    1    3    3    0  502 -0.13912045644E+04 -0.80213371556E+02 -0.10226387796E+04  0.17284890537E+04  0.10100000352E+00 0.  1.
</event>
<event>
 5   0  0.6464436E-08  0.2993010E+04  0.7818609E-02  0.8245730E-01
       -1   -1    0    0    0  501  0.00000000000E+00  0.00000000000E+00  0.22560977706E+04  0.22560977707E+04  0.50400001928E-02 0. -1.
        1   -1    0    0  501    0  0.00000000000E+00  0.00000000000E+00 -0.99265519579E+03  0.99265519580E+03  0.50400001928E-02 0.  1.
    10030    2    1    2    0    0  0.00000000000E+00  0.00000000000E+00  0.12634425749E+04  0.32487529664E+04  0.29930099728E+04 0.  0.
        5    1    3    3  502    0 -0.36568280202E+03 -0.10873074756E+04 -0.41140582335E+03  0.12187035323E+04  0.46999998093E+01 0.  1.
       -5    1    3    3    0  502  0.36568280202E+03  0.10873074756E+04  0.16748483982E+04  0.20300494342E+04  0.46999998093E+01 0. -1.
</event>
<event>
 5   0  0.1810055E-07  0.2998811E+04  0.7818609E-02  0.8244070E-01
        2   -1    0    0  501    0  0.00000000000E+00  0.00000000000E+00  0.18543532667E+04  0.18543532667E+04  0.25500000920E-02 0.  1.
       -2   -1    0    0    0  501  0.00000000000E+00  0.00000000000E+00 -0.12123994869E+04  0.12123994869E+04  0.25500000920E-02 0. -1.
    10030    2    1    2    0    0  0.00000000000E+00  0.00000000000E+00  0.64195377979E+03  0.30667527536E+04  0.29988110638E+04 0.  0.
        4    1    3    3  502    0  0.57854331650E+03 -0.32616891768E+02 -0.10932642520E+04  0.12373376937E+04  0.12699999809E+01 0. -1.
       -4    1    3    3    0  502 -0.57854331650E+03  0.32616891768E+02  0.17352180318E+04  0.18294150599E+04  0.12699999809E+01 0.  1.
</event>
<event>
 5   0  0.1914439E-07  0.3001388E+04  0.7818609E-02  0.8243335E-01
        2   -1    0    0  501    0  0.00000000000E+00  0.00000000000E+00  0.19663205629E+04  0.19663205629E+04  0.25500000920E-02 0. -1.
       -2   -1    0    0    0  501  0.00000000000E+00  0.00000000000E+00 -0.11453281151E+04  0.11453281151E+04  0.25500000920E-02 0.  1.
    10030    2    1    2    0    0  0.00000000000E+00  0.00000000000E+00  0.82099244775E+03  0.31116486780E+04  0.30013878283E+04 0.  0.
        5    1    3    3  502    0  0.72986827295E+03 -0.25725857642E+03 -0.92249490290E+03  0.12041215083E+04  0.46999998093E+01 0.  1.
       -5    1    3    3    0  502 -0.72986827295E+03  0.25725857642E+03  0.17434873506E+04  0.19075271696E+04  0.46999998093E+01 0. -1.
</event>
<event>
 5   0  0.1817566E-07  0.3002423E+04  0.7818609E-02  0.8243039E-01
       -2   -1    0    0    0  501  0.00000000000E+00  0.00000000000E+00  0.16085289992E+04  0.16085289992E+04  0.25500000920E-02 0.  1.
        2   -1    0    0  501    0  0.00000000000E+00  0.00000000000E+00 -0.14010539988E+04  0.14010539988E+04  0.25500000920E-02 0. -1.
    10030    2    1    2    0    0  0.00000000000E+00  0.00000000000E+00  0.20747500040E+03  0.30095829981E+04  0.30024230126E+04 0.  0.
        1    1    3    3  502    0 -0.13476540279E+04 -0.60081893161E+03 -0.17347438473E+03  0.14856810323E+04  0.50400001928E-02 0. -1.
       -1    1    3    3    0  502  0.13476540279E+04  0.60081893161E+03  0.38094938513E+03  0.15239019658E+04  0.50400001928E-02 0.  1.
</event>
<event>
 5   0  0.1817566E-07  0.2999908E+04  0.7818609E-02  0.8243757E-01
       -2   -1    0    0    0  501  0.00000000000E+00  0.00000000000E+00  0.10526105656E+04  0.10526105657E+04  0.25500000920E-02 0. -1.
        2   -1    0    0  501    0  0.00000000000E+00  0.00000000000E+00 -0.21374113720E+04  0.21374113720E+04  0.25500000920E-02 0.  1.
    10030    2    1    2    0    0  0.00000000000E+00  0.00000000000E+00 -0.10848008063E+04  0.31900219376E+04  0.29999078608E+04 0.  0.
        1    1    3    3  502    0  0.10301988774E+04  0.71698126214E+03 -0.14157205732E+04  0.18919927587E+04  0.50400001928E-02 0.  1.
       -1    1    3    3    0  502 -0.10301988774E+04 -0.71698126214E+03  0.33091976688E+03  0.12980291790E+04  0.50400001928E-02 0. -1.
</event>
<event>
 5   0  0.6464436E-08  0.2999464E+04  0.7818609E-02  0.8243884E-01
       -1   -1    0    0    0  501  0.00000000000E+00  0.00000000000E+00  0.13956752348E+04  0.13956752348E+04  0.50400001928E-02 0.  1.
        1   -1    0    0  501    0  0.00000000000E+00  0.00000000000E+00 -0.16115469201E+04  0.16115469201E+04  0.50400001928E-02 0. -1.
    10030    2    1    2    0    0  0.00000000000E+00  0.00000000000E+00 -0.21587168530E+03  0.30072221550E+04  0.29994640363E+04 0.  0.
        5    1    3    3  502    0 -0.31169114257E+03  0.13991196693E+04 -0.55008310420E+03  0.15353503603E+04  0.46999998093E+01 0. -1.
       -5    1    3    3    0  502  0.31169114257E+03 -0.13991196693E+04  0.33421141889E+03  0.14718717947E+04  0.46999998093E+01 0.  1.
</event>
<event>
 5   0  0.6464436E-08  0.2996515E+04  0.7818609E-02  0.8244727E-01
        1   -1    0    0  501    0  0.00000000000E+00  0.00000000000E+00  0.24031530149E+04  0.24031530150E+04  0.50400001928E-02 0.  1.
       -1   -1    0    0    0  501  0.00000000000E+00  0.00000000000E+00 -0.93409618209E+03  0.93409618211E+03  0.50400001928E-02 0. -1.
    10030    2    1    2    0    0  0.00000000000E+00  0.00000000000E+00  0.14690568329E+04  0.33372491971E+04  0.29965153471E+04 0.  0.
        5    1    3    3  502    0  0.10041056885E+04 -0.10417727566E+03  0.19675180068E+04  0.22113865188E+04  0.46999998093E+01 0.  1.
       -5    1    3    3    0  502 -0.10041056885E+04  0.10417727566E+03 -0.49846117397E+03  0.11258626783E+04  0.46999998093E+01 0. -1.
</event>
<event>
 5   0  0.1810055E-07  0.3000023E+04  0.7818609E-02  0.8243724E-01
       -2   -1    0    0    0  501  0.00000000000E+00  0.00000000000E+00  0.10701700213E+04  0.10701700213E+04  0.25500000920E-02 0.  1.
        2   -1    0    0  501    0  0.00000000000E+00  0.00000000000E+00 -0.21025012391E+04  0.21025012391E+04  0.25500000920E-02 0. -1.
    10030    2    1    2    0    0  0.00000000000E+00  0.00000000000E+00 -0.10323312178E+04  0.31726712604E+04  0.30000225305E+04 0.  0.
        4    1    3    3  502    0  0.13518021556E+04 -0.63218534665E+03 -0.67656762151E+03  0.16385276134E+04  0.12699999809E+01 0. -1.
       -4    1    3    3    0  502 -0.13518021556E+04  0.63218534665E+03 -0.35576359626E+03  0.15341436470E+04  0.12699999809E+01 0.  1.
</event>
<event>
 5   0  0.6525507E-08  0.2994175E+04  0.7818609E-02  0.8245396E-01
        1   -1    0    0  501    0  0.00000000000E+00  0.00000000000E+00  0.12215724745E+04  0.12215724745E+04  0.50400001928E-02 0. -1.
       -1   -1    0    0    0  501  0.00000000000E+00  0.00000000000E+00 -0.18347430881E+04  0.18347430881E+04  0.50400001928E-02 0.  1.
    10030    2    1    2    0    0  0.00000000000E+00  0.00000000000E+00 -0.61317061361E+03  0.30563155627E+04  0.29941754487E+04 0.  0.
        4    1    3    3  502    0  0.97158406576E+03 -0.58347071026E+03 -0.13050766989E+04  0.17284792361E+04  0.12699999809E+01 0.  1.
       -4    1    3    3    0  502 -0.97158406576E+03  0.58347071026E+03  0.69190608529E+03  0.13278363266E+04  0.12699999809E+01 0. -1.
</event>
<event>
 5   0  0.1810055E-07  0.3000477E+04  0.7818609E-02  0.8243595E-01
       -2   -1    0    0    0  501  0.00000000000E+00  0.00000000000E+00  0.17678082551E+04  0.17678082551E+04  0.25500000920E-02 0.  1.
        2   -1    0    0  501    0  0.00000000000E+00  0.00000000000E+00 -0.12731676173E+04  0.12731676173E+04  0.25500000920E-02 0. -1.
    10030    2    1    2    0    0  0.00000000000E+00  0.00000000000E+00  0.49464063772E+03  0.30409758724E+04  0.30004774447E+04 0.  0.
        4    1    3    3  502    0  0.12905013385E+04 -0.15341807105E+03 -0.51231861298E+03  0.13969261911E+04  0.12699999809E+01 0. -1.
       -4    1    3    3    0  502 -0.12905013385E+04  0.15341807105E+03  0.10069592507E+04  0.16440496813E+04  0.12699999809E+01 0.  1.
</event>
<event>
 5   0  0.6679022E-08  0.2999008E+04  0.7818609E-02  0.8244014E-01
        1   -1    0    0  501    0  0.00000000000E+00  0.00000000000E+00  0.26218518994E+04  0.26218518994E+04  0.50400001928E-02 0. -1.
       -1   -1    0    0    0  501  0.00000000000E+00  0.00000000000E+00 -0.85760474337E+03  0.85760474338E+03  0.50400001928E-02 0.  1.
    10030    2    1    2    0    0  0.00000000000E+00  0.00000000000E+00  0.17642471561E+04  0.34794566428E+04  0.29990082530E+04 0.  0.
        3    1    3    3  502    0  0.12851479448E+04 -0.77259159018E+03  0.88572020682E+03  0.17415519803E+04  0.10100000352E+00 0. -1.
       -3    1    3    3    0  502 -0.12851479448E+04  0.77259159018E+03  0.87852694923E+03  0.17379046625E+04  0.10100000352E+00 0.  1.
</event>
<event>
 5   0  0.6525507E-08  0.3003420E+04  0.7818609E-02  0.8242755E-01
        1   -1    0    0  501    0  0.00000000000E+00  0.00000000000E+00  0.19523775282E+04  0.19523775283E+04  0.50400001928E-02 0. -1.
       -1   -1    0    0    0  501  0.00000000000E+00  0.00000000000E+00 -0.11550701671E+04  0.11550701671E+04  0.50400001928E-02 0.  1.
    10030    2    1    2    0    0  0.00000000000E+00  0.00000000000E+00  0.79730736112E+03  0.31074476954E+04  0.30034200758E+04 0.  0.
        4    1    3    3  502    0  0.79617715684E+03  0.38881664765E+03 -0.85579972810E+03  0.12318568253E+04  0.12699999809E+01 0.  1.
       -4    1    3    3    0  502 -0.79617715684E+03 -0.38881664765E+03  0.16531070892E+04  0.18755908701E+04  0.12699999809E+01 0. -1.
</event>
<event>
 5   0  0.6636007E-08  0.2992210E+04  0.7818609E-02  0.8245959E-01
       -1   -1    0    0    0  501  0.00000000000E+00  0.00000000000E+00  0.15275906017E+04  0.15275906017E+04  0.50400001928E-02 0.  1.
        1   -1    0    0  501    0  0.00000000000E+00  0.00000000000E+00 -0.14652680863E+04  0.14652680863E+04  0.50400001928E-02 0. -1.
    10030    2    1    2    0    0  0.00000000000E+00  0.00000000000E+00  0.62322515451E+02  0.29928586880E+04  0.29922097237E+04 0.  0.
        2    1    3    3  502    0 -0.11871160248E+04  0.90500845770E+03  0.13140770625E+03  0.14985168501E+04  0.25500000920E-02 0.  1.
       -2    1    3    3    0  502  0.11871160248E+04 -0.90500845770E+03 -0.69085190803E+02  0.14943418379E+04  0.25500000920E-02 0. -1.
</event>
<event>
 5   0  0.1817566E-07  0.2999955E+04  0.7818609E-02  0.8243744E-01
       -2   -1    0    0    0  501  0.00000000000E+00  0.00000000000E+00  0.12824441085E+04  0.12824441085E+04  0.25500000920E-02 0.  1.
        2   -1    0    0  501    0  0.00000000000E+00  0.00000000000E+00 -0.17544097669E+04  0.17544097669E+04  0.25500000920E-02 0. -1.
    10030    2    1    2    0    0  0.00000000000E+00  0.00000000000E+00 -0.47196565835E+03  0.30368538754E+04  0.29999549793E+04 0.  0.
        1    1    3    3  502    0 -0.76590043533E+03  0.69378046344E+03  0.86458665487E+03  0.13473844634E+04  0.50400001928E-02 0.  1.
       -1    1    3    3    0  502  0.76590043533E+03 -0.69378046344E+03 -0.13365523132E+04  0.16894694121E+04  0.50400001928E-02 0. -1.
</event>
<event>
 5   0  0.6374748E-08  0.2998582E+04  0.7818609E-02  0.8244136E-01
       -1   -1    0    0    0  501  0.00000000000E+00  0.00000000000E+00  0.20598713606E+04  0.20598713606E+04  0.50400001928E-02 0. -1.
        1   -1    0    0  501    0  0.00000000000E+00  0.00000000000E+00 -0.10912686935E+04  0.10912686935E+04  0.50400001928E-02 0.  1.
    10030    2    1    2    0    0  0.00000000000E+00  0.00000000000E+00  0.96860266708E+03  0.31511400541E+04  0.29985817504E+04 0.  0.
        1    1    3    3  502    0  0.14164029744E+04  0.45920957743E+03  0.29986629425E+03  0.15188780781E+04  0.50400001928E-02 0.  1.
       -1    1    3    3    0  502 -0.14164029744E+04 -0.45920957743E+03  0.66873637283E+03  0.16322619759E+04  0.50400001928E-02 0. -1.
</event>
<event>
 5   0  0.1817566E-07  0.3002475E+04  0.7818609E-02  0.8243025E-01
        2   -1    0    0  501    0  0.00000000000E+00  0.00000000000E+00  0.28325182052E+04  0.28325182052E+04  0.25500000920E-02 0.  1.
       -2   -1    0    0    0  501  0.00000000000E+00  0.00000000000E+00 -0.79565734357E+03  0.79565734358E+03  0.25500000920E-02 0. -1.
    10030    2    1    2    0    0  0.00000000000E+00  0.00000000000E+00  0.20368608616E+04  0.36281755487E+04  0.30024749196E+04 0.  0.
        1    1    3    3  502    0  0.12068938334E+04  0.45019744120E+03  0.19501048615E+04  0.23371305980E+04  0.50400001928E-02 0.  1.
       -1    1    3    3    0  502 -0.12068938334E+04 -0.45019744120E+03  0.86756000114E+02  0.12910449508E+04  0.50400001928E-02 0. -1.
</event>
<event>
 5   0  0.1821305E-07  0.3000161E+04  0.7818609E-02  0.8243685E-01
        2   -1    0    0  501    0  0.00000000000E+00  0.00000000000E+00  0.16274846413E+04  0.16274846413E+04  0.25500000920E-02 0. -1.
       -2   -1    0    0    0  501  0.00000000000E+00  0.00000000000E+00 -0.13826501279E+04  0.13826501279E+04  0.25500000920E-02 0.  1.
    10030    2    1    2    0    0  0.00000000000E+00  0.00000000000E+00  0.24483451338E+03  0.30101347692E+04  0.30001612274E+04 0.  0.
        2    1    3    3  502    0 -0.18855571970E+03  0.67882429408E+03  0.14511634927E+04  0.16131432560E+04  0.25500000920E-02 0. -1.
       -2    1    3    3    0  502  0.18855571970E+03 -0.67882429408E+03 -0.12063289794E+04  0.13969915133E+04  0.25500000920E-02 0.  1.
</event>
<event>
 5   0  0.1810055E-07  0.3001850E+04  0.7818609E-02  0.8243203E-01
       -2   -1    0    0    0  501  0.00000000000E+00  0.00000000000E+00  0.14596819065E+04  0.14596819065E+04  0.25500000920E-02 0.  1.
        2   -1    0    0  501    0  0.00000000000E+00  0.00000000000E+00 -0.15433331383E+04  0.15433331383E+04  0.25500000920E-02 0. -1.
    10030    2    1    2    0    0  0.00000000000E+00  0.00000000000E+00 -0.83651231774E+02  0.30030150447E+04  0.30018497348E+04 0.  0.
        4    1    3    3  502    0 -0.34549278162E+03  0.78994481875E+03 -0.12708772340E+04  0.15357436751E+04  0.12699999809E+01 0. -1.
       -4    1    3    3    0  502  0.34549278162E+03 -0.78994481875E+03  0.11872260022E+04  0.14672713696E+04  0.12699999809E+01 0.  1.
</event>
<event>
 5   0  0.6525507E-08  0.2999195E+04  0.7818609E-02  0.8243961E-01
        1   -1    0    0  501    0  0.00000000000E+00  0.00000000000E+00  0.95431427747E+03  0.95431427749E+03  0.50400001928E-02 0. -1.
       -1   -1    0    0    0  501  0.00000000000E+00  0.00000000000E+00 -0.23564480753E+04  0.23564480753E+04  0.50400001928E-02 0.  1.
    10030    2    1    2    0    0  0.00000000000E+00  0.00000000000E+00 -0.14021337978E+04  0.33107623527E+04  0.29991945868E+04 0.  0.
        4    1    3    3  502    0 -0.37978948261E+03  0.45786123489E+03 -0.22206276088E+04  0.22989270435E+04  0.12699999809E+01 0.  1.
       -4    1    3    3    0  502  0.37978948261E+03 -0.45786123489E+03  0.81849381100E+03  0.10118353093E+04  0.12699999809E+01 0. -1.
</event>
<event>
 5   0  0.6374748E-08  0.3000085E+04  0.7818609E-02  0.8243707E-01
       -1   -1    0    0    0  501  0.00000000000E+00  0.00000000000E+00  0.14562302692E+04  0.14562302692E+04  0.50400001928E-02 0. -1.
        1   -1    0    0  501    0  0.00000000000E+00  0.00000000000E+00 -0.15451732456E+04  0.15451732457E+04  0.50400001928E-02 0.  1.
    10030    2    1    2    0    0  0.00000000000E+00  0.00000000000E+00 -0.88942976420E+02  0.30014035149E+04  0.30000853665E+04 0.  0.
        1    1    3    3  502    0  0.14953058420E+04 -0.49568936338E+02  0.63887739122E+02  0.14974906623E+04  0.50400001928E-02 0. -1.
       -1    1    3    3    0  502 -0.14953058420E+04  0.49568936338E+02 -0.15283071554E+03  0.15039128526E+04  0.50400001928E-02 0.  1.
</event>
<event>
 5   0  0.1810055E-07  0.3000746E+04  0.7818609E-02  0.8243518E-01
        2   -1    0    0  501    0  0.00000000000E+00  0.00000000000E+00  0.16421724968E+04  0.16421724968E+04  0.25500000920E-02 0.  1.
       -2   -1    0    0    0  501  0.00000000000E+00  0.00000000000E+00 -0.13708180493E+04  0.13708180493E+04  0.25500000920E-02 0. -1.
    10030    2    1    2    0    0  0.00000000000E+00  0.00000000000E+00  0.27135444752E+03  0.30129905461E+04  0.30007463730E+04 0.  0.
        4    1    3    3  502    0 -0.12088578102E+04 -0.66044684130E+03  0.73273861483E+03  0.15602675174E+04  0.12699999809E+01 0.  1.
       -4    1    3    3    0  502  0.12088578102E+04  0.66044684130E+03 -0.46138416732E+03  0.14527230287E+04  0.12699999809E+01 0. -1.
</event>
<event>
 5   0  0.1813720E-07  0.2999787E+04  0.7818609E-02  0.8243792E-01
       -2   -1    0    0    0  501  0.00000000000E+00  0.00000000000E+00  0.13978572099E+04  0.13978572099E+04  0.25500000920E-02 0.  1.
        2   -1    0    0  501    0  0.00000000000E+00  0.00000000000E+00 -0.16093778702E+04  0.16093778702E+04  0.25500000920E-02 0. -1.
    10030    2    1    2    0    0  0.00000000000E+00  0.00000000000E+00 -0.21152066032E+03  0.30072350801E+04  0.29997869653E+04 0.  0.
        3    1    3    3  502    0 -0.13215512686E+04 -0.90430259160E+02 -0.81107316209E+03  0.15532273085E+04  0.10100000352E+00 0. -1.
       -3    1    3    3    0  502  0.13215512686E+04  0.90430259160E+02  0.59955250177E+03  0.14540077716E+04  0.10100000352E+00 0.  1.
</event>
<event>
 5   0  0.6636007E-08  0.2999491E+04  0.7818609E-02  0.8243876E-01
       -1   -1    0    0    0  501  0.00000000000E+00  0.00000000000E+00  0.13118584868E+04  0.13118584868E+04  0.50400001928E-02 0. -1.
        1   -1    0    0  501    0  0.00000000000E+00  0.00000000000E+00 -0.17145425734E+04  0.17145425734E+04  0.50400001928E-02 0.  1.
    10030    2    1    2    0    0  0.00000000000E+00  0.00000000000E+00 -0.40268408661E+03  0.30264010602E+04  0.29994914408E+04 0.  0.
        2    1    3    3  502    0 -0.14139285327E+04 -0.32614517295E+03 -0.58378433706E+03  0.15640871848E+04  0.25500000920E-02 0. -1.
       -2    1    3    3    0  502  0.14139285327E+04  0.32614517295E+03  0.18110025044E+03  0.14623138754E+04  0.25500000920E-02 0.  1.
</event>
<event>
 5   0  0.6679022E-08  0.3000050E+04  0.7818609E-02  0.8243717E-01
        1   -1    0    0  501    0  0.00000000000E+00  0.00000000000E+00  0.94917728216E+03  0.94917728218E+03  0.50400001928E-02 0. -1.
       -1   -1    0    0    0  501  0.00000000000E+00  0.00000000000E+00 -0.23705532342E+04  0.23705532342E+04  0.50400001928E-02 0.  1.
    10030    2    1    2    0    0  0.00000000000E+00  0.00000000000E+00 -0.14213759520E+04  0.33197305164E+04  0.30000501836E+04 0.  0.
        3    1    3    3  502    0 -0.22842348760E+03  0.13035975786E+02 -0.23511315090E+04  0.23622376275E+04  0.10100000352E+00 0.  1.
       -3    1    3    3    0  502  0.22842348760E+03 -0.13035975786E+02  0.92975555692E+03  0.95749288884E+03  0.10100000352E+00 0. -1.
</event>
<event>
 5   0  0.1821305E-07  0.2998721E+04  0.7818609E-02  0.8244096E-01
        2   -1    0    0  501    0  0.00000000000E+00  0.00000000000E+00  0.22998315556E+04  0.22998315556E+04  0.25500000920E-02 0.  1.
       -2   -1    0    0    0  501  0.00000000000E+00  0.00000000000E+00 -0.97749826972E+03  0.97749826972E+03  0.25500000920E-02 0. -1.
    10030    2    1    2    0    0  0.00000000000E+00  0.00000000000E+00  0.13223332859E+04  0.32773298254E+04  0.29987206381E+04 0.  0.
        2    1    3    3  502    0 -0.37369516387E+03 -0.75220576781E+03  0.20185845955E+04  0.21863543542E+04  0.25500000920E-02 0.  1.
       -2    1    3    3    0  502  0.37369516387E+03  0.75220576781E+03 -0.69625130961E+03  0.10909754712E+04  0.25500000920E-02 0. -1.
</event>
<event>
 5   0  0.1810055E-07  0.2999190E+04  0.7818609E-02  0.8243962E-01
       -2   -1    0    0    0  501  0.00000000000E+00  0.00000000000E+00  0.89309361116E+03  0.89309361117E+03  0.25500000920E-02 0.  1.
        2   -1    0    0  501    0  0.00000000000E+00  0.00000000000E+00 -0.25179729082E+04  0.25179729082E+04  0.25500000920E-02 0. -1.
    10030    2    1    2    0    0  0.00000000000E+00  0.00000000000E+00 -0.16248792971E+04  0.34110665194E+04  0.29991902357E+04 0.  0.
        4    1    3    3  502    0  0.14244315509E+03  0.75487639502E+03  0.65231292319E+03  0.10077907456E+04  0.12699999809E+01 0.  1.
       -4    1    3    3    0  502 -0.14244315509E+03 -0.75487639502E+03 -0.22771922203E+04  0.24032757738E+04  0.12699999809E+01 0. -1.
</event>
<event>
 5   0  0.6374748E-08  0.2998875E+04  0.7818609E-02  0.8244052E-01
       -1   -1    0    0    0  501  0.00000000000E+00  0.00000000000E+00  0.17808929597E+04  0.17808929597E+04  0.50400001928E-02 0. -1.
        1   -1    0    0  501    0  0.00000000000E+00  0.00000000000E+00 -0.12624635621E+04  0.12624635621E+04  0.50400001928E-02 0.  1.
    10030    2    1    2    0    0  0.00000000000E+00  0.00000000000E+00  0.51842939757E+03  0.30433565219E+04  0.29988747688E+04 0.  0.
        1    1    3    3  502    0 -0.11426587909E+04  0.32346379801E+03 -0.66979505915E+03  0.13634233980E+04  0.50400001928E-02 0.  1.
       -1    1    3    3    0  502  0.11426587909E+04 -0.32346379801E+03  0.11882244567E+04  0.16799331238E+04  0.50400001928E-02 0. -1.
</event>
<event>
 5   0  0.6374748E-08  0.3001372E+04  0.7818609E-02  0.8243339E-01
       -1   -1    0    0    0  501  0.00000000000E+00  0.00000000000E+00  0.15808894838E+04  0.15808894838E+04  0.50400001928E-02 0.  1.
        1   -1    0    0  501    0  0.00000000000E+00  0.00000000000E+00 -0.14245514471E+04  0.14245514471E+04  0.50400001928E-02 0. -1.
    10030    2    1    2    0    0  0.00000000000E+00  0.00000000000E+00  0.15633803677E+03  0.30054409309E+04  0.30013719542E+04 0.  0.
        1    1    3    3  502    0  0.53480550579E+03 -0.11308955448E+03 -0.13213137023E+04  0.14299217028E+04  0.50400001928E-02 0. -1.
       -1    1    3    3    0  502 -0.53480550579E+03  0.11308955448E+03  0.14776517390E+04  0.15755192281E+04  0.50400001928E-02 0.  1.
</event>
<event>
 5   0  0.1813720E-07  0.2996714E+04  0.7818609E-02  0.8244670E-01
       -2   -1    0    0    0  501  0.00000000000E+00  0.00000000000E+00  0.94561741193E+03  0.94561741193E+03  0.25500000920E-02 0.  1.
        2   -1    0    0  501    0  0.00000000000E+00  0.00000000000E+00 -0.23741882958E+04  0.23741882958E+04  0.25500000920E-02 0. -1.
    10030    2    1    2    0    0  0.00000000000E+00  0.00000000000E+00 -0.14285708839E+04  0.33198057078E+04  0.29967140616E+04 0.  0.
        3    1    3    3  502    0  0.64247167649E+03 -0.58030132408E+03 -0.20690644366E+04  0.22428881236E+04  0.10100000352E+00 0. -1.
       -3    1    3    3    0  502 -0.64247167649E+03  0.58030132408E+03  0.64049355272E+03  0.10769175842E+04  0.10100000352E+00 0.  1.
</event>
<event>
 5   0  0.6525507E-08  0.2999207E+04  0.7818609E-02  0.8243957E-01
       -1   -1    0    0    0  501  0.00000000000E+00  0.00000000000E+00  0.96882643855E+03  0.96882643857E+03  0.50400001928E-02 0.  1.
        1   -1    0    0  501    0  0.00000000000E+00  0.00000000000E+00 -0.23211692744E+04  0.23211692744E+04  0.50400001928E-02 0. -1.
    10030    2    1    2    0    0  0.00000000000E+00  0.00000000000E+00 -0.13523428359E+04  0.32899957130E+04  0.29992066694E+04 0.  0.
        4    1    3    3  502    0  0.13388866963E+04 -0.66922159009E+03 -0.57603299695E+03  0.16038362599E+04  0.12699999809E+01 0.  1.
       -4    1    3    3    0  502 -0.13388866963E+04  0.66922159009E+03 -0.77630983891E+03  0.16861594530E+04  0.12699999809E+01 0. -1.
</event>
<event>
 5   0  0.6374748E-08  0.3006374E+04  0.7818609E-02  0.8241913E-01
       -1   -1    0    0    0  501  0.00000000000E+00  0.00000000000E+00  0.13270224558E+04  0.13270224558E+04  0.50400001928E-02 0.  1.
        1   -1    0    0  501    0  0.00000000000E+00  0.00000000000E+00 -0.17027376798E+04  0.17027376798E+04  0.50400001928E-02 0. -1.
    10030    2    1    2    0    0  0.00000000000E+00  0.00000000000E+00 -0.37571522406E+03  0.30297601356E+04  0.30063739870E+04 0.  0.
        1    1    3    3  502    0 -0.13612765294E+04 -0.57841805811E+03 -0.45814137994E+03  0.15483974824E+04  0.50400001928E-02 0.  1.
       -1    1    3    3    0  502  0.13612765294E+04  0.57841805811E+03  0.82426155882E+02  0.14813626533E+04  0.50400001928E-02 0. -1.
</event>
<event>
 5   0  0.6374748E-08  0.3000072E+04  0.7818609E-02  0.8243710E-01
       -1   -1    0    0    0  501  0.00000000000E+00  0.00000000000E+00  0.11341996040E+04  0.11341996040E+04  0.50400001928E-02 0. -1.
        1   -1    0    0  501    0  0.00000000000E+00  0.00000000000E+00 -0.19838734361E+04  0.19838734361E+04  0.50400001928E-02 0.  1.
    10030    2    1    2    0    0  0.00000000000E+00  0.00000000000E+00 -0.84967383205E+03  0.31180730401E+04  0.30000723095E+04 0.  0.
        1    1    3    3  502    0  0.10026212221E+04 -0.92421189246E+03 -0.10744751227E+04  0.17360627082E+04  0.50400001928E-02 0. -1.
       -1    1    3    3    0  502 -0.10026212221E+04  0.92421189246E+03  0.22480129066E+03  0.13820103319E+04  0.50400001928E-02 0.  1.
</event>
<event>
 5   0  0.6679022E-08  0.2987320E+04  0.7818609E-02  0.8247361E-01
       -1   -1    0    0    0  501  0.00000000000E+00  0.00000000000E+00  0.12321685397E+04  0.12321685397E+04  0.50400001928E-02 0.  1.
        1   -1    0    0  501    0  0.00000000000E+00  0.00000000000E+00 -0.18106448950E+04  0.18106448950E+04  0.50400001928E-02 0. -1.
    10030    2    1    2    0    0  0.00000000000E+00  0.00000000000E+00 -0.57847635531E+03  0.30428134347E+04  0.29873196523E+04 0.  0.
        3    1    3    3  502    0  0.30436301651E+03 -0.14615383242E+04 -0.24051074206E+03  0.15121430310E+04  0.10100000352E+00 0.  1.
       -3    1    3    3    0  502 -0.30436301651E+03  0.14615383242E+04 -0.33796561325E+03  0.15306704037E+04  0.10100000352E+00 0. -1.
</event>
<event>
 5   0  0.1914439E-07  0.2999607E+04  0.7818609E-02  0.8243843E-01
        2   -1    0    0  501    0  0.00000000000E+00  0.00000000000E+00  0.17695018660E+04  0.17695018660E+04  0.25500000920E-02 0. -1.
       -2   -1    0    0    0  501  0.00000000000E+00  0.00000000000E+00 -0.12712114778E+04  0.12712114778E+04  0.25500000920E-02 0.  1.
    10030    2    1    2    0    0  0.00000000000E+00  0.00000000000E+00  0.49829038820E+03  0.30407133439E+04  0.29996073624E+04 0.  0.
        5    1    3    3  502    0  0.13229206099E+03  0.73756726845E+03  0.15661342077E+04  0.17361754265E+04  0.46999998093E+01 0. -1.
       -5    1    3    3    0  502 -0.13229206099E+03 -0.73756726845E+03 -0.10678438196E+04  0.13045379174E+04  0.46999998093E+01 0.  1.
</event>
<event>
 5   0  0.6525507E-08  0.3000190E+04  0.7818609E-02  0.8243677E-01
       -1   -1    0    0    0  501  0.00000000000E+00  0.00000000000E+00  0.92870520892E+03  0.92870520893E+03  0.50400001928E-02 0.  1.
        1   -1    0    0  501    0  0.00000000000E+00  0.00000000000E+00 -0.24230345113E+04  0.24230345113E+04  0.50400001928E-02 0. -1.
    10030    2    1    2    0    0  0.00000000000E+00  0.00000000000E+00 -0.14943293024E+04  0.33517397203E+04  0.30001898421E+04 0.  0.
        4    1    3    3  502    0 -0.31163629593E+03  0.86811197807E+03  0.57448206828E+03  0.10866309618E+04  0.12699999809E+01 0.  1.
       -4    1    3    3    0  502  0.31163629593E+03 -0.86811197807E+03 -0.20688113707E+04  0.22651087585E+04  0.12699999809E+01 0. -1.
</event>
<event>
 5   0  0.6374748E-08  0.2996218E+04  0.7818609E-02  0.8244812E-01
        1   -1    0    0  501    0  0.00000000000E+00  0.00000000000E+00  0.23185819441E+04  0.23185819441E+04  0.50400001928E-02 0. -1.
       -1   -1    0    0    0  501  0.00000000000E+00  0.00000000000E+00 -0.96797537553E+03  0.96797537554E+03  0.50400001928E-02 0.  1.
    10030    2    1    2    0    0  0.00000000000E+00  0.00000000000E+00  0.13506065686E+04  0.32865573197E+04  0.29962177679E+04 0.  0.
        1    1    3    3  502    0 -0.55758440321E+03 -0.31941895789E+01  0.22005176986E+04  0.22700635920E+04  0.50400001928E-02 0. -1.
       -1    1    3    3    0  502  0.55758440321E+03  0.31941895789E+01 -0.84991113002E+03  0.10164937277E+04  0.50400001928E-02 0.  1.
</event>
<event>
 5   0  0.6374748E-08  0.2994751E+04  0.7818609E-02  0.8245231E-01
       -1   -1    0    0    0  501  0.00000000000E+00  0.00000000000E+00  0.89529824783E+03  0.89529824784E+03  0.50400001928E-02 0. -1.
        1   -1    0    0  501    0  0.00000000000E+00  0.00000000000E+00 -0.25043421135E+04  0.25043421135E+04  0.50400001928E-02 0.  1.
    10030    2    1    2    0    0  0.00000000000E+00  0.00000000000E+00 -0.16090438657E+04  0.33996403613E+04  0.29947508118E+04 0.  0.
        1    1    3    3  502    0 -0.13372473194E+02  0.14520225062E+04 -0.12194291700E+04  0.18961950538E+04  0.50400001928E-02 0.  1.
       -1    1    3    3    0  502  0.13372473194E+02 -0.14520225062E+04 -0.38961469568E+03  0.15034453075E+04  0.50400001928E-02 0. -1.
</event>
<event>
 5   0  0.1914439E-07  0.2997377E+04  0.7818609E-02  0.8244480E-01
       -2   -1    0    0    0  501  0.00000000000E+00  0.00000000000E+00  0.11899745749E+04  0.11899745749E+04  0.25500000920E-02 0.  1.
        2   -1    0    0  501    0  0.00000000000E+00  0.00000000000E+00 -0.18874918728E+04  0.18874918728E+04  0.25500000920E-02 0. -1.
    10030    2    1    2    0    0  0.00000000000E+00  0.00000000000E+00 -0.69751729791E+03  0.30774664478E+04  0.29973770794E+04 0.  0.
        5    1    3    3  502    0 -0.39377203130E+03 -0.32121278947E+03 -0.17963284328E+04  0.18668293969E+04  0.46999998093E+01 0. -1.
       -5    1    3    3    0  502  0.39377203130E+03  0.32121278947E+03  0.10988111349E+04  0.12106370508E+04  0.46999998093E+01 0.  1.
</event>
<event>
 5   0  0.1810055E-07  0.3000466E+04  0.7818609E-02  0.8243598E-01
       -2   -1    0    0    0  501  0.00000000000E+00  0.00000000000E+00  0.12453156504E+04  0.12453156504E+04  0.25500000920E-02 0.  1.
        2   -1    0    0  501    0  0.00000000000E+00  0.00000000000E+00 -0.18073321921E+04  0.18073321921E+04  0.25500000920E-02 0. -1.
    10030    2    1    2    0    0  0.00000000000E+00  0.00000000000E+00 -0.56201654174E+03  0.30526478425E+04  0.30004660066E+04 0.  0.
        4    1    3    3  502    0  0.54242699582E+03 -0.66783506419E+03  0.96937621868E+03  0.12961182759E+04  0.12699999809E+01 0.  1.
       -4    1    3    3    0  502 -0.54242699582E+03  0.66783506419E+03 -0.15313927604E+04  0.17565295666E+04  0.12699999809E+01 0. -1.
</event>
<event>
 5   0  0.6464436E-08  0.2999095E+04  0.7818609E-02  0.8243989E-01
       -1   -1    0    0    0  501  0.00000000000E+00  0.00000000000E+00  0.15715269399E+04  0.15715269399E+04  0.50400001928E-02 0. -1.
        1   -1    0    0  501    0  0.00000000000E+00  0.00000000000E+00 -0.14308651101E+04  0.14308651101E+04  0.50400001928E-02 0.  1.
    10030    2    1    2    0    0  0.00000000000E+00  0.00000000000E+00  0.14066182975E+03  0.30023920500E+04  0.29990952422E+04 0.  0.
        5    1    3    3  502    0 -0.14313264211E+04  0.30747560743E+03  0.39531741257E+03  0.15164216167E+04  0.46999998093E+01 0. -1.
       -5    1    3    3    0  502  0.14313264211E+04 -0.30747560743E+03 -0.25465558282E+03  0.14859704333E+04  0.46999998093E+01 0.  1.
</event>
<event>
 5   0  0.1810055E-07  0.2998895E+04  0.7818609E-02  0.8244047E-01
       -2   -1    0    0    0  501  0.00000000000E+00  0.00000000000E+00  0.13377938466E+04  0.13377938467E+04  0.25500000920E-02 0. -1.
        2   -1    0    0  501    0  0.00000000000E+00  0.00000000000E+00 -0.16806344562E+04  0.16806344562E+04  0.25500000920E-02 0.  1.
    10030    2    1    2    0    0  0.00000000000E+00  0.00000000000E+00 -0.34284060950E+03  0.30184283028E+04  0.29988947523E+04 0.  0.
        4    1    3    3  502    0  0.12523138432E+04 -0.32567604616E+03  0.59113312635E+03  0.14226014322E+04  0.12699999809E+01 0. -1.
       -4    1    3    3    0  502 -0.12523138432E+04  0.32567604616E+03 -0.93397373585E+03  0.15958268706E+04  0.12699999809E+01 0.  1.
</event>
<event>
 5   0  0.6679022E-08  0.2997653E+04  0.7818609E-02  0.8244401E-01
        1   -1    0    0  501    0  0.00000000000E+00  0.00000000000E+00  0.25827251271E+04  0.25827251271E+04  0.50400001928E-02 0. -1.
       -1   -1    0    0    0  501  0.00000000000E+00  0.00000000000E+00 -0.86981053765E+03  0.86981053766E+03  0.50400001928E-02 0.  1.
    10030    2    1    2    0    0  0.00000000000E+00  0.00000000000E+00  0.17129145895E+04  0.34525356648E+04  0.29976534366E+04 0.  0.
        3    1    3    3  502    0  0.74617193639E+03 -0.51613731351E+03  0.22305204378E+04  0.24079849914E+04  0.10100000352E+00 0. -1.
       -3    1    3    3    0  502 -0.74617193639E+03  0.51613731351E+03 -0.51760584827E+03  0.10445506735E+04  0.10100000352E+00 0.  1.
</event>
<event>
 5   0  0.1821305E-07  0.3000306E+04  0.7818609E-02  0.8243643E-01
        2   -1    0    0  501    0  0.00000000000E+00  0.00000000000E+00  0.17861310998E+04  0.17861310998E+04  0.25500000920E-02 0.  1.
       -2   -1    0    0    0  501  0.00000000000E+00  0.00000000000E+00 -0.12599630476E+04  0.12599630476E+04  0.25500000920E-02 0. -1.
    10030    2    1    2    0    0  0.00000000000E+00  0.00000000000E+00  0.52616805215E+03  0.30460941474E+04  0.30003061070E+04 0.  0.
        2    1    3    3  502    0  0.48961415320E+03 -0.13017368742E+04 -0.30783069174E+03  0.14244299363E+04  0.25500000920E-02 0.  1.
       -2    1    3    3    0  502 -0.48961415320E+03  0.13017368742E+04  0.83399874388E+03  0.16216642111E+04  0.25500000920E-02 0. -1.
</event>
<event>
 5   0  0.1817566E-07  0.3009596E+04  0.7818609E-02  0.8240996E-01
       -2   -1    0    0    0  501  0.00000000000E+00  0.00000000000E+00  0.12810485814E+04  0.12810485814E+04  0.25500000920E-02 0.  1.
        2   -1    0    0  501    0  0.00000000000E+00  0.00000000000E+00 -0.17676271785E+04  0.17676271785E+04  0.25500000920E-02 0. -1.
    10030    2    1    2    0    0  0.00000000000E+00  0.00000000000E+00 -0.48657859711E+03  0.30486757599E+04  0.30095955140E+04 0.  0.
        1    1    3    3  502    0  0.80919924703E+03 -0.12685116635E+03 -0.15220288288E+04  0.17284288807E+04  0.50400001928E-02 0. -1.
       -1    1    3    3    0  502 -0.80919924703E+03  0.12685116635E+03  0.10354502317E+04  0.13202468792E+04  0.50400001928E-02 0.  1.
</event>
<event>
 5   0  0.6525507E-08  0.3000381E+04  0.7818609E-02  0.8243622E-01
       -1   -1    0    0    0  501  0.00000000000E+00  0.00000000000E+00  0.12611040907E+04  0.12611040907E+04  0.50400001928E-02 0. -1.
        1   -1    0    0  501    0  0.00000000000E+00  0.00000000000E+00 -0.17846035858E+04  0.17846035858E+04  0.50400001928E-02 0.  1.
    10030    2    1    2    0    0  0.00000000000E+00  0.00000000000E+00 -0.52349949513E+03  0.30457076766E+04  0.30003805641E+04 0.  0.
        4    1    3    3  502    0 -0.64162911891E+03  0.24018601633E+03  0.10930254739E+04  0.12899936233E+04  0.12699999809E+01 0. -1.
       -4    1    3    3    0  502  0.64162911891E+03 -0.24018601633E+03 -0.16165249690E+04  0.17557140533E+04  0.12699999809E+01 0.  1.
</event>
<event>
 5   0  0.1817566E-07  0.2999464E+04  0.7818609E-02  0.8243884E-01
        2   -1    0    0  501    0  0.00000000000E+00  0.00000000000E+00  0.15542177815E+04  0.15542177815E+04  0.25500000920E-02 0. -1.
       -2   -1    0    0    0  501  0.00000000000E+00  0.00000000000E+00 -0.14471560677E+04  0.14471560677E+04  0.25500000920E-02 0.  1.
    10030    2    1    2    0    0  0.00000000000E+00  0.00000000000E+00  0.10706171381E+03  0.30013738493E+04  0.29994637475E+04 0.  0.
        1    1    3    3  502    0 -0.22185491243E+03  0.11827940220E+04  0.94907251494E+03  0.15326317038E+04  0.50400001928E-02 0. -1.
       -1    1    3    3    0  502  0.22185491243E+03 -0.11827940220E+04 -0.84201080113E+03  0.14687421455E+04  0.50400001928E-02 0.  1.
</event>
<event>
 5   0  0.6636007E-08  0.2998461E+04  0.7818609E-02  0.8244170E-01
       -1   -1    0    0    0  501  0.00000000000E+00  0.00000000000E+00  0.11664285894E+04  0.11664285895E+04  0.50400001928E-02 0.  1.
        1   -1    0    0  501    0  0.00000000000E+00  0.00000000000E+00 -0.19269864721E+04  0.19269864721E+04  0.50400001928E-02 0. -1.
    10030    2    1    2    0    0  0.00000000000E+00  0.00000000000E+00 -0.76055788264E+03  0.30934150615E+04  0.29984610136E+04 0.  0.
        2    1    3    3  502    0  0.10030044457E+04  0.30489212204E+03 -0.14860008969E+04  0.18185642110E+04  0.25500000920E-02 0. -1.
       -2    1    3    3    0  502 -0.10030044457E+04 -0.30489212204E+03  0.72544301426E+03  0.12748508505E+04  0.25500000920E-02 0.  1.
</event>
<event>
 5   0  0.1810055E-07  0.3002169E+04  0.7818609E-02  0.8243112E-01
        2   -1    0    0  501    0  0.00000000000E+00  0.00000000000E+00  0.12998869970E+04  0.12998869970E+04  0.25500000920E-02 0.  1.
       -2   -1    0    0    0  501  0.00000000000E+00  0.00000000000E+00 -0.17334237256E+04  0.17334237256E+04  0.25500000920E-02 0. -1.
    10030    2    1    2    0    0  0.00000000000E+00  0.00000000000E+00 -0.43353672869E+03  0.30333107226E+04  0.30021691899E+04 0.  0.
        4    1    3    3  502    0  0.24574954017E+03 -0.67028674394E+03 -0.15509108113E+04  0.17073380196E+04  0.12699999809E+01 0. -1.
       -4    1    3    3    0  502 -0.24574954017E+03  0.67028674394E+03  0.11173740826E+04  0.13259727030E+04  0.12699999809E+01 0.  1.
</event>
<event>
 5   0  0.1813720E-07  0.3000446E+04  0.7818609E-02  0.8243603E-01
        2   -1    0    0  501    0  0.00000000000E+00  0.00000000000E+00  0.19788978040E+04  0.19788978040E+04  0.25500000920E-02 0. -1.
       -2   -1    0    0    0  501  0.00000000000E+00  0.00000000000E+00 -0.11373348470E+04  0.11373348470E+04  0.25500000920E-02 0.  1.
    10030    2    1    2    0    0  0.00000000000E+00  0.00000000000E+00  0.84156295700E+03  0.31162326510E+04  0.30004462542E+04 0.  0.
        3    1    3    3  502    0 -0.29840331257E+03 -0.14692841699E+04  0.36554146920E+03  0.15431983297E+04  0.10100000352E+00 0.  1.
       -3    1    3    3    0  502  0.29840331257E+03  0.14692841699E+04  0.47602148780E+03  0.15730343213E+04  0.10100000352E+00 0. -1.
</event>
<event>
 5   0  0.6636007E-08  0.3001896E+04  0.7818609E-02  0.8243190E-01
        1   -1    0    0  501    0  0.00000000000E+00  0.00000000000E+00  0.17007909499E+04  0.17007909499E+04  0.50400001928E-02 0.  1.
       -1   -1    0    0    0  501  0.00000000000E+00  0.00000000000E+00 -0.13245866961E+04  0.13245866961E+04  0.50400001928E-02 0. -1.
    10030    2    1    2    0    0  0.00000000000E+00  0.00000000000E+00  0.37620425376E+03  0.30253776460E+04  0.30018961109E+04 0.  0.
        2    1    3    3  502    0  0.80514010400E+03 -0.59360746735E+03 -0.93967961737E+03  0.13724497061E+04  0.25500000920E-02 0. -1.
       -2    1    3    3    0  502 -0.80514010400E+03  0.59360746735E+03  0.13158838711E+04  0.16529279400E+04  0.25500000920E-02 0.  1.
</event>
<event>
 5   0  0.6525507E-08  0.3000235E+04  0.7818609E-02  0.8243664E-01
        1   -1    0    0  501    0  0.00000000000E+00  0.00000000000E+00  0.16444626048E+04  0.16444626048E+04  0.50400001928E-02 0.  1.
       -1   -1    0    0    0  501  0.00000000000E+00  0.00000000000E+00 -0.13684423499E+04  0.13684423499E+04  0.50400001928E-02 0. -1.
    10030    2    1    2    0    0  0.00000000000E+00  0.00000000000E+00  0.27602025496E+03  0.30129049547E+04  0.30002348383E+04 0.  0.
        4    1    3    3  502    0  0.12813130819E+04  0.63264126544E+03 -0.32037393834E+03  0.14644586911E+04  0.12699999809E+01 0. -1.
       -4    1    3    3    0  502 -0.12813130819E+04 -0.63264126544E+03  0.59639419330E+03  0.15484462636E+04  0.12699999809E+01 0.  1.
</event>
<event>
 5   0  0.6679022E-08  0.2999385E+04  0.7818609E-02  0.8243907E-01
        1   -1    0    0  501    0  0.00000000000E+00  0.00000000000E+00  0.19060584504E+04  0.19060584504E+04  0.50400001928E-02 0.  1.
       -1   -1    0    0    0  501  0.00000000000E+00  0.00000000000E+00 -0.11799623305E+04  0.11799623305E+04  0.50400001928E-02 0. -1.
    10030    2    1    2    0    0  0.00000000000E+00  0.00000000000E+00  0.72609611993E+03  0.30860207809E+04  0.29993847177E+04 0.  0.
        3    1    3    3  502    0 -0.56079646460E+03 -0.35081267700E+03 -0.10217537847E+04  0.12171865164E+04  0.10100000352E+00 0. -1.
       -3    1    3    3    0  502  0.56079646460E+03  0.35081267700E+03  0.17478499046E+04  0.18688342645E+04  0.10100000352E+00 0.  1.
</event>
<event>
 5   0  0.6679022E-08  0.2997924E+04  0.7818609E-02  0.8244324E-01
       -1   -1    0    0    0  501  0.00000000000E+00  0.00000000000E+00  0.20628734612E+04  0.20628734612E+04  0.50400001928E-02 0.  1.
        1   -1    0    0  501    0  0.00000000000E+00  0.00000000000E+00 -0.10892023256E+04  0.10892023256E+04  0.50400001928E-02 0. -1.
    10030    2    1    2    0    0  0.00000000000E+00  0.00000000000E+00  0.97367113560E+03  0.31520757869E+04  0.29979236624E+04 0.  0.
        3    1    3    3  502    0 -0.14027279212E+04  0.31328873944E+03  0.39406040249E+02  0.14378276327E+04  0.10100000352E+00 0. -1.
       -3    1    3    3    0  502  0.14027279212E+04 -0.31328873944E+03  0.93426509535E+03  0.17142481541E+04  0.10100000352E+00 0.  1.
</event>
<event>
 5   0  0.1817566E-07  0.3002259E+04  0.7818609E-02  0.8243086E-01
       -2   -1    0    0    0  501  0.00000000000E+00  0.00000000000E+00  0.14176292608E+04  0.14176292608E+04  0.25500000920E-02 0. -1.
        2   -1    0    0  501    0  0.00000000000E+00  0.00000000000E+00 -0.15895476230E+04  0.15895476230E+04  0.25500000920E-02 0.  1.
    10030    2    1    2    0    0  0.00000000000E+00  0.00000000000E+00 -0.17191836213E+03  0.30071768838E+04  0.30022586310E+04 0.  0.
        1    1    3    3  502    0 -0.68991002884E+03 -0.70860120045E+03 -0.12170999682E+04  0.15682550309E+04  0.50400001928E-02 0.  1.
       -1    1    3    3    0  502  0.68991002884E+03  0.70860120045E+03  0.10451816061E+04  0.14389218529E+04  0.50400001928E-02 0. -1.
</event>
<event>
 5   0  0.1914439E-07  0.3000165E+04  0.7818609E-02  0.8243684E-01
        2   -1    0    0  501    0  0.00000000000E+00  0.00000000000E+00  0.17057386637E+04  0.17057386638E+04  0.25500000920E-02 0.  1.
       -2   -1    0    0    0  501  0.00000000000E+00  0.00000000000E+00 -0.13192215843E+04  0.13192215843E+04  0.25500000920E-02 0. -1.
    10030    2    1    2    0    0  0.00000000000E+00  0.00000000000E+00  0.38651707940E+03  0.30249602481E+04  0.30001648371E+04 0.  0.
        5    1    3    3  502    0 -0.13444496057E+04  0.16971939411E+03 -0.45539015640E+03  0.14295984400E+04  0.46999998093E+01 0. -1.
       -5    1    3    3    0  502  0.13444496057E+04 -0.16971939411E+03  0.84190723580E+03  0.15953618081E+04  0.46999998093E+01 0.  1.
</event>
<event>
 5   0  0.1821305E-07  0.3002375E+04  0.7818609E-02  0.8243053E-01
       -2   -1    0    0    0  501  0.00000000000E+00  0.00000000000E+00  0.11183138632E+04  0.11183138632E+04  0.25500000920E-02 0.  1.
        2   -1    0    0  501    0  0.00000000000E+00  0.00000000000E+00 -0.20151446047E+04  0.20151446047E+04  0.25500000920E-02 0. -1.
    10030    2    1    2    0    0  0.00000000000E+00  0.00000000000E+00 -0.89683074155E+03  0.31334584679E+04  0.30023751583E+04 0.  0.
        2    1    3    3  502    0  0.10563756637E+04  0.50171767683E+03 -0.14307393863E+04  0.18478813170E+04  0.25500000920E-02 0. -1.
       -2    1    3    3    0  502 -0.10563756637E+04 -0.50171767683E+03  0.53390864476E+03  0.12855771509E+04  0.25500000920E-02 0.  1.
</event>
<event>
 5   0  0.6374748E-08  0.2999937E+04  0.7818609E-02  0.8243749E-01
        1   -1    0    0  501    0  0.00000000000E+00  0.00000000000E+00  0.20335705216E+04  0.20335705216E+04  0.50400001928E-02 0.  1.
       -1   -1    0    0    0  501  0.00000000000E+00  0.00000000000E+00 -0.11063820570E+04  0.11063820570E+04  0.50400001928E-02 0. -1.
    10030    2    1    2    0    0  0.00000000000E+00  0.00000000000E+00  0.92718846464E+03  0.31399525786E+04  0.29999372905E+04 0.  0.
        1    1    3    3  502    0 -0.41028048785E+03  0.10397608776E+04 -0.58332610657E+03  0.12608338939E+04  0.50400001928E-02 0. -1.
       -1    1    3    3    0  502  0.41028048785E+03 -0.10397608776E+04  0.15105145712E+04  0.18791186847E+04  0.50400001928E-02 0.  1.
</event>
<event>
 5   0  0.1821305E-07  0.3000336E+04  0.7818609E-02  0.8243635E-01
       -2   -1    0    0    0  501  0.00000000000E+00  0.00000000000E+00  0.85878421213E+03  0.85878421214E+03  0.25500000920E-02 0. -1.
        2   -1    0    0  501    0  0.00000000000E+00  0.00000000000E+00 -0.26205692752E+04  0.26205692752E+04  0.25500000920E-02 0.  1.
    10030    2    1    2    0    0  0.00000000000E+00  0.00000000000E+00 -0.17617850631E+04  0.34793534874E+04  0.30003356615E+04 0.  0.
        2    1    3    3  502    0 -0.14923556151E+04  0.15111995448E+03 -0.90786536122E+03  0.17533345478E+04  0.25500000920E-02 0. -1.
       -2    1    3    3    0  502  0.14923556151E+04 -0.15111995448E+03 -0.85391970189E+03  0.17260189396E+04  0.25500000920E-02 0.  1.
</event>
<event>
 5   0  0.6374748E-08  0.2999731E+04  0.7818609E-02  0.8243808E-01
       -1   -1    0    0    0  501  0.00000000000E+00  0.00000000000E+00  0.95060776199E+03  0.95060776201E+03  0.50400001928E-02 0.  1.
        1   -1    0    0  501    0  0.00000000000E+00  0.00000000000E+00 -0.23664816149E+04  0.23664816149E+04  0.50400001928E-02 0. -1.
    10030    2    1    2    0    0  0.00000000000E+00  0.00000000000E+00 -0.14158738529E+04  0.33170893769E+04  0.29997305157E+04 0.  0.
        1    1    3    3  502    0 -0.52721950156E+03 -0.10474751852E+04  0.32610401944E+03  0.12171723370E+04  0.50400001928E-02 0.  1.
       -1    1    3    3    0  502  0.52721950156E+03  0.10474751852E+04 -0.17419778723E+04  0.20999170398E+04  0.50400001928E-02 0. -1.
</event>
<event>
 5   0  0.6464436E-08  0.3000241E+04  0.7818609E-02  0.8243662E-01
       -1   -1    0    0    0  501  0.00000000000E+00  0.00000000000E+00  0.16390759970E+04  0.16390759970E+04  0.50400001928E-02 0. -1.
        1   -1    0    0  501    0  0.00000000000E+00  0.00000000000E+00 -0.13729454291E+04  0.13729454291E+04  0.50400001928E-02 0.  1.
    10030    2    1    2    0    0  0.00000000000E+00  0.00000000000E+00  0.26613056786E+03  0.30120214261E+04  0.30002412557E+04 0.  0.
        5    1    3    3  502    0  0.53319689871E+03 -0.13861722943E+04 -0.78873176926E+02  0.14872846501E+04  0.46999998093E+01 0. -1.
       -5    1    3    3    0  502 -0.53319689871E+03  0.13861722943E+04  0.34500374479E+03  0.15247367761E+04  0.46999998093E+01 0.  1.
</event>
<event>
 5   0  0.1810055E-07  0.2999822E+04  0.7818609E-02  0.8243782E-01
       -2   -1    0    0    0  501  0.00000000000E+00  0.00000000000E+00  0.11533826171E+04  0.11533826171E+04  0.25500000920E-02 0. -1.
        2   -1    0    0  501    0  0.00000000000E+00  0.00000000000E+00 -0.19505517463E+04  0.19505517463E+04  0.25500000920E-02 0.  1.
    10030    2    1    2    0    0  0.00000000000E+00  0.00000000000E+00 -0.79716912918E+03  0.31039343634E+04  0.29998216466E+04 0.  0.
        4    1    3    3  502    0 -0.14288708507E+04  0.45265537716E+03 -0.45676843379E+03  0.15669102761E+04  0.12699999809E+01 0.  1.
       -4    1    3    3    0  502  0.14288708507E+04 -0.45265537716E+03 -0.34040069539E+03  0.15370240872E+04  0.12699999809E+01 0. -1.
</event>
<event>
 5   0  0.6679022E-08  0.3008441E+04  0.7818609E-02  0.8241325E-01
        1   -1    0    0  501    0  0.00000000000E+00  0.00000000000E+00  0.19467736588E+04  0.19467736589E+04  0.50400001928E-02 0. -1.
       -1   -1    0    0    0  501  0.00000000000E+00  0.00000000000E+00 -0.11622715552E+04  0.11622715552E+04  0.50400001928E-02 0.  1.
    10030    2    1    2    0    0  0.00000000000E+00  0.00000000000E+00  0.78450210367E+03  0.31090452140E+04  0.30084412230E+04 0.  0.
        3    1    3    3  502    0  0.13965684423E+04  0.42520796627E+03  0.17531700960E+02  0.14599700680E+04  0.10100000352E+00 0.  1.
       -3    1    3    3    0  502 -0.13965684423E+04 -0.42520796627E+03  0.76697040271E+03  0.16490751461E+04  0.10100000352E+00 0. -1.
</event>
<event>
 5   0  0.6017625E-08  0.3001759E+04  0.7818609E-02  0.8243229E-01
       -3   -1    0    0    0  501  0.00000000000E+00  0.00000000000E+00  0.23511821929E+04  0.23511821951E+04  0.10100000352E+00 0. -1.
        3   -1    0    0  501    0  0.00000000000E+00  0.00000000000E+00 -0.95808760665E+03  0.95808761197E+03  0.10100000352E+00 0.  1.
    10030    2    1    2    0    0  0.00000000000E+00  0.00000000000E+00  0.13930945862E+04  0.33092698070E+04  0.30017585062E+04 0.  0.
        1    1    3    3  502    0  0.11463698467E+04  0.68118072295E+03 -0.62833616913E+02  0.13349603238E+04  0.50400001928E-02 0.  1.
       -1    1    3    3    0  502 -0.11463698467E+04 -0.68118072295E+03  0.14559282032E+04  0.19743094832E+04  0.50400001928E-02 0. -1.
</event>
<event>
 5   0  0.6374748E-08  0.3000417E+04  0.7818609E-02  0.8243612E-01
       -1   -1    0    0    0  501  0.00000000000E+00  0.00000000000E+00  0.10850523986E+04  0.10850523986E+04  0.50400001928E-02 0.  1.
        1   -1    0    0  501    0  0.00000000000E+00  0.00000000000E+00 -0.20742088846E+04  0.20742088846E+04  0.50400001928E-02 0. -1.
    10030    2    1    2    0    0  0.00000000000E+00  0.00000000000E+00 -0.98915648599E+03  0.31592612832E+04  0.30004168547E+04 0.  0.
        1    1    3    3  502    0 -0.85833147410E+03  0.70112225376E+03 -0.15592049964E+04  0.19129625075E+04  0.50400001928E-02 0. -1.
       -1    1    3    3    0  502  0.85833147410E+03 -0.70112225376E+03  0.57004851041E+03  0.12462987757E+04  0.50400001928E-02 0.  1.
</event>
<event>
 5   0  0.6636007E-08  0.3001929E+04  0.7818609E-02  0.8243180E-01
        1   -1    0    0  501    0  0.00000000000E+00  0.00000000000E+00  0.24424349434E+04  0.24424349434E+04  0.50400001928E-02 0. -1.
       -1   -1    0    0    0  501  0.00000000000E+00  0.00000000000E+00 -0.92239713360E+03  0.92239713362E+03  0.50400001928E-02 0.  1.
    10030    2    1    2    0    0  0.00000000000E+00  0.00000000000E+00  0.15200378098E+04  0.33648320770E+04  0.30019293735E+04 0.  0.
        2    1    3    3  502    0  0.65811561888E+03  0.10205104437E+04  0.17489062858E+04  0.21291385418E+04  0.25500000920E-02 0. -1.
       -2    1    3    3    0  502 -0.65811561888E+03 -0.10205104437E+04 -0.22886847605E+03  0.12356935352E+04  0.25500000920E-02 0.  1.
</event>
<event>
 5   0  0.6525507E-08  0.2997800E+04  0.7818609E-02  0.8244359E-01
       -1   -1    0    0    0  501  0.00000000000E+00  0.00000000000E+00  0.96635674041E+03  0.96635674042E+03  0.50400001928E-02 0. -1.
        1   -1    0    0  501    0  0.00000000000E+00  0.00000000000E+00 -0.23249184627E+04  0.23249184627E+04  0.50400001928E-02 0.  1.
    10030    2    1    2    0    0  0.00000000000E+00  0.00000000000E+00 -0.13585617223E+04  0.32912752031E+04  0.29977996113E+04 0.  0.
        4    1    3    3  502    0  0.21718833759E+03 -0.12420477756E+04  0.21052084535E+03  0.12783481881E+04  0.12699999809E+01 0. -1.
       -4    1    3    3    0  502 -0.21718833759E+03  0.12420477756E+04 -0.15690825676E+04  0.20129270150E+04  0.12699999809E+01 0.  1.
</event>
<event>
 5   0  0.6464436E-08  0.3002603E+04  0.7818609E-02  0.8242988E-01
       -1   -1    0    0    0  501  0.00000000000E+00  0.00000000000E+00  0.11649956634E+04  0.11649956634E+04  0.50400001928E-02 0. -1.
        1   -1    0    0  501    0  0.00000000000E+00  0.00000000000E+00 -0.19346903453E+04  0.19346903453E+04  0.50400001928E-02 0.  1.
    10030    2    1    2    0    0  0.00000000000E+00  0.00000000000E+00 -0.76969468194E+03  0.30996860087E+04  0.30026027791E+04 0.  0.
        5    1    3    3  502    0 -0.12644442536E+04  0.66006452013E+03 -0.86837093933E+03  0.16699085662E+04  0.46999998093E+01 0.  1.
       -5    1    3    3    0  502  0.12644442536E+04 -0.66006452013E+03  0.98676257386E+02  0.14297774425E+04  0.46999998093E+01 0. -1.
</event>
<event>
 5   0  0.1817566E-07  0.3000676E+04  0.7818609E-02  0.8243538E-01
       -2   -1    0    0    0  501  0.00000000000E+00  0.00000000000E+00  0.12554342579E+04  0.12554342579E+04  0.25500000920E-02 0.  1.
        2   -1    0    0  501    0  0.00000000000E+00  0.00000000000E+00 -0.17930159170E+04  0.17930159170E+04  0.25500000920E-02 0. -1.
    10030    2    1    2    0    0  0.00000000000E+00  0.00000000000E+00 -0.53758165906E+03  0.30484501749E+04  0.30006756620E+04 0.  0.
        1    1    3    3  502    0  0.56867514255E+03 -0.38402305681E+03 -0.16242553657E+04  0.17632556874E+04  0.50400001928E-02 0. -1.
       -1    1    3    3    0  502 -0.56867514255E+03  0.38402305681E+03  0.10866737067E+04  0.12851944875E+04  0.50400001928E-02 0.  1.
</event>
<event>
 5   0  0.6636007E-08  0.3001000E+04  0.7818609E-02  0.8243445E-01
        1   -1    0    0  501    0  0.00000000000E+00  0.00000000000E+00  0.24785314013E+04  0.24785314013E+04  0.50400001928E-02 0. -1.
       -1   -1    0    0    0  501  0.00000000000E+00  0.00000000000E+00 -0.90840091846E+03  0.90840091847E+03  0.50400001928E-02 0.  1.
    10030    2    1    2    0    0  0.00000000000E+00  0.00000000000E+00  0.15701304829E+04  0.33869323198E+04  0.30009999676E+04 0.  0.
        2    1    3    3  502    0 -0.14581421246E+04  0.27891660288E+03  0.10311087906E+04  0.18075282197E+04  0.25500000920E-02 0. -1.
       -2    1    3    3    0  502  0.14581421246E+04 -0.27891660288E+03  0.53902169225E+03  0.15794041001E+04  0.25500000920E-02 0.  1.
</event>
<event>
 5   0  0.1813720E-07  0.3001704E+04  0.7818609E-02  0.8243244E-01
        2   -1    0    0  501    0  0.00000000000E+00  0.00000000000E+00  0.17888245075E+04  0.17888245075E+04  0.25500000920E-02 0.  1.
       -2   -1    0    0    0  501  0.00000000000E+00  0.00000000000E+00 -0.12592385859E+04  0.12592385859E+04  0.25500000920E-02 0. -1.
    10030    2    1    2    0    0  0.00000000000E+00  0.00000000000E+00  0.52958592157E+03  0.30480630933E+04  0.30017040781E+04 0.  0.
        3    1    3    3  502    0 -0.48469928045E+03 -0.14194667080E+04  0.31792413689E+03  0.15332628263E+04  0.10100000352E+00 0.  1.
       -3    1    3    3    0  502  0.48469928045E+03  0.14194667080E+04  0.21166178468E+03  0.15148002670E+04  0.10100000352E+00 0. -1.
</event>
<event>
 5   0  0.6525507E-08  0.2999705E+04  0.7818609E-02  0.8243815E-01
        1   -1    0    0  501    0  0.00000000000E+00  0.00000000000E+00  0.23348639192E+04  0.23348639192E+04  0.50400001928E-02 0. -1.
       -1   -1    0    0    0  501  0.00000000000E+00  0.00000000000E+00 -0.96346438508E+03  0.96346438510E+03  0.50400001928E-02 0.  1.
    10030    2    1    2    0    0  0.00000000000E+00  0.00000000000E+00  0.13713995341E+04  0.32983283043E+04  0.29997054723E+04 0.  0.
        4    1    3    3  502    0  0.90993234596E+03  0.11200387806E+04  0.23623647391E+03  0.14622834981E+04  0.12699999809E+01 0.  1.
       -4    1    3    3    0  502 -0.90993234596E+03 -0.11200387806E+04  0.11351630602E+04  0.18360448062E+04  0.12699999809E+01 0. -1.
</event>
<event>
 5   0  0.1817566E-07  0.3003713E+04  0.7818609E-02  0.8242671E-01
       -2   -1    0    0    0  501  0.00000000000E+00  0.00000000000E+00  0.10042353158E+04  0.10042353158E+04  0.25500000920E-02 0. -1.
        2   -1    0    0  501    0  0.00000000000E+00  0.00000000000E+00 -0.22460605403E+04  0.22460605403E+04  0.25500000920E-02 0.  1.
    10030    2    1    2    0    0  0.00000000000E+00  0.00000000000E+00 -0.12418252245E+04  0.32502958562E+04  0.30037132460E+04 0.  0.
        1    1    3    3  502    0  0.16341738260E+03 -0.33956829191E+03 -0.21940688766E+04  0.22261963303E+04  0.50400001928E-02 0.  1.
       -1    1    3    3    0  502 -0.16341738260E+03  0.33956829191E+03  0.95224365213E+03  0.10240995258E+04  0.50400001928E-02 0. -1.
</event>
<event>
 5   0  0.6679022E-08  0.3000540E+04  0.7818609E-02  0.8243577E-01
        1   -1    0    0  501    0  0.00000000000E+00  0.00000000000E+00  0.13302026562E+04  0.13302026562E+04  0.50400001928E-02 0. -1.
       -1   -1    0    0    0  501  0.00000000000E+00  0.00000000000E+00 -0.16920801211E+04  0.16920801211E+04  0.50400001928E-02 0.  1.
    10030    2    1    2    0    0  0.00000000000E+00  0.00000000000E+00 -0.36187746484E+03  0.30222827773E+04  0.30005395992E+04 0.  0.
        3    1    3    3  502    0 -0.56614534161E+03  0.13405075063E+04  0.18684904632E+03  0.14671037791E+04  0.10100000352E+00 0.  1.
       -3    1    3    3    0  502  0.56614534161E+03 -0.13405075063E+04 -0.54872651117E+03  0.15551789982E+04  0.10100000352E+00 0. -1.
</event>
<event>
 5   0  0.1810055E-07  0.3000023E+04  0.7818609E-02  0.8243724E-01
        2   -1    0    0  501    0  0.00000000000E+00  0.00000000000E+00  0.20415038387E+04  0.20415038387E+04  0.25500000920E-02 0.  1.
       -2   -1    0    0    0  501  0.00000000000E+00  0.00000000000E+00 -0.11021454296E+04  0.11021454296E+04  0.25500000920E-02 0. -1.
    10030    2    1    2    0    0  0.00000000000E+00  0.00000000000E+00  0.93935840906E+03  0.31436492683E+04  0.30000227501E+04 0.  0.
        4    1    3    3  502    0  0.29636163954E+03 -0.10656528544E+04  0.15313925280E+04  0.18890767362E+04  0.12699999809E+01 0.  1.
       -4    1    3    3    0  502 -0.29636163954E+03  0.10656528544E+04 -0.59203411897E+03  0.12545725321E+04  0.12699999809E+01 0. -1.
</event>
<event>
 5   0  0.1810055E-07  0.2996629E+04  0.7818609E-02  0.8244694E-01
       -2   -1    0    0    0  501  0.00000000000E+00  0.00000000000E+00  0.12321113741E+04  0.12321113741E+04  0.25500000920E-02 0. -1.
        2   -1    0    0  501    0  0.00000000000E+00  0.00000000000E+00 -0.18220313884E+04  0.18220313884E+04  0.25500000920E-02 0.  1.
    10030    2    1    2    0    0  0.00000000000E+00  0.00000000000E+00 -0.58992001423E+03  0.30541427625E+04  0.29966285039E+04 0.  0.
        4    1    3    3  502    0 -0.98296407474E+03  0.10843132098E+04 -0.62204073797E+03  0.15902483459E+04  0.12699999809E+01 0.  1.
       -4    1    3    3    0  502  0.98296407474E+03 -0.10843132098E+04  0.32120723741E+02  0.14638944166E+04  0.12699999809E+01 0. -1.
</event>
<event>
 5   0  0.1914439E-07  0.2997988E+04  0.7818609E-02  0.8244306E-01
       -2   -1    0    0    0  501  0.00000000000E+00  0.00000000000E+00  0.12549115507E+04  0.12549115507E+04  0.25500000920E-02 0. -1.
        2   -1    0    0  501    0  0.00000000000E+00  0.00000000000E+00 -0.17905512201E+04  0.17905512201E+04  0.25500000920E-02 0.  1.
    10030    2    1    2    0    0  0.00000000000E+00  0.00000000000E+00 -0.53563966944E+03  0.30454627708E+04  0.29979882643E+04 0.  0.
        5    1    3    3  502    0 -0.10361013367E+04 -0.64354901913E+02 -0.13662916069E+04  0.17159319271E+04  0.46999998093E+01 0.  1.
       -5    1    3    3    0  502  0.10361013367E+04  0.64354901913E+02  0.83065193744E+03  0.13295308437E+04  0.46999998093E+01 0. -1.
</event>
<event>
 5   0  0.1821305E-07  0.2999835E+04  0.7818609E-02  0.8243778E-01
        2   -1    0    0  501    0  0.00000000000E+00  0.00000000000E+00  0.26173019070E+04  0.26173019070E+04  0.25500000920E-02 0. -1.
       -2   -1    0    0    0  501  0.00000000000E+00  0.00000000000E+00 -0.85956928090E+03  0.85956928090E+03  0.25500000920E-02 0.  1.
    10030    2    1    2    0    0  0.00000000000E+00  0.00000000000E+00  0.17577326261E+04  0.34768711879E+04  0.29998348742E+04 0.  0.
        2    1    3    3  502    0 -0.12969916129E+03 -0.65464058368E+03  0.24357450622E+04  0.25255158234E+04  0.25500000920E-02 0. -1.
       -2    1    3    3    0  502  0.12969916129E+03  0.65464058368E+03 -0.67801243603E+03  0.95135536456E+03  0.25500000920E-02 0.  1.
</event>
<event>
 5   0  0.1813720E-07  0.2995417E+04  0.7818609E-02  0.8245041E-01
        2   -1    0    0  501    0  0.00000000000E+00  0.00000000000E+00  0.15485542981E+04  0.15485542981E+04  0.25500000920E-02 0. -1.
       -2   -1    0    0    0  501  0.00000000000E+00  0.00000000000E+00 -0.14485325635E+04  0.14485325635E+04  0.25500000920E-02 0.  1.
    10030    2    1    2    0    0  0.00000000000E+00  0.00000000000E+00  0.10002173459E+03  0.29970868616E+04  0.29954173847E+04 0.  0.
        3    1    3    3  502    0  0.11869608062E+04  0.22029060267E+03 -0.83689583379E+03  0.14689447069E+04  0.10100000352E+00 0.  1.
       -3    1    3    3    0  502 -0.11869608062E+04 -0.22029060267E+03  0.93691756838E+03  0.15281421548E+04  0.10100000352E+00 0. -1.
</event>
<event>
 5   0  0.1813720E-07  0.2999053E+04  0.7818609E-02  0.8244001E-01
       -2   -1    0    0    0  501  0.00000000000E+00  0.00000000000E+00  0.12171415255E+04  0.12171415255E+04  0.25500000920E-02 0.  1.
        2   -1    0    0  501    0  0.00000000000E+00  0.00000000000E+00 -0.18474271774E+04  0.18474271774E+04  0.25500000920E-02 0. -1.
    10030    2    1    2    0    0  0.00000000000E+00  0.00000000000E+00 -0.63028565195E+03  0.30645687029E+04  0.29990534060E+04 0.  0.
        3    1    3    3  502    0  0.35650792820E+03 -0.45857003113E+03  0.10975175713E+04  0.12417444205E+04  0.10100000352E+00 0.  1.
       -3    1    3    3    0  502 -0.35650792820E+03  0.45857003113E+03 -0.17278032232E+04  0.18228242824E+04  0.10100000352E+00 0. -1.
</event>
<event>
 5   0  0.1821305E-07  0.3002099E+04  0.7818609E-02  0.8243132E-01
       -2   -1    0    0    0  501  0.00000000000E+00  0.00000000000E+00  0.91768500786E+03  0.91768500787E+03  0.25500000920E-02 0. -1.
        2   -1    0    0  501    0  0.00000000000E+00  0.00000000000E+00 -0.24552531297E+04  0.24552531297E+04  0.25500000920E-02 0.  1.
    10030    2    1    2    0    0  0.00000000000E+00  0.00000000000E+00 -0.15375681218E+04  0.33729381375E+04  0.30020985911E+04 0.  0.
        2    1    3    3  502    0  0.16683063007E+03  0.68876238352E+03  0.71789401734E+03  0.10087605763E+04  0.25500000920E-02 0. -1.
       -2    1    3    3    0  502 -0.16683063007E+03 -0.68876238352E+03 -0.22554621391E+04  0.23641775613E+04  0.25500000920E-02 0.  1.
</event>
<event>
 5   0  0.6017625E-08  0.3000911E+04  0.7818609E-02  0.8243471E-01
       -3   -1    0    0    0  501  0.00000000000E+00  0.00000000000E+00  0.15441129702E+04  0.15441129735E+04  0.10100000352E+00 0. -1.
        3   -1    0    0  501    0  0.00000000000E+00  0.00000000000E+00 -0.14580322416E+04  0.14580322451E+04  0.10100000352E+00 0.  1.
    10030    2    1    2    0    0  0.00000000000E+00  0.00000000000E+00  0.86080728616E+02  0.30021452187E+04  0.30009108654E+04 0.  0.
        5    1    3    3  502    0 -0.12547023579E+04 -0.51783996776E+03  0.68276267499E+03  0.15194154138E+04  0.46999998093E+01 0. -1.
       -5    1    3    3    0  502  0.12547023579E+04  0.51783996776E+03 -0.59668194637E+03  0.14827298049E+04  0.46999998093E+01 0.  1.
</event>
<event>
 5   0  0.6017625E-08  0.2995275E+04  0.7818609E-02  0.8245081E-01
        4   -1    0    0  501    0  0.00000000000E+00  0.00000000000E+00  0.16636037718E+04  0.16636042566E+04  0.12699999809E+01 0.  1.
       -4   -1    0    0    0  501  0.00000000000E+00  0.00000000000E+00 -0.13482278647E+04  0.13482284629E+04  0.12699999809E+01 0. -1.
    10030    2    1    2    0    0  0.00000000000E+00  0.00000000000E+00  0.31537590711E+03  0.30118327195E+04  0.29952753408E+04 0.  0.
        2    1    3    3  502    0 -0.61369841849E+03 -0.10608777867E+04  0.10231613399E+04  0.15965420617E+04  0.25500000920E-02 0.  1.
       -2    1    3    3    0  502  0.61369841849E+03  0.10608777867E+04 -0.70778543281E+03  0.14152906578E+04  0.25500000920E-02 0. -1.
</event>
<event>
 5   0  0.1813720E-07  0.3001555E+04  0.7818609E-02  0.8243287E-01
       -2   -1    0    0    0  501  0.00000000000E+00  0.00000000000E+00  0.12179304339E+04  0.12179304339E+04  0.25500000920E-02 0. -1.
        2   -1    0    0  501    0  0.00000000000E+00  0.00000000000E+00 -0.18493118792E+04  0.18493118792E+04  0.25500000920E-02 0.  1.
    10030    2    1    2    0    0  0.00000000000E+00  0.00000000000E+00 -0.63138144535E+03  0.30672423131E+04  0.30015550766E+04 0.  0.
        3    1    3    3  502    0  0.82249518688E+02  0.10632827582E+04  0.76335243337E+03  0.13115037762E+04  0.10100000352E+00 0. -1.
       -3    1    3    3    0  502 -0.82249518688E+02 -0.10632827582E+04 -0.13947338787E+04  0.17557385369E+04  0.10100000352E+00 0.  1.
</event>
<event>
 5   0  0.6525507E-08  0.3005192E+04  0.7818609E-02  0.8242250E-01
       -1   -1    0    0    0  501  0.00000000000E+00  0.00000000000E+00  0.17705937141E+04  0.17705937141E+04  0.50400001928E-02 0.  1.
        1   -1    0    0  501    0  0.00000000000E+00  0.00000000000E+00 -0.12751622257E+04  0.12751622257E+04  0.50400001928E-02 0. -1.
    10030    2    1    2    0    0  0.00000000000E+00  0.00000000000E+00  0.49543148841E+03  0.30457559397E+04  0.30051916552E+04 0.  0.
        4    1    3    3  502    0 -0.11527621686E+04  0.74898028972E+03 -0.36706964208E+03  0.14228751972E+04  0.12699999809E+01 0. -1.
       -4    1    3    3    0  502  0.11527621686E+04 -0.74898028972E+03  0.86250113049E+03  0.16228807426E+04  0.12699999809E+01 0.  1.
</event>
<event>
 5   0  0.1817566E-07  0.2997722E+04  0.7818609E-02  0.8244382E-01
       -2   -1    0    0    0  501  0.00000000000E+00  0.00000000000E+00  0.96280253594E+03  0.96280253594E+03  0.25500000920E-02 0. -1.
        2   -1    0    0  501    0  0.00000000000E+00  0.00000000000E+00 -0.23333804941E+04  0.23333804941E+04  0.25500000920E-02 0.  1.
    10030    2    1    2    0    0  0.00000000000E+00  0.00000000000E+00 -0.13705779581E+04  0.32961830300E+04  0.29977222400E+04 0.  0.
        1    1    3    3  502    0  0.22886575093E+03 -0.28726657766E+03 -0.22831326803E+04  0.23124870712E+04  0.50400001928E-02 0.  1.
       -1    1    3    3    0  502 -0.22886575093E+03  0.28726657766E+03  0.91255472212E+03  0.98369595886E+03  0.50400001928E-02 0. -1.
</event>
<event>
 5   0  0.1821305E-07  0.2999492E+04  0.7818609E-02  0.8243876E-01
       -2   -1    0    0    0  501  0.00000000000E+00  0.00000000000E+00  0.14961699232E+04  0.14961699232E+04  0.25500000920E-02 0.  1.
        2   -1    0    0  501    0  0.00000000000E+00  0.00000000000E+00 -0.15033311186E+04  0.15033311186E+04  0.25500000920E-02 0. -1.
    10030    2    1    2    0    0  0.00000000000E+00  0.00000000000E+00 -0.71611953236E+01  0.29995010418E+04  0.29994924932E+04 0.  0.
        2    1    3    3  502    0  0.13109043866E+04 -0.56379312828E+03  0.45783788445E+03  0.14986489017E+04  0.25500000920E-02 0.  1.
       -2    1    3    3    0  502 -0.13109043866E+04  0.56379312828E+03 -0.46499907977E+03  0.15008521401E+04  0.25500000920E-02 0. -1.
</event>
<event>
 5   0  0.6636007E-08  0.3012331E+04  0.7818609E-02  0.8240219E-01
        1   -1    0    0  501    0  0.00000000000E+00  0.00000000000E+00  0.15975183392E+04  0.15975183392E+04  0.50400001928E-02 0. -1.
       -1   -1    0    0    0  501  0.00000000000E+00  0.00000000000E+00 -0.14200362938E+04  0.14200362938E+04  0.50400001928E-02 0.  1.
    10030    2    1    2    0    0  0.00000000000E+00  0.00000000000E+00  0.17748204536E+03  0.30175546330E+04  0.30123306735E+04 0.  0.
        2    1    3    3  502    0  0.12234336542E+04  0.68166771467E+03 -0.46636186295E+03  0.14761280996E+04  0.25500000920E-02 0.  1.
       -2    1    3    3    0  502 -0.12234336542E+04 -0.68166771467E+03  0.64384390831E+03  0.15414265333E+04  0.25500000920E-02 0. -1.
</event>
<event>
 5   0  0.1914439E-07  0.3000348E+04  0.7818609E-02  0.8243632E-01
       -2   -1    0    0    0  501  0.00000000000E+00  0.00000000000E+00  0.83336002849E+03  0.83336002849E+03  0.25500000920E-02 0. -1.
        2   -1    0    0  501    0  0.00000000000E+00  0.00000000000E+00 -0.27005396610E+04  0.27005396610E+04  0.25500000920E-02 0.  1.
    10030    2    1    2    0    0  0.00000000000E+00  0.00000000000E+00 -0.18671796325E+04  0.35338996895E+04  0.30003478524E+04 0.  0.
        5    1    3    3  502    0  0.86442999312E+03 -0.73785405232E+00  0.51051811900E+03  0.10039375465E+04  0.46999998093E+01 0. -1.
       -5    1    3    3    0  502 -0.86442999312E+03  0.73785405232E+00 -0.23776977515E+04  0.25299621430E+04  0.46999998093E+01 0.  1.
</event>
<event>
 5   0  0.6679022E-08  0.3000261E+04  0.7818609E-02  0.8243656E-01
        1   -1    0    0  501    0  0.00000000000E+00  0.00000000000E+00  0.11448810576E+04  0.11448810576E+04  0.50400001928E-02 0. -1.
       -1   -1    0    0    0  501  0.00000000000E+00  0.00000000000E+00 -0.19656119163E+04  0.19656119163E+04  0.50400001928E-02 0.  1.
    10030    2    1    2    0    0  0.00000000000E+00  0.00000000000E+00 -0.82073085872E+03  0.31104929739E+04  0.30002612216E+04 0.  0.
        3    1    3    3  502    0 -0.14015862292E+04 -0.46539548667E+03 -0.68339444347E+03  0.16272875875E+04  0.10100000352E+00 0.  1.
       -3    1    3    3    0  502  0.14015862292E+04  0.46539548667E+03 -0.13733641525E+03  0.14832053863E+04  0.10100000352E+00 0. -1.
</event>
<event>
 5   0  0.6679022E-08  0.3000515E+04  0.7818609E-02  0.8243584E-01
       -1   -1    0    0    0  501  0.00000000000E+00  0.00000000000E+00  0.32698854216E+04  0.32698854216E+04  0.50400001928E-02 0. -1.
        1   -1    0    0  501    0  0.00000000000E+00  0.00000000000E+00 -0.68833365810E+03  0.68833365812E+03  0.50400001928E-02 0.  1.
    10030    2    1    2    0    0  0.00000000000E+00  0.00000000000E+00  0.25815517635E+04  0.39582190797E+04  0.30005147517E+04 0.  0.
        3    1    3    3  502    0  0.10899774976E+04  0.68856365337E+03  0.23028555083E+04  0.26391881995E+04  0.10100000352E+00 0. -1.
       -3    1    3    3    0  502 -0.10899774976E+04 -0.68856365337E+03  0.27869625514E+03  0.13190308802E+04  0.10100000352E+00 0.  1.
</event>
<event>
 5   0  0.6525507E-08  0.2999772E+04  0.7818609E-02  0.8243796E-01
       -1   -1    0    0    0  501  0.00000000000E+00  0.00000000000E+00  0.13047357714E+04  0.13047357714E+04  0.50400001928E-02 0. -1.
        1   -1    0    0  501    0  0.00000000000E+00  0.00000000000E+00 -0.17242251761E+04  0.17242251761E+04  0.50400001928E-02 0.  1.
    10030    2    1    2    0    0  0.00000000000E+00  0.00000000000E+00 -0.41948940467E+03  0.30289609476E+04  0.29997721682E+04 0.  0.
        4    1    3    3  502    0  0.85625899893E+03  0.79492890937E+03  0.73992007257E+03  0.13829587018E+04  0.12699999809E+01 0. -1.
       -4    1    3    3    0  502 -0.85625899893E+03 -0.79492890937E+03 -0.11594094772E+04  0.16460022457E+04  0.12699999809E+01 0.  1.
</event>
<event>
 5   0  0.1810055E-07  0.3001191E+04  0.7818609E-02  0.8243391E-01
        2   -1    0    0  501    0  0.00000000000E+00  0.00000000000E+00  0.21120706688E+04  0.21120706688E+04  0.25500000920E-02 0. -1.
       -2   -1    0    0    0  501  0.00000000000E+00  0.00000000000E+00 -0.10661509579E+04  0.10661509579E+04  0.25500000920E-02 0.  1.
    10030    2    1    2    0    0  0.00000000000E+00  0.00000000000E+00  0.10459197108E+04  0.31782216267E+04  0.30011905416E+04 0.  0.
        4    1    3    3  502    0  0.12594479425E+04 -0.68527107977E+03  0.54151484926E+02  0.14348308502E+04  0.12699999809E+01 0.  1.
       -4    1    3    3    0  502 -0.12594479425E+04  0.68527107977E+03  0.99176822592E+03  0.17433907765E+04  0.12699999809E+01 0. -1.
</event>
<event>
 5   0  0.1821305E-07  0.2998062E+04  0.7818609E-02  0.8244285E-01
       -2   -1    0    0    0  501  0.00000000000E+00  0.00000000000E+00  0.17354992829E+04  0.17354992829E+04  0.25500000920E-02 0. -1.
        2   -1    0    0  501    0  0.00000000000E+00  0.00000000000E+00 -0.12947824222E+04  0.12947824222E+04  0.25500000920E-02 0.  1.
    10030    2    1    2    0    0  0.00000000000E+00  0.00000000000E+00  0.44071686077E+03  0.30302817051E+04  0.29980620175E+04 0.  0.
        2    1    3    3  502    0 -0.13524116864E+04 -0.53874658461E+03  0.58173217837E+03  0.15676981787E+04  0.25500000920E-02 0. -1.
       -2    1    3    3    0  502  0.13524116864E+04  0.53874658461E+03 -0.14101531760E+03  0.14625835265E+04  0.25500000920E-02 0.  1.
</event>
<event>
 5   0  0.1810055E-07  0.2999243E+04  0.7818609E-02  0.8243947E-01
        2   -1    0    0  501    0  0.00000000000E+00  0.00000000000E+00  0.14424583711E+04  0.14424583711E+04  0.25500000920E-02 0.  1.
       -2   -1    0    0    0  501  0.00000000000E+00  0.00000000000E+00 -0.15590496927E+04  0.15590496927E+04  0.25500000920E-02 0. -1.
    10030    2    1    2    0    0  0.00000000000E+00  0.00000000000E+00 -0.11659132153E+03  0.30015080638E+04  0.29992427579E+04 0.  0.
        4    1    3    3  502    0 -0.11256716816E+04 -0.33212305054E+03 -0.99249963397E+03  0.15370424821E+04  0.12699999809E+01 0. -1.
       -4    1    3    3    0  502  0.11256716816E+04  0.33212305054E+03  0.87590831243E+03  0.14644655817E+04  0.12699999809E+01 0.  1.
</event>
<event>
 5   0  0.1817566E-07  0.3005874E+04  0.7818609E-02  0.8242055E-01
        2   -1    0    0  501    0  0.00000000000E+00  0.00000000000E+00  0.83177103384E+03  0.83177103385E+03  0.25500000920E-02 0.  1.
       -2   -1    0    0    0  501  0.00000000000E+00  0.00000000000E+00 -0.27156753808E+04  0.27156753808E+04  0.25500000920E-02 0. -1.
    10030    2    1    2    0    0  0.00000000000E+00  0.00000000000E+00 -0.18839043470E+04  0.35474464147E+04  0.30058743281E+04 0.  0.
        1    1    3    3  502    0 -0.12984943529E+04 -0.11752520557E+03 -0.59644634816E+02  0.13051655991E+04  0.50400001928E-02 0.  1.
       -1    1    3    3    0  502  0.12984943529E+04  0.11752520557E+03 -0.18242597122E+04  0.22422808156E+04  0.50400001928E-02 0. -1.
</event>
<event>
 5   0  0.1813720E-07  0.2998169E+04  0.7818609E-02  0.8244254E-01
       -2   -1    0    0    0  501  0.00000000000E+00  0.00000000000E+00  0.12188955432E+04  0.12188955432E+04  0.25500000920E-02 0.  1.
        2   -1    0    0  501    0  0.00000000000E+00  0.00000000000E+00 -0.18436802247E+04  0.18436802247E+04  0.25500000920E-02 0. -1.
    10030    2    1    2    0    0  0.00000000000E+00  0.00000000000E+00 -0.62478468156E+03  0.30625757679E+04  0.29981685136E+04 0.  0.
        3    1    3    3  502    0  0.68338333277E+03 -0.37309445117E+03  0.99615839234E+03  0.12643353202E+04  0.10100000352E+00 0.  1.
       -3    1    3    3    0  502 -0.68338333277E+03  0.37309445117E+03 -0.16209430739E+04  0.17982404478E+04  0.10100000352E+00 0. -1.
</event>
<event>
 5   0  0.6374748E-08  0.2999342E+04  0.7818609E-02  0.8243919E-01
        1   -1    0    0  501    0  0.00000000000E+00  0.00000000000E+00  0.15521885626E+04  0.15521885626E+04  0.50400001928E-02 0.  1.
       -1   -1    0    0    0  501  0.00000000000E+00  0.00000000000E+00 -0.14489300202E+04  0.14489300203E+04  0.50400001928E-02 0. -1.
    10030    2    1    2    0    0  0.00000000000E+00  0.00000000000E+00  0.10325854238E+03  0.30011185829E+04  0.29993416648E+04 0.  0.
        1    1    3    3  502    0 -0.52133684120E+02  0.92988363624E+03 -0.11244866350E+04  0.14600930417E+04  0.50400001928E-02 0. -1.
       -1    1    3    3    0  502  0.52133684120E+02 -0.92988363624E+03  0.12277451774E+04  0.15410255412E+04  0.50400001928E-02 0.  1.
</event>
<event>
 5   0  0.1821305E-07  0.3008210E+04  0.7818609E-02  0.8241390E-01
       -2   -1    0    0    0  501  0.00000000000E+00  0.00000000000E+00  0.12193215343E+04  0.12193215343E+04  0.25500000920E-02 0. -1.
        2   -1    0    0  501    0  0.00000000000E+00  0.00000000000E+00 -0.18554021396E+04  0.18554021396E+04  0.25500000920E-02 0.  1.
    10030    2    1    2    0    0  0.00000000000E+00  0.00000000000E+00 -0.63608060531E+03  0.30747236740E+04  0.30082099553E+04 0.  0.
        2    1    3    3  502    0  0.12074566133E+04  0.55620589703E+03 -0.10371700657E+04  0.16861311390E+04  0.25500000920E-02 0.  1.
       -2    1    3    3    0  502 -0.12074566133E+04 -0.55620589703E+03  0.40108946042E+03  0.13885925349E+04  0.25500000920E-02 0. -1.
</event>
<event>
 5   0  0.6636007E-08  0.3001170E+04  0.7818609E-02  0.8243397E-01
       -1   -1    0    0    0  501  0.00000000000E+00  0.00000000000E+00  0.10731642699E+04  0.10731642700E+04  0.50400001928E-02 0. -1.
        1   -1    0    0  501    0  0.00000000000E+00  0.00000000000E+00 -0.20982393094E+04  0.20982393094E+04  0.50400001928E-02 0.  1.
    10030    2    1    2    0    0  0.00000000000E+00  0.00000000000E+00 -0.10250750394E+04  0.31714035793E+04  0.30011700762E+04 0.  0.
        2    1    3    3  502    0  0.75390760925E+02  0.11229342397E+04  0.53627761107E+03  0.12466991416E+04  0.25500000920E-02 0. -1.
       -2    1    3    3    0  502 -0.75390760925E+02 -0.11229342397E+04 -0.15613526505E+04  0.19247044377E+04  0.25500000920E-02 0.  1.
</event>
<event>
 5   0  0.1821305E-07  0.2996318E+04  0.7818609E-02  0.8244783E-01
        2   -1    0    0  501    0  0.00000000000E+00  0.00000000000E+00  0.21742283897E+04  0.21742283897E+04  0.25500000920E-02 0.  1.
       -2   -1    0    0    0  501  0.00000000000E+00  0.00000000000E+00 -0.10323115274E+04  0.10323115274E+04  0.25500000920E-02 0. -1.
    10030    2    1    2    0    0  0.00000000000E+00  0.00000000000E+00  0.11419168623E+04  0.32065399171E+04  0.29963184276E+04 0.  0.
        2    1    3    3  502    0 -0.18167186299E+02  0.33607586536E+03  0.21332467887E+04  0.21596339725E+04  0.25500000920E-02 0.  1.
       -2    1    3    3    0  502  0.18167186299E+02 -0.33607586536E+03 -0.99132992638E+03  0.10469059446E+04  0.25500000920E-02 0. -1.
</event>
<event>
 5   0  0.1810055E-07  0.3007229E+04  0.7818609E-02  0.8241670E-01
        2   -1    0    0  501    0  0.00000000000E+00  0.00000000000E+00  0.15487479392E+04  0.15487479392E+04  0.25500000920E-02 0. -1.
       -2   -1    0    0    0  501  0.00000000000E+00  0.00000000000E+00 -0.14597963672E+04  0.14597963672E+04  0.25500000920E-02 0.  1.
    10030    2    1    2    0    0  0.00000000000E+00  0.00000000000E+00  0.88951571998E+02  0.30085443064E+04  0.30072290337E+04 0.  0.
        4    1    3    3  502    0  0.16278093708E+03 -0.39965234460E+03 -0.13965136439E+04  0.14616674042E+04  0.12699999809E+01 0.  1.
       -4    1    3    3    0  502 -0.16278093708E+03  0.39965234460E+03  0.14854652159E+04  0.15468769022E+04  0.12699999809E+01 0. -1.
</event>
<event>
 5   0  0.6374748E-08  0.2991385E+04  0.7818609E-02  0.8246195E-01
        1   -1    0    0  501    0  0.00000000000E+00  0.00000000000E+00  0.74774406388E+03  0.74774406390E+03  0.50400001928E-02 0. -1.
       -1   -1    0    0    0  501  0.00000000000E+00  0.00000000000E+00 -0.29917931365E+04  0.29917931365E+04  0.50400001928E-02 0.  1.
    10030    2    1    2    0    0  0.00000000000E+00  0.00000000000E+00 -0.22440490726E+04  0.37395372004E+04  0.29913846682E+04 0.  0.
        1    1    3    3  502    0 -0.27030366577E+03 -0.44823512361E+03  0.62950981803E+03  0.81869494245E+03  0.50400001928E-02 0. -1.
       -1    1    3    3    0  502  0.27030366577E+03  0.44823512361E+03 -0.28735588907E+04  0.29208422580E+04  0.50400001928E-02 0.  1.
</event>
<event>
 5   0  0.6679022E-08  0.2989745E+04  0.7818609E-02  0.8246665E-01
       -1   -1    0    0    0  501  0.00000000000E+00  0.00000000000E+00  0.16877985793E+04  0.16877985793E+04  0.50400001928E-02 0.  1.
        1   -1    0    0  501    0  0.00000000000E+00  0.00000000000E+00 -0.13239987579E+04  0.13239987579E+04  0.50400001928E-02 0. -1.
    10030    2    1    2    0    0  0.00000000000E+00  0.00000000000E+00  0.36379982144E+03  0.30117973372E+04  0.29897446196E+04 0.  0.
        3    1    3    3  502    0  0.24341308003E+03 -0.12667598000E+04  0.94292766280E+03  0.15978244290E+04  0.10100000352E+00 0.  1.
       -3    1    3    3    0  502 -0.24341308003E+03  0.12667598000E+04 -0.57912784136E+03  0.14139729082E+04  0.10100000352E+00 0. -1.
</event>
<event>
 5   0  0.1813720E-07  0.3001535E+04  0.7818609E-02  0.8243293E-01
        2   -1    0    0  501    0  0.00000000000E+00  0.00000000000E+00  0.17295774707E+04  0.17295774707E+04  0.25500000920E-02 0. -1.
       -2   -1    0    0    0  501  0.00000000000E+00  0.00000000000E+00 -0.13022274006E+04  0.13022274006E+04  0.25500000920E-02 0.  1.
    10030    2    1    2    0    0  0.00000000000E+00  0.00000000000E+00  0.42735007013E+03  0.30318048714E+04  0.30015350565E+04 0.  0.
        3    1    3    3  502    0 -0.65597524508E+03 -0.32620722316E+03 -0.11093388074E+04  0.13294161404E+04  0.10100000352E+00 0.  1.
       -3    1    3    3    0  502  0.65597524508E+03  0.32620722316E+03  0.15366888775E+04  0.17023887309E+04  0.10100000352E+00 0. -1.
</event>
<event>
 5   0  0.6464436E-08  0.2999253E+04  0.7818609E-02  0.8243944E-01
        1   -1    0    0  501    0  0.00000000000E+00  0.00000000000E+00  0.14304625440E+04  0.14304625440E+04  0.50400001928E-02 0. -1.
       -1   -1    0    0    0  501  0.00000000000E+00  0.00000000000E+00 -0.15721349729E+04  0.15721349729E+04  0.50400001928E-02 0.  1.
    10030    2    1    2    0    0  0.00000000000E+00  0.00000000000E+00 -0.14167242898E+03  0.30025975169E+04  0.29992533690E+04 0.  0.
        5    1    3    3  502    0 -0.69311259434E+03 -0.37915458353E+03 -0.13468926021E+04  0.15615072969E+04  0.46999998093E+01 0.  1.
       -5    1    3    3    0  502  0.69311259434E+03  0.37915458353E+03  0.12052201731E+04  0.14410902200E+04  0.46999998093E+01 0. -1.
</event>
<event>
 5   0  0.6525507E-08  0.3000498E+04  0.7818609E-02  0.8243589E-01
        1   -1    0    0  501    0  0.00000000000E+00  0.00000000000E+00  0.17621139933E+04  0.17621139933E+04  0.50400001928E-02 0.  1.
       -1   -1    0    0    0  501  0.00000000000E+00  0.00000000000E+00 -0.12772993031E+04  0.12772993031E+04  0.50400001928E-02 0. -1.
    10030    2    1    2    0    0  0.00000000000E+00  0.00000000000E+00  0.48481469014E+03  0.30394132964E+04  0.30004979424E+04 0.  0.
        4    1    3    3  502    0 -0.86573628382E+03 -0.44375809743E+03  0.13992899787E+04  0.17042401884E+04  0.12699999809E+01 0.  1.
       -4    1    3    3    0  502  0.86573628382E+03  0.44375809743E+03 -0.91447528858E+03  0.13351731081E+04  0.12699999809E+01 0. -1.
</event>
<event>
 5   0  0.1810055E-07  0.2985805E+04  0.7818609E-02  0.8247796E-01
        2   -1    0    0  501    0  0.00000000000E+00  0.00000000000E+00  0.27124863493E+04  0.27124863493E+04  0.25500000920E-02 0. -1.
       -2   -1    0    0    0  501  0.00000000000E+00  0.00000000000E+00 -0.82166619318E+03  0.82166619318E+03  0.25500000920E-02 0.  1.
    10030    2    1    2    0    0  0.00000000000E+00  0.00000000000E+00  0.18908201561E+04  0.35341525425E+04  0.29858053069E+04 0.  0.
        4    1    3    3  502    0  0.47635657291E+02 -0.26087451951E+03 -0.79356354893E+03  0.83670149388E+03  0.12699999809E+01 0.  1.
       -4    1    3    3    0  502 -0.47635657291E+02  0.26087451951E+03  0.26843837050E+04  0.26974510486E+04  0.12699999809E+01 0. -1.
</event>
<event>
 5   0  0.1817566E-07  0.3005178E+04  0.7818609E-02  0.8242254E-01
        2   -1    0    0  501    0  0.00000000000E+00  0.00000000000E+00  0.88222054218E+03  0.88222054218E+03  0.25500000920E-02 0. -1.
       -2   -1    0    0    0  501  0.00000000000E+00  0.00000000000E+00 -0.25591948137E+04  0.25591948137E+04  0.25500000920E-02 0.  1.
    10030    2    1    2    0    0  0.00000000000E+00  0.00000000000E+00 -0.16769742715E+04  0.34414153559E+04  0.30051783548E+04 0.  0.
        1    1    3    3  502    0  0.50476667594E+03  0.12669243454E+03 -0.24526916078E+04  0.25072966504E+04  0.50400001928E-02 0.  1.
       -1    1    3    3    0  502 -0.50476667594E+03 -0.12669243454E+03  0.77571733627E+03  0.93411870548E+03  0.50400001928E-02 0. -1.
</event>
<event>
 5   0  0.6636007E-08  0.2999462E+04  0.7818609E-02  0.8243885E-01
        1   -1    0    0  501    0  0.00000000000E+00  0.00000000000E+00  0.13502619548E+04  0.13502619548E+04  0.50400001928E-02 0.  1.
       -1   -1    0    0    0  501  0.00000000000E+00  0.00000000000E+00 -0.16657453542E+04  0.16657453542E+04  0.50400001928E-02 0. -1.
    10030    2    1    2    0    0  0.00000000000E+00  0.00000000000E+00 -0.31548339936E+03  0.30160073090E+04  0.29994616705E+04 0.  0.
        2    1    3    3  502    0  0.23328660539E+03 -0.76327845248E+03  0.11189772109E+04  0.13744550319E+04  0.25500000920E-02 0.  1.
       -2    1    3    3    0  502 -0.23328660539E+03  0.76327845248E+03 -0.14344606102E+04  0.16415522771E+04  0.25500000920E-02 0. -1.
</event>
<event>
 5   0  0.1821305E-07  0.2997536E+04  0.7818609E-02  0.8244435E-01
       -2   -1    0    0    0  501  0.00000000000E+00  0.00000000000E+00  0.12875519259E+04  0.12875519259E+04  0.25500000920E-02 0.  1.
        2   -1    0    0  501    0  0.00000000000E+00  0.00000000000E+00 -0.17446327994E+04  0.17446327994E+04  0.25500000920E-02 0. -1.
    10030    2    1    2    0    0  0.00000000000E+00  0.00000000000E+00 -0.45708087350E+03  0.30321847253E+04  0.29975358686E+04 0.  0.
        2    1    3    3  502    0 -0.87096147257E+03  0.80170821758E+03  0.70132141580E+03  0.13759221203E+04  0.25500000920E-02 0.  1.
       -2    1    3    3    0  502  0.87096147257E+03 -0.80170821758E+03 -0.11584022893E+04  0.16562626050E+04  0.25500000920E-02 0. -1.
</event>
<event>
 5   0  0.1817566E-07  0.2998677E+04  0.7818609E-02  0.8244109E-01
        2   -1    0    0  501    0  0.00000000000E+00  0.00000000000E+00  0.14744344054E+04  0.14744344054E+04  0.25500000920E-02 0.  1.
       -2   -1    0    0    0  501  0.00000000000E+00  0.00000000000E+00 -0.15246633595E+04  0.15246633595E+04  0.25500000920E-02 0. -1.
    10030    2    1    2    0    0  0.00000000000E+00  0.00000000000E+00 -0.50228954166E+02  0.29990977649E+04  0.29986771176E+04 0.  0.
        1    1    3    3  502    0 -0.10824492029E+04 -0.53863404339E+03  0.86168526939E+03  0.14846967411E+04  0.50400001928E-02 0.  1.
       -1    1    3    3    0  502  0.10824492029E+04  0.53863404339E+03 -0.91191422355E+03  0.15144010238E+04  0.50400001928E-02 0. -1.
</event>
<event>
 5   0  0.1813720E-07  0.2998328E+04  0.7818609E-02  0.8244209E-01
       -2   -1    0    0    0  501  0.00000000000E+00  0.00000000000E+00  0.19220837798E+04  0.19220837798E+04  0.25500000920E-02 0.  1.
        2   -1    0    0  501    0  0.00000000000E+00  0.00000000000E+00 -0.11692999111E+04  0.11692999111E+04  0.25500000920E-02 0. -1.
    10030    2    1    2    0    0  0.00000000000E+00  0.00000000000E+00  0.75278386877E+03  0.30913836909E+04  0.29983277958E+04 0.  0.
        3    1    3    3  502    0 -0.13186567884E+04 -0.57837512738E+03 -0.53834131535E+02  0.14409273533E+04  0.10100000352E+00 0. -1.
       -3    1    3    3    0  502  0.13186567884E+04  0.57837512738E+03  0.80661800031E+03  0.16504563376E+04  0.10100000352E+00 0.  1.
</event>
<event>
 5   0  0.1821305E-07  0.3000619E+04  0.7818609E-02  0.8243554E-01
        2   -1    0    0  501    0  0.00000000000E+00  0.00000000000E+00  0.22209410105E+04  0.22209410105E+04  0.25500000920E-02 0. -1.
       -2   -1    0    0    0  501  0.00000000000E+00  0.00000000000E+00 -0.10135018900E+04  0.10135018900E+04  0.25500000920E-02 0.  1.
    10030    2    1    2    0    0  0.00000000000E+00  0.00000000000E+00  0.12074391205E+04  0.32344429005E+04  0.30006185440E+04 0.  0.
        2    1    3    3  502    0 -0.12103578337E+04 -0.81001167740E+03  0.99213619183E+03  0.17622199710E+04  0.25500000920E-02 0. -1.
       -2    1    3    3    0  502  0.12103578337E+04  0.81001167740E+03  0.21530292871E+03  0.14722229295E+04  0.25500000920E-02 0.  1.
</event>
<event>
 5   0  0.6464436E-08  0.2997427E+04  0.7818609E-02  0.8244466E-01
        1   -1    0    0  501    0  0.00000000000E+00  0.00000000000E+00  0.14295627706E+04  0.14295627706E+04  0.50400001928E-02 0. -1.
       -1   -1    0    0    0  501  0.00000000000E+00  0.00000000000E+00 -0.15712089014E+04  0.15712089014E+04  0.50400001928E-02 0.  1.
    10030    2    1    2    0    0  0.00000000000E+00  0.00000000000E+00 -0.14164613083E+03  0.30007716720E+04  0.29974267299E+04 0.  0.
        5    1    3    3  502    0 -0.19097731230E+03 -0.51882088033E+03  0.13237397801E+04  0.14345579581E+04  0.46999998093E+01 0. -1.
       -5    1    3    3    0  502  0.19097731230E+03  0.51882088033E+03 -0.14653859109E+04  0.15662137139E+04  0.46999998093E+01 0.  1.
</event>
<event>
 5   0  0.1810055E-07  0.2998849E+04  0.7818609E-02  0.8244060E-01
        2   -1    0    0  501    0  0.00000000000E+00  0.00000000000E+00  0.16957822378E+04  0.16957822378E+04  0.25500000920E-02 0. -1.
       -2   -1    0    0    0  501  0.00000000000E+00  0.00000000000E+00 -0.13258033189E+04  0.13258033189E+04  0.25500000920E-02 0.  1.
    10030    2    1    2    0    0  0.00000000000E+00  0.00000000000E+00  0.36997891891E+03  0.30215855568E+04  0.29988489252E+04 0.  0.
        4    1    3    3  502    0 -0.36360997192E+03  0.61667702326E+03 -0.11424854314E+04  0.13482497308E+04  0.12699999809E+01 0.  1.
       -4    1    3    3    0  502  0.36360997192E+03 -0.61667702326E+03  0.15124643503E+04  0.16733358260E+04  0.12699999809E+01 0. -1.
</event>
<event>
 5   0  0.6679022E-08  0.3000039E+04  0.7818609E-02  0.8243720E-01
       -1   -1    0    0    0  501  0.00000000000E+00  0.00000000000E+00  0.94249375753E+03  0.94249375754E+03  0.50400001928E-02 0.  1.
        1   -1    0    0  501    0  0.00000000000E+00  0.00000000000E+00 -0.23873455913E+04  0.23873455913E+04  0.50400001928E-02 0. -1.
    10030    2    1    2    0    0  0.00000000000E+00  0.00000000000E+00 -0.14448518338E+04  0.33298393489E+04  0.30000388777E+04 0.  0.
        3    1    3    3  502    0 -0.11566742516E+04  0.59780422378E+03  0.10430070120E+03  0.13061944192E+04  0.10100000352E+00 0.  1.
       -3    1    3    3    0  502  0.11566742516E+04 -0.59780422378E+03 -0.15491525350E+04  0.20236449296E+04  0.10100000352E+00 0. -1.
</event>
<event>
 5   0  0.6374748E-08  0.2996499E+04  0.7818609E-02  0.8244731E-01
        1   -1    0    0  501    0  0.00000000000E+00  0.00000000000E+00  0.28060135663E+04  0.28060135663E+04  0.50400001928E-02 0. -1.
       -1   -1    0    0    0  501  0.00000000000E+00  0.00000000000E+00 -0.79997875046E+03  0.79997875048E+03  0.50400001928E-02 0.  1.
    10030    2    1    2    0    0  0.00000000000E+00  0.00000000000E+00  0.20060348158E+04  0.36059923168E+04  0.29964987746E+04 0.  0.
        1    1    3    3  502    0 -0.14827960501E+04 -0.19491886646E+03  0.89488697045E+03  0.17428425576E+04  0.50400001928E-02 0.  1.
       -1    1    3    3    0  502  0.14827960501E+04  0.19491886646E+03  0.11111478454E+04  0.18631497591E+04  0.50400001928E-02 0. -1.
</event>
<event>
 5   0  0.1813720E-07  0.3000155E+04  0.7818609E-02  0.8243687E-01
       -2   -1    0    0    0  501  0.00000000000E+00  0.00000000000E+00  0.18119884472E+04  0.18119884472E+04  0.25500000920E-02 0. -1.
        2   -1    0    0  501    0  0.00000000000E+00  0.00000000000E+00 -0.12418578151E+04  0.12418578151E+04  0.25500000920E-02 0.  1.
    10030    2    1    2    0    0  0.00000000000E+00  0.00000000000E+00  0.57013063209E+03  0.30538462624E+04  0.30001546721E+04 0.  0.
        3    1    3    3  502    0 -0.13849950411E+04 -0.76733362659E+02 -0.29623521309E+03  0.14183985986E+04  0.10100000352E+00 0.  1.
       -3    1    3    3    0  502  0.13849950411E+04  0.76733362659E+02  0.86636584518E+03  0.16354476637E+04  0.10100000352E+00 0. -1.
</event>
<event>
 5   0  0.6017625E-08  0.2999739E+04  0.7818609E-02  0.8243805E-01
        3   -1    0    0  501    0  0.00000000000E+00  0.00000000000E+00  0.14389160562E+04  0.14389160597E+04  0.10100000352E+00 0. -1.
       -3   -1    0    0    0  501  0.00000000000E+00  0.00000000000E+00 -0.15634051871E+04  0.15634051903E+04  0.10100000352E+00 0.  1.
    10030    2    1    2    0    0  0.00000000000E+00  0.00000000000E+00 -0.12448913090E+03  0.30023212501E+04  0.29997392128E+04 0.  0.
        1    1    3    3  502    0  0.35988722015E+03  0.38314277731E+02  0.13945570117E+04  0.14407553762E+04  0.50400001928E-02 0. -1.
       -1    1    3    3    0  502 -0.35988722015E+03 -0.38314277731E+02 -0.15190461426E+04  0.15615658739E+04  0.50400001928E-02 0.  1.
</event>
<event>
 5   0  0.6679022E-08  0.2999752E+04  0.7818609E-02  0.8243802E-01
       -1   -1    0    0    0  501  0.00000000000E+00  0.00000000000E+00  0.95349443303E+03  0.95349443304E+03  0.50400001928E-02 0. -1.
        1   -1    0    0  501    0  0.00000000000E+00  0.00000000000E+00 -0.23593512725E+04  0.23593512725E+04  0.50400001928E-02 0.  1.
    10030    2    1    2    0    0  0.00000000000E+00  0.00000000000E+00 -0.14058568395E+04  0.33128457055E+04  0.29997521924E+04 0.  0.
        3    1    3    3  502    0  0.78865250791E+03  0.12038845613E+04 -0.11692792854E+04  0.18543259887E+04  0.10100000352E+00 0.  1.
       -3    1    3    3    0  502 -0.78865250791E+03 -0.12038845613E+04 -0.23657755411E+03  0.14585197168E+04  0.10100000352E+00 0. -1.
</event>
<event>
 5   0  0.6525507E-08  0.3005760E+04  0.7818609E-02  0.8242088E-01
        1   -1    0    0  501    0  0.00000000000E+00  0.00000000000E+00  0.19036243801E+04  0.19036243801E+04  0.50400001928E-02 0. -1.
       -1   -1    0    0    0  501  0.00000000000E+00  0.00000000000E+00 -0.11864989217E+04  0.11864989217E+04  0.50400001928E-02 0.  1.
    10030    2    1    2    0    0  0.00000000000E+00  0.00000000000E+00  0.71712545840E+03  0.30901233018E+04  0.30057599866E+04 0.  0.
        4    1    3    3  502    0  0.12018707154E+04  0.67731503025E+03  0.97144756285E+03  0.16872939421E+04  0.12699999809E+01 0. -1.
       -4    1    3    3    0  502 -0.12018707154E+04 -0.67731503025E+03 -0.25432210445E+03  0.14028293597E+04  0.12699999809E+01 0.  1.
</event>
<event>
 5   0  0.6464436E-08  0.3000418E+04  0.7818609E-02  0.8243612E-01
       -1   -1    0    0    0  501  0.00000000000E+00  0.00000000000E+00  0.13214927110E+04  0.13214927110E+04  0.50400001928E-02 0.  1.
        1   -1    0    0  501    0  0.00000000000E+00  0.00000000000E+00 -0.17030942179E+04  0.17030942179E+04  0.50400001928E-02 0. -1.
    10030    2    1    2    0    0  0.00000000000E+00  0.00000000000E+00 -0.38160150688E+03  0.30245869289E+04  0.30004177010E+04 0.  0.
        5    1    3    3  502    0 -0.14611376137E+04 -0.22433239893E+03  0.66907459377E+02  0.14797793246E+04  0.46999998093E+01 0.  1.
       -5    1    3    3    0  502  0.14611376137E+04  0.22433239893E+03 -0.44850896626E+03  0.15448076043E+04  0.46999998093E+01 0. -1.
</event>
<event>
 5   0  0.6525507E-08  0.3000999E+04  0.7818609E-02  0.8243446E-01
        1   -1    0    0  501    0  0.00000000000E+00  0.00000000000E+00  0.22061979743E+04  0.22061979743E+04  0.50400001928E-02 0. -1.
       -1   -1    0    0    0  501  0.00000000000E+00  0.00000000000E+00 -0.10205336857E+04  0.10205336857E+04  0.50400001928E-02 0.  1.
    10030    2    1    2    0    0  0.00000000000E+00  0.00000000000E+00  0.11856642886E+04  0.32267316600E+04  0.30009994003E+04 0.  0.
        4    1    3    3  502    0 -0.14920163928E+04  0.62823450262E+02  0.43540144376E+03  0.15555178342E+04  0.12699999809E+01 0. -1.
       -4    1    3    3    0  502  0.14920163928E+04 -0.62823450262E+02  0.75026284484E+03  0.16712138258E+04  0.12699999809E+01 0.  1.
</event>
<event>
 5   0  0.1813720E-07  0.2998709E+04  0.7818609E-02  0.8244100E-01
       -2   -1    0    0    0  501  0.00000000000E+00  0.00000000000E+00  0.16934967444E+04  0.16934967444E+04  0.25500000920E-02 0.  1.
        2   -1    0    0  501    0  0.00000000000E+00  0.00000000000E+00 -0.13274688819E+04  0.13274688819E+04  0.25500000920E-02 0. -1.
    10030    2    1    2    0    0  0.00000000000E+00  0.00000000000E+00  0.36602786248E+03  0.30209656264E+04  0.29987092089E+04 0.  0.
        3    1    3    3  502    0  0.38279422968E+03 -0.12380887530E+04 -0.57668448594E+03  0.14184358248E+04  0.10100000352E+00 0. -1.
       -3    1    3    3    0  502 -0.38279422968E+03  0.12380887530E+04  0.94271234842E+03  0.16025298015E+04  0.10100000352E+00 0.  1.
</event>
<event>
 5   0  0.6374748E-08  0.2999653E+04  0.7818609E-02  0.8243830E-01
        1   -1    0    0  501    0  0.00000000000E+00  0.00000000000E+00  0.19064973556E+04  0.19064973556E+04  0.50400001928E-02 0. -1.
       -1   -1    0    0    0  501  0.00000000000E+00  0.00000000000E+00 -0.11799020111E+04  0.11799020111E+04  0.50400001928E-02 0.  1.
    10030    2    1    2    0    0  0.00000000000E+00  0.00000000000E+00  0.72659534450E+03  0.30863993666E+04  0.29996533559E+04 0.  0.
        1    1    3    3  502    0 -0.45052104373E+03  0.16865566472E+03  0.18249656983E+04  0.18873032995E+04  0.50400001928E-02 0. -1.
       -1    1    3    3    0  502  0.45052104373E+03 -0.16865566472E+03 -0.10983703538E+04  0.11990960672E+04  0.50400001928E-02 0.  1.
</event>
<event>
 5   0  0.1813720E-07  0.2999330E+04  0.7818609E-02  0.8243922E-01
       -2   -1    0    0    0  501  0.00000000000E+00  0.00000000000E+00  0.12884588718E+04  0.12884588718E+04  0.25500000920E-02 0.  1.
        2   -1    0    0  501    0  0.00000000000E+00  0.00000000000E+00 -0.17454920014E+04  0.17454920014E+04  0.25500000920E-02 0. -1.
    10030    2    1    2    0    0  0.00000000000E+00  0.00000000000E+00 -0.45703312960E+03  0.30339508732E+04  0.29993296950E+04 0.  0.
        3    1    3    3  502    0  0.48818017032E+03  0.40574924771E+02  0.12052464708E+04  0.13009939542E+04  0.10100000352E+00 0.  1.
       -3    1    3    3    0  502 -0.48818017032E+03 -0.40574924771E+02 -0.16622796004E+04  0.17329569190E+04  0.10100000352E+00 0. -1.
</event>
<event>
 5   0  0.1810055E-07  0.3000636E+04  0.7818609E-02  0.8243549E-01
        2   -1    0    0  501    0  0.00000000000E+00  0.00000000000E+00  0.20665886916E+04  0.20665886916E+04  0.25500000920E-02 0. -1.
       -2   -1    0    0    0  501  0.00000000000E+00  0.00000000000E+00 -0.10892126081E+04  0.10892126081E+04  0.25500000920E-02 0.  1.
    10030    2    1    2    0    0  0.00000000000E+00  0.00000000000E+00  0.97737608353E+03  0.31558012997E+04  0.30006362383E+04 0.  0.
        4    1    3    3  502    0  0.22273781756E+03 -0.14740264696E+04  0.66650703252E+03  0.16329725673E+04  0.12699999809E+01 0. -1.
       -4    1    3    3    0  502 -0.22273781756E+03  0.14740264696E+04  0.31086905100E+03  0.15228287324E+04  0.12699999809E+01 0.  1.
</event>
<event>
 5   0  0.6525507E-08  0.2988725E+04  0.7818609E-02  0.8246958E-01
       -1   -1    0    0    0  501  0.00000000000E+00  0.00000000000E+00  0.16752066680E+04  0.16752066680E+04  0.50400001928E-02 0.  1.
        1   -1    0    0  501    0  0.00000000000E+00  0.00000000000E+00 -0.13330414247E+04  0.13330414247E+04  0.50400001928E-02 0. -1.
    10030    2    1    2    0    0  0.00000000000E+00  0.00000000000E+00  0.34216524323E+03  0.30082480927E+04  0.29887254028E+04 0.  0.
        4    1    3    3  502    0  0.49168723355E+03 -0.47839308573E+03 -0.11651819163E+04  0.13521341617E+04  0.12699999809E+01 0. -1.
       -4    1    3    3    0  502 -0.49168723355E+03  0.47839308573E+03  0.15073471596E+04  0.16561139310E+04  0.12699999809E+01 0.  1.
</event>
<event>
 5   0  0.6374748E-08  0.2999305E+04  0.7818609E-02  0.8243929E-01
       -1   -1    0    0    0  501  0.00000000000E+00  0.00000000000E+00  0.12169480800E+04  0.12169480800E+04  0.50400001928E-02 0.  1.
        1   -1    0    0  501    0  0.00000000000E+00  0.00000000000E+00 -0.18480311681E+04  0.18480311681E+04  0.50400001928E-02 0. -1.
    10030    2    1    2    0    0  0.00000000000E+00  0.00000000000E+00 -0.63108308807E+03  0.30649792481E+04  0.29993052408E+04 0.  0.
        1    1    3    3  502    0  0.41844331189E+02 -0.14816393502E+04 -0.54846190952E+03  0.15804482207E+04  0.50400001928E-02 0.  1.
       -1    1    3    3    0  502 -0.41844331189E+02  0.14816393502E+04 -0.82621178549E+02  0.14845310274E+04  0.50400001928E-02 0. -1.
</event>
<event>
 5   0  0.1821305E-07  0.2999361E+04  0.7818609E-02  0.8243913E-01
        2   -1    0    0  501    0  0.00000000000E+00  0.00000000000E+00  0.18658159941E+04  0.18658159941E+04  0.25500000920E-02 0. -1.
       -2   -1    0    0    0  501  0.00000000000E+00  0.00000000000E+00 -0.12053929801E+04  0.12053929801E+04  0.25500000920E-02 0.  1.
    10030    2    1    2    0    0  0.00000000000E+00  0.00000000000E+00  0.66042301395E+03  0.30712089742E+04  0.29993609329E+04 0.  0.
        2    1    3    3  502    0  0.10025904874E+04 -0.11131875354E+04  0.40016586212E+03  0.15506472493E+04  0.25500000920E-02 0.  1.
       -2    1    3    3    0  502 -0.10025904874E+04  0.11131875354E+04  0.26025715184E+03  0.15205617250E+04  0.25500000920E-02 0. -1.
</event>
<event>
 5   0  0.1813720E-07  0.3001212E+04  0.7818609E-02  0.8243385E-01
        2   -1    0    0  501    0  0.00000000000E+00  0.00000000000E+00  0.15268504568E+04  0.15268504568E+04  0.25500000920E-02 0. -1.
       -2   -1    0    0    0  501  0.00000000000E+00  0.00000000000E+00 -0.14748122386E+04  0.14748122386E+04  0.25500000920E-02 0.  1.
    10030    2    1    2    0    0  0.00000000000E+00  0.00000000000E+00  0.52038218200E+02  0.30016626954E+04  0.30012115821E+04 0.  0.
        3    1    3    3  502    0 -0.91545053219E+03  0.11499690346E+04 -0.27625019649E+03  0.14955910667E+04  0.10100000352E+00 0. -1.
       -3    1    3    3    0  502  0.91545053219E+03 -0.11499690346E+04  0.32828841469E+03  0.15060716287E+04  0.10100000352E+00 0.  1.
</event>
<event>
 5   0  0.6525507E-08  0.2999680E+04  0.7818609E-02  0.8243822E-01
       -1   -1    0    0    0  501  0.00000000000E+00  0.00000000000E+00  0.13268695777E+04  0.13268695777E+04  0.50400001928E-02 0. -1.
        1   -1    0    0  501    0  0.00000000000E+00  0.00000000000E+00 -0.16953583574E+04  0.16953583574E+04  0.50400001928E-02 0.  1.
    10030    2    1    2    0    0  0.00000000000E+00  0.00000000000E+00 -0.36848877966E+03  0.30222279351E+04  0.29996796014E+04 0.  0.
        4    1    3    3  502    0  0.71576910582E+03 -0.57323258238E+03  0.10115202200E+04  0.13653189278E+04  0.12699999809E+01 0. -1.
       -4    1    3    3    0  502 -0.71576910582E+03  0.57323258238E+03 -0.13800089997E+04  0.16569090073E+04  0.12699999809E+01 0.  1.
</event>
<event>
 5   0  0.6636007E-08  0.2999121E+04  0.7818609E-02  0.8243982E-01
        1   -1    0    0  501    0  0.00000000000E+00  0.00000000000E+00  0.24969617836E+04  0.24969617836E+04  0.50400001928E-02 0.  1.
       -1   -1    0    0    0  501  0.00000000000E+00  0.00000000000E+00 -0.90056718612E+03  0.90056718613E+03  0.50400001928E-02 0. -1.
    10030    2    1    2    0    0  0.00000000000E+00  0.00000000000E+00  0.15963945975E+04  0.33975289698E+04  0.29991211028E+04 0.  0.
        2    1    3    3  502    0 -0.13223622450E+04  0.67527177196E+03  0.10359536554E+04  0.18104789005E+04  0.25500000920E-02 0.  1.
       -2    1    3    3    0  502  0.13223622450E+04 -0.67527177196E+03  0.56044094208E+03  0.15870500693E+04  0.25500000920E-02 0. -1.
</event>
<event>
 5   0  0.6374748E-08  0.2999415E+04  0.7818609E-02  0.8243898E-01
       -1   -1    0    0    0  501  0.00000000000E+00  0.00000000000E+00  0.10679876336E+04  0.10679876336E+04  0.50400001928E-02 0. -1.
        1   -1    0    0  501    0  0.00000000000E+00  0.00000000000E+00 -0.21059450096E+04  0.21059450096E+04  0.50400001928E-02 0.  1.
    10030    2    1    2    0    0  0.00000000000E+00  0.00000000000E+00 -0.10379573760E+04  0.31739326432E+04  0.29994154280E+04 0.  0.
        1    1    3    3  502    0 -0.12345283678E+04 -0.56724710472E+02 -0.14180272166E+04  0.18809782483E+04  0.50400001928E-02 0.  1.
       -1    1    3    3    0  502  0.12345283678E+04  0.56724710472E+02  0.38006984063E+03  0.12929543949E+04  0.50400001928E-02 0. -1.
</event>
<event>
 5   0  0.1821305E-07  0.2999372E+04  0.7818609E-02  0.8243910E-01
        2   -1    0    0  501    0  0.00000000000E+00  0.00000000000E+00  0.15094733049E+04  0.15094733049E+04  0.25500000920E-02 0.  1.
       -2   -1    0    0    0  501  0.00000000000E+00  0.00000000000E+00 -0.14899617828E+04  0.14899617828E+04  0.25500000920E-02 0. -1.
    10030    2    1    2    0    0  0.00000000000E+00  0.00000000000E+00  0.19511522053E+02  0.29994350877E+04  0.29993716252E+04 0.  0.
        2    1    3    3  502    0 -0.99582755858E+03 -0.18419139994E+03 -0.10963682429E+04  0.14925221346E+04  0.25500000920E-02 0. -1.
       -2    1    3    3    0  502  0.99582755858E+03  0.18419139994E+03  0.11158797650E+04  0.15069129531E+04  0.25500000920E-02 0.  1.
</event>
<event>
 5   0  0.6464436E-08  0.2998492E+04  0.7818609E-02  0.8244162E-01
       -1   -1    0    0    0  501  0.00000000000E+00  0.00000000000E+00  0.13861907540E+04  0.13861907540E+04  0.50400001928E-02 0.  1.
        1   -1    0    0  501    0  0.00000000000E+00  0.00000000000E+00 -0.16215221304E+04  0.16215221305E+04  0.50400001928E-02 0. -1.
    10030    2    1    2    0    0  0.00000000000E+00  0.00000000000E+00 -0.23533137648E+03  0.30077128844E+04  0.29984922775E+04 0.  0.
        5    1    3    3  502    0  0.40022873660E+03  0.42275383495E+03  0.12681808429E+04  0.13954241602E+04  0.46999998093E+01 0.  1.
       -5    1    3    3    0  502 -0.40022873660E+03 -0.42275383495E+03 -0.15035122194E+04  0.16122887243E+04  0.46999998093E+01 0. -1.
</event>
<event>
 5   0  0.6679022E-08  0.2999820E+04  0.7818609E-02  0.8243782E-01
       -1   -1    0    0    0  501  0.00000000000E+00  0.00000000000E+00  0.13580155335E+04  0.13580155335E+04  0.50400001928E-02 0.  1.
        1   -1    0    0  501    0  0.00000000000E+00  0.00000000000E+00 -0.16566309080E+04  0.16566309080E+04  0.50400001928E-02 0. -1.
    10030    2    1    2    0    0  0.00000000000E+00  0.00000000000E+00 -0.29861537458E+03  0.30146464415E+04  0.29998203322E+04 0.  0.
        3    1    3    3  502    0  0.73839080190E+03  0.66538861069E+03  0.97952821149E+03  0.13955065413E+04  0.10100000352E+00 0.  1.
       -3    1    3    3    0  502 -0.73839080190E+03 -0.66538861069E+03 -0.12781435861E+04  0.16191399002E+04  0.10100000352E+00 0. -1.
</event>
<event>
 5   0  0.1813720E-07  0.3000397E+04  0.7818609E-02  0.8243618E-01
        2   -1    0    0  501    0  0.00000000000E+00  0.00000000000E+00  0.20691157670E+04  0.20691157670E+04  0.25500000920E-02 0. -1.
       -2   -1    0    0    0  501  0.00000000000E+00  0.00000000000E+00 -0.10877087448E+04  0.10877087448E+04  0.25500000920E-02 0.  1.
    10030    2    1    2    0    0  0.00000000000E+00  0.00000000000E+00  0.98140702223E+03  0.31568245118E+04  0.30003968496E+04 0.  0.
        3    1    3    3  502    0  0.59823799385E+03  0.15866380393E+03 -0.94712076623E+03  0.11314153331E+04  0.10100000352E+00 0.  1.
       -3    1    3    3    0  502 -0.59823799385E+03 -0.15866380393E+03  0.19285277885E+04  0.20254091787E+04  0.10100000352E+00 0. -1.
</event>
<event>
 5   0  0.1813720E-07  0.2998861E+04  0.7818609E-02  0.8244056E-01
        2   -1    0    0  501    0  0.00000000000E+00  0.00000000000E+00  0.13295261809E+04  0.13295261809E+04  0.25500000920E-02 0. -1.
       -2   -1    0    0    0  501  0.00000000000E+00  0.00000000000E+00 -0.16910479185E+04  0.16910479185E+04  0.25500000920E-02 0.  1.
    10030    2    1    2    0    0  0.00000000000E+00  0.00000000000E+00 -0.36152173765E+03  0.30205740994E+04  0.29988614378E+04 0.  0.
        3    1    3    3  502    0  0.58683165789E+03 -0.50541686109E+03 -0.14739863710E+04  0.16650685963E+04  0.10100000352E+00 0.  1.
       -3    1    3    3    0  502 -0.58683165789E+03  0.50541686109E+03  0.11124646334E+04  0.13555055031E+04  0.10100000352E+00 0. -1.
</event>
<event>
 5   0  0.6374748E-08  0.3001420E+04  0.7818609E-02  0.8243325E-01
       -1   -1    0    0    0  501  0.00000000000E+00  0.00000000000E+00  0.17262072460E+04  0.17262072460E+04  0.50400001928E-02 0.  1.
        1   -1    0    0  501    0  0.00000000000E+00  0.00000000000E+00 -0.13046702558E+04  0.13046702558E+04  0.50400001928E-02 0. -1.
    10030    2    1    2    0    0  0.00000000000E+00  0.00000000000E+00  0.42153699023E+03  0.30308775019E+04  0.30014204966E+04 0.  0.
        1    1    3    3  502    0  0.30909618827E+03 -0.11619223715E+04 -0.69611406183E+03  0.13893087627E+04  0.50400001928E-02 0. -1.
       -1    1    3    3    0  502 -0.30909618827E+03  0.11619223715E+04  0.11176510521E+04  0.16415687391E+04  0.50400001928E-02 0.  1.
</event>
<event>
 5   0  0.1817566E-07  0.3004822E+04  0.7818609E-02  0.8242355E-01
        2   -1    0    0  501    0  0.00000000000E+00  0.00000000000E+00  0.18818045343E+04  0.18818045343E+04  0.25500000920E-02 0. -1.
       -2   -1    0    0    0  501  0.00000000000E+00  0.00000000000E+00 -0.11995078543E+04  0.11995078543E+04  0.25500000920E-02 0.  1.
    10030    2    1    2    0    0  0.00000000000E+00  0.00000000000E+00  0.68229667992E+03  0.30813123886E+04  0.30048223370E+04 0.  0.
        1    1    3    3  502    0 -0.12818182621E+04 -0.81938047634E+02 -0.45809389541E+03  0.13636795509E+04  0.50400001928E-02 0.  1.
       -1    1    3    3    0  502  0.12818182621E+04  0.81938047634E+02  0.11403905753E+04  0.17176328376E+04  0.50400001928E-02 0. -1.
</event>
<event>
 5   0  0.6636007E-08  0.3002831E+04  0.7818609E-02  0.8242923E-01
        1   -1    0    0  501    0  0.00000000000E+00  0.00000000000E+00  0.10278771409E+04  0.10278771410E+04  0.50400001928E-02 0.  1.
       -1   -1    0    0    0  501  0.00000000000E+00  0.00000000000E+00 -0.21931112356E+04  0.21931112356E+04  0.50400001928E-02 0. -1.
    10030    2    1    2    0    0  0.00000000000E+00  0.00000000000E+00 -0.11652340947E+04  0.32209883766E+04  0.30028312684E+04 0.  0.
        2    1    3    3  502    0  0.13598597270E+03 -0.13963086003E+04 -0.88954107192E+01  0.14029429855E+04  0.25500000920E-02 0.  1.
       -2    1    3    3    0  502 -0.13598597270E+03  0.13963086003E+04 -0.11563386840E+04  0.18180453911E+04  0.25500000920E-02 0. -1.
</event>
<event>
 5   0  0.6374748E-08  0.3000514E+04  0.7818609E-02  0.8243584E-01
        1   -1    0    0  501    0  0.00000000000E+00  0.00000000000E+00  0.19489391897E+04  0.19489391897E+04  0.50400001928E-02 0.  1.
       -1   -1    0    0    0  501  0.00000000000E+00  0.00000000000E+00 -0.11548700463E+04  0.11548700463E+04  0.50400001928E-02 0. -1.
    10030    2    1    2    0    0  0.00000000000E+00  0.00000000000E+00  0.79406914339E+03  0.31038092360E+04  0.30005142841E+04 0.  0.
        1    1    3    3  502    0  0.30760234602E+03  0.12875543384E+04 -0.33321148110E+03  0.13650806821E+04  0.50400001928E-02 0. -1.
       -1    1    3    3    0  502 -0.30760234602E+03 -0.12875543384E+04  0.11272806245E+04  0.17387285539E+04  0.50400001928E-02 0.  1.
</event>
<event>
 5   0  0.6017625E-08  0.2999508E+04  0.7818609E-02  0.8243872E-01
       -4   -1    0    0    0  501  0.00000000000E+00  0.00000000000E+00  0.14668251545E+04  0.14668257043E+04  0.12699999809E+01 0.  1.
        4   -1    0    0  501    0  0.00000000000E+00  0.00000000000E+00 -0.15334204859E+04  0.15334210118E+04  0.12699999809E+01 0. -1.
    10030    2    1    2    0    0  0.00000000000E+00  0.00000000000E+00 -0.66595331381E+02  0.30002467161E+04  0.29995075294E+04 0.  0.
        5    1    3    3  502    0 -0.23547945880E+03  0.43399595771E+03  0.13831855651E+04  0.14686822203E+04  0.46999998093E+01 0.  1.
       -5    1    3    3    0  502  0.23547945880E+03 -0.43399595771E+03 -0.14497808965E+04  0.15315644957E+04  0.46999998093E+01 0. -1.
</event>
<event>
 5   0  0.1817566E-07  0.3000723E+04  0.7818609E-02  0.8243524E-01
       -2   -1    0    0    0  501  0.00000000000E+00  0.00000000000E+00  0.78090202838E+03  0.78090202838E+03  0.25500000920E-02 0. -1.
        2   -1    0    0  501    0  0.00000000000E+00  0.00000000000E+00 -0.28826729266E+04  0.28826729266E+04  0.25500000920E-02 0.  1.
    10030    2    1    2    0    0  0.00000000000E+00  0.00000000000E+00 -0.21017708982E+04  0.36635749550E+04  0.30007233365E+04 0.  0.
        1    1    3    3  502    0 -0.41713841384E+03 -0.89625131070E+02  0.70527588213E+03  0.82428829324E+03  0.50400001928E-02 0. -1.
       -1    1    3    3    0  502  0.41713841384E+03  0.89625131070E+02 -0.28070467803E+04  0.28392866617E+04  0.50400001928E-02 0.  1.
</event>
<event>
 5   0  0.6525507E-08  0.2999819E+04  0.7818609E-02  0.8243783E-01
       -1   -1    0    0    0  501  0.00000000000E+00  0.00000000000E+00  0.13403952167E+04  0.13403952168E+04  0.50400001928E-02 0. -1.
        1   -1    0    0  501    0  0.00000000000E+00  0.00000000000E+00 -0.16784068658E+04  0.16784068658E+04  0.50400001928E-02 0.  1.
    10030    2    1    2    0    0  0.00000000000E+00  0.00000000000E+00 -0.33801164909E+03  0.30188020826E+04  0.29998190177E+04 0.  0.
        4    1    3    3  502    0  0.15109455593E+03 -0.10719216638E+04  0.87577467086E+03  0.13924182221E+04  0.12699999809E+01 0. -1.
       -4    1    3    3    0  502 -0.15109455593E+03  0.10719216638E+04 -0.12137863200E+04  0.16263838605E+04  0.12699999809E+01 0.  1.
</event>
<event>
 5   0  0.6636007E-08  0.3001243E+04  0.7818609E-02  0.8243376E-01
       -1   -1    0    0    0  501  0.00000000000E+00  0.00000000000E+00  0.94346689934E+03  0.94346689935E+03  0.50400001928E-02 0.  1.
        1   -1    0    0  501    0  0.00000000000E+00  0.00000000000E+00 -0.23867972391E+04  0.23867972391E+04  0.50400001928E-02 0. -1.
    10030    2    1    2    0    0  0.00000000000E+00  0.00000000000E+00 -0.14433303397E+04  0.33302641384E+04  0.30012425364E+04 0.  0.
        2    1    3    3  502    0  0.13479628225E+04 -0.15148269270E+02 -0.14532048905E+04  0.19821800359E+04  0.25500000920E-02 0. -1.
       -2    1    3    3    0  502 -0.13479628225E+04  0.15148269270E+02  0.98745507516E+01  0.13480841026E+04  0.25500000920E-02 0.  1.
</event>
<event>
 5   0  0.1821305E-07  0.2991877E+04  0.7818609E-02  0.8246054E-01
        2   -1    0    0  501    0  0.00000000000E+00  0.00000000000E+00  0.14612071614E+04  0.14612071614E+04  0.25500000920E-02 0. -1.
       -2   -1    0    0    0  501  0.00000000000E+00  0.00000000000E+00 -0.15314953977E+04  0.15314953977E+04  0.25500000920E-02 0.  1.
    10030    2    1    2    0    0  0.00000000000E+00  0.00000000000E+00 -0.70288236249E+02  0.29927025591E+04  0.29918770314E+04 0.  0.
        2    1    3    3  502    0  0.51505457737E+03 -0.68426526554E+03  0.11917063803E+04  0.14675368030E+04  0.25500000920E-02 0. -1.
       -2    1    3    3    0  502 -0.51505457737E+03  0.68426526554E+03 -0.12619946166E+04  0.15251657561E+04  0.25500000920E-02 0.  1.
</event>
<event>
 5   0  0.6679022E-08  0.3002016E+04  0.7818609E-02  0.8243155E-01
       -1   -1    0    0    0  501  0.00000000000E+00  0.00000000000E+00  0.13304122940E+04  0.13304122940E+04  0.50400001928E-02 0. -1.
        1   -1    0    0  501    0  0.00000000000E+00  0.00000000000E+00 -0.16934791416E+04  0.16934791416E+04  0.50400001928E-02 0.  1.
    10030    2    1    2    0    0  0.00000000000E+00  0.00000000000E+00 -0.36306684757E+03  0.30238914356E+04  0.30020163022E+04 0.  0.
        3    1    3    3  502    0 -0.14350783431E+04 -0.10203795840E+03  0.24956163669E+03  0.14601858157E+04  0.10100000352E+00 0. -1.
       -3    1    3    3    0  502  0.14350783431E+04  0.10203795840E+03 -0.61262848426E+03  0.15637056199E+04  0.10100000352E+00 0.  1.
</event>
<event>
 5   0  0.1914439E-07  0.2997409E+04  0.7818609E-02  0.8244471E-01
       -2   -1    0    0    0  501  0.00000000000E+00  0.00000000000E+00  0.13602218355E+04  0.13602218355E+04  0.25500000920E-02 0. -1.
        2   -1    0    0  501    0  0.00000000000E+00  0.00000000000E+00 -0.16512862790E+04  0.16512862790E+04  0.25500000920E-02 0.  1.
    10030    2    1    2    0    0  0.00000000000E+00  0.00000000000E+00 -0.29106444348E+03  0.30115081144E+04  0.29974093169E+04 0.  0.
        5    1    3    3  502    0  0.27254676358E+03 -0.53666938724E+03 -0.15245032020E+04  0.16390326026E+04  0.46999998093E+01 0.  1.
       -5    1    3    3    0  502 -0.27254676358E+03  0.53666938724E+03  0.12334387585E+04  0.13724755118E+04  0.46999998093E+01 0. -1.
</event>
<event>
 5   0  0.6679022E-08  0.2996293E+04  0.7818609E-02  0.8244790E-01
       -1   -1    0    0    0  501  0.00000000000E+00  0.00000000000E+00  0.30589604824E+04  0.30589604824E+04  0.50400001928E-02 0.  1.
        1   -1    0    0  501    0  0.00000000000E+00  0.00000000000E+00 -0.73372726993E+03  0.73372726995E+03  0.50400001928E-02 0. -1.
    10030    2    1    2    0    0  0.00000000000E+00  0.00000000000E+00  0.23252332125E+04  0.37926877524E+04  0.29962928586E+04 0.  0.
        3    1    3    3  502    0 -0.25839897258E+03  0.95445604510E+03  0.25872311510E+04  0.27697511458E+04  0.10100000352E+00 0.  1.
       -3    1    3    3    0  502  0.25839897258E+03 -0.95445604510E+03 -0.26199793847E+03  0.10229366065E+04  0.10100000352E+00 0. -1.
</event>
<event>
 5   0  0.1821305E-07  0.3000391E+04  0.7818609E-02  0.8243619E-01
        2   -1    0    0  501    0  0.00000000000E+00  0.00000000000E+00  0.12599012975E+04  0.12599012975E+04  0.25500000920E-02 0. -1.
       -2   -1    0    0    0  501  0.00000000000E+00  0.00000000000E+00 -0.17863199828E+04  0.17863199828E+04  0.25500000920E-02 0.  1.
    10030    2    1    2    0    0  0.00000000000E+00  0.00000000000E+00 -0.52641868529E+03  0.30462212802E+04  0.30003912172E+04 0.  0.
        2    1    3    3  502    0 -0.41356668073E+03 -0.11783962619E+04 -0.11071290448E+04  0.16689487324E+04  0.25500000920E-02 0.  1.
       -2    1    3    3    0  502  0.41356668073E+03  0.11783962619E+04  0.58071035950E+03  0.13772725479E+04  0.25500000920E-02 0. -1.
</event>
<event>
 5   0  0.1821305E-07  0.2998465E+04  0.7818609E-02  0.8244169E-01
       -2   -1    0    0    0  501  0.00000000000E+00  0.00000000000E+00  0.30888766025E+04  0.30888766025E+04  0.25500000920E-02 0.  1.
        2   -1    0    0  501    0  0.00000000000E+00  0.00000000000E+00 -0.72767474644E+03  0.72767474644E+03  0.25500000920E-02 0. -1.
    10030    2    1    2    0    0  0.00000000000E+00  0.00000000000E+00  0.23612018561E+04  0.38165513489E+04  0.29984646061E+04 0.  0.
        2    1    3    3  502    0  0.11266889337E+04 -0.12097184375E+02 -0.78234519898E+02  0.11294666596E+04  0.25500000920E-02 0. -1.
       -2    1    3    3    0  502 -0.11266889337E+04  0.12097184375E+02  0.24394363760E+04  0.26870846893E+04  0.25500000920E-02 0.  1.
</event>
<event>
 5   0  0.6374748E-08  0.2995620E+04  0.7818609E-02  0.8244983E-01
        1   -1    0    0  501    0  0.00000000000E+00  0.00000000000E+00  0.17301194511E+04  0.17301194511E+04  0.50400001928E-02 0.  1.
       -1   -1    0    0    0  501  0.00000000000E+00  0.00000000000E+00 -0.12966933303E+04  0.12966933303E+04  0.50400001928E-02 0. -1.
    10030    2    1    2    0    0  0.00000000000E+00  0.00000000000E+00  0.43342612084E+03  0.30268127814E+04  0.29956197040E+04 0.  0.
        1    1    3    3  502    0  0.36221893863E+03  0.14147566320E+04 -0.11946068774E+03  0.14652678059E+04  0.50400001928E-02 0. -1.
       -1    1    3    3    0  502 -0.36221893863E+03 -0.14147566320E+04  0.55288680858E+03  0.15615449754E+04  0.50400001928E-02 0.  1.
</event>
<event>
 5   0  0.1813720E-07  0.2991552E+04  0.7818609E-02  0.8246148E-01
       -2   -1    0    0    0  501  0.00000000000E+00  0.00000000000E+00  0.14629962803E+04  0.14629962803E+04  0.25500000920E-02 0.  1.
        2   -1    0    0  501    0  0.00000000000E+00  0.00000000000E+00 -0.15292896857E+04  0.15292896857E+04  0.25500000920E-02 0. -1.
    10030    2    1    2    0    0  0.00000000000E+00  0.00000000000E+00 -0.66293405383E+02  0.29922859660E+04  0.29915515184E+04 0.  0.
        3    1    3    3  502    0 -0.93170551498E+03  0.95805073876E+03 -0.70518122735E+03  0.15110317529E+04  0.10100000352E+00 0. -1.
       -3    1    3    3    0  502  0.93170551498E+03 -0.95805073876E+03  0.63888782197E+03  0.14812542131E+04  0.10100000352E+00 0.  1.
</event>
<event>
 5   0  0.1821305E-07  0.2999974E+04  0.7818609E-02  0.8243738E-01
        2   -1    0    0  501    0  0.00000000000E+00  0.00000000000E+00  0.23399736959E+04  0.23399736959E+04  0.25500000920E-02 0.  1.
       -2   -1    0    0    0  501  0.00000000000E+00  0.00000000000E+00 -0.96153238399E+03  0.96153238399E+03  0.25500000920E-02 0. -1.
    10030    2    1    2    0    0  0.00000000000E+00  0.00000000000E+00  0.13784413119E+04  0.33015060799E+04  0.29999736574E+04 0.  0.
        2    1    3    3  502    0 -0.88719548886E+03  0.96564799722E+03  0.14906838092E+04  0.19853790844E+04  0.25500000920E-02 0.  1.
       -2    1    3    3    0  502  0.88719548886E+03 -0.96564799722E+03 -0.11224249726E+03  0.13161269955E+04  0.25500000920E-02 0. -1.
</event>
<event>
 5   0  0.6679022E-08  0.2999352E+04  0.7818609E-02  0.8243916E-01
        1   -1    0    0  501    0  0.00000000000E+00  0.00000000000E+00  0.17476154646E+04  0.17476154647E+04  0.50400001928E-02 0.  1.
       -1   -1    0    0    0  501  0.00000000000E+00  0.00000000000E+00 -0.12869121372E+04  0.12869121372E+04  0.50400001928E-02 0. -1.
    10030    2    1    2    0    0  0.00000000000E+00  0.00000000000E+00  0.46070332748E+03  0.30345276018E+04  0.29993516317E+04 0.  0.
        3    1    3    3  502    0  0.27321782487E+02  0.12331759684E+04  0.10933253364E+04  0.16482808470E+04  0.10100000352E+00 0.  1.
       -3    1    3    3    0  502 -0.27321782487E+02 -0.12331759684E+04 -0.63262200897E+03  0.13862467549E+04  0.10100000352E+00 0. -1.
</event>
<event>
 5   0  0.6679022E-08  0.3000225E+04  0.7818609E-02  0.8243667E-01
        1   -1    0    0  501    0  0.00000000000E+00  0.00000000000E+00  0.14936853812E+04  0.14936853812E+04  0.50400001928E-02 0.  1.
       -1   -1    0    0    0  501  0.00000000000E+00  0.00000000000E+00 -0.15065671694E+04  0.15065671694E+04  0.50400001928E-02 0. -1.
    10030    2    1    2    0    0  0.00000000000E+00  0.00000000000E+00 -0.12881788163E+02  0.30002525506E+04  0.30002248960E+04 0.  0.
        3    1    3    3  502    0  0.50514991524E+03 -0.83719548628E+03 -0.11441088981E+04  0.15050109302E+04  0.10100000352E+00 0. -1.
       -3    1    3    3    0  502 -0.50514991524E+03  0.83719548628E+03  0.11312271099E+04  0.14952416204E+04  0.10100000352E+00 0.  1.
</event>
<event>
 5   0  0.6525507E-08  0.2999001E+04  0.7818609E-02  0.8244016E-01
        1   -1    0    0  501    0  0.00000000000E+00  0.00000000000E+00  0.99350977086E+03  0.99350977088E+03  0.50400001928E-02 0. -1.
       -1   -1    0    0    0  501  0.00000000000E+00  0.00000000000E+00 -0.22631906273E+04  0.22631906273E+04  0.50400001928E-02 0.  1.
    10030    2    1    2    0    0  0.00000000000E+00  0.00000000000E+00 -0.12696808564E+04  0.32567003982E+04  0.29990011681E+04 0.  0.
        4    1    3    3  502    0 -0.11955088993E+03  0.13747788853E+04  0.22497665749E+01  0.13799695913E+04  0.12699999809E+01 0. -1.
       -4    1    3    3    0  502  0.11955088993E+03 -0.13747788853E+04 -0.12719306230E+04  0.18767308068E+04  0.12699999809E+01 0.  1.
</event>
<event>
 5   0  0.1813720E-07  0.3000274E+04  0.7818609E-02  0.8243653E-01
       -2   -1    0    0    0  501  0.00000000000E+00  0.00000000000E+00  0.96259626537E+03  0.96259626537E+03  0.25500000920E-02 0. -1.
        2   -1    0    0  501    0  0.00000000000E+00  0.00000000000E+00 -0.23378549529E+04  0.23378549529E+04  0.25500000920E-02 0.  1.
    10030    2    1    2    0    0  0.00000000000E+00  0.00000000000E+00 -0.13752586875E+04  0.33004512182E+04  0.30002736186E+04 0.  0.
        3    1    3    3  502    0  0.19858928426E+03  0.11472169671E+04  0.35298893383E+03  0.12166123751E+04  0.10100000352E+00 0. -1.
       -3    1    3    3    0  502 -0.19858928426E+03 -0.11472169671E+04 -0.17282476213E+04  0.20838388432E+04  0.10100000352E+00 0.  1.
</event>
<event>
 5   0  0.1821305E-07  0.3002595E+04  0.7818609E-02  0.8242990E-01
        2   -1    0    0  501    0  0.00000000000E+00  0.00000000000E+00  0.19392351478E+04  0.19392351478E+04  0.25500000920E-02 0.  1.
       -2   -1    0    0    0  501  0.00000000000E+00  0.00000000000E+00 -0.11622592227E+04  0.11622592227E+04  0.25500000920E-02 0. -1.
    10030    2    1    2    0    0  0.00000000000E+00  0.00000000000E+00  0.77697592508E+03  0.31014943706E+04  0.30025948349E+04 0.  0.
        2    1    3    3  502    0 -0.68684472115E+03 -0.10239552257E+04  0.12732365892E+04  0.17723914317E+04  0.25500000920E-02 0. -1.
       -2    1    3    3    0  502  0.68684472115E+03  0.10239552257E+04 -0.49626066413E+03  0.13291029388E+04  0.25500000920E-02 0.  1.
</event>
<event>
 5   0  0.1810055E-07  0.3000366E+04  0.7818609E-02  0.8243626E-01
        2   -1    0    0  501    0  0.00000000000E+00  0.00000000000E+00  0.14590634987E+04  0.14590634987E+04  0.25500000920E-02 0. -1.
       -2   -1    0    0    0  501  0.00000000000E+00  0.00000000000E+00 -0.15424613133E+04  0.15424613133E+04  0.25500000920E-02 0.  1.
    10030    2    1    2    0    0  0.00000000000E+00  0.00000000000E+00 -0.83397814564E+02  0.30015248120E+04  0.30003659780E+04 0.  0.
        4    1    3    3  502    0 -0.22275080144E+03 -0.60447524501E+03 -0.13970428872E+04  0.15384208406E+04  0.12699999809E+01 0.  1.
       -4    1    3    3    0  502  0.22275080144E+03  0.60447524501E+03  0.13136450726E+04  0.14631039714E+04  0.12699999809E+01 0. -1.
</event>
<event>
 5   0  0.6636007E-08  0.3001338E+04  0.7818609E-02  0.8243349E-01
        1   -1    0    0  501    0  0.00000000000E+00  0.00000000000E+00  0.28277026232E+04  0.28277026232E+04  0.50400001928E-02 0.  1.
       -1   -1    0    0    0  501  0.00000000000E+00  0.00000000000E+00 -0.79640876154E+03  0.79640876155E+03  0.50400001928E-02 0. -1.
    10030    2    1    2    0    0  0.00000000000E+00  0.00000000000E+00  0.20312938617E+04  0.36241113848E+04  0.30013377978E+04 0.  0.
        2    1    3    3  502    0 -0.75122782822E+03  0.71436749742E+03 -0.29455476543E+03  0.10776950780E+04  0.25500000920E-02 0. -1.
       -2    1    3    3    0  502  0.75122782822E+03 -0.71436749742E+03  0.23258486271E+04  0.25464163068E+04  0.25500000920E-02 0.  1.
</event>
<event>
 5   0  0.6017625E-08  0.2990318E+04  0.7818609E-02  0.8246501E-01
       -3   -1    0    0    0  501  0.00000000000E+00  0.00000000000E+00  0.20850622808E+04  0.20850622832E+04  0.10100000352E+00 0. -1.
        3   -1    0    0  501    0  0.00000000000E+00  0.00000000000E+00 -0.10721502138E+04  0.10721502186E+04  0.10100000352E+00 0.  1.
    10030    2    1    2    0    0  0.00000000000E+00  0.00000000000E+00  0.10129120670E+04  0.31572125018E+04  0.29903176965E+04 0.  0.
        3    1    3    3  502    0  0.14379525532E+03 -0.12325602795E+04 -0.37413022731E+03  0.12960923406E+04  0.10100000352E+00 0.  1.
       -3    1    3    3    0  502 -0.14379525532E+03  0.12325602795E+04  0.13870422943E+04  0.18611201612E+04  0.10100000352E+00 0. -1.
</event>
<event>
 5   0  0.1817566E-07  0.2998369E+04  0.7818609E-02  0.8244197E-01
       -2   -1    0    0    0  501  0.00000000000E+00  0.00000000000E+00  0.76542483164E+03  0.76542483165E+03  0.25500000920E-02 0. -1.
        2   -1    0    0  501    0  0.00000000000E+00  0.00000000000E+00 -0.29363478624E+04  0.29363478624E+04  0.25500000920E-02 0.  1.
    10030    2    1    2    0    0  0.00000000000E+00  0.00000000000E+00 -0.21709230308E+04  0.37017726941E+04  0.29983686019E+04 0.  0.
        1    1    3    3  502    0 -0.12477110364E+04  0.82709619128E+03 -0.98453660432E+03  0.17916984303E+04  0.50400001928E-02 0.  1.
       -1    1    3    3    0  502  0.12477110364E+04 -0.82709619128E+03 -0.11863864264E+04  0.19100742637E+04  0.50400001928E-02 0. -1.
</event>
<event>
 5   0  0.1821305E-07  0.3000318E+04  0.7818609E-02  0.8243640E-01
        2   -1    0    0  501    0  0.00000000000E+00  0.00000000000E+00  0.19215313063E+04  0.19215313063E+04  0.25500000920E-02 0. -1.
       -2   -1    0    0    0  501  0.00000000000E+00  0.00000000000E+00 -0.11711892524E+04  0.11711892524E+04  0.25500000920E-02 0.  1.
    10030    2    1    2    0    0  0.00000000000E+00  0.00000000000E+00  0.75034205393E+03  0.30927205587E+04  0.30003178592E+04 0.  0.
        2    1    3    3  502    0 -0.42482636441E+03 -0.71172676997E+03  0.16640573996E+04  0.18590641366E+04  0.25500000920E-02 0. -1.
       -2    1    3    3    0  502  0.42482636441E+03  0.71172676997E+03 -0.91371534562E+03  0.12336564221E+04  0.25500000920E-02 0.  1.
</event>
<event>
 5   0  0.6374748E-08  0.3000871E+04  0.7818609E-02  0.8243482E-01
        1   -1    0    0  501    0  0.00000000000E+00  0.00000000000E+00  0.24834595072E+04  0.24834595072E+04  0.50400001928E-02 0.  1.
       -1   -1    0    0    0  501  0.00000000000E+00  0.00000000000E+00 -0.90652044082E+03  0.90652044083E+03  0.50400001928E-02 0. -1.
    10030    2    1    2    0    0  0.00000000000E+00  0.00000000000E+00  0.15769390664E+04  0.33899799481E+04  0.30008710784E+04 0.  0.
        1    1    3    3  502    0  0.14461875896E+04  0.70590615139E+02  0.12330258130E+04  0.19017871161E+04  0.50400001928E-02 0.  1.
       -1    1    3    3    0  502 -0.14461875896E+04 -0.70590615139E+02  0.34391325338E+03  0.14881928320E+04  0.50400001928E-02 0. -1.
</event>
<event>
 5   0  0.6679022E-08  0.3004028E+04  0.7818609E-02  0.8242582E-01
       -1   -1    0    0    0  501  0.00000000000E+00  0.00000000000E+00  0.83055414141E+03  0.83055414143E+03  0.50400001928E-02 0.  1.
        1   -1    0    0  501    0  0.00000000000E+00  0.00000000000E+00 -0.27163148921E+04  0.27163148921E+04  0.50400001928E-02 0. -1.
    10030    2    1    2    0    0  0.00000000000E+00  0.00000000000E+00 -0.18857607507E+04  0.35468690335E+04  0.30040283507E+04 0.  0.
        3    1    3    3  502    0 -0.10947371968E+04 -0.87317698866E+03 -0.15843397150E+04  0.21144786417E+04  0.10100000352E+00 0. -1.
       -3    1    3    3    0  502  0.10947371968E+04  0.87317698866E+03 -0.30142103565E+03  0.14323903918E+04  0.10100000352E+00 0.  1.
</event>
<event>
 5   0  0.6525507E-08  0.2998520E+04  0.7818609E-02  0.8244154E-01
        1   -1    0    0  501    0  0.00000000000E+00  0.00000000000E+00  0.11115608504E+04  0.11115608504E+04  0.50400001928E-02 0. -1.
       -1   -1    0    0    0  501  0.00000000000E+00  0.00000000000E+00 -0.20221842750E+04  0.20221842750E+04  0.50400001928E-02 0.  1.
    10030    2    1    2    0    0  0.00000000000E+00  0.00000000000E+00 -0.91062342461E+03  0.31337451254E+04  0.29985202166E+04 0.  0.
        4    1    3    3  502    0 -0.63364610566E+03  0.13528414133E+04 -0.32273676341E+03  0.15283480978E+04  0.12699999809E+01 0. -1.
       -4    1    3    3    0  502  0.63364610566E+03 -0.13528414133E+04 -0.58788666119E+03  0.16053970276E+04  0.12699999809E+01 0.  1.
</event>
<event>
 5   0  0.6374748E-08  0.3001601E+04  0.7818609E-02  0.8243274E-01
       -1   -1    0    0    0  501  0.00000000000E+00  0.00000000000E+00  0.15494348958E+04  0.15494348959E+04  0.50400001928E-02 0.  1.
        1   -1    0    0  501    0  0.00000000000E+00  0.00000000000E+00 -0.14536930524E+04  0.14536930524E+04  0.50400001928E-02 0. -1.
    10030    2    1    2    0    0  0.00000000000E+00  0.00000000000E+00  0.95741843485E+02  0.30031279482E+04  0.30016014014E+04 0.  0.
        1    1    3    3  502    0 -0.74914204945E+03  0.21873343590E+03 -0.12347110749E+04  0.14606743527E+04  0.50400001928E-02 0. -1.
       -1    1    3    3    0  502  0.74914204945E+03 -0.21873343590E+03  0.13304529184E+04  0.15424535955E+04  0.50400001928E-02 0.  1.
</event>
<event>
 5   0  0.1813720E-07  0.3000102E+04  0.7818609E-02  0.8243702E-01
       -2   -1    0    0    0  501  0.00000000000E+00  0.00000000000E+00  0.25400519129E+04  0.25400519129E+04  0.25500000920E-02 0. -1.
        2   -1    0    0  501    0  0.00000000000E+00  0.00000000000E+00 -0.88586903775E+03  0.88586903775E+03  0.25500000920E-02 0.  1.
    10030    2    1    2    0    0  0.00000000000E+00  0.00000000000E+00  0.16541828751E+04  0.34259209506E+04  0.30001022275E+04 0.  0.
        3    1    3    3  502    0  0.37928622600E+03 -0.19138352360E+03  0.24699175190E+04  0.25061879928E+04  0.10100000352E+00 0. -1.
       -3    1    3    3    0  502 -0.37928622600E+03  0.19138352360E+03 -0.81573464387E+03  0.91973295784E+03  0.10100000352E+00 0.  1.
</event>
<event>
 5   0  0.6636007E-08  0.2998435E+04  0.7818609E-02  0.8244178E-01
        1   -1    0    0  501    0  0.00000000000E+00  0.00000000000E+00  0.20866986540E+04  0.20866986540E+04  0.50400001928E-02 0.  1.
       -1   -1    0    0    0  501  0.00000000000E+00  0.00000000000E+00 -0.10771333286E+04  0.10771333286E+04  0.50400001928E-02 0. -1.
    10030    2    1    2    0    0  0.00000000000E+00  0.00000000000E+00  0.10095653253E+04  0.31638319826E+04  0.29984347030E+04 0.  0.
        2    1    3    3  502    0 -0.28365641118E+02  0.10164592156E+04  0.16672134575E+04  0.19528427125E+04  0.25500000920E-02 0.  1.
       -2    1    3    3    0  502  0.28365641118E+02 -0.10164592156E+04 -0.65764813221E+03  0.12109892701E+04  0.25500000920E-02 0. -1.
</event>
<event>
 5   0  0.1817566E-07  0.3001386E+04  0.7818609E-02  0.8243335E-01
       -2   -1    0    0    0  501  0.00000000000E+00  0.00000000000E+00  0.93209312129E+03  0.93209312130E+03  0.25500000920E-02 0.  1.
        2   -1    0    0  501    0  0.00000000000E+00  0.00000000000E+00 -0.24161529602E+04  0.24161529602E+04  0.25500000920E-02 0. -1.
    10030    2    1    2    0    0  0.00000000000E+00  0.00000000000E+00 -0.14840598389E+04  0.33482460815E+04  0.30013860493E+04 0.  0.
        1    1    3    3  502    0  0.88746377040E+03 -0.10514237698E+04 -0.73624268570E+02  0.13778622647E+04  0.50400001928E-02 0.  1.
       -1    1    3    3    0  502 -0.88746377040E+03  0.10514237698E+04 -0.14104355703E+04  0.19703838168E+04  0.50400001928E-02 0. -1.
</event>
<event>
 5   0  0.6636007E-08  0.2997128E+04  0.7818609E-02  0.8244552E-01
        1   -1    0    0  501    0  0.00000000000E+00  0.00000000000E+00  0.17756522624E+04  0.17756522624E+04  0.50400001928E-02 0. -1.
       -1   -1    0    0    0  501  0.00000000000E+00  0.00000000000E+00 -0.12647146035E+04  0.12647146035E+04  0.50400001928E-02 0.  1.
    10030    2    1    2    0    0  0.00000000000E+00  0.00000000000E+00  0.51093765888E+03  0.30403668659E+04  0.29971275228E+04 0.  0.
        2    1    3    3  502    0 -0.12336662817E+04  0.59314249996E+03 -0.36320089393E+03  0.14162151705E+04  0.25500000920E-02 0.  1.
       -2    1    3    3    0  502  0.12336662817E+04 -0.59314249996E+03  0.87413855281E+03  0.16241516953E+04  0.25500000920E-02 0. -1.
</event>
<event>
 5   0  0.6679022E-08  0.2997690E+04  0.7818609E-02  0.8244391E-01
        1   -1    0    0  501    0  0.00000000000E+00  0.00000000000E+00  0.12698175798E+04  0.12698175798E+04  0.50400001928E-02 0. -1.
       -1   -1    0    0    0  501  0.00000000000E+00  0.00000000000E+00 -0.17691808625E+04  0.17691808625E+04  0.50400001928E-02 0.  1.
    10030    2    1    2    0    0  0.00000000000E+00  0.00000000000E+00 -0.49936328269E+03  0.30389984423E+04  0.29976904183E+04 0.  0.
        3    1    3    3  502    0 -0.37431202662E+03  0.69819194853E+03 -0.15395968051E+04  0.17314559835E+04  0.10100000352E+00 0.  1.
       -3    1    3    3    0  502  0.37431202662E+03 -0.69819194853E+03  0.10402335224E+04  0.13075424588E+04  0.10100000352E+00 0. -1.
</event>
<event>
 5   0  0.1810055E-07  0.2977503E+04  0.7818609E-02  0.8250184E-01
        2   -1    0    0  501    0  0.00000000000E+00  0.00000000000E+00  0.25520543583E+04  0.25520543583E+04  0.25500000920E-02 0.  1.
       -2   -1    0    0    0  501  0.00000000000E+00  0.00000000000E+00 -0.86846964920E+03  0.86846964920E+03  0.25500000920E-02 0. -1.
    10030    2    1    2    0    0  0.00000000000E+00  0.00000000000E+00  0.16835847091E+04  0.34205240075E+04  0.29775034867E+04 0.  0.
        4    1    3    3  502    0  0.99614223932E+03 -0.63215029373E+02  0.21107155728E+04  0.23348270478E+04  0.12699999809E+01 0.  1.
       -4    1    3    3    0  502 -0.99614223932E+03  0.63215029373E+02 -0.42713086363E+03  0.10856969598E+04  0.12699999809E+01 0. -1.
</event>
<event>
 5   0  0.6525507E-08  0.2998179E+04  0.7818609E-02  0.8244251E-01
        1   -1    0    0  501    0  0.00000000000E+00  0.00000000000E+00  0.15698079524E+04  0.15698079524E+04  0.50400001928E-02 0.  1.
       -1   -1    0    0    0  501  0.00000000000E+00  0.00000000000E+00 -0.14315568220E+04  0.14315568220E+04  0.50400001928E-02 0. -1.
    10030    2    1    2    0    0  0.00000000000E+00  0.00000000000E+00  0.13825113045E+03  0.30013647744E+04  0.29981789697E+04 0.  0.
        4    1    3    3  502    0  0.25291889346E+03  0.76444029433E+03 -0.11967063861E+04  0.14423746801E+04  0.12699999809E+01 0. -1.
       -4    1    3    3    0  502 -0.25291889346E+03 -0.76444029433E+03  0.13349575166E+04  0.15589900943E+04  0.12699999809E+01 0.  1.
</event>
<event>
 5   0  0.1821305E-07  0.2991852E+04  0.7818609E-02  0.8246061E-01
       -2   -1    0    0    0  501  0.00000000000E+00  0.00000000000E+00  0.14594421498E+04  0.14594421498E+04  0.25500000920E-02 0.  1.
        2   -1    0    0  501    0  0.00000000000E+00  0.00000000000E+00 -0.15333216354E+04  0.15333216354E+04  0.25500000920E-02 0. -1.
    10030    2    1    2    0    0  0.00000000000E+00  0.00000000000E+00 -0.73879485616E+02  0.29927637852E+04  0.29918517503E+04 0.  0.
        2    1    3    3  502    0 -0.87116482863E+03  0.15751893550E+03 -0.12431488838E+04  0.15261584193E+04  0.25500000920E-02 0. -1.
       -2    1    3    3    0  502  0.87116482863E+03 -0.15751893550E+03  0.11692693981E+04  0.14666053658E+04  0.25500000920E-02 0.  1.
</event>
<event>
 5   0  0.6464436E-08  0.2996997E+04  0.7818609E-02  0.8244589E-01
        1   -1    0    0  501    0  0.00000000000E+00  0.00000000000E+00  0.10730392028E+04  0.10730392028E+04  0.50400001928E-02 0. -1.
       -1   -1    0    0    0  501  0.00000000000E+00  0.00000000000E+00 -0.20926518840E+04  0.20926518840E+04  0.50400001928E-02 0.  1.
    10030    2    1    2    0    0  0.00000000000E+00  0.00000000000E+00 -0.10196126812E+04  0.31656910869E+04  0.29969968365E+04 0.  0.
        5    1    3    3  502    0 -0.57984589367E+03  0.81535411034E+03 -0.16881481704E+04  0.19623684468E+04  0.46999998093E+01 0.  1.
       -5    1    3    3    0  502  0.57984589367E+03 -0.81535411034E+03  0.66853548926E+03  0.12033226400E+04  0.46999998093E+01 0. -1.
</event>
<event>
 5   0  0.1813720E-07  0.3000084E+04  0.7818609E-02  0.8243707E-01
        2   -1    0    0  501    0  0.00000000000E+00  0.00000000000E+00  0.15198950559E+04  0.15198950559E+04  0.25500000920E-02 0.  1.
       -2   -1    0    0    0  501  0.00000000000E+00  0.00000000000E+00 -0.14804487085E+04  0.14804487085E+04  0.25500000920E-02 0. -1.
    10030    2    1    2    0    0  0.00000000000E+00  0.00000000000E+00  0.39446347408E+02  0.30003437643E+04  0.30000844471E+04 0.  0.
        3    1    3    3  502    0  0.25844196652E+03  0.95083867619E+03  0.11508559599E+04  0.15150431970E+04  0.10100000352E+00 0.  1.
       -3    1    3    3    0  502 -0.25844196652E+03 -0.95083867619E+03 -0.11114096125E+04  0.14853005673E+04  0.10100000352E+00 0. -1.
</event>
<event>
 5   0  0.6636007E-08  0.3000516E+04  0.7818609E-02  0.8243584E-01
        1   -1    0    0  501    0  0.00000000000E+00  0.00000000000E+00  0.97805850627E+03  0.97805850628E+03  0.50400001928E-02 0. -1.
       -1   -1    0    0    0  501  0.00000000000E+00  0.00000000000E+00 -0.23012667030E+04  0.23012667030E+04  0.50400001928E-02 0.  1.
    10030    2    1    2    0    0  0.00000000000E+00  0.00000000000E+00 -0.13232081967E+04  0.32793252093E+04  0.30005156051E+04 0.  0.
        2    1    3    3  502    0  0.67641442190E+03  0.90793587687E+03 -0.17373896588E+04  0.20737422340E+04  0.25500000920E-02 0.  1.
       -2    1    3    3    0  502 -0.67641442190E+03 -0.90793587687E+03  0.41418146209E+03  0.12055829752E+04  0.25500000920E-02 0. -1.
</event>
<event>
 5   0  0.1821305E-07  0.2999871E+04  0.7818609E-02  0.8243768E-01
       -2   -1    0    0    0  501  0.00000000000E+00  0.00000000000E+00  0.10965128376E+04  0.10965128376E+04  0.25500000920E-02 0.  1.
        2   -1    0    0  501    0  0.00000000000E+00  0.00000000000E+00 -0.20517837493E+04  0.20517837493E+04  0.25500000920E-02 0. -1.
    10030    2    1    2    0    0  0.00000000000E+00  0.00000000000E+00 -0.95527091168E+03  0.31482965869E+04  0.29998714780E+04 0.  0.
        2    1    3    3  502    0  0.11653675520E+04  0.77657915709E+02  0.51004184097E+03  0.12744626172E+04  0.25500000920E-02 0.  1.
       -2    1    3    3    0  502 -0.11653675520E+04 -0.77657915709E+02 -0.14653127527E+04  0.18738339697E+04  0.25500000920E-02 0. -1.
</event>
<event>
 5   0  0.1817566E-07  0.2999232E+04  0.7818609E-02  0.8243950E-01
       -2   -1    0    0    0  501  0.00000000000E+00  0.00000000000E+00  0.12185187992E+04  0.12185187993E+04  0.25500000920E-02 0.  1.
        2   -1    0    0  501    0  0.00000000000E+00  0.00000000000E+00 -0.18455591939E+04  0.18455591939E+04  0.25500000920E-02 0. -1.
    10030    2    1    2    0    0  0.00000000000E+00  0.00000000000E+00 -0.62704039466E+03  0.30640779932E+04  0.29992322837E+04 0.  0.
        1    1    3    3  502    0 -0.14502765255E+04  0.37372405052E+03 -0.39183865183E+03  0.15480662762E+04  0.50400001928E-02 0.  1.
       -1    1    3    3    0  502  0.14502765255E+04 -0.37372405052E+03 -0.23520174284E+03  0.15160117170E+04  0.50400001928E-02 0. -1.
</event>
<event>
 5   0  0.6679022E-08  0.3000143E+04  0.7818609E-02  0.8243690E-01
        1   -1    0    0  501    0  0.00000000000E+00  0.00000000000E+00  0.27872329871E+04  0.27872329871E+04  0.50400001928E-02 0. -1.
       -1   -1    0    0    0  501  0.00000000000E+00  0.00000000000E+00 -0.80732905883E+03  0.80732905885E+03  0.50400001928E-02 0.  1.
    10030    2    1    2    0    0  0.00000000000E+00  0.00000000000E+00  0.19799039283E+04  0.35945620460E+04  0.30001427861E+04 0.  0.
        3    1    3    3  502    0 -0.40763998746E+03 -0.38230890073E+03 -0.67794000203E+03  0.87859724078E+03  0.10100000352E+00 0.  1.
       -3    1    3    3    0  502  0.40763998746E+03  0.38230890073E+03  0.26578439303E+04  0.27159648052E+04  0.10100000352E+00 0. -1.
</event>
<event>
 5   0  0.6525507E-08  0.2999941E+04  0.7818609E-02  0.8243748E-01
       -1   -1    0    0    0  501  0.00000000000E+00  0.00000000000E+00  0.13563484620E+04  0.13563484620E+04  0.50400001928E-02 0. -1.
        1   -1    0    0  501    0  0.00000000000E+00  0.00000000000E+00 -0.16588002087E+04  0.16588002087E+04  0.50400001928E-02 0.  1.
    10030    2    1    2    0    0  0.00000000000E+00  0.00000000000E+00 -0.30245174670E+03  0.30151486707E+04  0.29999407406E+04 0.  0.
        4    1    3    3  502    0  0.99074914402E+03 -0.11185558319E+04 -0.19571434269E+02  0.14943679832E+04  0.12699999809E+01 0.  1.
       -4    1    3    3    0  502 -0.99074914402E+03  0.11185558319E+04 -0.28288031243E+03  0.15207806875E+04  0.12699999809E+01 0. -1.
</event>
<event>
 5   0  0.1821305E-07  0.3007184E+04  0.7818609E-02  0.8241683E-01
        2   -1    0    0  501    0  0.00000000000E+00  0.00000000000E+00  0.14768338416E+04  0.14768338416E+04  0.25500000920E-02 0.  1.
       -2   -1    0    0    0  501  0.00000000000E+00  0.00000000000E+00 -0.15308345091E+04  0.15308345091E+04  0.25500000920E-02 0. -1.
    10030    2    1    2    0    0  0.00000000000E+00  0.00000000000E+00 -0.54000667486E+02  0.30076683508E+04  0.30071835388E+04 0.  0.
        2    1    3    3  502    0 -0.10431808479E+03  0.74339472403E+03  0.12760029416E+04  0.14804396257E+04  0.25500000920E-02 0.  1.
       -2    1    3    3    0  502  0.10431808479E+03 -0.74339472403E+03 -0.13300036090E+04  0.15272287250E+04  0.25500000920E-02 0. -1.
</event>
<event>
 5   0  0.1810055E-07  0.2998473E+04  0.7818609E-02  0.8244167E-01
        2   -1    0    0  501    0  0.00000000000E+00  0.00000000000E+00  0.21486307756E+04  0.21486307756E+04  0.25500000920E-02 0.  1.
       -2   -1    0    0    0  501  0.00000000000E+00  0.00000000000E+00 -0.10461128520E+04  0.10461128520E+04  0.25500000920E-02 0. -1.
    10030    2    1    2    0    0  0.00000000000E+00  0.00000000000E+00  0.11025179235E+04  0.31947436276E+04  0.29984731238E+04 0.  0.
        4    1    3    3  502    0 -0.76806307569E+03  0.23630286457E+03 -0.79726962549E+03  0.11319895762E+04  0.12699999809E+01 0. -1.
       -4    1    3    3    0  502  0.76806307569E+03 -0.23630286457E+03  0.18997875490E+04  0.20627540514E+04  0.12699999809E+01 0.  1.
</event>
<event>
 5   0  0.1813720E-07  0.2999447E+04  0.7818609E-02  0.8243889E-01
       -2   -1    0    0    0  501  0.00000000000E+00  0.00000000000E+00  0.10895790389E+04  0.10895790389E+04  0.25500000920E-02 0. -1.
        2   -1    0    0  501    0  0.00000000000E+00  0.00000000000E+00 -0.20642562459E+04  0.20642562459E+04  0.25500000920E-02 0.  1.
    10030    2    1    2    0    0  0.00000000000E+00  0.00000000000E+00 -0.97467720699E+03  0.31538352848E+04  0.29994468400E+04 0.  0.
        3    1    3    3  502    0 -0.94290012289E+03 -0.11650182717E+04 -0.43128308480E+03  0.15595939614E+04  0.10100000352E+00 0. -1.
       -3    1    3    3    0  502  0.94290012289E+03  0.11650182717E+04 -0.54339412219E+03  0.15942413234E+04  0.10100000352E+00 0.  1.
</event>
<event>
 5   0  0.1914439E-07  0.3000119E+04  0.7818609E-02  0.8243697E-01
        2   -1    0    0  501    0  0.00000000000E+00  0.00000000000E+00  0.21380517803E+04  0.21380517803E+04  0.25500000920E-02 0. -1.
       -2   -1    0    0    0  501  0.00000000000E+00  0.00000000000E+00 -0.10524435174E+04  0.10524435174E+04  0.25500000920E-02 0.  1.
    10030    2    1    2    0    0  0.00000000000E+00  0.00000000000E+00  0.10856082629E+04  0.31904952976E+04  0.30001191549E+04 0.  0.
        5    1    3    3  502    0  0.60179273981E+03 -0.12315016295E+04  0.11909070738E+04  0.18157732550E+04  0.46999998093E+01 0. -1.
       -5    1    3    3    0  502 -0.60179273981E+03  0.12315016295E+04 -0.10529881087E+03  0.13747220427E+04  0.46999998093E+01 0.  1.
</event>
<event>
 5   0  0.6525507E-08  0.3002407E+04  0.7818609E-02  0.8243044E-01
        1   -1    0    0  501    0  0.00000000000E+00  0.00000000000E+00  0.14533111151E+04  0.14533111151E+04  0.50400001928E-02 0. -1.
       -1   -1    0    0    0  501  0.00000000000E+00  0.00000000000E+00 -0.15506740345E+04  0.15506740345E+04  0.50400001928E-02 0.  1.
    10030    2    1    2    0    0  0.00000000000E+00  0.00000000000E+00 -0.97362919376E+02  0.30039851496E+04  0.30024069079E+04 0.  0.
        4    1    3    3  502    0 -0.48626468865E+03  0.45456440469E+03  0.12975844844E+04  0.14583584102E+04  0.12699999809E+01 0. -1.
       -4    1    3    3    0  502  0.48626468865E+03 -0.45456440469E+03 -0.13949474038E+04  0.15456267394E+04  0.12699999809E+01 0.  1.
</event>
<event>
 5   0  0.6464436E-08  0.3000714E+04  0.7818609E-02  0.8243527E-01
        1   -1    0    0  501    0  0.00000000000E+00  0.00000000000E+00  0.10535397431E+04  0.10535397431E+04  0.50400001928E-02 0. -1.
       -1   -1    0    0    0  501  0.00000000000E+00  0.00000000000E+00 -0.21366745230E+04  0.21366745230E+04  0.50400001928E-02 0.  1.
    10030    2    1    2    0    0  0.00000000000E+00  0.00000000000E+00 -0.10831347799E+04  0.31902142661E+04  0.30007142670E+04 0.  0.
        5    1    3    3  502    0 -0.89579383155E+03  0.11799871899E+04 -0.28945676462E+03  0.15095110683E+04  0.46999998093E+01 0. -1.
       -5    1    3    3    0  502  0.89579383155E+03 -0.11799871899E+04 -0.79367801530E+03  0.16807031977E+04  0.46999998093E+01 0.  1.
</event>
<event>
 5   0  0.6374748E-08  0.2999222E+04  0.7818609E-02  0.8243953E-01
        1   -1    0    0  501    0  0.00000000000E+00  0.00000000000E+00  0.16506565196E+04  0.16506565196E+04  0.50400001928E-02 0. -1.
       -1   -1    0    0    0  501  0.00000000000E+00  0.00000000000E+00 -0.13623875004E+04  0.13623875004E+04  0.50400001928E-02 0.  1.
    10030    2    1    2    0    0  0.00000000000E+00  0.00000000000E+00  0.28826901922E+03  0.30130440200E+04  0.29992224391E+04 0.  0.
        1    1    3    3  502    0  0.28002340176E+03  0.38770107775E+03  0.15719896734E+04  0.16431301727E+04  0.50400001928E-02 0. -1.
       -1    1    3    3    0  502 -0.28002340176E+03 -0.38770107775E+03 -0.12837206541E+04  0.13699138473E+04  0.50400001928E-02 0.  1.
</event>
<event>
 5   0  0.1810055E-07  0.3020983E+04  0.7818609E-02  0.8237764E-01
       -2   -1    0    0    0  501  0.00000000000E+00  0.00000000000E+00  0.15986416231E+04  0.15986416231E+04  0.25500000920E-02 0.  1.
        2   -1    0    0  501    0  0.00000000000E+00  0.00000000000E+00 -0.14272022736E+04  0.14272022736E+04  0.25500000920E-02 0. -1.
    10030    2    1    2    0    0  0.00000000000E+00  0.00000000000E+00  0.17143934954E+03  0.30258438967E+04  0.30209832566E+04 0.  0.
        4    1    3    3  502    0  0.14154286117E+04 -0.52469604017E+03  0.13909008606E+03  0.15159458283E+04  0.12699999809E+01 0.  1.
       -4    1    3    3    0  502 -0.14154286117E+04  0.52469604017E+03  0.32349263485E+02  0.15098980684E+04  0.12699999809E+01 0. -1.
</event>
<event>
 5   0  0.1810055E-07  0.3010190E+04  0.7818609E-02  0.8240827E-01
       -2   -1    0    0    0  501  0.00000000000E+00  0.00000000000E+00  0.17326662412E+04  0.17326662412E+04  0.25500000920E-02 0. -1.
        2   -1    0    0  501    0  0.00000000000E+00  0.00000000000E+00 -0.13074134866E+04  0.13074134866E+04  0.25500000920E-02 0.  1.
    10030    2    1    2    0    0  0.00000000000E+00  0.00000000000E+00  0.42525275460E+03  0.30400797278E+04  0.30101901678E+04 0.  0.
        4    1    3    3  502    0  0.11308105792E+04 -0.43914284099E+03  0.11123882824E+04  0.16459004541E+04  0.12699999809E+01 0. -1.
       -4    1    3    3    0  502 -0.11308105792E+04  0.43914284099E+03 -0.68713552783E+03  0.13941792738E+04  0.12699999809E+01 0.  1.
</event>
<event>
 5   0  0.6017625E-08  0.2999255E+04  0.7818609E-02  0.8243944E-01
       -3   -1    0    0    0  501  0.00000000000E+00  0.00000000000E+00  0.20961946860E+04  0.20961946884E+04  0.10100000352E+00 0. -1.
        3   -1    0    0  501    0  0.00000000000E+00  0.00000000000E+00 -0.10728406860E+04  0.10728406908E+04  0.10100000352E+00 0.  1.
    10030    2    1    2    0    0  0.00000000000E+00  0.00000000000E+00  0.10233540000E+04  0.31690353792E+04  0.29992552118E+04 0.  0.
        2    1    3    3  502    0  0.63103362751E+03  0.10813531228E+04 -0.36049144601E+03  0.13028745518E+04  0.25500000920E-02 0.  1.
       -2    1    3    3    0  502 -0.63103362751E+03 -0.10813531228E+04  0.13838454460E+04  0.18661608274E+04  0.25500000920E-02 0. -1.
</event>
<event>
 5   0  0.1821305E-07  0.2998861E+04  0.7818609E-02  0.8244056E-01
        2   -1    0    0  501    0  0.00000000000E+00  0.00000000000E+00  0.18773326492E+04  0.18773326492E+04  0.25500000920E-02 0. -1.
       -2   -1    0    0    0  501  0.00000000000E+00  0.00000000000E+00 -0.11975989386E+04  0.11975989386E+04  0.25500000920E-02 0.  1.
    10030    2    1    2    0    0  0.00000000000E+00  0.00000000000E+00  0.67973371065E+03  0.30749315878E+04  0.29988608425E+04 0.  0.
        2    1    3    3  502    0 -0.14312259929E+04 -0.29074140233E+03 -0.83853974831E+01  0.14604823589E+04  0.25500000920E-02 0.  1.
       -2    1    3    3    0  502  0.14312259929E+04  0.29074140233E+03  0.68811910814E+03  0.16144492289E+04  0.25500000920E-02 0. -1.
</event>
<event>
 5   0  0.6636007E-08  0.3000947E+04  0.7818609E-02  0.8243461E-01
        1   -1    0    0  501    0  0.00000000000E+00  0.00000000000E+00  0.25940233550E+04  0.25940233550E+04  0.50400001928E-02 0. -1.
       -1   -1    0    0    0  501  0.00000000000E+00  0.00000000000E+00 -0.86792604484E+03  0.86792604485E+03  0.50400001928E-02 0.  1.
    10030    2    1    2    0    0  0.00000000000E+00  0.00000000000E+00  0.17260973102E+04  0.34619493999E+04  0.30009468044E+04 0.  0.
        2    1    3    3  502    0 -0.12932024157E+04 -0.28608989841E+03  0.16764936714E+04  0.21365511808E+04  0.25500000920E-02 0.  1.
       -2    1    3    3    0  502  0.12932024157E+04  0.28608989841E+03  0.49603638763E+02  0.13253982190E+04  0.25500000920E-02 0. -1.
</event>
<event>
 5   0  0.6679022E-08  0.2998459E+04  0.7818609E-02  0.8244171E-01
        1   -1    0    0  501    0  0.00000000000E+00  0.00000000000E+00  0.21737090105E+04  0.21737090105E+04  0.50400001928E-02 0.  1.
       -1   -1    0    0    0  501  0.00000000000E+00  0.00000000000E+00 -0.10340343339E+04  0.10340343339E+04  0.50400001928E-02 0. -1.
    10030    2    1    2    0    0  0.00000000000E+00  0.00000000000E+00  0.11396746766E+04  0.32077433444E+04  0.29984594370E+04 0.  0.
        3    1    3    3  502    0  0.69471066087E+03 -0.87561048623E+03 -0.49908923254E+03  0.12240942358E+04  0.10100000352E+00 0. -1.
       -3    1    3    3    0  502 -0.69471066087E+03  0.87561048623E+03  0.16387639092E+04  0.19836491086E+04  0.10100000352E+00 0.  1.
</event>
<event>
 5   0  0.1914439E-07  0.3000826E+04  0.7818609E-02  0.8243495E-01
        2   -1    0    0  501    0  0.00000000000E+00  0.00000000000E+00  0.26665433839E+04  0.26665433839E+04  0.25500000920E-02 0. -1.
       -2   -1    0    0    0  501  0.00000000000E+00  0.00000000000E+00 -0.84425345326E+03  0.84425345327E+03  0.25500000920E-02 0.  1.
    10030    2    1    2    0    0  0.00000000000E+00  0.00000000000E+00  0.18222899307E+04  0.35107968372E+04  0.30008255265E+04 0.  0.
        5    1    3    3  502    0  0.15101321753E+03  0.78872109589E+03 -0.57165440769E+03  0.98574682896E+03  0.46999998093E+01 0.  1.
       -5    1    3    3    0  502 -0.15101321753E+03 -0.78872109589E+03  0.23939443383E+04  0.25250500082E+04  0.46999998093E+01 0. -1.
</event>
<event>
 5   0  0.1817566E-07  0.2985415E+04  0.7818609E-02  0.8247908E-01
       -2   -1    0    0    0  501  0.00000000000E+00  0.00000000000E+00  0.11683914674E+04  0.11683914674E+04  0.25500000920E-02 0. -1.
        2   -1    0    0  501    0  0.00000000000E+00  0.00000000000E+00 -0.19070451753E+04  0.19070451753E+04  0.25500000920E-02 0.  1.
    10030    2    1    2    0    0  0.00000000000E+00  0.00000000000E+00 -0.73865370791E+03  0.30754366427E+04  0.29854147523E+04 0.  0.
        1    1    3    3  502    0  0.40288050308E+03 -0.12258099276E+04  0.40380528113E+03  0.13520286179E+04  0.50400001928E-02 0.  1.
       -1    1    3    3    0  502 -0.40288050308E+03  0.12258099276E+04 -0.11424589890E+04  0.17234080248E+04  0.50400001928E-02 0. -1.
</event>
<event>
 5   0  0.6525507E-08  0.3002826E+04  0.7818609E-02  0.8242924E-01
       -1   -1    0    0    0  501  0.00000000000E+00  0.00000000000E+00  0.10929256134E+04  0.10929256135E+04  0.50400001928E-02 0. -1.
        1   -1    0    0  501    0  0.00000000000E+00  0.00000000000E+00 -0.20625750053E+04  0.20625750053E+04  0.50400001928E-02 0.  1.
    10030    2    1    2    0    0  0.00000000000E+00  0.00000000000E+00 -0.96964939180E+03  0.31555006187E+04  0.30028260375E+04 0.  0.
        4    1    3    3  502    0  0.84390950695E+03 -0.35707758650E+03  0.76499545246E+03  0.11936948161E+04  0.12699999809E+01 0. -1.
       -4    1    3    3    0  502 -0.84390950695E+03  0.35707758650E+03 -0.17346448443E+04  0.19618058027E+04  0.12699999809E+01 0.  1.
</event>
<event>
 5   0  0.6525507E-08  0.3000271E+04  0.7818609E-02  0.8243654E-01
        1   -1    0    0  501    0  0.00000000000E+00  0.00000000000E+00  0.27206324260E+04  0.27206324260E+04  0.50400001928E-02 0.  1.
       -1   -1    0    0    0  501  0.00000000000E+00  0.00000000000E+00 -0.82716275512E+03  0.82716275514E+03  0.50400001928E-02 0. -1.
    10030    2    1    2    0    0  0.00000000000E+00  0.00000000000E+00  0.18934696708E+04  0.35477951811E+04  0.30002705299E+04 0.  0.
        4    1    3    3  502    0 -0.14396806077E+04 -0.23699990757E+02  0.14444532712E+04  0.20395315166E+04  0.12699999809E+01 0.  1.
       -4    1    3    3    0  502  0.14396806077E+04  0.23699990757E+02  0.44901639964E+03  0.15082636645E+04  0.12699999809E+01 0. -1.
</event>
<event>
 5   0  0.6464436E-08  0.3001040E+04  0.7818609E-02  0.8243434E-01
       -1   -1    0    0    0  501  0.00000000000E+00  0.00000000000E+00  0.27853514930E+04  0.27853514930E+04  0.50400001928E-02 0.  1.
        1   -1    0    0  501    0  0.00000000000E+00  0.00000000000E+00 -0.80835770653E+03  0.80835770655E+03  0.50400001928E-02 0. -1.
    10030    2    1    2    0    0  0.00000000000E+00  0.00000000000E+00  0.19769937864E+04  0.35937091995E+04  0.30010400496E+04 0.  0.
        5    1    3    3  502    0 -0.13220605245E+04 -0.14270378000E+03  0.18210135881E+04  0.22548438920E+04  0.46999998093E+01 0.  1.
       -5    1    3    3    0  502  0.13220605245E+04  0.14270378000E+03  0.15598019838E+03  0.13388653075E+04  0.46999998093E+01 0. -1.
</event>
<event>
 5   0  0.1810055E-07  0.2999639E+04  0.7818609E-02  0.8243834E-01
        2   -1    0    0  501    0  0.00000000000E+00  0.00000000000E+00  0.17221443155E+04  0.17221443155E+04  0.25500000920E-02 0. -1.
       -2   -1    0    0    0  501  0.00000000000E+00  0.00000000000E+00 -0.13061963485E+04  0.13061963485E+04  0.25500000920E-02 0.  1.
    10030    2    1    2    0    0  0.00000000000E+00  0.00000000000E+00  0.41594796695E+03  0.30283406640E+04  0.29996390560E+04 0.  0.
        4    1    3    3  502    0  0.52398895279E+03  0.36655168923E+03  0.15776172504E+04  0.17022932665E+04  0.12699999809E+01 0. -1.
       -4    1    3    3    0  502 -0.52398895279E+03 -0.36655168923E+03 -0.11616692834E+04  0.13260473975E+04  0.12699999809E+01 0.  1.
</event>
<event>
 5   0  0.6464436E-08  0.3005578E+04  0.7818609E-02  0.8242140E-01
       -1   -1    0    0    0  501  0.00000000000E+00  0.00000000000E+00  0.70208154950E+03  0.70208154952E+03  0.50400001928E-02 0.  1.
        1   -1    0    0  501    0  0.00000000000E+00  0.00000000000E+00 -0.32166835363E+04  0.32166835363E+04  0.50400001928E-02 0. -1.
    10030    2    1    2    0    0  0.00000000000E+00  0.00000000000E+00 -0.25146019868E+04  0.39187650858E+04  0.30055775894E+04 0.  0.
        5    1    3    3  502    0 -0.11465065056E+04  0.80630526618E+03 -0.55064540051E+03  0.15059341940E+04  0.46999998093E+01 0.  1.
       -5    1    3    3    0  502  0.11465065056E+04 -0.80630526618E+03 -0.19639565863E+04  0.24128308918E+04  0.46999998093E+01 0. -1.
</event>
<event>
 5   0  0.1813720E-07  0.2998919E+04  0.7818609E-02  0.8244040E-01
       -2   -1    0    0    0  501  0.00000000000E+00  0.00000000000E+00  0.94689314888E+03  0.94689314888E+03  0.25500000920E-02 0.  1.
        2   -1    0    0  501    0  0.00000000000E+00  0.00000000000E+00 -0.23744801145E+04  0.23744801145E+04  0.25500000920E-02 0. -1.
    10030    2    1    2    0    0  0.00000000000E+00  0.00000000000E+00 -0.14275869656E+04  0.33213732634E+04  0.29989191070E+04 0.  0.
        3    1    3    3  502    0 -0.19780884322E+03 -0.45555178896E+01 -0.23599585655E+04  0.23682384872E+04  0.10100000352E+00 0. -1.
       -3    1    3    3    0  502  0.19780884322E+03  0.45555178896E+01  0.93237159985E+03  0.95313477620E+03  0.10100000352E+00 0.  1.
</event>
<event>
 5   0  0.1813720E-07  0.3001098E+04  0.7818609E-02  0.8243418E-01
        2   -1    0    0  501    0  0.00000000000E+00  0.00000000000E+00  0.14317262950E+04  0.14317262950E+04  0.25500000920E-02 0.  1.
       -2   -1    0    0    0  501  0.00000000000E+00  0.00000000000E+00 -0.15726794784E+04  0.15726794784E+04  0.25500000920E-02 0. -1.
    10030    2    1    2    0    0  0.00000000000E+00  0.00000000000E+00 -0.14095318338E+03  0.30044057734E+04  0.30010975078E+04 0.  0.
        3    1    3    3  502    0  0.46988306283E+03 -0.75620366754E+03 -0.12797040047E+04  0.15589343891E+04  0.10100000352E+00 0. -1.
       -3    1    3    3    0  502 -0.46988306283E+03  0.75620366754E+03  0.11387508214E+04  0.14454713843E+04  0.10100000352E+00 0.  1.
</event>
<event>
 5   0  0.6017625E-08  0.2977447E+04  0.7818609E-02  0.8250200E-01
        3   -1    0    0  501    0  0.00000000000E+00  0.00000000000E+00  0.15061123673E+04  0.15061123706E+04  0.10100000352E+00 0. -1.
       -3   -1    0    0    0  501  0.00000000000E+00  0.00000000000E+00 -0.14715355397E+04  0.14715355432E+04  0.10100000352E+00 0.  1.
    10030    2    1    2    0    0  0.00000000000E+00  0.00000000000E+00  0.34576827540E+02  0.29776479138E+04  0.29774471518E+04 0.  0.
        1    1    3    3  502    0  0.76450530168E+03  0.13104463809E+03  0.12880655713E+04  0.15035803834E+04  0.50400001928E-02 0. -1.
       -1    1    3    3    0  502 -0.76450530168E+03 -0.13104463809E+03 -0.12534887437E+04  0.14740675304E+04  0.50400001928E-02 0.  1.
</event>
<event>
 5   0  0.6464436E-08  0.2997111E+04  0.7818609E-02  0.8244556E-01
        1   -1    0    0  501    0  0.00000000000E+00  0.00000000000E+00  0.23534129538E+04  0.23534129538E+04  0.50400001928E-02 0.  1.
       -1   -1    0    0    0  501  0.00000000000E+00  0.00000000000E+00 -0.95421801587E+03  0.95421801589E+03  0.50400001928E-02 0. -1.
    10030    2    1    2    0    0  0.00000000000E+00  0.00000000000E+00  0.13991949379E+04  0.33076309697E+04  0.29971113021E+04 0.  0.
        5    1    3    3  502    0 -0.39976496426E+03  0.14390459642E+04  0.56451661695E+03  0.15966735467E+04  0.46999998093E+01 0.  1.
       -5    1    3    3    0  502  0.39976496426E+03 -0.14390459642E+04  0.83467832094E+03  0.17109574230E+04  0.46999998093E+01 0. -1.
</event>
<event>
 5   0  0.1813720E-07  0.3000922E+04  0.7818609E-02  0.8243468E-01
        2   -1    0    0  501    0  0.00000000000E+00  0.00000000000E+00  0.19889883130E+04  0.19889883130E+04  0.25500000920E-02 0.  1.
       -2   -1    0    0    0  501  0.00000000000E+00  0.00000000000E+00 -0.11319236921E+04  0.11319236921E+04  0.25500000920E-02 0. -1.
    10030    2    1    2    0    0  0.00000000000E+00  0.00000000000E+00  0.85706462093E+03  0.31209120050E+04  0.30009218548E+04 0.  0.
        3    1    3    3  502    0 -0.10688256423E+04  0.17917241476E+03 -0.65069495320E+03  0.12640786923E+04  0.10100000352E+00 0. -1.
       -3    1    3    3    0  502  0.10688256423E+04 -0.17917241476E+03  0.15077595741E+04  0.18568333128E+04  0.10100000352E+00 0.  1.
</event>
<event>
 5   0  0.6017625E-08  0.2999668E+04  0.7818609E-02  0.8243826E-01
        3   -1    0    0  501    0  0.00000000000E+00  0.00000000000E+00  0.21636374098E+04  0.21636374122E+04  0.10100000352E+00 0. -1.
       -3   -1    0    0    0  501  0.00000000000E+00  0.00000000000E+00 -0.10396852179E+04  0.10396852228E+04  0.10100000352E+00 0.  1.
    10030    2    1    2    0    0  0.00000000000E+00  0.00000000000E+00  0.11239521919E+04  0.32033226350E+04  0.29996678773E+04 0.  0.
        5    1    3    3  502    0 -0.71371063978E+03  0.12907088974E+04  0.85280267266E+03  0.17037038545E+04  0.46999998093E+01 0. -1.
       -5    1    3    3    0  502  0.71371063978E+03 -0.12907088974E+04  0.27114951929E+03  0.14996187806E+04  0.46999998093E+01 0.  1.
</event>
<event>
 5   0  0.1821305E-07  0.2999350E+04  0.7818609E-02  0.8243916E-01
       -2   -1    0    0    0  501  0.00000000000E+00  0.00000000000E+00  0.11151099361E+04  0.11151099361E+04  0.25500000920E-02 0. -1.
        2   -1    0    0  501    0  0.00000000000E+00  0.00000000000E+00 -0.20168646161E+04  0.20168646161E+04  0.25500000920E-02 0.  1.
    10030    2    1    2    0    0  0.00000000000E+00  0.00000000000E+00 -0.90175468005E+03  0.31319745522E+04  0.29993504451E+04 0.  0.
        2    1    3    3  502    0 -0.11341924585E+04  0.95953435984E+03 -0.23706233532E+03  0.15044258943E+04  0.25500000920E-02 0. -1.
       -2    1    3    3    0  502  0.11341924585E+04 -0.95953435984E+03 -0.66469234473E+03  0.16275486579E+04  0.25500000920E-02 0.  1.
</event>
<event>
 5   0  0.1817566E-07  0.2997725E+04  0.7818609E-02  0.8244381E-01
        2   -1    0    0  501    0  0.00000000000E+00  0.00000000000E+00  0.11521399379E+04  0.11521399379E+04  0.25500000920E-02 0.  1.
       -2   -1    0    0    0  501  0.00000000000E+00  0.00000000000E+00 -0.19499272094E+04  0.19499272094E+04  0.25500000920E-02 0. -1.
    10030    2    1    2    0    0  0.00000000000E+00  0.00000000000E+00 -0.79778727146E+03  0.31020671473E+04  0.29977251468E+04 0.  0.
        1    1    3    3  502    0  0.12652692453E+03  0.14626012915E+04 -0.86084943056E+02  0.14705856718E+04  0.50400001928E-02 0.  1.
       -1    1    3    3    0  502 -0.12652692453E+03 -0.14626012915E+04 -0.71170232840E+03  0.16314814755E+04  0.50400001928E-02 0. -1.
</event>
<event>
 5   0  0.6374748E-08  0.3001244E+04  0.7818609E-02  0.8243376E-01
        1   -1    0    0  501    0  0.00000000000E+00  0.00000000000E+00  0.19888097223E+04  0.19888097223E+04  0.50400001928E-02 0.  1.
       -1   -1    0    0    0  501  0.00000000000E+00  0.00000000000E+00 -0.11322681556E+04  0.11322681556E+04  0.50400001928E-02 0. -1.
    10030    2    1    2    0    0  0.00000000000E+00  0.00000000000E+00  0.85654156672E+03  0.31210778779E+04  0.30012436863E+04 0.  0.
        1    1    3    3  502    0  0.67900594029E+03 -0.76961982860E+02 -0.96107236797E+03  0.11792507410E+04  0.50400001928E-02 0. -1.
       -1    1    3    3    0  502 -0.67900594029E+03  0.76961982860E+02  0.18176139347E+04  0.19418271368E+04  0.50400001928E-02 0.  1.
</event>
<event>
 5   0  0.1810055E-07  0.3004871E+04  0.7818609E-02  0.8242341E-01
       -2   -1    0    0    0  501  0.00000000000E+00  0.00000000000E+00  0.20448826653E+04  0.20448826653E+04  0.25500000920E-02 0. -1.
        2   -1    0    0  501    0  0.00000000000E+00  0.00000000000E+00 -0.11038837291E+04  0.11038837291E+04  0.25500000920E-02 0.  1.
    10030    2    1    2    0    0  0.00000000000E+00  0.00000000000E+00  0.94099893618E+03  0.31487663944E+04  0.30048711800E+04 0.  0.
        4    1    3    3  502    0  0.30538821535E+03  0.58020655101E+02  0.20108163799E+04  0.20347020630E+04  0.12699999809E+01 0. -1.
       -4    1    3    3    0  502 -0.30538821535E+03 -0.58020655101E+02 -0.10698174438E+04  0.11140643313E+04  0.12699999809E+01 0.  1.
</event>
<event>
 5   0  0.1810055E-07  0.2996895E+04  0.7818609E-02  0.8244618E-01
       -2   -1    0    0    0  501  0.00000000000E+00  0.00000000000E+00  0.13204276798E+04  0.13204276798E+04  0.25500000920E-02 0. -1.
        2   -1    0    0  501    0  0.00000000000E+00  0.00000000000E+00 -0.17004684140E+04  0.17004684140E+04  0.25500000920E-02 0.  1.
    10030    2    1    2    0    0  0.00000000000E+00  0.00000000000E+00 -0.38004073427E+03  0.30208960938E+04  0.29968954352E+04 0.  0.
        4    1    3    3  502    0 -0.22584723824E+02 -0.13934023474E+04 -0.74512450904E+03  0.15802823540E+04  0.12699999809E+01 0.  1.
       -4    1    3    3    0  502  0.22584723824E+02  0.13934023474E+04  0.36508377477E+03  0.14406137397E+04  0.12699999809E+01 0. -1.
</event>
<event>
 5   0  0.1813720E-07  0.2988696E+04  0.7818609E-02  0.8246966E-01
        2   -1    0    0  501    0  0.00000000000E+00  0.00000000000E+00  0.15231546453E+04  0.15231546453E+04  0.25500000920E-02 0. -1.
       -2   -1    0    0    0  501  0.00000000000E+00  0.00000000000E+00 -0.14660866402E+04  0.14660866402E+04  0.25500000920E-02 0.  1.
    10030    2    1    2    0    0  0.00000000000E+00  0.00000000000E+00  0.57068005136E+02  0.29892412854E+04  0.29886964893E+04 0.  0.
        3    1    3    3  502    0  0.14341071047E+04 -0.24853626523E+03 -0.31011773977E+03  0.14881553970E+04  0.10100000352E+00 0. -1.
       -3    1    3    3    0  502 -0.14341071047E+04  0.24853626523E+03  0.36718574491E+03  0.15010858884E+04  0.10100000352E+00 0.  1.
</event>
<event>
 5   0  0.6525507E-08  0.3000024E+04  0.7818609E-02  0.8243724E-01
       -1   -1    0    0    0  501  0.00000000000E+00  0.00000000000E+00  0.87136841602E+03  0.87136841604E+03  0.50400001928E-02 0.  1.
        1   -1    0    0  501    0  0.00000000000E+00  0.00000000000E+00 -0.25821871283E+04  0.25821871283E+04  0.50400001928E-02 0. -1.
    10030    2    1    2    0    0  0.00000000000E+00  0.00000000000E+00 -0.17108187122E+04  0.34535555443E+04  0.30000242052E+04 0.  0.
        4    1    3    3  502    0 -0.14353288957E+03  0.14926609326E+04 -0.89842615092E+03  0.17480873867E+04  0.12699999809E+01 0. -1.
       -4    1    3    3    0  502  0.14353288957E+03 -0.14926609326E+04 -0.81239256133E+03  0.17054681576E+04  0.12699999809E+01 0.  1.
</event>
<event>
 5   0  0.6636007E-08  0.2999112E+04  0.7818609E-02  0.8243984E-01
        1   -1    0    0  501    0  0.00000000000E+00  0.00000000000E+00  0.20549055395E+04  0.20549055395E+04  0.50400001928E-02 0.  1.
       -1   -1    0    0    0  501  0.00000000000E+00  0.00000000000E+00 -0.10942930310E+04  0.10942930310E+04  0.50400001928E-02 0. -1.
    10030    2    1    2    0    0  0.00000000000E+00  0.00000000000E+00  0.96061250850E+03  0.31491985705E+04  0.29991124095E+04 0.  0.
        2    1    3    3  502    0 -0.46454942120E+03 -0.15890015392E+03  0.19681158087E+04  0.20284317243E+04  0.25500000920E-02 0.  1.
       -2    1    3    3    0  502  0.46454942120E+03  0.15890015392E+03 -0.10075033002E+04  0.11207668462E+04  0.25500000920E-02 0. -1.
</event>
<event>
 5   0  0.1813720E-07  0.2999196E+04  0.7818609E-02  0.8243960E-01
        2   -1    0    0  501    0  0.00000000000E+00  0.00000000000E+00  0.11683665533E+04  0.11683665534E+04  0.25500000920E-02 0. -1.
       -2   -1    0    0    0  501  0.00000000000E+00  0.00000000000E+00 -0.19247338198E+04  0.19247338198E+04  0.25500000920E-02 0.  1.
    10030    2    1    2    0    0  0.00000000000E+00  0.00000000000E+00 -0.75636726646E+03  0.30931003732E+04  0.29991963051E+04 0.  0.
        3    1    3    3  502    0  0.85219912972E+03  0.11693002914E+04  0.28220561924E+02  0.14471706667E+04  0.10100000352E+00 0. -1.
       -3    1    3    3    0  502 -0.85219912972E+03 -0.11693002914E+04 -0.78458782838E+03  0.16459297065E+04  0.10100000352E+00 0.  1.
</event>
<event>
 5   0  0.1810055E-07  0.2999894E+04  0.7818609E-02  0.8243761E-01
        2   -1    0    0  501    0  0.00000000000E+00  0.00000000000E+00  0.19393084199E+04  0.19393084200E+04  0.25500000920E-02 0. -1.
       -2   -1    0    0    0  501  0.00000000000E+00  0.00000000000E+00 -0.11601250750E+04  0.11601250750E+04  0.25500000920E-02 0.  1.
    10030    2    1    2    0    0  0.00000000000E+00  0.00000000000E+00  0.77918334495E+03  0.30994334950E+04  0.29998935489E+04 0.  0.
        4    1    3    3  502    0 -0.87163020684E+03 -0.10059321606E+04 -0.32487381796E+03  0.13701034047E+04  0.12699999809E+01 0. -1.
       -4    1    3    3    0  502  0.87163020684E+03  0.10059321606E+04  0.11040571629E+04  0.17293300902E+04  0.12699999809E+01 0.  1.
</event>
<event>
 5   0  0.1810055E-07  0.2997723E+04  0.7818609E-02  0.8244381E-01
        2   -1    0    0  501    0  0.00000000000E+00  0.00000000000E+00  0.19374676631E+04  0.19374676631E+04  0.25500000920E-02 0. -1.
       -2   -1    0    0    0  501  0.00000000000E+00  0.00000000000E+00 -0.11595473142E+04  0.11595473142E+04  0.25500000920E-02 0.  1.
    10030    2    1    2    0    0  0.00000000000E+00  0.00000000000E+00  0.77792034892E+03  0.30970149773E+04  0.29977227524E+04 0.  0.
        4    1    3    3  502    0  0.28259540912E+03 -0.76428140228E+02 -0.11297237861E+04  0.11670385048E+04  0.12699999809E+01 0.  1.
       -4    1    3    3    0  502 -0.28259540912E+03  0.76428140228E+02  0.19076441350E+04  0.19299764725E+04  0.12699999809E+01 0. -1.
</event>
<event>
 5   0  0.6679022E-08  0.2997671E+04  0.7818609E-02  0.8244396E-01
        1   -1    0    0  501    0  0.00000000000E+00  0.00000000000E+00  0.17445882200E+04  0.17445882200E+04  0.50400001928E-02 0.  1.
       -1   -1    0    0    0  501  0.00000000000E+00  0.00000000000E+00 -0.12877007151E+04  0.12877007151E+04  0.50400001928E-02 0. -1.
    10030    2    1    2    0    0  0.00000000000E+00  0.00000000000E+00  0.45688750492E+03  0.30322889352E+04  0.29976707615E+04 0.  0.
        3    1    3    3  502    0 -0.19235242368E+03  0.81600029546E+03 -0.10283421082E+04  0.13267793482E+04  0.10100000352E+00 0. -1.
       -3    1    3    3    0  502  0.19235242368E+03 -0.81600029546E+03  0.14852296132E+04  0.17055095869E+04  0.10100000352E+00 0.  1.
</event>
<event>
 5   0  0.6374748E-08  0.2999298E+04  0.7818609E-02  0.8243931E-01
        1   -1    0    0  501    0  0.00000000000E+00  0.00000000000E+00  0.77405156855E+03  0.77405156857E+03  0.50400001928E-02 0.  1.
       -1   -1    0    0    0  501  0.00000000000E+00  0.00000000000E+00 -0.29054234649E+04  0.29054234649E+04  0.50400001928E-02 0. -1.
    10030    2    1    2    0    0  0.00000000000E+00  0.00000000000E+00 -0.21313718964E+04  0.36794750335E+04  0.29992983115E+04 0.  0.
        1    1    3    3  502    0 -0.39994595859E+02 -0.14814185308E+04 -0.13474371225E+04  0.20029446398E+04  0.50400001928E-02 0. -1.
       -1    1    3    3    0  502  0.39994595859E+02  0.14814185308E+04 -0.78393477383E+03  0.16765303936E+04  0.50400001928E-02 0.  1.
</event>
<event>
 5   0  0.6525507E-08  0.3000245E+04  0.7818609E-02  0.8243661E-01
        1   -1    0    0  501    0  0.00000000000E+00  0.00000000000E+00  0.19450552815E+04  0.19450552815E+04  0.50400001928E-02 0.  1.
       -1   -1    0    0    0  501  0.00000000000E+00  0.00000000000E+00 -0.11569686176E+04  0.11569686176E+04  0.50400001928E-02 0. -1.
    10030    2    1    2    0    0  0.00000000000E+00  0.00000000000E+00  0.78808666392E+03  0.31020238991E+04  0.30002452701E+04 0.  0.
        4    1    3    3  502    0 -0.85716724809E+02  0.14906111438E+04  0.24386664411E+03  0.15128587152E+04  0.12699999809E+01 0. -1.
       -4    1    3    3    0  502  0.85716724809E+02 -0.14906111438E+04  0.54422001981E+03  0.15891651840E+04  0.12699999809E+01 0.  1.
</event>
<event>
 5   0  0.1817566E-07  0.3005338E+04  0.7818609E-02  0.8242208E-01
       -2   -1    0    0    0  501  0.00000000000E+00  0.00000000000E+00  0.99616789614E+03  0.99616789614E+03  0.25500000920E-02 0. -1.
        2   -1    0    0  501    0  0.00000000000E+00  0.00000000000E+00 -0.22667010708E+04  0.22667010708E+04  0.25500000920E-02 0.  1.
    10030    2    1    2    0    0  0.00000000000E+00  0.00000000000E+00 -0.12705331746E+04  0.32628689669E+04  0.30053384747E+04 0.  0.
        1    1    3    3  502    0 -0.70857545092E+03  0.39503534872E+03  0.73798566094E+03  0.10967018429E+04  0.50400001928E-02 0. -1.
       -1    1    3    3    0  502  0.70857545092E+03 -0.39503534872E+03 -0.20085188356E+04  0.21661671240E+04  0.50400001928E-02 0.  1.
</event>
<event>
 5   0  0.1810055E-07  0.2999994E+04  0.7818609E-02  0.8243732E-01
        2   -1    0    0  501    0  0.00000000000E+00  0.00000000000E+00  0.24162174990E+04  0.24162174990E+04  0.25500000920E-02 0. -1.
       -2   -1    0    0    0  501  0.00000000000E+00  0.00000000000E+00 -0.93120407554E+03  0.93120407554E+03  0.25500000920E-02 0.  1.
    10030    2    1    2    0    0  0.00000000000E+00  0.00000000000E+00  0.14850134234E+04  0.33474215745E+04  0.29999943883E+04 0.  0.
        4    1    3    3  502    0 -0.14736433139E+04 -0.10069509783E+03  0.45105645164E+03  0.15444149878E+04  0.12699999809E+01 0. -1.
       -4    1    3    3    0  502  0.14736433139E+04  0.10069509783E+03  0.10339569718E+04  0.18030065867E+04  0.12699999809E+01 0.  1.
</event>
<event>
 5   0  0.6464436E-08  0.3000909E+04  0.7818609E-02  0.8243471E-01
       -1   -1    0    0    0  501  0.00000000000E+00  0.00000000000E+00  0.85151064236E+03  0.85151064237E+03  0.50400001928E-02 0.  1.
        1   -1    0    0  501    0  0.00000000000E+00  0.00000000000E+00 -0.26439641533E+04  0.26439641534E+04  0.50400001928E-02 0. -1.
    10030    2    1    2    0    0  0.00000000000E+00  0.00000000000E+00 -0.17924535110E+04  0.34954747957E+04  0.30009089387E+04 0.  0.
        5    1    3    3  502    0 -0.10288624308E+04 -0.47110051348E+03  0.25147477864E+03  0.11592045762E+04  0.46999998093E+01 0.  1.
       -5    1    3    3    0  502  0.10288624308E+04  0.47110051348E+03 -0.20439282896E+04  0.23362702195E+04  0.46999998093E+01 0. -1.
</event>
<event>
 5   0  0.1817566E-07  0.3000516E+04  0.7818609E-02  0.8243584E-01
        2   -1    0    0  501    0  0.00000000000E+00  0.00000000000E+00  0.15557667826E+04  0.15557667826E+04  0.25500000920E-02 0.  1.
       -2   -1    0    0    0  501  0.00000000000E+00  0.00000000000E+00 -0.14467297411E+04  0.14467297411E+04  0.25500000920E-02 0. -1.
    10030    2    1    2    0    0  0.00000000000E+00  0.00000000000E+00  0.10903704147E+03  0.30024965237E+04  0.30005160053E+04 0.  0.
        1    1    3    3  502    0  0.88487004812E+03  0.83853978292E+03 -0.82048995947E+03  0.14694719267E+04  0.50400001928E-02 0. -1.
       -1    1    3    3    0  502 -0.88487004812E+03 -0.83853978292E+03  0.92952700094E+03  0.15330245970E+04  0.50400001928E-02 0.  1.
</event>
<event>
 5   0  0.6679022E-08  0.3001044E+04  0.7818609E-02  0.8243433E-01
       -1   -1    0    0    0  501  0.00000000000E+00  0.00000000000E+00  0.10820670951E+04  0.10820670951E+04  0.50400001928E-02 0.  1.
        1   -1    0    0  501    0  0.00000000000E+00  0.00000000000E+00 -0.20808012760E+04  0.20808012760E+04  0.50400001928E-02 0. -1.
    10030    2    1    2    0    0  0.00000000000E+00  0.00000000000E+00 -0.99873418089E+03  0.31628683712E+04  0.30010442131E+04 0.  0.
        3    1    3    3  502    0 -0.64566705045E+03  0.90236395129E+03 -0.15639958481E+04  0.19176104046E+04  0.10100000352E+00 0. -1.
       -3    1    3    3    0  502  0.64566705045E+03 -0.90236395129E+03  0.56526166726E+03  0.12452579666E+04  0.10100000352E+00 0.  1.
</event>
<event>
 5   0  0.6464436E-08  0.2999723E+04  0.7818609E-02  0.8243810E-01
        1   -1    0    0  501    0  0.00000000000E+00  0.00000000000E+00  0.24956837283E+04  0.24956837283E+04  0.50400001928E-02 0. -1.
       -1   -1    0    0    0  501  0.00000000000E+00  0.00000000000E+00 -0.90138999600E+03  0.90138999602E+03  0.50400001928E-02 0.  1.
    10030    2    1    2    0    0  0.00000000000E+00  0.00000000000E+00  0.15942937323E+04  0.33970737243E+04  0.29997228845E+04 0.  0.
        5    1    3    3  502    0  0.71356389495E+03  0.37638099199E+03 -0.63474716352E+03  0.10265291690E+04  0.46999998093E+01 0.  1.
       -5    1    3    3    0  502 -0.71356389495E+03 -0.37638099199E+03  0.22290408958E+04  0.23705445552E+04  0.46999998093E+01 0. -1.
</event>
<event>
 5   0  0.6464436E-08  0.3000987E+04  0.7818609E-02  0.8243449E-01
        1   -1    0    0  501    0  0.00000000000E+00  0.00000000000E+00  0.15557027730E+04  0.15557027730E+04  0.50400001928E-02 0. -1.
       -1   -1    0    0    0  501  0.00000000000E+00  0.00000000000E+00 -0.14472434441E+04  0.14472434441E+04  0.50400001928E-02 0.  1.
    10030    2    1    2    0    0  0.00000000000E+00  0.00000000000E+00  0.10845932883E+03  0.30029462171E+04  0.30009869305E+04 0.  0.
        5    1    3    3  502    0  0.72527053035E+03  0.77393383234E+03  0.11162743944E+04  0.15398316572E+04  0.46999998093E+01 0. -1.
       -5    1    3    3    0  502 -0.72527053035E+03 -0.77393383234E+03 -0.10078150656E+04  0.14631145599E+04  0.46999998093E+01 0.  1.
</event>
<event>
 5   0  0.1914439E-07  0.3000031E+04  0.7818609E-02  0.8243722E-01
        2   -1    0    0  501    0  0.00000000000E+00  0.00000000000E+00  0.10023144798E+04  0.10023144798E+04  0.25500000920E-02 0.  1.
       -2   -1    0    0    0  501  0.00000000000E+00  0.00000000000E+00 -0.22448508017E+04  0.22448508017E+04  0.25500000920E-02 0. -1.
    10030    2    1    2    0    0  0.00000000000E+00  0.00000000000E+00 -0.12425363219E+04  0.32471652814E+04  0.30000309754E+04 0.  0.
        5    1    3    3  502    0 -0.12443943088E+04 -0.65506168463E+03 -0.56352912716E+02  0.14074163375E+04  0.46999998093E+01 0.  1.
       -5    1    3    3    0  502  0.12443943088E+04  0.65506168463E+03 -0.11861834092E+04  0.18397489439E+04  0.46999998093E+01 0. -1.
</event>
<event>
 5   0  0.1914439E-07  0.2998426E+04  0.7818609E-02  0.8244180E-01
       -2   -1    0    0    0  501  0.00000000000E+00  0.00000000000E+00  0.13262090986E+04  0.13262090986E+04  0.25500000920E-02 0. -1.
        2   -1    0    0  501    0  0.00000000000E+00  0.00000000000E+00 -0.16947855839E+04  0.16947855839E+04  0.25500000920E-02 0.  1.
    10030    2    1    2    0    0  0.00000000000E+00  0.00000000000E+00 -0.36857648532E+03  0.30209946824E+04  0.29984262949E+04 0.  0.
        5    1    3    3  502    0 -0.67537145002E+03 -0.50120640939E+03  0.10661346502E+04  0.13579394841E+04  0.46999998093E+01 0. -1.
       -5    1    3    3    0  502  0.67537145002E+03  0.50120640939E+03 -0.14347111355E+04  0.16630551983E+04  0.46999998093E+01 0.  1.
</event>
<event>
 5   0  0.1810055E-07  0.2997368E+04  0.7818609E-02  0.8244483E-01
        2   -1    0    0  501    0  0.00000000000E+00  0.00000000000E+00  0.21796673401E+04  0.21796673401E+04  0.25500000920E-02 0. -1.
       -2   -1    0    0    0  501  0.00000000000E+00  0.00000000000E+00 -0.10304574251E+04  0.10304574251E+04  0.25500000920E-02 0.  1.
    10030    2    1    2    0    0  0.00000000000E+00  0.00000000000E+00  0.11492099149E+04  0.32101247652E+04  0.29973684424E+04 0.  0.
        4    1    3    3  502    0  0.11787430891E+04 -0.54975373634E+03 -0.22281816737E+03  0.13195885682E+04  0.12699999809E+01 0.  1.
       -4    1    3    3    0  502 -0.11787430891E+04  0.54975373634E+03  0.13720280823E+04  0.18905361970E+04  0.12699999809E+01 0. -1.
</event>
<event>
 5   0  0.6374748E-08  0.2996393E+04  0.7818609E-02  0.8244761E-01
       -1   -1    0    0    0  501  0.00000000000E+00  0.00000000000E+00  0.78877283614E+03  0.78877283616E+03  0.50400001928E-02 0. -1.
        1   -1    0    0  501    0  0.00000000000E+00  0.00000000000E+00 -0.28456779539E+04  0.28456779539E+04  0.50400001928E-02 0.  1.
    10030    2    1    2    0    0  0.00000000000E+00  0.00000000000E+00 -0.20569051178E+04  0.36344507901E+04  0.29963934791E+04 0.  0.
        1    1    3    3  502    0  0.61506671008E+03  0.11267885357E+04 -0.91551020564E+02  0.12869891419E+04  0.50400001928E-02 0. -1.
       -1    1    3    3    0  502 -0.61506671008E+03 -0.11267885357E+04 -0.19653540972E+04  0.23474616481E+04  0.50400001928E-02 0.  1.
</event>
<event>
 5   0  0.1914439E-07  0.3008174E+04  0.7818609E-02  0.8241401E-01
        2   -1    0    0  501    0  0.00000000000E+00  0.00000000000E+00  0.17931114911E+04  0.17931114911E+04  0.25500000920E-02 0.  1.
       -2   -1    0    0    0  501  0.00000000000E+00  0.00000000000E+00 -0.12616489073E+04  0.12616489073E+04  0.25500000920E-02 0. -1.
    10030    2    1    2    0    0  0.00000000000E+00  0.00000000000E+00  0.53146258382E+03  0.30547603985E+04  0.30081736343E+04 0.  0.
        5    1    3    3  502    0 -0.17563182230E+03  0.10766529744E+04 -0.78578886080E+03  0.13444383169E+04  0.46999998093E+01 0. -1.
       -5    1    3    3    0  502  0.17563182230E+03 -0.10766529744E+04  0.13172514446E+04  0.17103220815E+04  0.46999998093E+01 0.  1.
</event>
<event>
 5   0  0.6464436E-08  0.3000207E+04  0.7818609E-02  0.8243672E-01
        1   -1    0    0  501    0  0.00000000000E+00  0.00000000000E+00  0.15973710492E+04  0.15973710492E+04  0.50400001928E-02 0.  1.
       -1   -1    0    0    0  501  0.00000000000E+00  0.00000000000E+00 -0.14087585309E+04  0.14087585310E+04  0.50400001928E-02 0. -1.
    10030    2    1    2    0    0  0.00000000000E+00  0.00000000000E+00  0.18861251826E+03  0.30061295802E+04  0.30002067213E+04 0.  0.
        5    1    3    3  502    0 -0.26716025877E+03 -0.10428401707E+04  0.11410685039E+04  0.15687414210E+04  0.46999998093E+01 0.  1.
       -5    1    3    3    0  502  0.26716025877E+03  0.10428401707E+04 -0.95245598561E+03  0.14373881591E+04  0.46999998093E+01 0. -1.
</event>
<event>
 5   0  0.1813720E-07  0.2999702E+04  0.7818609E-02  0.8243816E-01
       -2   -1    0    0    0  501  0.00000000000E+00  0.00000000000E+00  0.10276978757E+04  0.10276978757E+04  0.25500000920E-02 0.  1.
        2   -1    0    0  501    0  0.00000000000E+00  0.00000000000E+00 -0.21889239386E+04  0.21889239386E+04  0.25500000920E-02 0. -1.
    10030    2    1    2    0    0  0.00000000000E+00  0.00000000000E+00 -0.11612260629E+04  0.32166218144E+04  0.29997016397E+04 0.  0.
        3    1    3    3  502    0 -0.44057961734E+03  0.70574798341E+03  0.75757366851E+03  0.11252148634E+04  0.10100000352E+00 0.  1.
       -3    1    3    3    0  502  0.44057961734E+03 -0.70574798341E+03 -0.19187997314E+04  0.20914069510E+04  0.10100000352E+00 0. -1.
</event>
<event>
 5   0  0.1914439E-07  0.2998311E+04  0.7818609E-02  0.8244213E-01
       -2   -1    0    0    0  501  0.00000000000E+00  0.00000000000E+00  0.90512382708E+03  0.90512382708E+03  0.25500000920E-02 0.  1.
        2   -1    0    0  501    0  0.00000000000E+00  0.00000000000E+00 -0.24830499676E+04  0.24830499676E+04  0.25500000920E-02 0. -1.
    10030    2    1    2    0    0  0.00000000000E+00  0.00000000000E+00 -0.15779261405E+04  0.33881737947E+04  0.29983113177E+04 0.  0.
        5    1    3    3  502    0  0.38364821314E+03 -0.52793937499E+03 -0.23140980126E+04  0.24043663692E+04  0.46999998093E+01 0. -1.
       -5    1    3    3    0  502 -0.38364821314E+03  0.52793937499E+03  0.73617187214E+03  0.98380742548E+03  0.46999998093E+01 0.  1.
</event>
<event>
 5   0  0.6525507E-08  0.2983775E+04  0.7818609E-02  0.8248379E-01
        1   -1    0    0  501    0  0.00000000000E+00  0.00000000000E+00  0.12044571931E+04  0.12044571932E+04  0.50400001928E-02 0. -1.
       -1   -1    0    0    0  501  0.00000000000E+00  0.00000000000E+00 -0.18479103099E+04  0.18479103099E+04  0.50400001928E-02 0.  1.
    10030    2    1    2    0    0  0.00000000000E+00  0.00000000000E+00 -0.64345311677E+03  0.30523675031E+04  0.29837753703E+04 0.  0.
        4    1    3    3  502    0 -0.84720592456E+03  0.39898101612E+03  0.86634287449E+03  0.12757332475E+04  0.12699999809E+01 0. -1.
       -4    1    3    3    0  502  0.84720592456E+03 -0.39898101612E+03 -0.15097959913E+04  0.17766342555E+04  0.12699999809E+01 0.  1.
</event>
<event>
 5   0  0.1813720E-07  0.3000384E+04  0.7818609E-02  0.8243621E-01
       -2   -1    0    0    0  501  0.00000000000E+00  0.00000000000E+00  0.28099459504E+04  0.28099459504E+04  0.25500000920E-02 0. -1.
        2   -1    0    0  501    0  0.00000000000E+00  0.00000000000E+00 -0.80093233693E+03  0.80093233694E+03  0.25500000920E-02 0.  1.
    10030    2    1    2    0    0  0.00000000000E+00  0.00000000000E+00  0.20090136134E+04  0.36108782873E+04  0.30003843598E+04 0.  0.
        3    1    3    3  502    0 -0.92820183280E+03  0.10580520119E+04  0.37969290760E+03  0.14578063714E+04  0.10100000352E+00 0. -1.
       -3    1    3    3    0  502  0.92820183280E+03 -0.10580520119E+04  0.16293207058E+04  0.21530719159E+04  0.10100000352E+00 0.  1.
</event>
<event>
 5   0  0.1821305E-07  0.2996311E+04  0.7818609E-02  0.8244785E-01
       -2   -1    0    0    0  501  0.00000000000E+00  0.00000000000E+00  0.13171143245E+04  0.13171143245E+04  0.25500000920E-02 0.  1.
        2   -1    0    0  501    0  0.00000000000E+00  0.00000000000E+00 -0.17040810388E+04  0.17040810388E+04  0.25500000920E-02 0. -1.
    10030    2    1    2    0    0  0.00000000000E+00  0.00000000000E+00 -0.38696671431E+03  0.30211953634E+04  0.29963107625E+04 0.  0.
        2    1    3    3  502    0 -0.14108081167E+04  0.43218693894E+03 -0.45506897260E+03  0.15441026074E+04  0.25500000920E-02 0. -1.
       -2    1    3    3    0  502  0.14108081167E+04 -0.43218693894E+03  0.68102258291E+02  0.14770927560E+04  0.25500000920E-02 0.  1.
</event>
<event>
 5   0  0.1810055E-07  0.3000249E+04  0.7818609E-02  0.8243660E-01
        2   -1    0    0  501    0  0.00000000000E+00  0.00000000000E+00  0.13122432999E+04  0.13122432999E+04  0.25500000920E-02 0.  1.
       -2   -1    0    0    0  501  0.00000000000E+00  0.00000000000E+00 -0.17149062629E+04  0.17149062629E+04  0.25500000920E-02 0. -1.
    10030    2    1    2    0    0  0.00000000000E+00  0.00000000000E+00 -0.40266296302E+03  0.30271495629E+04  0.30002494920E+04 0.  0.
        4    1    3    3  502    0  0.62021686225E+03  0.75853159978E+03  0.94478166365E+03  0.13611220184E+04  0.12699999809E+01 0.  1.
       -4    1    3    3    0  502 -0.62021686225E+03 -0.75853159978E+03 -0.13474446267E+04  0.16660275445E+04  0.12699999809E+01 0. -1.
</event>
<event>
 5   0  0.1813720E-07  0.2991132E+04  0.7818609E-02  0.8246268E-01
        2   -1    0    0  501    0  0.00000000000E+00  0.00000000000E+00  0.21512396932E+04  0.21512396932E+04  0.25500000920E-02 0. -1.
       -2   -1    0    0    0  501  0.00000000000E+00  0.00000000000E+00 -0.10397344460E+04  0.10397344460E+04  0.25500000920E-02 0.  1.
    10030    2    1    2    0    0  0.00000000000E+00  0.00000000000E+00  0.11115052473E+04  0.31909741392E+04  0.29911322342E+04 0.  0.
        3    1    3    3  502    0 -0.10371718167E+04 -0.10558583501E+04  0.32655998690E+03  0.15156528850E+04  0.10100000352E+00 0. -1.
       -3    1    3    3    0  502  0.10371718167E+04  0.10558583501E+04  0.78494526040E+03  0.16753212542E+04  0.10100000352E+00 0.  1.
</event>
<event>
 5   0  0.1817566E-07  0.3000643E+04  0.7818609E-02  0.8243547E-01
       -2   -1    0    0    0  501  0.00000000000E+00  0.00000000000E+00  0.94715244492E+03  0.94715244492E+03  0.25500000920E-02 0. -1.
        2   -1    0    0  501    0  0.00000000000E+00  0.00000000000E+00 -0.23765600076E+04  0.23765600076E+04  0.25500000920E-02 0.  1.
    10030    2    1    2    0    0  0.00000000000E+00  0.00000000000E+00 -0.14294075627E+04  0.33237124525E+04  0.30006430122E+04 0.  0.
        1    1    3    3  502    0 -0.15475446804E+03 -0.21211207712E+03  0.92150564251E+03  0.95818219971E+03  0.50400001928E-02 0. -1.
       -1    1    3    3    0  502  0.15475446804E+03  0.21211207712E+03 -0.23509132052E+04  0.23655302528E+04  0.50400001928E-02 0.  1.
</event>
<event>
 5   0  0.1817566E-07  0.3001196E+04  0.7818609E-02  0.8243390E-01
       -2   -1    0    0    0  501  0.00000000000E+00  0.00000000000E+00  0.17652309297E+04  0.17652309297E+04  0.25500000920E-02 0. -1.
        2   -1    0    0  501    0  0.00000000000E+00  0.00000000000E+00 -0.12756369319E+04  0.12756369319E+04  0.25500000920E-02 0.  1.
    10030    2    1    2    0    0  0.00000000000E+00  0.00000000000E+00  0.48959399775E+03  0.30408678616E+04  0.30011956066E+04 0.  0.
        1    1    3    3  502    0  0.39199867757E+03 -0.13904698254E+04  0.65602464529E+03  0.15866435119E+04  0.50400001928E-02 0. -1.
       -1    1    3    3    0  502 -0.39199867757E+03  0.13904698254E+04 -0.16643064754E+03  0.14542243496E+04  0.50400001928E-02 0.  1.
</event>
<event>
 5   0  0.6374748E-08  0.2999345E+04  0.7818609E-02  0.8243918E-01
        1   -1    0    0  501    0  0.00000000000E+00  0.00000000000E+00  0.14240963966E+04  0.14240963966E+04  0.50400001928E-02 0. -1.
       -1   -1    0    0    0  501  0.00000000000E+00  0.00000000000E+00 -0.15792594826E+04  0.15792594826E+04  0.50400001928E-02 0.  1.
    10030    2    1    2    0    0  0.00000000000E+00  0.00000000000E+00 -0.15516308608E+03  0.30033558792E+04  0.29993450875E+04 0.  0.
        1    1    3    3  502    0  0.12636674391E+04  0.43267593754E+03  0.60520553941E+03  0.14664029489E+04  0.50400001928E-02 0. -1.
       -1    1    3    3    0  502 -0.12636674391E+04 -0.43267593754E+03 -0.76036862549E+03  0.15369529303E+04  0.50400001928E-02 0.  1.
</event>
<event>
 5   0  0.6636007E-08  0.3000437E+04  0.7818609E-02  0.8243606E-01
        1   -1    0    0  501    0  0.00000000000E+00  0.00000000000E+00  0.24386986731E+04  0.24386986731E+04  0.50400001928E-02 0. -1.
       -1   -1    0    0    0  501  0.00000000000E+00  0.00000000000E+00 -0.92289188744E+03  0.92289188745E+03  0.50400001928E-02 0.  1.
    10030    2    1    2    0    0  0.00000000000E+00  0.00000000000E+00  0.15158067857E+04  0.33615905606E+04  0.30004367825E+04 0.  0.
        2    1    3    3  502    0 -0.24707916188E+03  0.26388156841E+03  0.23891723204E+04  0.24163662742E+04  0.25500000920E-02 0. -1.
       -2    1    3    3    0  502  0.24707916188E+03 -0.26388156841E+03 -0.87336553471E+03  0.94522428641E+03  0.25500000920E-02 0.  1.
</event>
<event>
 5   0  0.1817566E-07  0.2999224E+04  0.7818609E-02  0.8243952E-01
       -2   -1    0    0    0  501  0.00000000000E+00  0.00000000000E+00  0.15102443261E+04  0.15102443261E+04  0.25500000920E-02 0. -1.
        2   -1    0    0  501    0  0.00000000000E+00  0.00000000000E+00 -0.14890548009E+04  0.14890548009E+04  0.25500000920E-02 0.  1.
    10030    2    1    2    0    0  0.00000000000E+00  0.00000000000E+00  0.21189525200E+02  0.29992991270E+04  0.29992242759E+04 0.  0.
        1    1    3    3  502    0 -0.12048247911E+04 -0.24877729846E+03  0.86813796667E+03  0.15057079567E+04  0.50400001928E-02 0. -1.
       -1    1    3    3    0  502  0.12048247911E+04  0.24877729846E+03 -0.84694844147E+03  0.14935911703E+04  0.50400001928E-02 0.  1.
</event>
<event>
 5   0  0.6464436E-08  0.3000286E+04  0.7818609E-02  0.8243649E-01
       -1   -1    0    0    0  501  0.00000000000E+00  0.00000000000E+00  0.12924518383E+04  0.12924518383E+04  0.50400001928E-02 0.  1.
        1   -1    0    0  501    0  0.00000000000E+00  0.00000000000E+00 -0.17412093383E+04  0.17412093383E+04  0.50400001928E-02 0. -1.
    10030    2    1    2    0    0  0.00000000000E+00  0.00000000000E+00 -0.44875749997E+03  0.30336611766E+04  0.30002861265E+04 0.  0.
        5    1    3    3  502    0  0.14318721592E+04 -0.43900983363E+03 -0.31147407054E+03  0.15297142546E+04  0.46999998093E+01 0.  1.
       -5    1    3    3    0  502 -0.14318721592E+04  0.43900983363E+03 -0.13728342943E+03  0.15039469220E+04  0.46999998093E+01 0. -1.
</event>
<event>
 5   0  0.1914439E-07  0.3001318E+04  0.7818609E-02  0.8243355E-01
       -2   -1    0    0    0  501  0.00000000000E+00  0.00000000000E+00  0.14443764357E+04  0.14443764357E+04  0.25500000920E-02 0.  1.
        2   -1    0    0  501    0  0.00000000000E+00  0.00000000000E+00 -0.15591342826E+04  0.15591342826E+04  0.25500000920E-02 0. -1.
    10030    2    1    2    0    0  0.00000000000E+00  0.00000000000E+00 -0.11475784688E+03  0.30035107183E+04  0.30013175893E+04 0.  0.
        5    1    3    3  502    0 -0.13576258055E+04  0.59257236303E+03  0.18293170803E+03  0.14925735938E+04  0.46999998093E+01 0.  1.
       -5    1    3    3    0  502  0.13576258055E+04 -0.59257236303E+03 -0.29768955491E+03  0.15109371245E+04  0.46999998093E+01 0. -1.
</event>
<event>
 5   0  0.6679022E-08  0.3002392E+04  0.7818609E-02  0.8243048E-01
       -1   -1    0    0    0  501  0.00000000000E+00  0.00000000000E+00  0.13653916697E+04  0.13653916697E+04  0.50400001928E-02 0. -1.
        1   -1    0    0  501    0  0.00000000000E+00  0.00000000000E+00 -0.16505081417E+04  0.16505081417E+04  0.50400001928E-02 0.  1.
    10030    2    1    2    0    0  0.00000000000E+00  0.00000000000E+00 -0.28511647196E+03  0.30158998114E+04  0.30023924244E+04 0.  0.
        3    1    3    3  502    0 -0.33955668915E+03  0.53001552090E+03  0.12264284864E+04  0.13785289405E+04  0.10100000352E+00 0. -1.
       -3    1    3    3    0  502  0.33955668915E+03 -0.53001552090E+03 -0.15115449583E+04  0.16373708709E+04  0.10100000352E+00 0.  1.
</event>
<event>
 5   0  0.1821305E-07  0.2999352E+04  0.7818609E-02  0.8243916E-01
       -2   -1    0    0    0  501  0.00000000000E+00  0.00000000000E+00  0.14486583335E+04  0.14486583335E+04  0.25500000920E-02 0. -1.
        2   -1    0    0  501    0  0.00000000000E+00  0.00000000000E+00 -0.15524903610E+04  0.15524903610E+04  0.25500000920E-02 0.  1.
    10030    2    1    2    0    0  0.00000000000E+00  0.00000000000E+00 -0.10383202754E+03  0.30011486945E+04  0.29993519961E+04 0.  0.
        2    1    3    3  502    0 -0.11451274529E+04 -0.22158275659E+03  0.89131101378E+03  0.14679411176E+04  0.25500000920E-02 0. -1.
       -2    1    3    3    0  502  0.11451274529E+04  0.22158275659E+03 -0.99514304133E+03  0.15332075770E+04  0.25500000920E-02 0.  1.
</event>
<event>
 5   0  0.6525507E-08  0.3000678E+04  0.7818609E-02  0.8243537E-01
        1   -1    0    0  501    0  0.00000000000E+00  0.00000000000E+00  0.18277486635E+04  0.18277486635E+04  0.50400001928E-02 0. -1.
       -1   -1    0    0    0  501  0.00000000000E+00  0.00000000000E+00 -0.12315794862E+04  0.12315794863E+04  0.50400001928E-02 0.  1.
    10030    2    1    2    0    0  0.00000000000E+00  0.00000000000E+00  0.59616917726E+03  0.30593281498E+04  0.30006784300E+04 0.  0.
        4    1    3    3  502    0 -0.12195603416E+04  0.66449935909E+03  0.87674228746E+03  0.16424267036E+04  0.12699999809E+01 0. -1.
       -4    1    3    3    0  502  0.12195603416E+04 -0.66449935909E+03 -0.28057311020E+03  0.14169014462E+04  0.12699999809E+01 0.  1.
</event>
<event>
 5   0  0.6464436E-08  0.3000098E+04  0.7818609E-02  0.8243703E-01
        1   -1    0    0  501    0  0.00000000000E+00  0.00000000000E+00  0.24660435601E+04  0.24660435601E+04  0.50400001928E-02 0. -1.
       -1   -1    0    0    0  501  0.00000000000E+00  0.00000000000E+00 -0.91245222786E+03  0.91245222788E+03  0.50400001928E-02 0.  1.
    10030    2    1    2    0    0  0.00000000000E+00  0.00000000000E+00  0.15535913323E+04  0.33784957880E+04  0.30000979587E+04 0.  0.
        5    1    3    3  502    0 -0.14130547213E+04  0.15186901784E+03  0.23632788996E+03  0.14407153798E+04  0.46999998093E+01 0.  1.
       -5    1    3    3    0  502  0.14130547213E+04 -0.15186901784E+03  0.13172634423E+04  0.19377804082E+04  0.46999998093E+01 0. -1.
</event>
<event>
 5   0  0.6374748E-08  0.2999783E+04  0.7818609E-02  0.8243793E-01
       -1   -1    0    0    0  501  0.00000000000E+00  0.00000000000E+00  0.28071982933E+04  0.28071982933E+04  0.50400001928E-02 0.  1.
        1   -1    0    0  501    0  0.00000000000E+00  0.00000000000E+00 -0.80139486298E+03  0.80139486300E+03  0.50400001928E-02 0. -1.
    10030    2    1    2    0    0  0.00000000000E+00  0.00000000000E+00  0.20058034303E+04  0.36085931563E+04  0.29997828532E+04 0.  0.
        1    1    3    3  502    0 -0.34684780766E+03  0.12598716828E+04  0.18885993732E+04  0.22966035032E+04  0.50400001928E-02 0.  1.
       -1    1    3    3    0  502  0.34684780766E+03 -0.12598716828E+04  0.11720405715E+03  0.13119896531E+04  0.50400001928E-02 0. -1.
</event>
<event>
 5   0  0.6636007E-08  0.2999840E+04  0.7818609E-02  0.8243777E-01
        1   -1    0    0  501    0  0.00000000000E+00  0.00000000000E+00  0.17893723424E+04  0.17893723425E+04  0.50400001928E-02 0. -1.
       -1   -1    0    0    0  501  0.00000000000E+00  0.00000000000E+00 -0.12572897787E+04  0.12572897788E+04  0.50400001928E-02 0.  1.
    10030    2    1    2    0    0  0.00000000000E+00  0.00000000000E+00  0.53208256370E+03  0.30466621212E+04  0.29998397001E+04 0.  0.
        2    1    3    3  502    0 -0.11331641743E+04 -0.24218832067E+03  0.12332946736E+04  0.16922564760E+04  0.25500000920E-02 0. -1.
       -2    1    3    3    0  502  0.11331641743E+04  0.24218832067E+03 -0.70121210989E+03  0.13544056452E+04  0.25500000920E-02 0.  1.
</event>
<event>
 5   0  0.1813720E-07  0.3000057E+04  0.7818609E-02  0.8243715E-01
        2   -1    0    0  501    0  0.00000000000E+00  0.00000000000E+00  0.29210325483E+04  0.29210325483E+04  0.25500000920E-02 0.  1.
       -2   -1    0    0    0  501  0.00000000000E+00  0.00000000000E+00 -0.77030468141E+03  0.77030468142E+03  0.25500000920E-02 0. -1.
    10030    2    1    2    0    0  0.00000000000E+00  0.00000000000E+00  0.21507278669E+04  0.36913372297E+04  0.30000566971E+04 0.  0.
        3    1    3    3  502    0  0.45017847395E+03  0.10415002527E+04  0.22826219770E+04  0.25490677776E+04  0.10100000352E+00 0.  1.
       -3    1    3    3    0  502 -0.45017847395E+03 -0.10415002527E+04 -0.13189411013E+03  0.11422694521E+04  0.10100000352E+00 0. -1.
</event>
<event>
 5   0  0.1817566E-07  0.2998044E+04  0.7818609E-02  0.8244290E-01
       -2   -1    0    0    0  501  0.00000000000E+00  0.00000000000E+00  0.77305968638E+03  0.77305968639E+03  0.25500000920E-02 0.  1.
        2   -1    0    0  501    0  0.00000000000E+00  0.00000000000E+00 -0.29067192420E+04  0.29067192420E+04  0.25500000920E-02 0. -1.
    10030    2    1    2    0    0  0.00000000000E+00  0.00000000000E+00 -0.21336595557E+04  0.36797789284E+04  0.29980443397E+04 0.  0.
        1    1    3    3  502    0  0.10029350660E+04  0.11045127480E+04 -0.88794882982E+03  0.17361682757E+04  0.50400001928E-02 0.  1.
       -1    1    3    3    0  502 -0.10029350660E+04 -0.11045127480E+04 -0.12457107258E+04  0.19436106528E+04  0.50400001928E-02 0. -1.
</event>
<event>
 5   0  0.6636007E-08  0.3001084E+04  0.7818609E-02  0.8243421E-01
       -1   -1    0    0    0  501  0.00000000000E+00  0.00000000000E+00  0.17665885485E+04  0.17665885485E+04  0.50400001928E-02 0. -1.
        1   -1    0    0  501    0  0.00000000000E+00  0.00000000000E+00 -0.12745615900E+04  0.12745615900E+04  0.50400001928E-02 0.  1.
    10030    2    1    2    0    0  0.00000000000E+00  0.00000000000E+00  0.49202695852E+03  0.30411501386E+04  0.30010837438E+04 0.  0.
        2    1    3    3  502    0 -0.11206156127E+04 -0.42562114791E+03 -0.66864042329E+03  0.13725934317E+04  0.25500000920E-02 0.  1.
       -2    1    3    3    0  502  0.11206156127E+04  0.42562114791E+03  0.11606673818E+04  0.16685567069E+04  0.25500000920E-02 0. -1.
</event>
<event>
 5   0  0.6525507E-08  0.2998856E+04  0.7818609E-02  0.8244058E-01
       -1   -1    0    0    0  501  0.00000000000E+00  0.00000000000E+00  0.15365569101E+04  0.15365569101E+04  0.50400001928E-02 0.  1.
        1   -1    0    0  501    0  0.00000000000E+00  0.00000000000E+00 -0.14631964301E+04  0.14631964301E+04  0.50400001928E-02 0. -1.
    10030    2    1    2    0    0  0.00000000000E+00  0.00000000000E+00  0.73360480044E+02  0.29997533402E+04  0.29988561723E+04 0.  0.
        4    1    3    3  502    0  0.13324424995E+04  0.67492884368E+03  0.16844289593E+03  0.15030989923E+04  0.12699999809E+01 0. -1.
       -4    1    3    3    0  502 -0.13324424995E+04 -0.67492884368E+03 -0.95082415886E+02  0.14966543479E+04  0.12699999809E+01 0.  1.
</event>
<event>
 5   0  0.6679022E-08  0.3003637E+04  0.7818609E-02  0.8242693E-01
       -1   -1    0    0    0  501  0.00000000000E+00  0.00000000000E+00  0.87709514578E+03  0.87709514579E+03  0.50400001928E-02 0. -1.
        1   -1    0    0  501    0  0.00000000000E+00  0.00000000000E+00 -0.25715092677E+04  0.25715092677E+04  0.50400001928E-02 0.  1.
    10030    2    1    2    0    0  0.00000000000E+00  0.00000000000E+00 -0.16944141219E+04  0.34486044135E+04  0.30036366598E+04 0.  0.
        3    1    3    3  502    0 -0.77381861534E+03  0.63743419445E+03  0.43663075747E+03  0.10935099589E+04  0.10100000352E+00 0. -1.
       -3    1    3    3    0  502  0.77381861534E+03 -0.63743419445E+03 -0.21310448794E+04  0.23550944545E+04  0.10100000352E+00 0.  1.
</event>
<event>
 5   0  0.6525507E-08  0.2999947E+04  0.7818609E-02  0.8243746E-01
       -1   -1    0    0    0  501  0.00000000000E+00  0.00000000000E+00  0.11807095388E+04  0.11807095388E+04  0.50400001928E-02 0. -1.
        1   -1    0    0  501    0  0.00000000000E+00  0.00000000000E+00 -0.19055661560E+04  0.19055661560E+04  0.50400001928E-02 0.  1.
    10030    2    1    2    0    0  0.00000000000E+00  0.00000000000E+00 -0.72485661721E+03  0.30862756948E+04  0.29999467577E+04 0.  0.
        4    1    3    3  502    0  0.94372480331E+03  0.38778954864E+03  0.76872164974E+03  0.12774708709E+04  0.12699999809E+01 0. -1.
       -4    1    3    3    0  502 -0.94372480331E+03 -0.38778954864E+03 -0.14935782669E+04  0.18088048239E+04  0.12699999809E+01 0.  1.
</event>
<event>
 5   0  0.1821305E-07  0.2990136E+04  0.7818609E-02  0.8246553E-01
        2   -1    0    0  501    0  0.00000000000E+00  0.00000000000E+00  0.15825789912E+04  0.15825789912E+04  0.25500000920E-02 0. -1.
       -2   -1    0    0    0  501  0.00000000000E+00  0.00000000000E+00 -0.14123958047E+04  0.14123958047E+04  0.25500000920E-02 0.  1.
    10030    2    1    2    0    0  0.00000000000E+00  0.00000000000E+00  0.17018318651E+03  0.29949747959E+04  0.29901357346E+04 0.  0.
        2    1    3    3  502    0 -0.11069163105E+04  0.32940208330E+03  0.10360798022E+04  0.15515253164E+04  0.25500000920E-02 0. -1.
       -2    1    3    3    0  502  0.11069163105E+04 -0.32940208330E+03 -0.86589661567E+03  0.14434494795E+04  0.25500000920E-02 0.  1.
</event>
<event>
 5   0  0.1817566E-07  0.2998286E+04  0.7818609E-02  0.8244221E-01
       -2   -1    0    0    0  501  0.00000000000E+00  0.00000000000E+00  0.88302745830E+03  0.88302745831E+03  0.25500000920E-02 0. -1.
        2   -1    0    0  501    0  0.00000000000E+00  0.00000000000E+00 -0.25451409508E+04  0.25451409508E+04  0.25500000920E-02 0.  1.
    10030    2    1    2    0    0  0.00000000000E+00  0.00000000000E+00 -0.16621134925E+04  0.34281684091E+04  0.29982857401E+04 0.  0.
        1    1    3    3  502    0  0.79063293974E+03 -0.44477946658E+03 -0.21957039046E+04  0.23757198606E+04  0.50400001928E-02 0.  1.
       -1    1    3    3    0  502 -0.79063293974E+03  0.44477946658E+03  0.53359041212E+03  0.10524485485E+04  0.50400001928E-02 0. -1.
</event>
<event>
 5   0  0.6374748E-08  0.2999611E+04  0.7818609E-02  0.8243842E-01
       -1   -1    0    0    0  501  0.00000000000E+00  0.00000000000E+00  0.83006987217E+03  0.83006987218E+03  0.50400001928E-02 0.  1.
        1   -1    0    0  501    0  0.00000000000E+00  0.00000000000E+00 -0.27099118949E+04  0.27099118949E+04  0.50400001928E-02 0. -1.
    10030    2    1    2    0    0  0.00000000000E+00  0.00000000000E+00 -0.18798420227E+04  0.35399817671E+04  0.29996107882E+04 0.  0.
        1    1    3    3  502    0  0.12079702958E+03  0.14342058394E+04 -0.14376548012E+04  0.20343032319E+04  0.50400001928E-02 0. -1.
       -1    1    3    3    0  502 -0.12079702958E+03 -0.14342058394E+04 -0.44218722158E+03  0.15056785351E+04  0.50400001928E-02 0.  1.
</event>
<event>
 5   0  0.1821305E-07  0.2998310E+04  0.7818609E-02  0.8244214E-01
        2   -1    0    0  501    0  0.00000000000E+00  0.00000000000E+00  0.22556837291E+04  0.22556837291E+04  0.25500000920E-02 0.  1.
       -2   -1    0    0    0  501  0.00000000000E+00  0.00000000000E+00 -0.99635671673E+03  0.99635671673E+03  0.25500000920E-02 0. -1.
    10030    2    1    2    0    0  0.00000000000E+00  0.00000000000E+00  0.12593270124E+04  0.32520404458E+04  0.29983099468E+04 0.  0.
        2    1    3    3  502    0  0.24039547304E+03  0.14483109497E+04  0.30055360620E+03  0.14985750100E+04  0.25500000920E-02 0.  1.
       -2    1    3    3    0  502 -0.24039547304E+03 -0.14483109497E+04  0.95877340619E+03  0.17534654359E+04  0.25500000920E-02 0. -1.
</event>
<event>
 5   0  0.6679022E-08  0.3000176E+04  0.7818609E-02  0.8243681E-01
        1   -1    0    0  501    0  0.00000000000E+00  0.00000000000E+00  0.11288188845E+04  0.11288188845E+04  0.50400001928E-02 0.  1.
       -1   -1    0    0    0  501  0.00000000000E+00  0.00000000000E+00 -0.19934670557E+04  0.19934670557E+04  0.50400001928E-02 0. -1.
    10030    2    1    2    0    0  0.00000000000E+00  0.00000000000E+00 -0.86464817128E+03  0.31222859402E+04  0.30001755002E+04 0.  0.
        3    1    3    3  502    0 -0.12179109590E+04  0.78957354483E+03 -0.38051124909E+02  0.14519577766E+04  0.10100000352E+00 0.  1.
       -3    1    3    3    0  502  0.12179109590E+04 -0.78957354483E+03 -0.82659704637E+03  0.16703281636E+04  0.10100000352E+00 0. -1.
</event>
<event>
 5   0  0.1817566E-07  0.2999636E+04  0.7818609E-02  0.8243835E-01
       -2   -1    0    0    0  501  0.00000000000E+00  0.00000000000E+00  0.10750249061E+04  0.10750249061E+04  0.25500000920E-02 0. -1.
        2   -1    0    0  501    0  0.00000000000E+00  0.00000000000E+00 -0.20924675736E+04  0.20924675736E+04  0.25500000920E-02 0.  1.
    10030    2    1    2    0    0  0.00000000000E+00  0.00000000000E+00 -0.10174426675E+04  0.31674924797E+04  0.29996364825E+04 0.  0.
        1    1    3    3  502    0 -0.25626782635E+03 -0.10361374709E+04 -0.16213435149E+04  0.19411359692E+04  0.50400001928E-02 0.  1.
       -1    1    3    3    0  502  0.25626782635E+03  0.10361374709E+04  0.60390084742E+03  0.12263565105E+04  0.50400001928E-02 0. -1.
</event>
<event>
 5   0  0.6679022E-08  0.2998241E+04  0.7818609E-02  0.8244233E-01
       -1   -1    0    0    0  501  0.00000000000E+00  0.00000000000E+00  0.10191746525E+04  0.10191746525E+04  0.50400001928E-02 0.  1.
        1   -1    0    0  501    0  0.00000000000E+00  0.00000000000E+00 -0.22050803122E+04  0.22050803122E+04  0.50400001928E-02 0. -1.
    10030    2    1    2    0    0  0.00000000000E+00  0.00000000000E+00 -0.11859056597E+04  0.32242549647E+04  0.29982407915E+04 0.  0.
        3    1    3    3  502    0 -0.75950053668E+03 -0.90225307542E+03 -0.15881668380E+04  0.19781748135E+04  0.10100000352E+00 0.  1.
       -3    1    3    3    0  502  0.75950053668E+03  0.90225307542E+03  0.40226117832E+03  0.12460801512E+04  0.10100000352E+00 0. -1.
</event>
<event>
 5   0  0.1914439E-07  0.3006315E+04  0.7818609E-02  0.8241930E-01
        2   -1    0    0  501    0  0.00000000000E+00  0.00000000000E+00  0.14421009570E+04  0.14421009570E+04  0.25500000920E-02 0. -1.
       -2   -1    0    0    0  501  0.00000000000E+00  0.00000000000E+00 -0.15667991767E+04  0.15667991767E+04  0.25500000920E-02 0.  1.
    10030    2    1    2    0    0  0.00000000000E+00  0.00000000000E+00 -0.12469821968E+03  0.30089001337E+04  0.30063150814E+04 0.  0.
        5    1    3    3  502    0 -0.14313183371E+04 -0.40581737390E+03 -0.27724418813E+03  0.15133559901E+04  0.46999998093E+01 0. -1.
       -5    1    3    3    0  502  0.14313183371E+04  0.40581737390E+03  0.15254596846E+03  0.14955441436E+04  0.46999998093E+01 0.  1.
</event>
<event>
 5   0  0.1817566E-07  0.2996707E+04  0.7818609E-02  0.8244672E-01
       -2   -1    0    0    0  501  0.00000000000E+00  0.00000000000E+00  0.29794477908E+04  0.29794477908E+04  0.25500000920E-02 0. -1.
        2   -1    0    0  501    0  0.00000000000E+00  0.00000000000E+00 -0.75351640737E+03  0.75351640737E+03  0.25500000920E-02 0.  1.
    10030    2    1    2    0    0  0.00000000000E+00  0.00000000000E+00  0.22259313834E+04  0.37329641981E+04  0.29967067225E+04 0.  0.
        1    1    3    3  502    0  0.37867509483E+03  0.13017427646E+04  0.19078027939E+04  0.23404359750E+04  0.50400001928E-02 0. -1.
       -1    1    3    3    0  502 -0.37867509483E+03 -0.13017427646E+04  0.31812858946E+03  0.13925282231E+04  0.50400001928E-02 0.  1.
</event>
<event>
 5   0  0.6636007E-08  0.3000901E+04  0.7818609E-02  0.8243474E-01
       -1   -1    0    0    0  501  0.00000000000E+00  0.00000000000E+00  0.12557674967E+04  0.12557674967E+04  0.50400001928E-02 0. -1.
        1   -1    0    0  501    0  0.00000000000E+00  0.00000000000E+00 -0.17928097635E+04  0.17928097635E+04  0.50400001928E-02 0.  1.
    10030    2    1    2    0    0  0.00000000000E+00  0.00000000000E+00 -0.53704226672E+03  0.30485772602E+04  0.30009013505E+04 0.  0.
        2    1    3    3  502    0  0.88203804466E+03  0.10892074118E+04  0.27570276124E+03  0.14284172747E+04  0.25500000920E-02 0. -1.
       -2    1    3    3    0  502 -0.88203804466E+03 -0.10892074118E+04 -0.81274502796E+03  0.16201599855E+04  0.25500000920E-02 0.  1.
</event>
<event>
 5   0  0.1821305E-07  0.2999267E+04  0.7818609E-02  0.8243940E-01
       -2   -1    0    0    0  501  0.00000000000E+00  0.00000000000E+00  0.21142758266E+04  0.21142758266E+04  0.25500000920E-02 0.  1.
        2   -1    0    0  501    0  0.00000000000E+00  0.00000000000E+00 -0.10636739712E+04  0.10636739712E+04  0.25500000920E-02 0. -1.
    10030    2    1    2    0    0  0.00000000000E+00  0.00000000000E+00  0.10506018554E+04  0.31779497978E+04  0.29992666868E+04 0.  0.
        2    1    3    3  502    0 -0.46713537613E+03  0.44903200485E+03 -0.90769622260E+03  0.11152388235E+04  0.25500000920E-02 0. -1.
       -2    1    3    3    0  502  0.46713537613E+03 -0.44903200485E+03  0.19582980780E+04  0.20627109742E+04  0.25500000920E-02 0.  1.
</event>
<event>
 5   0  0.1817566E-07  0.3000915E+04  0.7818609E-02  0.8243470E-01
       -2   -1    0    0    0  501  0.00000000000E+00  0.00000000000E+00  0.11907387053E+04  0.11907387053E+04  0.25500000920E-02 0.  1.
        2   -1    0    0  501    0  0.00000000000E+00  0.00000000000E+00 -0.18907360874E+04  0.18907360874E+04  0.25500000920E-02 0. -1.
    10030    2    1    2    0    0  0.00000000000E+00  0.00000000000E+00 -0.69999738208E+03  0.30814747928E+04  0.30009149544E+04 0.  0.
        1    1    3    3  502    0  0.10895821571E+04 -0.74220602064E+03  0.38569377997E+03  0.13736152103E+04  0.50400001928E-02 0.  1.
       -1    1    3    3    0  502 -0.10895821571E+04  0.74220602064E+03 -0.10856911620E+04  0.17078595825E+04  0.50400001928E-02 0. -1.
</event>
<event>
 5   0  0.6636007E-08  0.3000271E+04  0.7818609E-02  0.8243653E-01
       -1   -1    0    0    0  501  0.00000000000E+00  0.00000000000E+00  0.13567280412E+04  0.13567280412E+04  0.50400001928E-02 0. -1.
        1   -1    0    0  501    0  0.00000000000E+00  0.00000000000E+00 -0.16587017677E+04  0.16587017678E+04  0.50400001928E-02 0.  1.
    10030    2    1    2    0    0  0.00000000000E+00  0.00000000000E+00 -0.30197372651E+03  0.30154298090E+04  0.30002714546E+04 0.  0.
        2    1    3    3  502    0  0.62496441111E+01  0.13136062515E+03 -0.16528971013E+04  0.16581204719E+04  0.25500000920E-02 0.  1.
       -2    1    3    3    0  502 -0.62496441111E+01 -0.13136062515E+03  0.13509233748E+04  0.13573093371E+04  0.25500000920E-02 0. -1.
</event>
<event>
 5   0  0.6525507E-08  0.3001674E+04  0.7818609E-02  0.8243253E-01
       -1   -1    0    0    0  501  0.00000000000E+00  0.00000000000E+00  0.84583507983E+03  0.84583507984E+03  0.50400001928E-02 0.  1.
        1   -1    0    0  501    0  0.00000000000E+00  0.00000000000E+00 -0.26630622903E+04  0.26630622903E+04  0.50400001928E-02 0. -1.
    10030    2    1    2    0    0  0.00000000000E+00  0.00000000000E+00 -0.18172272104E+04  0.35088973701E+04  0.30016738696E+04 0.  0.
        4    1    3    3  502    0  0.12194873734E+04  0.75477817214E+03 -0.14257078107E+04  0.20222472444E+04  0.12699999809E+01 0. -1.
       -4    1    3    3    0  502 -0.12194873734E+04 -0.75477817214E+03 -0.39151939973E+03  0.14866501257E+04  0.12699999809E+01 0.  1.
</event>
<event>
 5   0  0.1914439E-07  0.3000301E+04  0.7818609E-02  0.8243645E-01
        2   -1    0    0  501    0  0.00000000000E+00  0.00000000000E+00  0.21454038637E+04  0.21454038637E+04  0.25500000920E-02 0.  1.
       -2   -1    0    0    0  501  0.00000000000E+00  0.00000000000E+00 -0.10489642369E+04  0.10489642369E+04  0.25500000920E-02 0. -1.
    10030    2    1    2    0    0  0.00000000000E+00  0.00000000000E+00  0.10964396268E+04  0.31943681006E+04  0.30003012694E+04 0.  0.
        5    1    3    3  502    0  0.11082538500E+04  0.29536942968E+03  0.15776968002E+04  0.19505432524E+04  0.46999998093E+01 0.  1.
       -5    1    3    3    0  502 -0.11082538500E+04 -0.29536942968E+03 -0.48125717346E+03  0.12438248482E+04  0.46999998093E+01 0. -1.
</event>
<event>
 5   0  0.6679022E-08  0.3000118E+04  0.7818609E-02  0.8243697E-01
       -1   -1    0    0    0  501  0.00000000000E+00  0.00000000000E+00  0.12907351093E+04  0.12907351094E+04  0.50400001928E-02 0.  1.
        1   -1    0    0  501    0  0.00000000000E+00  0.00000000000E+00 -0.17433299222E+04  0.17433299222E+04  0.50400001928E-02 0. -1.
    10030    2    1    2    0    0  0.00000000000E+00  0.00000000000E+00 -0.45259481287E+03  0.30340650316E+04  0.30001180895E+04 0.  0.
        3    1    3    3  502    0 -0.23587491081E+03 -0.52580517319E+03 -0.16269120320E+04  0.17259637377E+04  0.10100000352E+00 0. -1.
       -3    1    3    3    0  502  0.23587491081E+03  0.52580517319E+03  0.11743172191E+04  0.13081012939E+04  0.10100000352E+00 0.  1.
</event>
<event>
 5   0  0.6679022E-08  0.3000344E+04  0.7818609E-02  0.8243633E-01
       -1   -1    0    0    0  501  0.00000000000E+00  0.00000000000E+00  0.89657074044E+03  0.89657074045E+03  0.50400001928E-02 0. -1.
        1   -1    0    0  501    0  0.00000000000E+00  0.00000000000E+00 -0.25101371317E+04  0.25101371317E+04  0.50400001928E-02 0.  1.
    10030    2    1    2    0    0  0.00000000000E+00  0.00000000000E+00 -0.16135663913E+04  0.34067078722E+04  0.30003436515E+04 0.  0.
        3    1    3    3  502    0  0.13116936829E+04  0.74642484838E+02  0.15453316785E+02  0.13139066304E+04  0.10100000352E+00 0. -1.
       -3    1    3    3    0  502 -0.13116936829E+04 -0.74642484838E+02 -0.16290197081E+04  0.20928012418E+04  0.10100000352E+00 0.  1.
</event>
<event>
 5   0  0.1813720E-07  0.2999993E+04  0.7818609E-02  0.8243733E-01
        2   -1    0    0  501    0  0.00000000000E+00  0.00000000000E+00  0.19923646899E+04  0.19923646899E+04  0.25500000920E-02 0. -1.
       -2   -1    0    0    0  501  0.00000000000E+00  0.00000000000E+00 -0.11293064053E+04  0.11293064053E+04  0.25500000920E-02 0.  1.
    10030    2    1    2    0    0  0.00000000000E+00  0.00000000000E+00  0.86305828462E+03  0.31216710953E+04  0.29999934707E+04 0.  0.
        3    1    3    3  502    0 -0.14014250707E+03  0.65994691692E+03  0.18255758495E+04  0.19462520515E+04  0.10100000352E+00 0. -1.
       -3    1    3    3    0  502  0.14014250707E+03 -0.65994691692E+03 -0.96251756490E+03  0.11754190437E+04  0.10100000352E+00 0.  1.
</event>
<event>
 5   0  0.1914439E-07  0.3000459E+04  0.7818609E-02  0.8243600E-01
       -2   -1    0    0    0  501  0.00000000000E+00  0.00000000000E+00  0.13638115687E+04  0.13638115687E+04  0.25500000920E-02 0.  1.
        2   -1    0    0  501    0  0.00000000000E+00  0.00000000000E+00 -0.16502925678E+04  0.16502925678E+04  0.25500000920E-02 0. -1.
    10030    2    1    2    0    0  0.00000000000E+00  0.00000000000E+00 -0.28648099905E+03  0.30141041365E+04  0.30004586954E+04 0.  0.
        5    1    3    3  502    0  0.12434499932E+04  0.69081489851E+03 -0.62214004345E+03  0.15525699447E+04  0.46999998093E+01 0.  1.
       -5    1    3    3    0  502 -0.12434499932E+04 -0.69081489851E+03  0.33565904440E+03  0.14615341918E+04  0.46999998093E+01 0. -1.
</event>
<event>
 5   0  0.6464436E-08  0.3000666E+04  0.7818609E-02  0.8243541E-01
        1   -1    0    0  501    0  0.00000000000E+00  0.00000000000E+00  0.12596418801E+04  0.12596418801E+04  0.50400001928E-02 0.  1.
       -1   -1    0    0    0  501  0.00000000000E+00  0.00000000000E+00 -0.17870146624E+04  0.17870146624E+04  0.50400001928E-02 0. -1.
    10030    2    1    2    0    0  0.00000000000E+00  0.00000000000E+00 -0.52737278234E+03  0.30466565425E+04  0.30006655989E+04 0.  0.
        5    1    3    3  502    0  0.82862740958E+01  0.26910229021E+03 -0.17622799262E+04  0.17827331077E+04  0.46999998093E+01 0. -1.
       -5    1    3    3    0  502 -0.82862740958E+01 -0.26910229021E+03  0.12349071439E+04  0.12639234348E+04  0.46999998093E+01 0.  1.
</event>
<event>
 5   0  0.6636007E-08  0.3000151E+04  0.7818609E-02  0.8243688E-01
       -1   -1    0    0    0  501  0.00000000000E+00  0.00000000000E+00  0.15782836604E+04  0.15782836604E+04  0.50400001928E-02 0. -1.
        1   -1    0    0  501    0  0.00000000000E+00  0.00000000000E+00 -0.14257428975E+04  0.14257428975E+04  0.50400001928E-02 0.  1.
    10030    2    1    2    0    0  0.00000000000E+00  0.00000000000E+00  0.15254076284E+03  0.30040265579E+04  0.30001511422E+04 0.  0.
        2    1    3    3  502    0 -0.11121664646E+04 -0.80045703697E+03 -0.53491222917E+03  0.14709781799E+04  0.25500000920E-02 0.  1.
       -2    1    3    3    0  502  0.11121664646E+04  0.80045703697E+03  0.68745299202E+03  0.15330483780E+04  0.25500000920E-02 0. -1.
</event>
<event>
 5   0  0.1810055E-07  0.2999680E+04  0.7818609E-02  0.8243822E-01
       -2   -1    0    0    0  501  0.00000000000E+00  0.00000000000E+00  0.18063874173E+04  0.18063874173E+04  0.25500000920E-02 0.  1.
        2   -1    0    0  501    0  0.00000000000E+00  0.00000000000E+00 -0.12453145916E+04  0.12453145917E+04  0.25500000920E-02 0. -1.
    10030    2    1    2    0    0  0.00000000000E+00  0.00000000000E+00  0.56107282560E+03  0.30517020089E+04  0.29996803889E+04 0.  0.
        4    1    3    3  502    0 -0.58000444040E+03  0.11805548509E+04 -0.45265913978E+03  0.13910488189E+04  0.12699999809E+01 0. -1.
       -4    1    3    3    0  502  0.58000444040E+03 -0.11805548509E+04  0.10137319654E+04  0.16606531900E+04  0.12699999809E+01 0.  1.
</event>
<event>
 5   0  0.1914439E-07  0.2999002E+04  0.7818609E-02  0.8244016E-01
        2   -1    0    0  501    0  0.00000000000E+00  0.00000000000E+00  0.18188962743E+04  0.18188962743E+04  0.25500000920E-02 0. -1.
       -2   -1    0    0    0  501  0.00000000000E+00  0.00000000000E+00 -0.12361913317E+04  0.12361913317E+04  0.25500000920E-02 0.  1.
    10030    2    1    2    0    0  0.00000000000E+00  0.00000000000E+00  0.58270494253E+03  0.30550876060E+04  0.29990023725E+04 0.  0.
        5    1    3    3  502    0 -0.49251805006E+03 -0.12259675401E+04  0.10137771055E+04  0.16653337650E+04  0.46999998093E+01 0. -1.
       -5    1    3    3    0  502  0.49251805006E+03  0.12259675401E+04 -0.43107216301E+03  0.13897538411E+04  0.46999998093E+01 0.  1.
</event>
<event>
 5   0  0.6374748E-08  0.3003342E+04  0.7818609E-02  0.8242777E-01
       -1   -1    0    0    0  501  0.00000000000E+00  0.00000000000E+00  0.74524661519E+03  0.74524661521E+03  0.50400001928E-02 0. -1.
        1   -1    0    0  501    0  0.00000000000E+00  0.00000000000E+00 -0.30258642407E+04  0.30258642407E+04  0.50400001928E-02 0.  1.
    10030    2    1    2    0    0  0.00000000000E+00  0.00000000000E+00 -0.22806176255E+04  0.37711108559E+04  0.30033415280E+04 0.  0.
        1    1    3    3  502    0 -0.94913551371E+02  0.13567247360E+04 -0.19396925090E+04  0.23689908444E+04  0.50400001928E-02 0.  1.
       -1    1    3    3    0  502  0.94913551371E+02 -0.13567247360E+04 -0.34092511653E+03  0.14021200115E+04  0.50400001928E-02 0. -1.
</event>
<event>
 5   0  0.1821305E-07  0.2998288E+04  0.7818609E-02  0.8244220E-01
       -2   -1    0    0    0  501  0.00000000000E+00  0.00000000000E+00  0.21713377106E+04  0.21713377106E+04  0.25500000920E-02 0. -1.
        2   -1    0    0  501    0  0.00000000000E+00  0.00000000000E+00 -0.10350454545E+04  0.10350454545E+04  0.25500000920E-02 0.  1.
    10030    2    1    2    0    0  0.00000000000E+00  0.00000000000E+00  0.11362922561E+04  0.32063831650E+04  0.29982883300E+04 0.  0.
        2    1    3    3  502    0 -0.28283224901E+03  0.13001797678E+04 -0.17041821951E+03  0.13414558805E+04  0.25500000920E-02 0.  1.
       -2    1    3    3    0  502  0.28283224901E+03 -0.13001797678E+04  0.13067104756E+04  0.18649272846E+04  0.25500000920E-02 0. -1.
</event>
<event>
 5   0  0.6636007E-08  0.3000035E+04  0.7818609E-02  0.8243721E-01
       -1   -1    0    0    0  501  0.00000000000E+00  0.00000000000E+00  0.15959662874E+04  0.15959662874E+04  0.50400001928E-02 0. -1.
        1   -1    0    0  501    0  0.00000000000E+00  0.00000000000E+00 -0.14098371662E+04  0.14098371662E+04  0.50400001928E-02 0.  1.
    10030    2    1    2    0    0  0.00000000000E+00  0.00000000000E+00  0.18612912122E+03  0.30058034536E+04  0.30000350584E+04 0.  0.
        2    1    3    3  502    0 -0.23086876551E+03 -0.64714569071E+03 -0.12428989292E+04  0.14201745245E+04  0.25500000920E-02 0.  1.
       -2    1    3    3    0  502  0.23086876551E+03  0.64714569071E+03  0.14290280504E+04  0.15856289291E+04  0.25500000920E-02 0. -1.
</event>
<event>
 5   0  0.1817566E-07  0.2999948E+04  0.7818609E-02  0.8243746E-01
        2   -1    0    0  501    0  0.00000000000E+00  0.00000000000E+00  0.14167159991E+04  0.14167159991E+04  0.25500000920E-02 0. -1.
       -2   -1    0    0    0  501  0.00000000000E+00  0.00000000000E+00 -0.15881250891E+04  0.15881250891E+04  0.25500000920E-02 0.  1.
    10030    2    1    2    0    0  0.00000000000E+00  0.00000000000E+00 -0.17140909000E+03  0.30048410883E+04  0.29999481478E+04 0.  0.
        1    1    3    3  502    0 -0.15507013316E+03 -0.11853417829E+04 -0.99318463421E+03  0.15541871207E+04  0.50400001928E-02 0.  1.
       -1    1    3    3    0  502  0.15507013316E+03  0.11853417829E+04  0.82177554421E+03  0.14506539676E+04  0.50400001928E-02 0. -1.
</event>
<event>
 5   0  0.6679022E-08  0.2996415E+04  0.7818609E-02  0.8244755E-01
       -1   -1    0    0    0  501  0.00000000000E+00  0.00000000000E+00  0.10091252438E+04  0.10091252438E+04  0.50400001928E-02 0.  1.
        1   -1    0    0  501    0  0.00000000000E+00  0.00000000000E+00 -0.22243284543E+04  0.22243284543E+04  0.50400001928E-02 0. -1.
    10030    2    1    2    0    0  0.00000000000E+00  0.00000000000E+00 -0.12152032105E+04  0.32334536982E+04  0.29964151874E+04 0.  0.
        3    1    3    3  502    0 -0.10174428657E+04 -0.10973305606E+04 -0.52902925274E+03  0.15871976262E+04  0.10100000352E+00 0. -1.
       -3    1    3    3    0  502  0.10174428657E+04  0.10973305606E+04 -0.68617395777E+03  0.16462560720E+04  0.10100000352E+00 0.  1.
</event>
<event>
 5   0  0.6679022E-08  0.2999540E+04  0.7818609E-02  0.8243862E-01
        1   -1    0    0  501    0  0.00000000000E+00  0.00000000000E+00  0.17149258987E+04  0.17149258987E+04  0.50400001928E-02 0.  1.
       -1   -1    0    0    0  501  0.00000000000E+00  0.00000000000E+00 -0.13116080345E+04  0.13116080345E+04  0.50400001928E-02 0. -1.
    10030    2    1    2    0    0  0.00000000000E+00  0.00000000000E+00  0.40331786420E+03  0.30265339332E+04  0.29995403564E+04 0.  0.
        3    1    3    3  502    0  0.97524973231E+03 -0.16643937677E+02 -0.94785715679E+03  0.13600817111E+04  0.10100000352E+00 0. -1.
       -3    1    3    3    0  502 -0.97524973231E+03  0.16643937677E+02  0.13511750210E+04  0.16664522221E+04  0.10100000352E+00 0.  1.
</event>
<event>
 5   0  0.1810055E-07  0.2999803E+04  0.7818609E-02  0.8243787E-01
       -2   -1    0    0    0  501  0.00000000000E+00  0.00000000000E+00  0.11085784098E+04  0.11085784098E+04  0.25500000920E-02 0.  1.
        2   -1    0    0  501    0  0.00000000000E+00  0.00000000000E+00 -0.20293599148E+04  0.20293599148E+04  0.25500000920E-02 0. -1.
    10030    2    1    2    0    0  0.00000000000E+00  0.00000000000E+00 -0.92078150501E+03  0.31379383245E+04  0.29998030517E+04 0.  0.
        4    1    3    3  502    0  0.31978678442E+03  0.17704802686E+03  0.10612743312E+04  0.11224590907E+04  0.12699999809E+01 0.  1.
       -4    1    3    3    0  502 -0.31978678442E+03 -0.17704802686E+03 -0.19820558362E+04  0.20154792339E+04  0.12699999809E+01 0. -1.
</event>
<event>
 5   0  0.1817566E-07  0.2999949E+04  0.7818609E-02  0.8243745E-01
       -2   -1    0    0    0  501  0.00000000000E+00  0.00000000000E+00  0.16041052885E+04  0.16041052885E+04  0.25500000920E-02 0. -1.
        2   -1    0    0  501    0  0.00000000000E+00  0.00000000000E+00 -0.14026032467E+04  0.14026032467E+04  0.25500000920E-02 0.  1.
    10030    2    1    2    0    0  0.00000000000E+00  0.00000000000E+00  0.20150204178E+03  0.30067085351E+04  0.29999488566E+04 0.  0.
        1    1    3    3  502    0  0.13112665697E+04  0.29882188886E+03 -0.56498113827E+03  0.14587385731E+04  0.50400001928E-02 0.  1.
       -1    1    3    3    0  502 -0.13112665697E+04 -0.29882188886E+03  0.76648318006E+03  0.15479699620E+04  0.50400001928E-02 0. -1.
</event>
<event>
 5   0  0.6636007E-08  0.3000791E+04  0.7818609E-02  0.8243505E-01
        1   -1    0    0  501    0  0.00000000000E+00  0.00000000000E+00  0.18988142831E+04  0.18988142832E+04  0.50400001928E-02 0.  1.
       -1   -1    0    0    0  501  0.00000000000E+00  0.00000000000E+00 -0.11855752230E+04  0.11855752230E+04  0.50400001928E-02 0. -1.
    10030    2    1    2    0    0  0.00000000000E+00  0.00000000000E+00  0.71323906019E+03  0.30843895061E+04  0.30007913404E+04 0.  0.
        2    1    3    3  502    0 -0.11189999105E+04 -0.52427756390E+02 -0.66932439270E+03  0.13049538735E+04  0.25500000920E-02 0. -1.
       -2    1    3    3    0  502  0.11189999105E+04  0.52427756390E+02  0.13825634529E+04  0.17794356326E+04  0.25500000920E-02 0.  1.
</event>
<event>
 5   0  0.6525507E-08  0.2997811E+04  0.7818609E-02  0.8244356E-01
       -1   -1    0    0    0  501  0.00000000000E+00  0.00000000000E+00  0.13216772863E+04  0.13216772863E+04  0.50400001928E-02 0.  1.
        1   -1    0    0  501    0  0.00000000000E+00  0.00000000000E+00 -0.16998990142E+04  0.16998990142E+04  0.50400001928E-02 0. -1.
    10030    2    1    2    0    0  0.00000000000E+00  0.00000000000E+00 -0.37822172787E+03  0.30215763006E+04  0.29978111456E+04 0.  0.
        4    1    3    3  502    0 -0.46673642751E+03  0.13904579839E+04  0.12236972998E+03  0.14717989881E+04  0.12699999809E+01 0.  1.
       -4    1    3    3    0  502  0.46673642751E+03 -0.13904579839E+04 -0.50059145785E+03  0.15497773125E+04  0.12699999809E+01 0. -1.
</event>
<event>
 5   0  0.6464436E-08  0.3000728E+04  0.7818609E-02  0.8243523E-01
       -1   -1    0    0    0  501  0.00000000000E+00  0.00000000000E+00  0.16628535527E+04  0.16628535527E+04  0.50400001928E-02 0.  1.
        1   -1    0    0  501    0  0.00000000000E+00  0.00000000000E+00 -0.13537523124E+04  0.13537523124E+04  0.50400001928E-02 0. -1.
    10030    2    1    2    0    0  0.00000000000E+00  0.00000000000E+00  0.30910124033E+03  0.30166058651E+04  0.30007278065E+04 0.  0.
        5    1    3    3  502    0 -0.87314885108E+03  0.11622585307E+04 -0.21867651447E+03  0.14700596302E+04  0.46999998093E+01 0. -1.
       -5    1    3    3    0  502  0.87314885108E+03 -0.11622585307E+04  0.52777775480E+03  0.15465462349E+04  0.46999998093E+01 0.  1.
</event>
<event>
 5   0  0.1821305E-07  0.2999939E+04  0.7818609E-02  0.8243748E-01
       -2   -1    0    0    0  501  0.00000000000E+00  0.00000000000E+00  0.19124114310E+04  0.19124114310E+04  0.25500000920E-02 0.  1.
        2   -1    0    0  501    0  0.00000000000E+00  0.00000000000E+00 -0.11764774516E+04  0.11764774516E+04  0.25500000920E-02 0. -1.
    10030    2    1    2    0    0  0.00000000000E+00  0.00000000000E+00  0.73593397939E+03  0.30888888826E+04  0.29999392839E+04 0.  0.
        2    1    3    3  502    0  0.44835465243E+03  0.38644573941E+03  0.17870729061E+04  0.18825492757E+04  0.25500000920E-02 0.  1.
       -2    1    3    3    0  502 -0.44835465243E+03 -0.38644573941E+03 -0.10511389267E+04  0.12063396069E+04  0.25500000920E-02 0. -1.
</event>
<event>
 5   0  0.6525507E-08  0.3000221E+04  0.7818609E-02  0.8243668E-01
       -1   -1    0    0    0  501  0.00000000000E+00  0.00000000000E+00  0.13891349813E+04  0.13891349813E+04  0.50400001928E-02 0.  1.
        1   -1    0    0  501    0  0.00000000000E+00  0.00000000000E+00 -0.16199512958E+04  0.16199512958E+04  0.50400001928E-02 0. -1.
    10030    2    1    2    0    0  0.00000000000E+00  0.00000000000E+00 -0.23081631447E+03  0.30090862771E+04  0.30002206672E+04 0.  0.
        4    1    3    3  502    0  0.90576213417E+03 -0.11155545662E+04 -0.54733414979E+03  0.15376746464E+04  0.12699999809E+01 0. -1.
       -4    1    3    3    0  502 -0.90576213417E+03  0.11155545662E+04  0.31651783532E+03  0.14714116307E+04  0.12699999809E+01 0.  1.
</event>
<event>
 5   0  0.1914439E-07  0.3000107E+04  0.7818609E-02  0.8243700E-01
        2   -1    0    0  501    0  0.00000000000E+00  0.00000000000E+00  0.24091028007E+04  0.24091028007E+04  0.25500000920E-02 0.  1.
       -2   -1    0    0    0  501  0.00000000000E+00  0.00000000000E+00 -0.93402439309E+03  0.93402439310E+03  0.25500000920E-02 0. -1.
    10030    2    1    2    0    0  0.00000000000E+00  0.00000000000E+00  0.14750784076E+04  0.33431271938E+04  0.30001071856E+04 0.  0.
        5    1    3    3  502    0 -0.52021665737E+03 -0.13597009545E+04  0.11404400412E+04  0.18493343759E+04  0.46999998093E+01 0.  1.
       -5    1    3    3    0  502  0.52021665737E+03  0.13597009545E+04  0.33463836635E+03  0.14937928178E+04  0.46999998093E+01 0. -1.
</event>
<event>
 5   0  0.6464436E-08  0.3000729E+04  0.7818609E-02  0.8243523E-01
        1   -1    0    0  501    0  0.00000000000E+00  0.00000000000E+00  0.14624376699E+04  0.14624376699E+04  0.50400001928E-02 0. -1.
       -1   -1    0    0    0  501  0.00000000000E+00  0.00000000000E+00 -0.15392748070E+04  0.15392748070E+04  0.50400001928E-02 0.  1.
    10030    2    1    2    0    0  0.00000000000E+00  0.00000000000E+00 -0.76837137125E+02  0.30017124768E+04  0.30007288861E+04 0.  0.
        5    1    3    3  502    0 -0.80207167689E+03  0.12420103703E+04 -0.29377197588E+03  0.15073927155E+04  0.46999998093E+01 0.  1.
       -5    1    3    3    0  502  0.80207167689E+03 -0.12420103703E+04  0.21693483876E+03  0.14943197614E+04  0.46999998093E+01 0. -1.
</event>
<event>
 5   0  0.6374748E-08  0.2999992E+04  0.7818609E-02  0.8243733E-01
        1   -1    0    0  501    0  0.00000000000E+00  0.00000000000E+00  0.12520250331E+04  0.12520250331E+04  0.50400001928E-02 0. -1.
       -1   -1    0    0    0  501  0.00000000000E+00  0.00000000000E+00 -0.17970794503E+04  0.17970794503E+04  0.50400001928E-02 0.  1.
    10030    2    1    2    0    0  0.00000000000E+00  0.00000000000E+00 -0.54505441718E+03  0.30491044835E+04  0.29999923056E+04 0.  0.
        1    1    3    3  502    0 -0.53384105660E+03 -0.49422157843E+03 -0.16057744799E+04  0.17628819934E+04  0.50400001928E-02 0.  1.
       -1    1    3    3    0  502  0.53384105660E+03  0.49422157843E+03  0.10607200628E+04  0.12862224900E+04  0.50400001928E-02 0. -1.
</event>
<event>
 5   0  0.1821305E-07  0.3000634E+04  0.7818609E-02  0.8243550E-01
       -2   -1    0    0    0  501  0.00000000000E+00  0.00000000000E+00  0.13569607885E+04  0.13569607885E+04  0.25500000920E-02 0.  1.
        2   -1    0    0  501    0  0.00000000000E+00  0.00000000000E+00 -0.16588182610E+04  0.16588182610E+04  0.25500000920E-02 0. -1.
    10030    2    1    2    0    0  0.00000000000E+00  0.00000000000E+00 -0.30185747248E+03  0.30157790496E+04  0.30006341567E+04 0.  0.
        2    1    3    3  502    0  0.95943651718E+03 -0.67298217312E+03  0.79056392218E+03  0.14136529811E+04  0.25500000920E-02 0.  1.
       -2    1    3    3    0  502 -0.95943651718E+03  0.67298217312E+03 -0.10924213947E+04  0.16021260685E+04  0.25500000920E-02 0. -1.
</event>
<event>
 5   0  0.6464436E-08  0.2995059E+04  0.7818609E-02  0.8245143E-01
        1   -1    0    0  501    0  0.00000000000E+00  0.00000000000E+00  0.25022075889E+04  0.25022075889E+04  0.50400001928E-02 0. -1.
       -1   -1    0    0    0  501  0.00000000000E+00  0.00000000000E+00 -0.89624640897E+03  0.89624640898E+03  0.50400001928E-02 0.  1.
    10030    2    1    2    0    0  0.00000000000E+00  0.00000000000E+00  0.16059611799E+04  0.33984539978E+04  0.29950589751E+04 0.  0.
        5    1    3    3  502    0 -0.80826974929E+03 -0.27909071826E+03  0.21979445137E+04  0.23584261260E+04  0.46999998093E+01 0. -1.
       -5    1    3    3    0  502  0.80826974929E+03  0.27909071826E+03 -0.59198333382E+03  0.10400278718E+04  0.46999998093E+01 0.  1.
</event>
<event>
 5   0  0.1817566E-07  0.3003644E+04  0.7818609E-02  0.8242691E-01
       -2   -1    0    0    0  501  0.00000000000E+00  0.00000000000E+00  0.10664498327E+04  0.10664498327E+04  0.25500000920E-02 0.  1.
        2   -1    0    0  501    0  0.00000000000E+00  0.00000000000E+00 -0.21149329128E+04  0.21149329128E+04  0.25500000920E-02 0. -1.
    10030    2    1    2    0    0  0.00000000000E+00  0.00000000000E+00 -0.10484830801E+04  0.31813827455E+04  0.30036443538E+04 0.  0.
        1    1    3    3  502    0  0.54038315281E+03  0.42674863739E+03 -0.19378886361E+04  0.20565847216E+04  0.50400001928E-02 0. -1.
       -1    1    3    3    0  502 -0.54038315281E+03 -0.42674863739E+03  0.88940555602E+03  0.11247980238E+04  0.50400001928E-02 0.  1.
</event>
<event>
 5   0  0.6374748E-08  0.2977882E+04  0.7818609E-02  0.8250075E-01
       -1   -1    0    0    0  501  0.00000000000E+00  0.00000000000E+00  0.12092186670E+04  0.12092186670E+04  0.50400001928E-02 0. -1.
        1   -1    0    0  501    0  0.00000000000E+00  0.00000000000E+00 -0.18333702203E+04  0.18333702203E+04  0.50400001928E-02 0.  1.
    10030    2    1    2    0    0  0.00000000000E+00  0.00000000000E+00 -0.62415155329E+03  0.30425888874E+04  0.29778821293E+04 0.  0.
        1    1    3    3  502    0 -0.13774786506E+04  0.46024581066E+03  0.23188181824E+02  0.14525189606E+04  0.50400001928E-02 0. -1.
       -1    1    3    3    0  502  0.13774786506E+04 -0.46024581066E+03 -0.64733973512E+03  0.15900699267E+04  0.50400001928E-02 0.  1.
</event>
<event>
 5   0  0.6636007E-08  0.2999298E+04  0.7818609E-02  0.8243931E-01
       -1   -1    0    0    0  501  0.00000000000E+00  0.00000000000E+00  0.87270876913E+03  0.87270876914E+03  0.50400001928E-02 0.  1.
        1   -1    0    0  501    0  0.00000000000E+00  0.00000000000E+00 -0.25769726344E+04  0.25769726344E+04  0.50400001928E-02 0. -1.
    10030    2    1    2    0    0  0.00000000000E+00  0.00000000000E+00 -0.17042638652E+04  0.34496814035E+04  0.29992976617E+04 0.  0.
        2    1    3    3  502    0  0.84090321679E+03  0.12392158366E+04 -0.76176902846E+03  0.16801982510E+04  0.25500000920E-02 0. -1.
       -2    1    3    3    0  502 -0.84090321679E+03 -0.12392158366E+04 -0.94249483676E+03  0.17694831525E+04  0.25500000920E-02 0.  1.
</event>
<event>
 5   0  0.1810055E-07  0.3000644E+04  0.7818609E-02  0.8243547E-01
        2   -1    0    0  501    0  0.00000000000E+00  0.00000000000E+00  0.12564586837E+04  0.12564586837E+04  0.25500000920E-02 0.  1.
       -2   -1    0    0    0  501  0.00000000000E+00  0.00000000000E+00 -0.17915159327E+04  0.17915159327E+04  0.25500000920E-02 0. -1.
    10030    2    1    2    0    0  0.00000000000E+00  0.00000000000E+00 -0.53505724899E+03  0.30479746163E+04  0.30006437646E+04 0.  0.
        4    1    3    3  502    0  0.80482387180E+03  0.11363792749E+04 -0.83478593007E+03  0.16235665933E+04  0.12699999809E+01 0. -1.
       -4    1    3    3    0  502 -0.80482387180E+03 -0.11363792749E+04  0.29972868108E+03  0.14244080230E+04  0.12699999809E+01 0.  1.
</event>
<event>
 5   0  0.1821305E-07  0.3001154E+04  0.7818609E-02  0.8243401E-01
       -2   -1    0    0    0  501  0.00000000000E+00  0.00000000000E+00  0.16343088929E+04  0.16343088929E+04  0.25500000920E-02 0.  1.
        2   -1    0    0  501    0  0.00000000000E+00  0.00000000000E+00 -0.13777879103E+04  0.13777879103E+04  0.25500000920E-02 0. -1.
    10030    2    1    2    0    0  0.00000000000E+00  0.00000000000E+00  0.25652098257E+03  0.30120968032E+04  0.30011538011E+04 0.  0.
        2    1    3    3  502    0  0.37878235300E+03 -0.13634422010E+04 -0.37283982463E+03  0.14633728989E+04  0.25500000920E-02 0.  1.
       -2    1    3    3    0  502 -0.37878235300E+03  0.13634422010E+04  0.62936080720E+03  0.15487239044E+04  0.25500000920E-02 0. -1.
</event>
<event>
 5   0  0.1810055E-07  0.2999880E+04  0.7818609E-02  0.8243765E-01
        2   -1    0    0  501    0  0.00000000000E+00  0.00000000000E+00  0.18875162006E+04  0.18875162006E+04  0.25500000920E-02 0.  1.
       -2   -1    0    0    0  501  0.00000000000E+00  0.00000000000E+00 -0.11919473591E+04  0.11919473591E+04  0.25500000920E-02 0. -1.
    10030    2    1    2    0    0  0.00000000000E+00  0.00000000000E+00  0.69556884155E+03  0.30794635597E+04  0.29998799647E+04 0.  0.
        4    1    3    3  502    0  0.10858574690E+04  0.90379567746E+03  0.86502184770E+03  0.16565619455E+04  0.12699999809E+01 0.  1.
       -4    1    3    3    0  502 -0.10858574690E+04 -0.90379567746E+03 -0.16945300615E+03  0.14229016142E+04  0.12699999809E+01 0. -1.
</event>
<event>
 5   0  0.6636007E-08  0.3000223E+04  0.7818609E-02  0.8243667E-01
       -1   -1    0    0    0  501  0.00000000000E+00  0.00000000000E+00  0.13741472481E+04  0.13741472481E+04  0.50400001928E-02 0. -1.
        1   -1    0    0  501    0  0.00000000000E+00  0.00000000000E+00 -0.16376220291E+04  0.16376220292E+04  0.50400001928E-02 0.  1.
    10030    2    1    2    0    0  0.00000000000E+00  0.00000000000E+00 -0.26347478103E+03  0.30117692773E+04  0.30002225283E+04 0.  0.
        2    1    3    3  502    0 -0.77649173556E+02  0.14139794493E+04  0.36510838785E+03  0.14624197113E+04  0.25500000920E-02 0. -1.
       -2    1    3    3    0  502  0.77649173556E+02 -0.14139794493E+04 -0.62858316888E+03  0.15493495659E+04  0.25500000920E-02 0.  1.
</event>
<event>
 5   0  0.1817566E-07  0.2999219E+04  0.7818609E-02  0.8243954E-01
       -2   -1    0    0    0  501  0.00000000000E+00  0.00000000000E+00  0.11927697542E+04  0.11927697542E+04  0.25500000920E-02 0.  1.
        2   -1    0    0  501    0  0.00000000000E+00  0.00000000000E+00 -0.18853833888E+04  0.18853833888E+04  0.25500000920E-02 0. -1.
    10030    2    1    2    0    0  0.00000000000E+00  0.00000000000E+00 -0.69261363456E+03  0.30781531430E+04  0.29992187524E+04 0.  0.
        1    1    3    3  502    0 -0.28703624338E+03  0.14699692714E+04 -0.26930682977E+03  0.15217508444E+04  0.50400001928E-02 0. -1.
       -1    1    3    3    0  502  0.28703624338E+03 -0.14699692714E+04 -0.42330680479E+03  0.15564022986E+04  0.50400001928E-02 0.  1.
</event>
<event>
 5   0  0.6525507E-08  0.3010941E+04  0.7818609E-02  0.8240614E-01
       -1   -1    0    0    0  501  0.00000000000E+00  0.00000000000E+00  0.20440612769E+04  0.20440612769E+04  0.50400001928E-02 0. -1.
        1   -1    0    0  501    0  0.00000000000E+00  0.00000000000E+00 -0.11087932714E+04  0.11087932714E+04  0.50400001928E-02 0.  1.
    10030    2    1    2    0    0  0.00000000000E+00  0.00000000000E+00  0.93526800557E+03  0.31528545483E+04  0.30109409759E+04 0.  0.
        4    1    3    3  502    0  0.13483110050E+04  0.65729095642E+03  0.60200119360E+03  0.16162861806E+04  0.12699999809E+01 0.  1.
       -4    1    3    3    0  502 -0.13483110050E+04 -0.65729095642E+03  0.33326681197E+03  0.15365683677E+04  0.12699999809E+01 0. -1.
</event>
<event>
 5   0  0.6636007E-08  0.2999605E+04  0.7818609E-02  0.8243844E-01
        1   -1    0    0  501    0  0.00000000000E+00  0.00000000000E+00  0.14846152775E+04  0.14846152776E+04  0.50400001928E-02 0. -1.
       -1   -1    0    0    0  501  0.00000000000E+00  0.00000000000E+00 -0.15151453439E+04  0.15151453439E+04  0.50400001928E-02 0.  1.
    10030    2    1    2    0    0  0.00000000000E+00  0.00000000000E+00 -0.30530066365E+02  0.29997606215E+04  0.29996052576E+04 0.  0.
        2    1    3    3  502    0  0.30628755562E+03 -0.14678644136E+04 -0.46410216533E+02  0.15001972909E+04  0.25500000920E-02 0.  1.
       -2    1    3    3    0  502 -0.30628755562E+03  0.14678644136E+04  0.15880150168E+02  0.14995633306E+04  0.25500000920E-02 0. -1.
</event>
<event>
 5   0  0.6374748E-08  0.3000075E+04  0.7818609E-02  0.8243709E-01
       -1   -1    0    0    0  501  0.00000000000E+00  0.00000000000E+00  0.75331229304E+03  0.75331229305E+03  0.50400001928E-02 0.  1.
        1   -1    0    0  501    0  0.00000000000E+00  0.00000000000E+00 -0.29869593186E+04  0.29869593187E+04  0.50400001928E-02 0. -1.
    10030    2    1    2    0    0  0.00000000000E+00  0.00000000000E+00 -0.22336470256E+04  0.37402716117E+04  0.30000754481E+04 0.  0.
        1    1    3    3  502    0  0.77288983915E+03  0.41907572316E+03 -0.26320596687E+04  0.27750173450E+04  0.50400001928E-02 0. -1.
       -1    1    3    3    0  502 -0.77288983915E+03 -0.41907572316E+03  0.39841264311E+03  0.96525426672E+03  0.50400001928E-02 0.  1.
</event>
<event>
 5   0  0.1817566E-07  0.2999502E+04  0.7818609E-02  0.8243873E-01
       -2   -1    0    0    0  501  0.00000000000E+00  0.00000000000E+00  0.96343238535E+03  0.96343238535E+03  0.25500000920E-02 0.  1.
        2   -1    0    0  501    0  0.00000000000E+00  0.00000000000E+00 -0.23346250967E+04  0.23346250967E+04  0.25500000920E-02 0. -1.
    10030    2    1    2    0    0  0.00000000000E+00  0.00000000000E+00 -0.13711927113E+04  0.32980574820E+04  0.29995022426E+04 0.  0.
        1    1    3    3  502    0  0.37848834721E+03  0.73191076016E+03 -0.20634442052E+04  0.22218795597E+04  0.50400001928E-02 0. -1.
       -1    1    3    3    0  502 -0.37848834721E+03 -0.73191076016E+03  0.69225149385E+03  0.10761779224E+04  0.50400001928E-02 0.  1.
</event>
<event>
 5   0  0.6679022E-08  0.3000217E+04  0.7818609E-02  0.8243669E-01
       -1   -1    0    0    0  501  0.00000000000E+00  0.00000000000E+00  0.15434460124E+04  0.15434460125E+04  0.50400001928E-02 0. -1.
        1   -1    0    0  501    0  0.00000000000E+00  0.00000000000E+00 -0.14579874220E+04  0.14579874221E+04  0.50400001928E-02 0.  1.
    10030    2    1    2    0    0  0.00000000000E+00  0.00000000000E+00  0.85458590400E+02  0.30014334345E+04  0.30002165740E+04 0.  0.
        3    1    3    3  502    0 -0.89569076445E+03 -0.74696103870E+03  0.98656948976E+03  0.15275902943E+04  0.10100000352E+00 0. -1.
       -3    1    3    3    0  502  0.89569076445E+03  0.74696103870E+03 -0.90111089936E+03  0.14738431402E+04  0.10100000352E+00 0.  1.
</event>
<event>
 5   0  0.6464436E-08  0.3000187E+04  0.7818609E-02  0.8243677E-01
       -1   -1    0    0    0  501  0.00000000000E+00  0.00000000000E+00  0.14725096382E+04  0.14725096382E+04  0.50400001928E-02 0. -1.
        1   -1    0    0  501    0  0.00000000000E+00  0.00000000000E+00 -0.15281941143E+04  0.15281941143E+04  0.50400001928E-02 0.  1.
    10030    2    1    2    0    0  0.00000000000E+00  0.00000000000E+00 -0.55684476139E+02  0.30007037525E+04  0.30001870357E+04 0.  0.
        5    1    3    3  502    0  0.31527520018E+03 -0.13768092424E+04 -0.53315824078E+03  0.15097290954E+04  0.46999998093E+01 0.  1.
       -5    1    3    3    0  502 -0.31527520018E+03  0.13768092424E+04  0.47747376464E+03  0.14909746570E+04  0.46999998093E+01 0. -1.
</event>
<event>
 5   0  0.6679022E-08  0.2999580E+04  0.7818609E-02  0.8243851E-01
       -1   -1    0    0    0  501  0.00000000000E+00  0.00000000000E+00  0.11239032391E+04  0.11239032391E+04  0.50400001928E-02 0. -1.
        1   -1    0    0  501    0  0.00000000000E+00  0.00000000000E+00 -0.20013917977E+04  0.20013917977E+04  0.50400001928E-02 0.  1.
    10030    2    1    2    0    0  0.00000000000E+00  0.00000000000E+00 -0.87748855854E+03  0.31252950368E+04  0.29995804534E+04 0.  0.
        3    1    3    3  502    0  0.61154815834E+03 -0.13653797589E+04 -0.32888479600E+03  0.15318022899E+04  0.10100000352E+00 0. -1.
       -3    1    3    3    0  502 -0.61154815834E+03  0.13653797589E+04 -0.54860376253E+03  0.15934927469E+04  0.10100000352E+00 0.  1.
</event>
<event>
 5   0  0.1821305E-07  0.2998547E+04  0.7818609E-02  0.8244146E-01
        2   -1    0    0  501    0  0.00000000000E+00  0.00000000000E+00  0.16900160346E+04  0.16900160346E+04  0.25500000920E-02 0.  1.
       -2   -1    0    0    0  501  0.00000000000E+00  0.00000000000E+00 -0.13300589686E+04  0.13300589686E+04  0.25500000920E-02 0. -1.
    10030    2    1    2    0    0  0.00000000000E+00  0.00000000000E+00  0.35995706597E+03  0.30200750032E+04  0.29985469707E+04 0.  0.
        2    1    3    3  502    0 -0.17190204678E+03 -0.34394258012E+03  0.16395112988E+04  0.16839964700E+04  0.25500000920E-02 0.  1.
       -2    1    3    3    0  502  0.17190204678E+03  0.34394258012E+03 -0.12795542328E+04  0.13360785332E+04  0.25500000920E-02 0. -1.
</event>
<event>
 5   0  0.1821305E-07  0.3001302E+04  0.7818609E-02  0.8243359E-01
        2   -1    0    0  501    0  0.00000000000E+00  0.00000000000E+00  0.15906307335E+04  0.15906307335E+04  0.25500000920E-02 0. -1.
       -2   -1    0    0    0  501  0.00000000000E+00  0.00000000000E+00 -0.14157610863E+04  0.14157610863E+04  0.25500000920E-02 0.  1.
    10030    2    1    2    0    0  0.00000000000E+00  0.00000000000E+00  0.17486964728E+03  0.30063918198E+04  0.30013017810E+04 0.  0.
        2    1    3    3  502    0  0.76387669426E+03 -0.53438084530E+03 -0.10905198286E+04  0.14346790542E+04  0.25500000920E-02 0.  1.
       -2    1    3    3    0  502 -0.76387669426E+03  0.53438084530E+03  0.12653894759E+04  0.15717127656E+04  0.25500000920E-02 0. -1.
</event>
<event>
 5   0  0.1810055E-07  0.3000028E+04  0.7818609E-02  0.8243723E-01
       -2   -1    0    0    0  501  0.00000000000E+00  0.00000000000E+00  0.10112089573E+04  0.10112089573E+04  0.25500000920E-02 0.  1.
        2   -1    0    0  501    0  0.00000000000E+00  0.00000000000E+00 -0.22251016559E+04  0.22251016559E+04  0.25500000920E-02 0. -1.
    10030    2    1    2    0    0  0.00000000000E+00  0.00000000000E+00 -0.12138926986E+04  0.32363106132E+04  0.30000284834E+04 0.  0.
        4    1    3    3  502    0  0.12297335729E+03 -0.13041490034E+04  0.18144494062E+03  0.13224412838E+04  0.12699999809E+01 0.  1.
       -4    1    3    3    0  502 -0.12297335729E+03  0.13041490034E+04 -0.13953376392E+04  0.19138693294E+04  0.12699999809E+01 0. -1.
</event>
<event>
 5   0  0.6017625E-08  0.3000274E+04  0.7818609E-02  0.8243653E-01
        3   -1    0    0  501    0  0.00000000000E+00  0.00000000000E+00  0.99553746942E+03  0.99553747454E+03  0.10100000352E+00 0.  1.
       -3   -1    0    0    0  501  0.00000000000E+00  0.00000000000E+00 -0.22604980174E+04  0.22604980197E+04  0.10100000352E+00 0. -1.
    10030    2    1    2    0    0  0.00000000000E+00  0.00000000000E+00 -0.12649605480E+04  0.32560354942E+04  0.30002736461E+04 0.  0.
        4    1    3    3  502    0  0.14173505452E+01 -0.53721161526E+03 -0.21525265010E+04  0.22185513920E+04  0.12699999809E+01 0. -1.
       -4    1    3    3    0  502 -0.14173505452E+01  0.53721161526E+03  0.88756595303E+03  0.10374841022E+04  0.12699999809E+01 0.  1.
</event>
<event>
 5   0  0.6679022E-08  0.2999654E+04  0.7818609E-02  0.8243830E-01
        1   -1    0    0  501    0  0.00000000000E+00  0.00000000000E+00  0.15758249549E+04  0.15758249549E+04  0.50400001928E-02 0. -1.
       -1   -1    0    0    0  501  0.00000000000E+00  0.00000000000E+00 -0.14274942969E+04  0.14274942969E+04  0.50400001928E-02 0.  1.
    10030    2    1    2    0    0  0.00000000000E+00  0.00000000000E+00  0.14833065802E+03  0.30033192518E+04  0.29996540707E+04 0.  0.
        3    1    3    3  502    0  0.18468240132E+03 -0.11443320233E+04  0.10271043802E+04  0.15487242449E+04  0.10100000352E+00 0. -1.
       -3    1    3    3    0  502 -0.18468240132E+03  0.11443320233E+04 -0.87877372217E+03  0.14545950068E+04  0.10100000352E+00 0.  1.
</event>
<event>
 5   0  0.6525507E-08  0.2999043E+04  0.7818609E-02  0.8244004E-01
        1   -1    0    0  501    0  0.00000000000E+00  0.00000000000E+00  0.17774672213E+04  0.17774672213E+04  0.50400001928E-02 0.  1.
       -1   -1    0    0    0  501  0.00000000000E+00  0.00000000000E+00 -0.12650386880E+04  0.12650386880E+04  0.50400001928E-02 0. -1.
    10030    2    1    2    0    0  0.00000000000E+00  0.00000000000E+00  0.51242853329E+03  0.30425059093E+04  0.29990430484E+04 0.  0.
        4    1    3    3  502    0 -0.12803336560E+04 -0.77929390401E+03  0.30169621956E+03  0.15289131700E+04  0.12699999809E+01 0.  1.
       -4    1    3    3    0  502  0.12803336560E+04  0.77929390401E+03  0.21073231372E+03  0.15135927393E+04  0.12699999809E+01 0. -1.
</event>
<event>
 5   0  0.1914439E-07  0.2999968E+04  0.7818609E-02  0.8243740E-01
        2   -1    0    0  501    0  0.00000000000E+00  0.00000000000E+00  0.27979929167E+04  0.27979929167E+04  0.25500000920E-02 0. -1.
       -2   -1    0    0    0  501  0.00000000000E+00  0.00000000000E+00 -0.80413095862E+03  0.80413095862E+03  0.25500000920E-02 0.  1.
    10030    2    1    2    0    0  0.00000000000E+00  0.00000000000E+00  0.19938619581E+04  0.36021238753E+04  0.29999684841E+04 0.  0.
        5    1    3    3  502    0  0.11049339127E+04 -0.16374633993E+03 -0.20513294116E+03  0.11356907276E+04  0.46999998093E+01 0.  1.
       -5    1    3    3    0  502 -0.11049339127E+04  0.16374633993E+03  0.21989948992E+04  0.24664331477E+04  0.46999998093E+01 0. -1.
</event>
<event>
 5   0  0.6464436E-08  0.3000836E+04  0.7818609E-02  0.8243492E-01
       -1   -1    0    0    0  501  0.00000000000E+00  0.00000000000E+00  0.11379974467E+04  0.11379974467E+04  0.50400001928E-02 0. -1.
        1   -1    0    0  501    0  0.00000000000E+00  0.00000000000E+00 -0.19782592601E+04  0.19782592601E+04  0.50400001928E-02 0.  1.
    10030    2    1    2    0    0  0.00000000000E+00  0.00000000000E+00 -0.84026181337E+03  0.31162567068E+04  0.30008358749E+04 0.  0.
        5    1    3    3  502    0 -0.35693758984E+02  0.14740593979E+04 -0.13176948002E+03  0.14803751007E+04  0.46999998093E+01 0. -1.
       -5    1    3    3    0  502  0.35693758984E+02 -0.14740593979E+04 -0.70849233335E+03  0.16358816061E+04  0.46999998093E+01 0.  1.
</event>
<event>
 5   0  0.6636007E-08  0.2999172E+04  0.7818609E-02  0.8243967E-01
       -1   -1    0    0    0  501  0.00000000000E+00  0.00000000000E+00  0.88395171928E+03  0.88395171930E+03  0.50400001928E-02 0. -1.
        1   -1    0    0  501    0  0.00000000000E+00  0.00000000000E+00 -0.25439833535E+04  0.25439833535E+04  0.50400001928E-02 0.  1.
    10030    2    1    2    0    0  0.00000000000E+00  0.00000000000E+00 -0.16600316342E+04  0.34279350728E+04  0.29991721919E+04 0.  0.
        2    1    3    3  502    0  0.27063664208E+02  0.14993381529E+04 -0.83382731601E+03  0.17158133149E+04  0.25500000920E-02 0. -1.
       -2    1    3    3    0  502 -0.27063664208E+02 -0.14993381529E+04 -0.82620431819E+03  0.17121217579E+04  0.25500000920E-02 0.  1.
</event>
<event>
 5   0  0.1813720E-07  0.3000242E+04  0.7818609E-02  0.8243662E-01
        2   -1    0    0  501    0  0.00000000000E+00  0.00000000000E+00  0.10379168394E+04  0.10379168394E+04  0.25500000920E-02 0. -1.
       -2   -1    0    0    0  501  0.00000000000E+00  0.00000000000E+00 -0.21681540257E+04  0.21681540257E+04  0.25500000920E-02 0.  1.
    10030    2    1    2    0    0  0.00000000000E+00  0.00000000000E+00 -0.11302371863E+04  0.32060708651E+04  0.30002423727E+04 0.  0.
        3    1    3    3  502    0  0.22306393542E+03 -0.79473575161E+03  0.77341231898E+03  0.11311627025E+04  0.10100000352E+00 0. -1.
       -3    1    3    3    0  502 -0.22306393542E+03  0.79473575161E+03 -0.19036495053E+04  0.20749081626E+04  0.10100000352E+00 0.  1.
</event>
<event>
 5   0  0.6679022E-08  0.3001204E+04  0.7818609E-02  0.8243387E-01
        1   -1    0    0  501    0  0.00000000000E+00  0.00000000000E+00  0.17795312424E+04  0.17795312424E+04  0.50400001928E-02 0. -1.
       -1   -1    0    0    0  501  0.00000000000E+00  0.00000000000E+00 -0.12653926710E+04  0.12653926710E+04  0.50400001928E-02 0.  1.
    10030    2    1    2    0    0  0.00000000000E+00  0.00000000000E+00  0.51413857136E+03  0.30449239134E+04  0.30012036199E+04 0.  0.
        3    1    3    3  502    0  0.11804475889E+04  0.26640056817E+03 -0.64320153770E+03  0.13704502914E+04  0.10100000352E+00 0.  1.
       -3    1    3    3    0  502 -0.11804475889E+04 -0.26640056817E+03  0.11573401091E+04  0.16744736221E+04  0.10100000352E+00 0. -1.
</event>
<event>
 5   0  0.6679022E-08  0.3000104E+04  0.7818609E-02  0.8243701E-01
       -1   -1    0    0    0  501  0.00000000000E+00  0.00000000000E+00  0.97334726987E+03  0.97334726988E+03  0.50400001928E-02 0. -1.
        1   -1    0    0  501    0  0.00000000000E+00  0.00000000000E+00 -0.23117711024E+04  0.23117711024E+04  0.50400001928E-02 0.  1.
    10030    2    1    2    0    0  0.00000000000E+00  0.00000000000E+00 -0.13384238326E+04  0.32851183723E+04  0.30001040590E+04 0.  0.
        3    1    3    3  502    0 -0.63082875039E+03  0.13258532774E+04 -0.33291228040E+03  0.15055438958E+04  0.10100000352E+00 0.  1.
       -3    1    3    3    0  502  0.63082875039E+03 -0.13258532774E+04 -0.10055115522E+04  0.17795744765E+04  0.10100000352E+00 0. -1.
</event>
<event>
 5   0  0.6679022E-08  0.2996191E+04  0.7818609E-02  0.8244819E-01
       -1   -1    0    0    0  501  0.00000000000E+00  0.00000000000E+00  0.10347698235E+04  0.10347698235E+04  0.50400001928E-02 0.  1.
        1   -1    0    0  501    0  0.00000000000E+00  0.00000000000E+00 -0.21688783101E+04  0.21688783101E+04  0.50400001928E-02 0. -1.
    10030    2    1    2    0    0  0.00000000000E+00  0.00000000000E+00 -0.11341084866E+04  0.32036481337E+04  0.29961907992E+04 0.  0.
        3    1    3    3  502    0  0.14761046068E+04  0.44590602478E+02 -0.83631750916E+03  0.16971446958E+04  0.10100000352E+00 0. -1.
       -3    1    3    3    0  502 -0.14761046068E+04 -0.44590602478E+02 -0.29779097745E+03  0.15065034379E+04  0.10100000352E+00 0.  1.
</event>
<event>
 5   0  0.6636007E-08  0.2998820E+04  0.7818609E-02  0.8244068E-01
        1   -1    0    0  501    0  0.00000000000E+00  0.00000000000E+00  0.18234113462E+04  0.18234113462E+04  0.50400001928E-02 0. -1.
       -1   -1    0    0    0  501  0.00000000000E+00  0.00000000000E+00 -0.12329803404E+04  0.12329803404E+04  0.50400001928E-02 0.  1.
    10030    2    1    2    0    0  0.00000000000E+00  0.00000000000E+00  0.59043100576E+03  0.30563916866E+04  0.29988199962E+04 0.  0.
        2    1    3    3  502    0  0.39643510453E+03 -0.54495009625E+03  0.16603700086E+04  0.17919151668E+04  0.25500000920E-02 0. -1.
       -2    1    3    3    0  502 -0.39643510453E+03  0.54495009625E+03 -0.10699390028E+04  0.12644765198E+04  0.25500000920E-02 0.  1.
</event>
<event>
 5   0  0.6525507E-08  0.3000528E+04  0.7818609E-02  0.8243580E-01
        1   -1    0    0  501    0  0.00000000000E+00  0.00000000000E+00  0.18847297798E+04  0.18847297798E+04  0.50400001928E-02 0. -1.
       -1   -1    0    0    0  501  0.00000000000E+00  0.00000000000E+00 -0.11942256538E+04  0.11942256538E+04  0.50400001928E-02 0.  1.
    10030    2    1    2    0    0  0.00000000000E+00  0.00000000000E+00  0.69050412599E+03  0.30789554337E+04  0.30005283892E+04 0.  0.
        4    1    3    3  502    0 -0.10497613194E+04 -0.47240049870E+03 -0.64199163295E+03  0.13180728085E+04  0.12699999809E+01 0.  1.
       -4    1    3    3    0  502  0.10497613194E+04  0.47240049870E+03  0.13324957589E+04  0.17608826251E+04  0.12699999809E+01 0. -1.
</event>
<event>
 5   0  0.6525507E-08  0.2999508E+04  0.7818609E-02  0.8243871E-01
        1   -1    0    0  501    0  0.00000000000E+00  0.00000000000E+00  0.16393605031E+04  0.16393605031E+04  0.50400001928E-02 0.  1.
       -1   -1    0    0    0  501  0.00000000000E+00  0.00000000000E+00 -0.13720360247E+04  0.13720360247E+04  0.50400001928E-02 0. -1.
    10030    2    1    2    0    0  0.00000000000E+00  0.00000000000E+00  0.26732447839E+03  0.30113965279E+04  0.29995077382E+04 0.  0.
        4    1    3    3  502    0 -0.72474478367E+03 -0.27044386679E+03 -0.11562903866E+04  0.13911879663E+04  0.12699999809E+01 0. -1.
       -4    1    3    3    0  502  0.72474478367E+03  0.27044386679E+03  0.14236148649E+04  0.16202085616E+04  0.12699999809E+01 0.  1.
</event>
<event>
 5   0  0.1813720E-07  0.3000535E+04  0.7818609E-02  0.8243578E-01
       -2   -1    0    0    0  501  0.00000000000E+00  0.00000000000E+00  0.11746148947E+04  0.11746148947E+04  0.25500000920E-02 0. -1.
        2   -1    0    0  501    0  0.00000000000E+00  0.00000000000E+00 -0.19162052753E+04  0.19162052753E+04  0.25500000920E-02 0.  1.
    10030    2    1    2    0    0  0.00000000000E+00  0.00000000000E+00 -0.74159038061E+03  0.30908201699E+04  0.30005354573E+04 0.  0.
        3    1    3    3  502    0  0.26419152541E+03  0.54770305344E+03  0.10419783134E+04  0.12064388143E+04  0.10100000352E+00 0. -1.
       -3    1    3    3    0  502 -0.26419152541E+03 -0.54770305344E+03 -0.17835686940E+04  0.18843813556E+04  0.10100000352E+00 0.  1.
</event>
<event>
 5   0  0.1810055E-07  0.2999159E+04  0.7818609E-02  0.8243971E-01
       -2   -1    0    0    0  501  0.00000000000E+00  0.00000000000E+00  0.25128865229E+04  0.25128865229E+04  0.25500000920E-02 0. -1.
        2   -1    0    0  501    0  0.00000000000E+00  0.00000000000E+00 -0.89488273888E+03  0.89488273889E+03  0.25500000920E-02 0.  1.
    10030    2    1    2    0    0  0.00000000000E+00  0.00000000000E+00  0.16180037840E+04  0.34077692618E+04  0.29991590649E+04 0.  0.
        4    1    3    3  502    0  0.12822762762E+04 -0.17675103829E+03  0.16692979524E+04  0.21123519226E+04  0.12699999809E+01 0.  1.
       -4    1    3    3    0  502 -0.12822762762E+04  0.17675103829E+03 -0.51294168419E+02  0.12954173392E+04  0.12699999809E+01 0. -1.
</event>
<event>
 5   0  0.1810055E-07  0.3000071E+04  0.7818609E-02  0.8243711E-01
        2   -1    0    0  501    0  0.00000000000E+00  0.00000000000E+00  0.24514137514E+04  0.24514137514E+04  0.25500000920E-02 0.  1.
       -2   -1    0    0    0  501  0.00000000000E+00  0.00000000000E+00 -0.91788133310E+03  0.91788133311E+03  0.25500000920E-02 0. -1.
    10030    2    1    2    0    0  0.00000000000E+00  0.00000000000E+00  0.15335324183E+04  0.33692950845E+04  0.30000712806E+04 0.  0.
        4    1    3    3  502    0 -0.30843058254E+03 -0.12754150979E+04 -0.49523984951E+02  0.13131136030E+04  0.12699999809E+01 0. -1.
       -4    1    3    3    0  502  0.30843058254E+03  0.12754150979E+04  0.15830564033E+04  0.20561814816E+04  0.12699999809E+01 0.  1.
</event>
<event>
 5   0  0.6464436E-08  0.3000136E+04  0.7818609E-02  0.8243692E-01
       -1   -1    0    0    0  501  0.00000000000E+00  0.00000000000E+00  0.10079847966E+04  0.10079847966E+04  0.50400001928E-02 0.  1.
        1   -1    0    0  501    0  0.00000000000E+00  0.00000000000E+00 -0.22323795804E+04  0.22323795804E+04  0.50400001928E-02 0. -1.
    10030    2    1    2    0    0  0.00000000000E+00  0.00000000000E+00 -0.12243947838E+04  0.32403643770E+04  0.30001364485E+04 0.  0.
        5    1    3    3  502    0 -0.20121376700E+03  0.70893707107E+03 -0.20233786862E+04  0.21534071024E+04  0.46999998093E+01 0. -1.
       -5    1    3    3    0  502  0.20121376700E+03 -0.70893707107E+03  0.79898390237E+03  0.10869572747E+04  0.46999998093E+01 0.  1.
</event>
<event>
 5   0  0.6679022E-08  0.3001082E+04  0.7818609E-02  0.8243422E-01
       -1   -1    0    0    0  501  0.00000000000E+00  0.00000000000E+00  0.18493458737E+04  0.18493458737E+04  0.50400001928E-02 0. -1.
        1   -1    0    0  501    0  0.00000000000E+00  0.00000000000E+00 -0.12175240680E+04  0.12175240680E+04  0.50400001928E-02 0.  1.
    10030    2    1    2    0    0  0.00000000000E+00  0.00000000000E+00  0.63182180571E+03  0.30668699417E+04  0.30010818791E+04 0.  0.
        3    1    3    3  502    0 -0.16796015788E+03  0.12049297001E+04  0.12135494527E+04  0.17183621507E+04  0.10100000352E+00 0. -1.
       -3    1    3    3    0  502  0.16796015788E+03 -0.12049297001E+04 -0.58172764701E+03  0.13485077909E+04  0.10100000352E+00 0.  1.
</event>
<event>
 5   0  0.1810055E-07  0.3004967E+04  0.7818609E-02  0.8242314E-01
       -2   -1    0    0    0  501  0.00000000000E+00  0.00000000000E+00  0.88847203110E+03  0.88847203111E+03  0.25500000920E-02 0. -1.
        2   -1    0    0  501    0  0.00000000000E+00  0.00000000000E+00 -0.25408296958E+04  0.25408296958E+04  0.25500000920E-02 0.  1.
    10030    2    1    2    0    0  0.00000000000E+00  0.00000000000E+00 -0.16523576647E+04  0.34293017269E+04  0.30049666358E+04 0.  0.
        4    1    3    3  502    0 -0.12753402021E+04 -0.72849340913E+03 -0.46482869427E+03  0.15405397126E+04  0.12699999809E+01 0. -1.
       -4    1    3    3    0  502  0.12753402021E+04  0.72849340913E+03 -0.11875289704E+04  0.18887620143E+04  0.12699999809E+01 0.  1.
</event>
<event>
 5   0  0.1914439E-07  0.2999602E+04  0.7818609E-02  0.8243845E-01
       -2   -1    0    0    0  501  0.00000000000E+00  0.00000000000E+00  0.11830594193E+04  0.11830594193E+04  0.25500000920E-02 0.  1.
        2   -1    0    0  501    0  0.00000000000E+00  0.00000000000E+00 -0.19013435163E+04  0.19013435163E+04  0.25500000920E-02 0. -1.
    10030    2    1    2    0    0  0.00000000000E+00  0.00000000000E+00 -0.71828409704E+03  0.30844029357E+04  0.29996015444E+04 0.  0.
        5    1    3    3  502    0  0.82565377737E+03  0.28250814903E+03 -0.16134071535E+04  0.18342899845E+04  0.46999998093E+01 0. -1.
       -5    1    3    3    0  502 -0.82565377737E+03 -0.28250814903E+03  0.89512305646E+03  0.12501129511E+04  0.46999998093E+01 0.  1.
</event>
<event>
 5   0  0.6464436E-08  0.3000267E+04  0.7818609E-02  0.8243655E-01
       -1   -1    0    0    0  501  0.00000000000E+00  0.00000000000E+00  0.10082273962E+04  0.10082273963E+04  0.50400001928E-02 0. -1.
        1   -1    0    0  501    0  0.00000000000E+00  0.00000000000E+00 -0.22320359709E+04  0.22320359709E+04  0.50400001928E-02 0.  1.
    10030    2    1    2    0    0  0.00000000000E+00  0.00000000000E+00 -0.12238085747E+04  0.32402633672E+04  0.30002665317E+04 0.  0.
        5    1    3    3  502    0 -0.14269673902E+04 -0.20456938536E+03 -0.10601895800E+04  0.17894436570E+04  0.46999998093E+01 0.  1.
       -5    1    3    3    0  502  0.14269673902E+04  0.20456938536E+03 -0.16361899473E+03  0.14508197102E+04  0.46999998093E+01 0. -1.
</event>
<event>
 5   0  0.6679022E-08  0.3002830E+04  0.7818609E-02  0.8242923E-01
        1   -1    0    0  501    0  0.00000000000E+00  0.00000000000E+00  0.14715532985E+04  0.14715532985E+04  0.50400001928E-02 0. -1.
       -1   -1    0    0    0  501  0.00000000000E+00  0.00000000000E+00 -0.15318829113E+04  0.15318829113E+04  0.50400001928E-02 0.  1.
    10030    2    1    2    0    0  0.00000000000E+00  0.00000000000E+00 -0.60329612826E+02  0.30034362099E+04  0.30028302324E+04 0.  0.
        3    1    3    3  502    0 -0.14562649945E+04  0.12429111485E+03 -0.37387833910E+03  0.15086222317E+04  0.10100000352E+00 0.  1.
       -3    1    3    3    0  502  0.14562649945E+04 -0.12429111485E+03  0.31354872627E+03  0.14948139782E+04  0.10100000352E+00 0. -1.
</event>
<event>
 5   0  0.1821305E-07  0.2999684E+04  0.7818609E-02  0.8243821E-01
        2   -1    0    0  501    0  0.00000000000E+00  0.00000000000E+00  0.94184396757E+03  0.94184396758E+03  0.25500000920E-02 0.  1.
       -2   -1    0    0    0  501  0.00000000000E+00  0.00000000000E+00 -0.23884274316E+04  0.23884274316E+04  0.25500000920E-02 0. -1.
    10030    2    1    2    0    0  0.00000000000E+00  0.00000000000E+00 -0.14465834640E+04  0.33302713992E+04  0.29996839623E+04 0.  0.
        2    1    3    3  502    0  0.24232635172E+02  0.91402871999E+03 -0.20432206218E+04  0.22384785527E+04  0.25500000920E-02 0. -1.
       -2    1    3    3    0  502 -0.24232635172E+02 -0.91402871999E+03  0.59663715777E+03  0.10917928465E+04  0.25500000920E-02 0.  1.
</event>
<event>
 5   0  0.1914439E-07  0.2999595E+04  0.7818609E-02  0.8243847E-01
       -2   -1    0    0    0  501  0.00000000000E+00  0.00000000000E+00  0.85514335578E+03  0.85514335578E+03  0.25500000920E-02 0. -1.
        2   -1    0    0  501    0  0.00000000000E+00  0.00000000000E+00 -0.26304268897E+04  0.26304268897E+04  0.25500000920E-02 0.  1.
    10030    2    1    2    0    0  0.00000000000E+00  0.00000000000E+00 -0.17752835339E+04  0.34855702455E+04  0.29995946910E+04 0.  0.
        5    1    3    3  502    0  0.51560512313E+03 -0.10409898670E+04  0.21465639890E+03  0.11813585424E+04  0.46999998093E+01 0. -1.
       -5    1    3    3    0  502 -0.51560512313E+03  0.10409898670E+04 -0.19899399328E+04  0.23042117030E+04  0.46999998093E+01 0.  1.
</event>
<event>
 5   0  0.1817566E-07  0.3000593E+04  0.7818609E-02  0.8243561E-01
       -2   -1    0    0    0  501  0.00000000000E+00  0.00000000000E+00  0.13673877165E+04  0.13673877165E+04  0.25500000920E-02 0.  1.
        2   -1    0    0  501    0  0.00000000000E+00  0.00000000000E+00 -0.16461243298E+04  0.16461243298E+04  0.25500000920E-02 0. -1.
    10030    2    1    2    0    0  0.00000000000E+00  0.00000000000E+00 -0.27873661332E+03  0.30135120462E+04  0.30005934002E+04 0.  0.
        1    1    3    3  502    0 -0.12301150063E+04  0.29588530550E+03  0.67042768014E+03  0.14318534552E+04  0.50400001928E-02 0.  1.
       -1    1    3    3    0  502  0.12301150063E+04 -0.29588530550E+03 -0.94916429346E+03  0.15816585911E+04  0.50400001928E-02 0. -1.
</event>
<event>
 5   0  0.1810055E-07  0.3000003E+04  0.7818609E-02  0.8243730E-01
        2   -1    0    0  501    0  0.00000000000E+00  0.00000000000E+00  0.13165394036E+04  0.13165394036E+04  0.25500000920E-02 0.  1.
       -2   -1    0    0    0  501  0.00000000000E+00  0.00000000000E+00 -0.17090296024E+04  0.17090296024E+04  0.25500000920E-02 0. -1.
    10030    2    1    2    0    0  0.00000000000E+00  0.00000000000E+00 -0.39249019880E+03  0.30255690061E+04  0.30000032091E+04 0.  0.
        4    1    3    3  502    0  0.72941594730E+03  0.40450024866E+03  0.10611092084E+04  0.13496749388E+04  0.12699999809E+01 0.  1.
       -4    1    3    3    0  502 -0.72941594730E+03 -0.40450024866E+03 -0.14535994072E+04  0.16758940673E+04  0.12699999809E+01 0. -1.
</event>
<event>
 5   0  0.1914439E-07  0.2999350E+04  0.7818609E-02  0.8243916E-01
       -2   -1    0    0    0  501  0.00000000000E+00  0.00000000000E+00  0.10521290926E+04  0.10521290926E+04  0.25500000920E-02 0.  1.
        2   -1    0    0  501    0  0.00000000000E+00  0.00000000000E+00 -0.21375948016E+04  0.21375948016E+04  0.25500000920E-02 0. -1.
    10030    2    1    2    0    0  0.00000000000E+00  0.00000000000E+00 -0.10854657090E+04  0.31897238941E+04  0.29993503822E+04 0.  0.
        5    1    3    3  502    0 -0.60726858913E+02  0.42655653459E+03 -0.20703480039E+04  0.21147106601E+04  0.46999998093E+01 0. -1.
       -5    1    3    3    0  502  0.60726858913E+02 -0.42655653459E+03  0.98488229491E+03  0.10750132341E+04  0.46999998093E+01 0.  1.
</event>
<event>
 5   0  0.1813720E-07  0.3000662E+04  0.7818609E-02  0.8243542E-01
       -2   -1    0    0    0  501  0.00000000000E+00  0.00000000000E+00  0.13543522530E+04  0.13543522530E+04  0.25500000920E-02 0. -1.
        2   -1    0    0  501    0  0.00000000000E+00  0.00000000000E+00 -0.16620442360E+04  0.16620442360E+04  0.25500000920E-02 0.  1.
    10030    2    1    2    0    0  0.00000000000E+00  0.00000000000E+00 -0.30769198302E+03  0.30163964891E+04  0.30006621641E+04 0.  0.
        3    1    3    3  502    0  0.13033795112E+04  0.50214037383E+03  0.39679471517E+03  0.14520293252E+04  0.10100000352E+00 0. -1.
       -3    1    3    3    0  502 -0.13033795112E+04 -0.50214037383E+03 -0.70448669820E+03  0.15643671638E+04  0.10100000352E+00 0.  1.
</event>
<event>
 5   0  0.6525507E-08  0.3002574E+04  0.7818609E-02  0.8242996E-01
       -1   -1    0    0    0  501  0.00000000000E+00  0.00000000000E+00  0.91602576309E+03  0.91602576311E+03  0.50400001928E-02 0. -1.
        1   -1    0    0  501    0  0.00000000000E+00  0.00000000000E+00 -0.24604799337E+04  0.24604799337E+04  0.50400001928E-02 0.  1.
    10030    2    1    2    0    0  0.00000000000E+00  0.00000000000E+00 -0.15444541706E+04  0.33765056968E+04  0.30025742348E+04 0.  0.
        4    1    3    3  502    0 -0.37045667572E+02  0.13702669257E+04 -0.14607317297E+04  0.20031831240E+04  0.12699999809E+01 0.  1.
       -4    1    3    3    0  502  0.37045667572E+02 -0.13702669257E+04 -0.83722440951E+02  0.13733225729E+04  0.12699999809E+01 0. -1.
</event>
<event>
 5   0  0.1914439E-07  0.2995659E+04  0.7818609E-02  0.8244972E-01
       -2   -1    0    0    0  501  0.00000000000E+00  0.00000000000E+00  0.10956023698E+04  0.10956023698E+04  0.25500000920E-02 0.  1.
        2   -1    0    0  501    0  0.00000000000E+00  0.00000000000E+00 -0.20477257814E+04  0.20477257814E+04  0.25500000920E-02 0. -1.
    10030    2    1    2    0    0  0.00000000000E+00  0.00000000000E+00 -0.95212341158E+03  0.31433281512E+04  0.29956590052E+04 0.  0.
        5    1    3    3  502    0 -0.95666023041E+03  0.34494388976E+03  0.67782153717E+03  0.12221494220E+04  0.46999998093E+01 0.  1.
       -5    1    3    3    0  502  0.95666023041E+03 -0.34494388976E+03 -0.16299449488E+04  0.19211787292E+04  0.46999998093E+01 0. -1.
</event>
<event>
 5   0  0.6464436E-08  0.3002719E+04  0.7818609E-02  0.8242955E-01
       -1   -1    0    0    0  501  0.00000000000E+00  0.00000000000E+00  0.89166209687E+03  0.89166209689E+03  0.50400001928E-02 0.  1.
        1   -1    0    0  501    0  0.00000000000E+00  0.00000000000E+00 -0.25279538345E+04  0.25279538345E+04  0.50400001928E-02 0. -1.
    10030    2    1    2    0    0  0.00000000000E+00  0.00000000000E+00 -0.16362917377E+04  0.34196159314E+04  0.30027191790E+04 0.  0.
        5    1    3    3  502    0 -0.57086650559E+03  0.91411041556E+03  0.37223974172E+03  0.11402065314E+04  0.46999998093E+01 0.  1.
       -5    1    3    3    0  502  0.57086650559E+03 -0.91411041556E+03 -0.20085314794E+04  0.22794094000E+04  0.46999998093E+01 0. -1.
</event>
<event>
 5   0  0.6464436E-08  0.3004820E+04  0.7818609E-02  0.8242356E-01
        1   -1    0    0  501    0  0.00000000000E+00  0.00000000000E+00  0.15621216639E+04  0.15621216639E+04  0.50400001928E-02 0.  1.
       -1   -1    0    0    0  501  0.00000000000E+00  0.00000000000E+00 -0.14449804450E+04  0.14449804450E+04  0.50400001928E-02 0. -1.
    10030    2    1    2    0    0  0.00000000000E+00  0.00000000000E+00  0.11714121886E+03  0.30071021089E+04  0.30048196332E+04 0.  0.
        5    1    3    3  502    0 -0.92256230921E+03  0.58933317640E+03  0.10883217819E+04  0.15436648594E+04  0.46999998093E+01 0.  1.
       -5    1    3    3    0  502  0.92256230921E+03 -0.58933317640E+03 -0.97118056305E+03  0.14634372495E+04  0.46999998093E+01 0. -1.
</event>
<event>
 5   0  0.6464436E-08  0.2999921E+04  0.7818609E-02  0.8243753E-01
        1   -1    0    0  501    0  0.00000000000E+00  0.00000000000E+00  0.15551203992E+04  0.15551203992E+04  0.50400001928E-02 0. -1.
       -1   -1    0    0    0  501  0.00000000000E+00  0.00000000000E+00 -0.14467571866E+04  0.14467571866E+04  0.50400001928E-02 0.  1.
    10030    2    1    2    0    0  0.00000000000E+00  0.00000000000E+00  0.10836321263E+03  0.30018775859E+04  0.29999210747E+04 0.  0.
        5    1    3    3  502    0 -0.14194996628E+03 -0.11293905916E+04  0.10316434447E+04  0.15362236778E+04  0.46999998093E+01 0. -1.
       -5    1    3    3    0  502  0.14194996628E+03  0.11293905916E+04 -0.92328023205E+03  0.14656539081E+04  0.46999998093E+01 0.  1.
</event>
<event>
 5   0  0.6374748E-08  0.2999119E+04  0.7818609E-02  0.8243983E-01
       -1   -1    0    0    0  501  0.00000000000E+00  0.00000000000E+00  0.19708014341E+04  0.19708014342E+04  0.50400001928E-02 0. -1.
        1   -1    0    0  501    0  0.00000000000E+00  0.00000000000E+00 -0.11409968667E+04  0.11409968667E+04  0.50400001928E-02 0.  1.
    10030    2    1    2    0    0  0.00000000000E+00  0.00000000000E+00  0.82980456746E+03  0.31117983009E+04  0.29991187114E+04 0.  0.
        1    1    3    3  502    0 -0.97116412111E+03  0.71877904429E+03  0.13364587137E+04  0.18016450699E+04  0.50400001928E-02 0.  1.
       -1    1    3    3    0  502  0.97116412111E+03 -0.71877904429E+03 -0.50665414620E+03  0.13101532309E+04  0.50400001928E-02 0. -1.
</event>
<event>
 5   0  0.1813720E-07  0.3001251E+04  0.7818609E-02  0.8243374E-01
        2   -1    0    0  501    0  0.00000000000E+00  0.00000000000E+00  0.19097928169E+04  0.19097928169E+04  0.25500000920E-02 0. -1.
       -2   -1    0    0    0  501  0.00000000000E+00  0.00000000000E+00 -0.11791212600E+04  0.11791212600E+04  0.25500000920E-02 0.  1.
    10030    2    1    2    0    0  0.00000000000E+00  0.00000000000E+00  0.73067155693E+03  0.30889140769E+04  0.30012512808E+04 0.  0.
        3    1    3    3  502    0  0.99546625170E+02  0.78075603225E+03  0.16803036391E+04  0.18555079742E+04  0.10100000352E+00 0. -1.
       -3    1    3    3    0  502 -0.99546625170E+02 -0.78075603225E+03 -0.94963208221E+03  0.12334061027E+04  0.10100000352E+00 0.  1.
</event>
<event>
 5   0  0.6017625E-08  0.3001226E+04  0.7818609E-02  0.8243381E-01
       -4   -1    0    0    0  501  0.00000000000E+00  0.00000000000E+00  0.11728809334E+04  0.11728816209E+04  0.12699999809E+01 0.  1.
        4   -1    0    0  501    0  0.00000000000E+00  0.00000000000E+00 -0.19199205535E+04  0.19199209736E+04  0.12699999809E+01 0. -1.
    10030    2    1    2    0    0  0.00000000000E+00  0.00000000000E+00 -0.74703962018E+03  0.30928025945E+04  0.30012263651E+04 0.  0.
        1    1    3    3  502    0  0.69726939168E+03  0.11043692158E+04  0.38796158333E+03  0.13624720766E+04  0.50400001928E-02 0.  1.
       -1    1    3    3    0  502 -0.69726939168E+03 -0.11043692158E+04 -0.11350012035E+04  0.17303305179E+04  0.50400001928E-02 0. -1.
</event>
<event>
 5   0  0.6525507E-08  0.3000267E+04  0.7818609E-02  0.8243655E-01
       -1   -1    0    0    0  501  0.00000000000E+00  0.00000000000E+00  0.11326745314E+04  0.11326745314E+04  0.50400001928E-02 0.  1.
        1   -1    0    0  501    0  0.00000000000E+00  0.00000000000E+00 -0.19868022049E+04  0.19868022049E+04  0.50400001928E-02 0. -1.
    10030    2    1    2    0    0  0.00000000000E+00  0.00000000000E+00 -0.85412767349E+03  0.31194767364E+04  0.30002668258E+04 0.  0.
        4    1    3    3  502    0  0.12214767708E+04  0.68746841130E+03  0.12876110936E+03  0.14075508354E+04  0.12699999809E+01 0.  1.
       -4    1    3    3    0  502 -0.12214767708E+04 -0.68746841130E+03 -0.98288878285E+03  0.17119259010E+04  0.12699999809E+01 0. -1.
</event>
<event>
 5   0  0.1821305E-07  0.3001049E+04  0.7818609E-02  0.8243431E-01
        2   -1    0    0  501    0  0.00000000000E+00  0.00000000000E+00  0.17827769344E+04  0.17827769344E+04  0.25500000920E-02 0.  1.
       -2   -1    0    0    0  501  0.00000000000E+00  0.00000000000E+00 -0.12629590858E+04  0.12629590858E+04  0.25500000920E-02 0. -1.
    10030    2    1    2    0    0  0.00000000000E+00  0.00000000000E+00  0.51981784867E+03  0.30457360202E+04  0.30010493679E+04 0.  0.
        2    1    3    3  502    0 -0.13044466208E+04 -0.72915196028E+03  0.39731608024E+03  0.15463193833E+04  0.25500000920E-02 0. -1.
       -2    1    3    3    0  502  0.13044466208E+04  0.72915196028E+03  0.12250176843E+03  0.14994166369E+04  0.25500000920E-02 0.  1.
</event>
<event>
 5   0  0.1821305E-07  0.2999499E+04  0.7818609E-02  0.8243874E-01
       -2   -1    0    0    0  501  0.00000000000E+00  0.00000000000E+00  0.98049085973E+03  0.98049085974E+03  0.25500000920E-02 0.  1.
        2   -1    0    0  501    0  0.00000000000E+00  0.00000000000E+00 -0.22940018941E+04  0.22940018941E+04  0.25500000920E-02 0. -1.
    10030    2    1    2    0    0  0.00000000000E+00  0.00000000000E+00 -0.13135110344E+04  0.32744927539E+04  0.29994985510E+04 0.  0.
        2    1    3    3  502    0  0.10573325345E+04  0.10615573440E+04 -0.58440911094E+03  0.16082257591E+04  0.25500000920E-02 0. -1.
       -2    1    3    3    0  502 -0.10573325345E+04 -0.10615573440E+04 -0.72910192346E+03  0.16662669948E+04  0.25500000920E-02 0.  1.
</event>
<event>
 5   0  0.6374748E-08  0.2998992E+04  0.7818609E-02  0.8244019E-01
        1   -1    0    0  501    0  0.00000000000E+00  0.00000000000E+00  0.16388125501E+04  0.16388125501E+04  0.50400001928E-02 0. -1.
       -1   -1    0    0    0  501  0.00000000000E+00  0.00000000000E+00 -0.13720226760E+04  0.13720226761E+04  0.50400001928E-02 0.  1.
    10030    2    1    2    0    0  0.00000000000E+00  0.00000000000E+00  0.26678987409E+03  0.30108352262E+04  0.29989918177E+04 0.  0.
        1    1    3    3  502    0  0.94983836472E+03 -0.11351493592E+04  0.37461655397E+03  0.15267922417E+04  0.50400001928E-02 0.  1.
       -1    1    3    3    0  502 -0.94983836472E+03  0.11351493592E+04 -0.10782667988E+03  0.14840429845E+04  0.50400001928E-02 0. -1.
</event>
<event>
 5   0  0.1914439E-07  0.3000233E+04  0.7818609E-02  0.8243664E-01
       -2   -1    0    0    0  501  0.00000000000E+00  0.00000000000E+00  0.13755810746E+04  0.13755810746E+04  0.25500000920E-02 0.  1.
        2   -1    0    0  501    0  0.00000000000E+00  0.00000000000E+00 -0.16359269764E+04  0.16359269764E+04  0.25500000920E-02 0. -1.
    10030    2    1    2    0    0  0.00000000000E+00  0.00000000000E+00 -0.26034590181E+03  0.30115080509E+04  0.30002334496E+04 0.  0.
        5    1    3    3  502    0  0.54204766801E+03 -0.40837916387E+03 -0.14730115506E+04  0.16218428821E+04  0.46999998093E+01 0. -1.
       -5    1    3    3    0  502 -0.54204766801E+03  0.40837916387E+03  0.12126656488E+04  0.13896651689E+04  0.46999998093E+01 0.  1.
</event>
<event>
 5   0  0.6679022E-08  0.3001021E+04  0.7818609E-02  0.8243439E-01
        1   -1    0    0  501    0  0.00000000000E+00  0.00000000000E+00  0.23973901406E+04  0.23973901406E+04  0.50400001928E-02 0. -1.
       -1   -1    0    0    0  501  0.00000000000E+00  0.00000000000E+00 -0.93915938905E+03  0.93915938906E+03  0.50400001928E-02 0.  1.
    10030    2    1    2    0    0  0.00000000000E+00  0.00000000000E+00  0.14582307515E+04  0.33365495296E+04  0.30010207995E+04 0.  0.
        3    1    3    3  502    0 -0.11230937448E+04  0.98398506448E+03  0.56433823172E+03  0.15962593200E+04  0.10100000352E+00 0.  1.
       -3    1    3    3    0  502  0.11230937448E+04 -0.98398506448E+03  0.89389251978E+03  0.17402902096E+04  0.10100000352E+00 0. -1.
</event>
<event>
 5   0  0.1810055E-07  0.2996834E+04  0.7818609E-02  0.8244635E-01
       -2   -1    0    0    0  501  0.00000000000E+00  0.00000000000E+00  0.14767122277E+04  0.14767122277E+04  0.25500000920E-02 0.  1.
        2   -1    0    0  501    0  0.00000000000E+00  0.00000000000E+00 -0.15204412083E+04  0.15204412083E+04  0.25500000920E-02 0. -1.
    10030    2    1    2    0    0  0.00000000000E+00  0.00000000000E+00 -0.43728980604E+02  0.29971534361E+04  0.29968344125E+04 0.  0.
        4    1    3    3  502    0 -0.14764401256E+04 -0.15445152416E+03  0.18192617156E+03  0.14956033775E+04  0.12699999809E+01 0. -1.
       -4    1    3    3    0  502  0.14764401256E+04  0.15445152416E+03 -0.22565515216E+03  0.15015500586E+04  0.12699999809E+01 0.  1.
</event>
<event>
 5   0  0.6017625E-08  0.3001021E+04  0.7818609E-02  0.8243439E-01
       -4   -1    0    0    0  501  0.00000000000E+00  0.00000000000E+00  0.18137103759E+04  0.18137108206E+04  0.12699999809E+01 0.  1.
        4   -1    0    0  501    0  0.00000000000E+00  0.00000000000E+00 -0.12413943920E+04  0.12413950416E+04  0.12699999809E+01 0. -1.
    10030    2    1    2    0    0  0.00000000000E+00  0.00000000000E+00  0.57231598392E+03  0.30551058622E+04  0.30010208669E+04 0.  0.
        3    1    3    3  502    0  0.10237252942E+04  0.10967980990E+04  0.26223982436E+03  0.15230723173E+04  0.10100000352E+00 0. -1.
       -3    1    3    3    0  502 -0.10237252942E+04 -0.10967980990E+04  0.31007615956E+03  0.15320335450E+04  0.10100000352E+00 0.  1.
</event>
<event>
 5   0  0.6374748E-08  0.3000711E+04  0.7818609E-02  0.8243528E-01
       -1   -1    0    0    0  501  0.00000000000E+00  0.00000000000E+00  0.18731698102E+04  0.18731698102E+04  0.50400001928E-02 0. -1.
        1   -1    0    0  501    0  0.00000000000E+00  0.00000000000E+00 -0.12017417795E+04  0.12017417795E+04  0.50400001928E-02 0.  1.
    10030    2    1    2    0    0  0.00000000000E+00  0.00000000000E+00  0.67142803068E+03  0.30749115896E+04  0.30007108631E+04 0.  0.
        1    1    3    3  502    0  0.91184951399E+03 -0.32454503954E+03 -0.83904923168E+03  0.12809381843E+04  0.50400001928E-02 0.  1.
       -1    1    3    3    0  502 -0.91184951399E+03  0.32454503954E+03  0.15104772624E+04  0.17939734053E+04  0.50400001928E-02 0. -1.
</event>
<event>
 5   0  0.6374748E-08  0.3000447E+04  0.7818609E-02  0.8243603E-01
        1   -1    0    0  501    0  0.00000000000E+00  0.00000000000E+00  0.12180158274E+04  0.12180158275E+04  0.50400001928E-02 0.  1.
       -1   -1    0    0    0  501  0.00000000000E+00  0.00000000000E+00 -0.18478167500E+04  0.18478167500E+04  0.50400001928E-02 0. -1.
    10030    2    1    2    0    0  0.00000000000E+00  0.00000000000E+00 -0.62980092255E+03  0.30658325775E+04  0.30004466652E+04 0.  0.
        1    1    3    3  502    0  0.81348319454E+03  0.52731171158E+03  0.85497670583E+03  0.12925934073E+04  0.50400001928E-02 0.  1.
       -1    1    3    3    0  502 -0.81348319454E+03 -0.52731171158E+03 -0.14847776284E+04  0.17732391702E+04  0.50400001928E-02 0. -1.
</event>
<event>
 5   0  0.6679022E-08  0.2991448E+04  0.7818609E-02  0.8246177E-01
        1   -1    0    0  501    0  0.00000000000E+00  0.00000000000E+00  0.15855974435E+04  0.15855974435E+04  0.50400001928E-02 0.  1.
       -1   -1    0    0    0  501  0.00000000000E+00  0.00000000000E+00 -0.14109449494E+04  0.14109449494E+04  0.50400001928E-02 0. -1.
    10030    2    1    2    0    0  0.00000000000E+00  0.00000000000E+00  0.17465249417E+03  0.29965423929E+04  0.29914482811E+04 0.  0.
        3    1    3    3  502    0 -0.37517068485E+03 -0.84355726890E+03 -0.10914736918E+04  0.14295652272E+04  0.10100000352E+00 0. -1.
       -3    1    3    3    0  502  0.37517068485E+03  0.84355726890E+03  0.12661261860E+04  0.15669771657E+04  0.10100000352E+00 0.  1.
</event>
<event>
 5   0  0.1810055E-07  0.3003541E+04  0.7818609E-02  0.8242720E-01
       -2   -1    0    0    0  501  0.00000000000E+00  0.00000000000E+00  0.14384692579E+04  0.14384692579E+04  0.25500000920E-02 0. -1.
        2   -1    0    0  501    0  0.00000000000E+00  0.00000000000E+00 -0.15678577471E+04  0.15678577471E+04  0.25500000920E-02 0.  1.
    10030    2    1    2    0    0  0.00000000000E+00  0.00000000000E+00 -0.12938848915E+03  0.30063270050E+04  0.30035413565E+04 0.  0.
        4    1    3    3  502    0 -0.42108205677E+03  0.10361254915E+04  0.93845651551E+03  0.14599891702E+04  0.12699999809E+01 0. -1.
       -4    1    3    3    0  502  0.42108205677E+03 -0.10361254915E+04 -0.10678450047E+04  0.15463378349E+04  0.12699999809E+01 0.  1.
</event>
<event>
 5   0  0.1817566E-07  0.2997500E+04  0.7818609E-02  0.8244445E-01
        2   -1    0    0  501    0  0.00000000000E+00  0.00000000000E+00  0.15298880090E+04  0.15298880090E+04  0.25500000920E-02 0.  1.
       -2   -1    0    0    0  501  0.00000000000E+00  0.00000000000E+00 -0.14682458132E+04  0.14682458132E+04  0.25500000920E-02 0. -1.
    10030    2    1    2    0    0  0.00000000000E+00  0.00000000000E+00  0.61642195749E+02  0.29981338222E+04  0.29975000676E+04 0.  0.
        1    1    3    3  502    0 -0.25794119132E+03  0.41629405625E+03 -0.13859589763E+04  0.14699376461E+04  0.50400001928E-02 0. -1.
       -1    1    3    3    0  502  0.25794119132E+03 -0.41629405625E+03  0.14476011720E+04  0.15281961761E+04  0.50400001928E-02 0.  1.
</event>
<event>
 5   0  0.6017625E-08  0.2999350E+04  0.7818609E-02  0.8243916E-01
        4   -1    0    0  501    0  0.00000000000E+00  0.00000000000E+00  0.13972292969E+04  0.13972298741E+04  0.12699999809E+01 0.  1.
       -4   -1    0    0    0  501  0.00000000000E+00  0.00000000000E+00 -0.16096313129E+04  0.16096318139E+04  0.12699999809E+01 0. -1.
    10030    2    1    2    0    0  0.00000000000E+00  0.00000000000E+00 -0.21240201602E+03  0.30068616880E+04  0.29993503620E+04 0.  0.
        5    1    3    3  502    0 -0.31012532140E+03  0.25122250774E+03  0.13430031914E+04  0.14010603576E+04  0.46999998093E+01 0.  1.
       -5    1    3    3    0  502  0.31012532140E+03 -0.25122250774E+03 -0.15554052075E+04  0.16058013304E+04  0.46999998093E+01 0. -1.
</event>
<event>
 5   0  0.6636007E-08  0.2999387E+04  0.7818609E-02  0.8243906E-01
        1   -1    0    0  501    0  0.00000000000E+00  0.00000000000E+00  0.23310697775E+04  0.23310697775E+04  0.50400001928E-02 0.  1.
       -1   -1    0    0    0  501  0.00000000000E+00  0.00000000000E+00 -0.96482765107E+03  0.96482765108E+03  0.50400001928E-02 0. -1.
    10030    2    1    2    0    0  0.00000000000E+00  0.00000000000E+00  0.13662421265E+04  0.32958974286E+04  0.29993869893E+04 0.  0.
        2    1    3    3  502    0  0.47780893247E+02  0.12059963242E+04 -0.29502861049E+03  0.12424781804E+04  0.25500000920E-02 0. -1.
       -2    1    3    3    0  502 -0.47780893247E+02 -0.12059963242E+04  0.16612707370E+04  0.20534192483E+04  0.25500000920E-02 0.  1.
</event>
<event>
 5   0  0.6464436E-08  0.3006812E+04  0.7818609E-02  0.8241788E-01
       -1   -1    0    0    0  501  0.00000000000E+00  0.00000000000E+00  0.12841356860E+04  0.12841356860E+04  0.50400001928E-02 0.  1.
        1   -1    0    0  501    0  0.00000000000E+00  0.00000000000E+00 -0.17601168990E+04  0.17601168990E+04  0.50400001928E-02 0. -1.
    10030    2    1    2    0    0  0.00000000000E+00  0.00000000000E+00 -0.47598121294E+03  0.30442525850E+04  0.30068115482E+04 0.  0.
        5    1    3    3  502    0 -0.14324631262E+04  0.26823782441E+03  0.13580128713E+03  0.14636824171E+04  0.46999998093E+01 0.  1.
       -5    1    3    3    0  502  0.14324631262E+04 -0.26823782441E+03 -0.61178250007E+03  0.15805701680E+04  0.46999998093E+01 0. -1.
</event>
<event>
 5   0  0.1810055E-07  0.2997715E+04  0.7818609E-02  0.8244384E-01
        2   -1    0    0  501    0  0.00000000000E+00  0.00000000000E+00  0.17647109535E+04  0.17647109535E+04  0.25500000920E-02 0.  1.
       -2   -1    0    0    0  501  0.00000000000E+00  0.00000000000E+00 -0.12730545802E+04  0.12730545802E+04  0.25500000920E-02 0. -1.
    10030    2    1    2    0    0  0.00000000000E+00  0.00000000000E+00  0.49165637335E+03  0.30377655337E+04  0.29977147043E+04 0.  0.
        4    1    3    3  502    0  0.80946006232E+02 -0.46109105860E+03 -0.11970684773E+04  0.12853527814E+04  0.12699999809E+01 0. -1.
       -4    1    3    3    0  502 -0.80946006232E+02  0.46109105860E+03  0.16887248507E+04  0.17524127523E+04  0.12699999809E+01 0.  1.
</event>
<event>
 5   0  0.6679022E-08  0.2999855E+04  0.7818609E-02  0.8243772E-01
        1   -1    0    0  501    0  0.00000000000E+00  0.00000000000E+00  0.18940736602E+04  0.18940736602E+04  0.50400001928E-02 0. -1.
       -1   -1    0    0    0  501  0.00000000000E+00  0.00000000000E+00 -0.11878007670E+04  0.11878007670E+04  0.50400001928E-02 0.  1.
    10030    2    1    2    0    0  0.00000000000E+00  0.00000000000E+00  0.70627289313E+03  0.30818744272E+04  0.29998547607E+04 0.  0.
        3    1    3    3  502    0  0.45020267298E+02  0.31609873622E+03  0.18587563949E+04  0.18859800056E+04  0.10100000352E+00 0. -1.
       -3    1    3    3    0  502 -0.45020267298E+02 -0.31609873622E+03 -0.11524835018E+04  0.11958944216E+04  0.10100000352E+00 0.  1.
</event>
<event>
 5   0  0.1810055E-07  0.2999611E+04  0.7818609E-02  0.8243842E-01
       -2   -1    0    0    0  501  0.00000000000E+00  0.00000000000E+00  0.16606739458E+04  0.16606739458E+04  0.25500000920E-02 0. -1.
        2   -1    0    0  501    0  0.00000000000E+00  0.00000000000E+00 -0.13545206677E+04  0.13545206677E+04  0.25500000920E-02 0.  1.
    10030    2    1    2    0    0  0.00000000000E+00  0.00000000000E+00  0.30615327810E+03  0.30151946136E+04  0.29996114295E+04 0.  0.
        4    1    3    3  502    0  0.51939930199E+02  0.31394365421E+03 -0.13201968638E+04  0.13580057977E+04  0.12699999809E+01 0.  1.
       -4    1    3    3    0  502 -0.51939930199E+02 -0.31394365421E+03  0.16263501419E+04  0.16571888159E+04  0.12699999809E+01 0. -1.
</event>
<event>
 5   0  0.6679022E-08  0.2999255E+04  0.7818609E-02  0.8243944E-01
       -1   -1    0    0    0  501  0.00000000000E+00  0.00000000000E+00  0.19441242044E+04  0.19441242044E+04  0.50400001928E-02 0.  1.
        1   -1    0    0  501    0  0.00000000000E+00  0.00000000000E+00 -0.11567588501E+04  0.11567588501E+04  0.50400001928E-02 0. -1.
    10030    2    1    2    0    0  0.00000000000E+00  0.00000000000E+00  0.78736535434E+03  0.31008830545E+04  0.29992551603E+04 0.  0.
        3    1    3    3  502    0 -0.60737580248E+03  0.13241740722E+04  0.76146156689E+03  0.16438266536E+04  0.10100000352E+00 0.  1.
       -3    1    3    3    0  502  0.60737580248E+03 -0.13241740722E+04  0.25903787452E+02  0.14570564009E+04  0.10100000352E+00 0. -1.
</event>
<event>
 5   0  0.6679022E-08  0.2999648E+04  0.7818609E-02  0.8243831E-01
        1   -1    0    0  501    0  0.00000000000E+00  0.00000000000E+00  0.15675531229E+04  0.15675531230E+04  0.50400001928E-02 0. -1.
       -1   -1    0    0    0  501  0.00000000000E+00  0.00000000000E+00 -0.14350209345E+04  0.14350209345E+04  0.50400001928E-02 0.  1.
    10030    2    1    2    0    0  0.00000000000E+00  0.00000000000E+00  0.13253218841E+03  0.30025740575E+04  0.29996476776E+04 0.  0.
        3    1    3    3  502    0  0.69264076974E+03  0.11031363513E+04 -0.67797152481E+03  0.14684367348E+04  0.10100000352E+00 0.  1.
       -3    1    3    3    0  502 -0.69264076974E+03 -0.11031363513E+04  0.81050371322E+03  0.15341373227E+04  0.10100000352E+00 0. -1.
</event>
<event>
 5   0  0.1810055E-07  0.2999640E+04  0.7818609E-02  0.8243834E-01
        2   -1    0    0  501    0  0.00000000000E+00  0.00000000000E+00  0.15196076491E+04  0.15196076491E+04  0.25500000920E-02 0. -1.
       -2   -1    0    0    0  501  0.00000000000E+00  0.00000000000E+00 -0.14802896608E+04  0.14802896609E+04  0.25500000920E-02 0.  1.
    10030    2    1    2    0    0  0.00000000000E+00  0.00000000000E+00  0.39317988276E+02  0.29998973100E+04  0.29996396394E+04 0.  0.
        4    1    3    3  502    0 -0.11113484642E+04 -0.77732952562E+02 -0.98457867477E+03  0.14867866695E+04  0.12699999809E+01 0.  1.
       -4    1    3    3    0  502  0.11113484642E+04  0.77732952562E+02  0.10238966630E+04  0.15131106405E+04  0.12699999809E+01 0. -1.
</event>
<event>
 5   0  0.1817566E-07  0.3000193E+04  0.7818609E-02  0.8243676E-01
       -2   -1    0    0    0  501  0.00000000000E+00  0.00000000000E+00  0.15321198548E+04  0.15321198548E+04  0.25500000920E-02 0.  1.
        2   -1    0    0  501    0  0.00000000000E+00  0.00000000000E+00 -0.14687421276E+04  0.14687421276E+04  0.25500000920E-02 0. -1.
    10030    2    1    2    0    0  0.00000000000E+00  0.00000000000E+00  0.63377727197E+02  0.30008619824E+04  0.30001926440E+04 0.  0.
        1    1    3    3  502    0  0.51499923851E+03  0.13811442511E+04 -0.24677101461E+03  0.14945499629E+04  0.50400001928E-02 0. -1.
       -1    1    3    3    0  502 -0.51499923851E+03 -0.13811442511E+04  0.31014874181E+03  0.15063120195E+04  0.50400001928E-02 0.  1.
</event>
<event>
 5   0  0.1821305E-07  0.2999034E+04  0.7818609E-02  0.8244007E-01
       -2   -1    0    0    0  501  0.00000000000E+00  0.00000000000E+00  0.13247020963E+04  0.13247020963E+04  0.25500000920E-02 0. -1.
        2   -1    0    0  501    0  0.00000000000E+00  0.00000000000E+00 -0.16974017287E+04  0.16974017287E+04  0.25500000920E-02 0.  1.
    10030    2    1    2    0    0  0.00000000000E+00  0.00000000000E+00 -0.37269963237E+03  0.30221038250E+04  0.29990342634E+04 0.  0.
        2    1    3    3  502    0  0.99008378637E+03 -0.36190341978E+03  0.88830179672E+03  0.13785209724E+04  0.25500000920E-02 0. -1.
       -2    1    3    3    0  502 -0.99008378637E+03  0.36190341978E+03 -0.12610014291E+04  0.16435828526E+04  0.25500000920E-02 0.  1.
</event>
<event>
 5   0  0.1810055E-07  0.2999142E+04  0.7818609E-02  0.8243976E-01
       -2   -1    0    0    0  501  0.00000000000E+00  0.00000000000E+00  0.73179928271E+03  0.73179928272E+03  0.25500000920E-02 0. -1.
        2   -1    0    0  501    0  0.00000000000E+00  0.00000000000E+00 -0.30728552543E+04  0.30728552543E+04  0.25500000920E-02 0.  1.
    10030    2    1    2    0    0  0.00000000000E+00  0.00000000000E+00 -0.23410559716E+04  0.38046545370E+04  0.29991420580E+04 0.  0.
        4    1    3    3  502    0  0.46498593211E+02  0.74901773174E+02 -0.30695641476E+04  0.30708301914E+04  0.12699999809E+01 0.  1.
       -4    1    3    3    0  502 -0.46498593211E+02 -0.74901773174E+02  0.72850817606E+03  0.73382434566E+03  0.12699999809E+01 0. -1.
</event>
<event>
 5   0  0.6374748E-08  0.2999440E+04  0.7818609E-02  0.8243891E-01
        1   -1    0    0  501    0  0.00000000000E+00  0.00000000000E+00  0.19867595797E+04  0.19867595797E+04  0.50400001928E-02 0. -1.
       -1   -1    0    0    0  501  0.00000000000E+00  0.00000000000E+00 -0.11320747821E+04  0.11320747821E+04  0.50400001928E-02 0.  1.
    10030    2    1    2    0    0  0.00000000000E+00  0.00000000000E+00  0.85468479766E+03  0.31188343618E+04  0.29994402266E+04 0.  0.
        1    1    3    3  502    0  0.79198315553E+03  0.60830095329E+03 -0.73607542480E+03  0.12405943734E+04  0.50400001928E-02 0.  1.
       -1    1    3    3    0  502 -0.79198315553E+03 -0.60830095329E+03  0.15907602225E+04  0.18782399883E+04  0.50400001928E-02 0. -1.
</event>
<event>
 5   0  0.6679022E-08  0.3000989E+04  0.7818609E-02  0.8243449E-01
       -1   -1    0    0    0  501  0.00000000000E+00  0.00000000000E+00  0.13438962286E+04  0.13438962286E+04  0.50400001928E-02 0.  1.
        1   -1    0    0  501    0  0.00000000000E+00  0.00000000000E+00 -0.16753399791E+04  0.16753399791E+04  0.50400001928E-02 0. -1.
    10030    2    1    2    0    0  0.00000000000E+00  0.00000000000E+00 -0.33144375050E+03  0.30192362077E+04  0.30009885568E+04 0.  0.
        3    1    3    3  502    0  0.83101763897E+03  0.43938793838E+03 -0.13423764065E+04  0.16387881204E+04  0.10100000352E+00 0. -1.
       -3    1    3    3    0  502 -0.83101763897E+03 -0.43938793838E+03  0.10109326560E+04  0.13804480873E+04  0.10100000352E+00 0.  1.
</event>
<event>
 5   0  0.1821305E-07  0.3000500E+04  0.7818609E-02  0.8243588E-01
        2   -1    0    0  501    0  0.00000000000E+00  0.00000000000E+00  0.22774343064E+04  0.22774343064E+04  0.25500000920E-02 0.  1.
       -2   -1    0    0    0  501  0.00000000000E+00  0.00000000000E+00 -0.98828337141E+03  0.98828337142E+03  0.25500000920E-02 0. -1.
    10030    2    1    2    0    0  0.00000000000E+00  0.00000000000E+00  0.12891509350E+04  0.32657176778E+04  0.30005002613E+04 0.  0.
        2    1    3    3  502    0 -0.13806433424E+04  0.43879522811E+03  0.10689547111E+04  0.18003836995E+04  0.25500000920E-02 0.  1.
       -2    1    3    3    0  502  0.13806433424E+04 -0.43879522811E+03  0.22019622392E+03  0.14653339783E+04  0.25500000920E-02 0. -1.
</event>
<event>
 5   0  0.6636007E-08  0.3000002E+04  0.7818609E-02  0.8243730E-01
        1   -1    0    0  501    0  0.00000000000E+00  0.00000000000E+00  0.17304551568E+04  0.17304551568E+04  0.50400001928E-02 0. -1.
       -1   -1    0    0    0  501  0.00000000000E+00  0.00000000000E+00 -0.13002376075E+04  0.13002376076E+04  0.50400001928E-02 0.  1.
    10030    2    1    2    0    0  0.00000000000E+00  0.00000000000E+00  0.43021754923E+03  0.30306927643E+04  0.30000019154E+04 0.  0.
        2    1    3    3  502    0 -0.10145245843E+04 -0.10835719383E+04 -0.30041190087E+01  0.14843844860E+04  0.25500000920E-02 0. -1.
       -2    1    3    3    0  502  0.10145245843E+04  0.10835719383E+04  0.43322166824E+03  0.15463082783E+04  0.25500000920E-02 0.  1.
</event>
<event>
 5   0  0.6525507E-08  0.2998541E+04  0.7818609E-02  0.8244148E-01
       -1   -1    0    0    0  501  0.00000000000E+00  0.00000000000E+00  0.13748877227E+04  0.13748877227E+04  0.50400001928E-02 0. -1.
        1   -1    0    0  501    0  0.00000000000E+00  0.00000000000E+00 -0.16349062699E+04  0.16349062699E+04  0.50400001928E-02 0.  1.
    10030    2    1    2    0    0  0.00000000000E+00  0.00000000000E+00 -0.26001854716E+03  0.30097939926E+04  0.29985413509E+04 0.  0.
        4    1    3    3  502    0  0.71159133840E+03  0.41341860190E+03  0.11279030406E+04  0.13962249300E+04  0.12699999809E+01 0. -1.
       -4    1    3    3    0  502 -0.71159133840E+03 -0.41341860190E+03 -0.13879215877E+04  0.16135690626E+04  0.12699999809E+01 0.  1.
</event>
<event>
 5   0  0.6525507E-08  0.3003454E+04  0.7818609E-02  0.8242745E-01
        1   -1    0    0  501    0  0.00000000000E+00  0.00000000000E+00  0.14940472465E+04  0.14940472465E+04  0.50400001928E-02 0.  1.
       -1   -1    0    0    0  501  0.00000000000E+00  0.00000000000E+00 -0.15094465224E+04  0.15094465224E+04  0.50400001928E-02 0. -1.
    10030    2    1    2    0    0  0.00000000000E+00  0.00000000000E+00 -0.15399275887E+02  0.30034937690E+04  0.30034542917E+04 0.  0.
        4    1    3    3  502    0 -0.10432502503E+04  0.10781921032E+04  0.57978555681E+02  0.15014101444E+04  0.12699999809E+01 0.  1.
       -4    1    3    3    0  502  0.10432502503E+04 -0.10781921032E+04 -0.73377831568E+02  0.15020836245E+04  0.12699999809E+01 0. -1.
</event>
<event>
 5   0  0.1821305E-07  0.2999212E+04  0.7818609E-02  0.8243956E-01
        2   -1    0    0  501    0  0.00000000000E+00  0.00000000000E+00  0.23706777026E+04  0.23706777026E+04  0.25500000920E-02 0.  1.
       -2   -1    0    0    0  501  0.00000000000E+00  0.00000000000E+00 -0.94859732575E+03  0.94859732575E+03  0.25500000920E-02 0. -1.
    10030    2    1    2    0    0  0.00000000000E+00  0.00000000000E+00  0.14220803769E+04  0.33192750284E+04  0.29992122492E+04 0.  0.
        2    1    3    3  502    0 -0.48797124388E+03  0.19237342685E+03  0.22658456748E+04  0.23257644103E+04  0.25500000920E-02 0.  1.
       -2    1    3    3    0  502  0.48797124388E+03 -0.19237342685E+03 -0.84376529793E+03  0.99351061807E+03  0.25500000920E-02 0. -1.
</event>
<event>
 5   0  0.6374748E-08  0.2998837E+04  0.7818609E-02  0.8244063E-01
        1   -1    0    0  501    0  0.00000000000E+00  0.00000000000E+00  0.92261140084E+03  0.92261140085E+03  0.50400001928E-02 0.  1.
       -1   -1    0    0    0  501  0.00000000000E+00  0.00000000000E+00 -0.24368398110E+04  0.24368398110E+04  0.50400001928E-02 0. -1.
    10030    2    1    2    0    0  0.00000000000E+00  0.00000000000E+00 -0.15142284101E+04  0.33594512118E+04  0.29988372358E+04 0.  0.
        1    1    3    3  502    0  0.14133916700E+04  0.58600967259E+01 -0.19637742938E+03  0.14269808858E+04  0.50400001928E-02 0.  1.
       -1    1    3    3    0  502 -0.14133916700E+04 -0.58600967259E+01 -0.13178509808E+04  0.19324703261E+04  0.50400001928E-02 0. -1.
</event>
<event>
 5   0  0.1821305E-07  0.2996471E+04  0.7818609E-02  0.8244739E-01
        2   -1    0    0  501    0  0.00000000000E+00  0.00000000000E+00  0.15992624809E+04  0.15992624809E+04  0.25500000920E-02 0. -1.
       -2   -1    0    0    0  501  0.00000000000E+00  0.00000000000E+00 -0.14035908069E+04  0.14035908069E+04  0.25500000920E-02 0.  1.
    10030    2    1    2    0    0  0.00000000000E+00  0.00000000000E+00  0.19567167401E+03  0.30028532878E+04  0.29964713355E+04 0.  0.
        2    1    3    3  502    0  0.21217686182E+03 -0.59103847153E+02  0.15829495756E+04  0.15981995008E+04  0.25500000920E-02 0. -1.
       -2    1    3    3    0  502 -0.21217686182E+03  0.59103847153E+02 -0.13872779015E+04  0.14046537871E+04  0.25500000920E-02 0.  1.
</event>
<event>
 5   0  0.1821305E-07  0.3000434E+04  0.7818609E-02  0.8243607E-01
       -2   -1    0    0    0  501  0.00000000000E+00  0.00000000000E+00  0.15780342214E+04  0.15780342214E+04  0.25500000920E-02 0. -1.
        2   -1    0    0  501    0  0.00000000000E+00  0.00000000000E+00 -0.14262372644E+04  0.14262372644E+04  0.25500000920E-02 0.  1.
    10030    2    1    2    0    0  0.00000000000E+00  0.00000000000E+00  0.15179695698E+03  0.30042714858E+04  0.30004341093E+04 0.  0.
        2    1    3    3  502    0 -0.92141612684E+03  0.10852249183E+03 -0.11045352499E+04  0.14424919162E+04  0.25500000920E-02 0.  1.
       -2    1    3    3    0  502  0.92141612684E+03 -0.10852249183E+03  0.12563322069E+04  0.15617795696E+04  0.25500000920E-02 0. -1.
</event>
<event>
 5   0  0.1821305E-07  0.3001284E+04  0.7818609E-02  0.8243364E-01
       -2   -1    0    0    0  501  0.00000000000E+00  0.00000000000E+00  0.17600444391E+04  0.17600444391E+04  0.25500000920E-02 0.  1.
        2   -1    0    0  501    0  0.00000000000E+00  0.00000000000E+00 -0.12794716769E+04  0.12794716769E+04  0.25500000920E-02 0. -1.
    10030    2    1    2    0    0  0.00000000000E+00  0.00000000000E+00  0.48057276225E+03  0.30395161160E+04  0.30012843983E+04 0.  0.
        2    1    3    3  502    0 -0.72414484268E+03 -0.12205883721E+04 -0.25347454210E+03  0.14416903519E+04  0.25500000920E-02 0. -1.
       -2    1    3    3    0  502  0.72414484268E+03  0.12205883721E+04  0.73404730435E+03  0.15978257641E+04  0.25500000920E-02 0.  1.
</event>
<event>
 5   0  0.1817566E-07  0.3000085E+04  0.7818609E-02  0.8243706E-01
        2   -1    0    0  501    0  0.00000000000E+00  0.00000000000E+00  0.13467741505E+04  0.13467741505E+04  0.25500000920E-02 0.  1.
       -2   -1    0    0    0  501  0.00000000000E+00  0.00000000000E+00 -0.16707539338E+04  0.16707539338E+04  0.25500000920E-02 0. -1.
    10030    2    1    2    0    0  0.00000000000E+00  0.00000000000E+00 -0.32397978324E+03  0.30175280843E+04  0.30000854720E+04 0.  0.
        1    1    3    3  502    0  0.88245275341E+03  0.29922870825E+03 -0.13443530766E+04  0.16357095942E+04  0.50400001928E-02 0. -1.
       -1    1    3    3    0  502 -0.88245275341E+03 -0.29922870825E+03  0.10203732933E+04  0.13818184901E+04  0.50400001928E-02 0.  1.
</event>
<event>
 5   0  0.6636007E-08  0.3004335E+04  0.7818609E-02  0.8242494E-01
       -1   -1    0    0    0  501  0.00000000000E+00  0.00000000000E+00  0.15682071667E+04  0.15682071667E+04  0.50400001928E-02 0. -1.
        1   -1    0    0  501    0  0.00000000000E+00  0.00000000000E+00 -0.14389085711E+04  0.14389085711E+04  0.50400001928E-02 0.  1.
    10030    2    1    2    0    0  0.00000000000E+00  0.00000000000E+00  0.12929859563E+03  0.30071157379E+04  0.30043346907E+04 0.  0.
        2    1    3    3  502    0 -0.10404594803E+04 -0.10118303143E+04  0.45250020822E+03  0.15202345061E+04  0.25500000920E-02 0. -1.
       -2    1    3    3    0  502  0.10404594803E+04  0.10118303143E+04 -0.32320161259E+03  0.14868812318E+04  0.25500000920E-02 0.  1.
</event>
<event>
 5   0  0.1810055E-07  0.3000445E+04  0.7818609E-02  0.8243604E-01
        2   -1    0    0  501    0  0.00000000000E+00  0.00000000000E+00  0.14558859055E+04  0.14558859055E+04  0.25500000920E-02 0. -1.
       -2   -1    0    0    0  501  0.00000000000E+00  0.00000000000E+00 -0.15459096317E+04  0.15459096317E+04  0.25500000920E-02 0.  1.
    10030    2    1    2    0    0  0.00000000000E+00  0.00000000000E+00 -0.90023726173E+02  0.30017955373E+04  0.30004453296E+04 0.  0.
        4    1    3    3  502    0 -0.36807946961E+03 -0.96820198448E+03 -0.11307508228E+04  0.15334590359E+04  0.12699999809E+01 0.  1.
       -4    1    3    3    0  502  0.36807946961E+03  0.96820198448E+03  0.10407270966E+04  0.14683365013E+04  0.12699999809E+01 0. -1.
</event>
<event>
 5   0  0.1914439E-07  0.3000596E+04  0.7818609E-02  0.8243561E-01
       -2   -1    0    0    0  501  0.00000000000E+00  0.00000000000E+00  0.10263294838E+04  0.10263294838E+04  0.25500000920E-02 0. -1.
        2   -1    0    0  501    0  0.00000000000E+00  0.00000000000E+00 -0.21931490901E+04  0.21931490902E+04  0.25500000920E-02 0.  1.
    10030    2    1    2    0    0  0.00000000000E+00  0.00000000000E+00 -0.11668196063E+04  0.32194785740E+04  0.30005956566E+04 0.  0.
        5    1    3    3  502    0 -0.10736981171E+04  0.92098384405E+03 -0.11197034019E+04  0.18041055085E+04  0.46999998093E+01 0.  1.
       -5    1    3    3    0  502  0.10736981171E+04 -0.92098384405E+03 -0.47116204440E+02  0.14153730654E+04  0.46999998093E+01 0. -1.
</event>
<event>
 5   0  0.6679022E-08  0.3000924E+04  0.7818609E-02  0.8243467E-01
       -1   -1    0    0    0  501  0.00000000000E+00  0.00000000000E+00  0.11691588938E+04  0.11691588938E+04  0.50400001928E-02 0. -1.
        1   -1    0    0  501    0  0.00000000000E+00  0.00000000000E+00 -0.19256465735E+04  0.19256465735E+04  0.50400001928E-02 0.  1.
    10030    2    1    2    0    0  0.00000000000E+00  0.00000000000E+00 -0.75648767966E+03  0.30948054673E+04  0.30009244028E+04 0.  0.
        3    1    3    3  502    0  0.12595344572E+04  0.40407001156E+03 -0.11087010898E+04  0.17259541534E+04  0.10100000352E+00 0.  1.
       -3    1    3    3    0  502 -0.12595344572E+04 -0.40407001156E+03  0.35221341015E+03  0.13688513139E+04  0.10100000352E+00 0. -1.
</event>
<event>
 5   0  0.1914439E-07  0.3000223E+04  0.7818609E-02  0.8243667E-01
       -2   -1    0    0    0  501  0.00000000000E+00  0.00000000000E+00  0.28630811737E+04  0.28630811737E+04  0.25500000920E-02 0.  1.
        2   -1    0    0  501    0  0.00000000000E+00  0.00000000000E+00 -0.78598368024E+03  0.78598368024E+03  0.25500000920E-02 0. -1.
    10030    2    1    2    0    0  0.00000000000E+00  0.00000000000E+00  0.20770974935E+04  0.36490648539E+04  0.30002233768E+04 0.  0.
        5    1    3    3  502    0 -0.12745129761E+04  0.69686256279E+03  0.14941403959E+04  0.20838614086E+04  0.46999998093E+01 0. -1.
       -5    1    3    3    0  502  0.12745129761E+04 -0.69686256279E+03  0.58295709754E+03  0.15652034453E+04  0.46999998093E+01 0.  1.
</event>
<event>
 5   0  0.6464436E-08  0.2999072E+04  0.7818609E-02  0.8243996E-01
       -1   -1    0    0    0  501  0.00000000000E+00  0.00000000000E+00  0.15821906289E+04  0.15821906290E+04  0.50400001928E-02 0.  1.
        1   -1    0    0  501    0  0.00000000000E+00  0.00000000000E+00 -0.14211990004E+04  0.14211990004E+04  0.50400001928E-02 0. -1.
    10030    2    1    2    0    0  0.00000000000E+00  0.00000000000E+00  0.16099162856E+03  0.30033896294E+04  0.29990716832E+04 0.  0.
        5    1    3    3  502    0 -0.12336863445E+04 -0.82590447891E+03  0.29171521336E+03  0.15130168738E+04  0.46999998093E+01 0.  1.
       -5    1    3    3    0  502  0.12336863445E+04  0.82590447891E+03 -0.13072358480E+03  0.14903727555E+04  0.46999998093E+01 0. -1.
</event>
<event>
 5   0  0.1914439E-07  0.2998575E+04  0.7818609E-02  0.8244138E-01
        2   -1    0    0  501    0  0.00000000000E+00  0.00000000000E+00  0.17314887041E+04  0.17314887041E+04  0.25500000920E-02 0. -1.
       -2   -1    0    0    0  501  0.00000000000E+00  0.00000000000E+00 -0.12982259440E+04  0.12982259440E+04  0.25500000920E-02 0.  1.
    10030    2    1    2    0    0  0.00000000000E+00  0.00000000000E+00  0.43326276010E+03  0.30297146480E+04  0.29985753666E+04 0.  0.
        5    1    3    3  502    0 -0.84592993632E+03  0.12355247889E+04  0.29306420196E+03  0.15257875598E+04  0.46999998093E+01 0.  1.
       -5    1    3    3    0  502  0.84592993632E+03 -0.12355247889E+04  0.14019855814E+03  0.15039270883E+04  0.46999998093E+01 0. -1.
</event>
<event>
 5   0  0.1821305E-07  0.2998020E+04  0.7818609E-02  0.8244296E-01
        2   -1    0    0  501    0  0.00000000000E+00  0.00000000000E+00  0.19607547004E+04  0.19607547004E+04  0.25500000920E-02 0. -1.
       -2   -1    0    0    0  501  0.00000000000E+00  0.00000000000E+00 -0.11460033045E+04  0.11460033045E+04  0.25500000920E-02 0.  1.
    10030    2    1    2    0    0  0.00000000000E+00  0.00000000000E+00  0.81475139594E+03  0.31067580049E+04  0.29980202574E+04 0.  0.
        2    1    3    3  502    0 -0.98068368542E+03 -0.14693840758E+03  0.15722923469E+04  0.18588799344E+04  0.25500000920E-02 0. -1.
       -2    1    3    3    0  502  0.98068368542E+03  0.14693840758E+03 -0.75754095092E+03  0.12478780705E+04  0.25500000920E-02 0.  1.
</event>
<event>
 5   0  0.6374748E-08  0.2999904E+04  0.7818609E-02  0.8243758E-01
        1   -1    0    0  501    0  0.00000000000E+00  0.00000000000E+00  0.18879628577E+04  0.18879628577E+04  0.50400001928E-02 0. -1.
       -1   -1    0    0    0  501  0.00000000000E+00  0.00000000000E+00 -0.11916843322E+04  0.11916843322E+04  0.50400001928E-02 0.  1.
    10030    2    1    2    0    0  0.00000000000E+00  0.00000000000E+00  0.69627852552E+03  0.30796471899E+04  0.29999038366E+04 0.  0.
        1    1    3    3  502    0  0.10078035480E+04  0.33847503895E+03  0.14343883497E+04  0.17854140363E+04  0.50400001928E-02 0. -1.
       -1    1    3    3    0  502 -0.10078035480E+04 -0.33847503895E+03 -0.73810982417E+03  0.12942331536E+04  0.50400001928E-02 0.  1.
</event>
<event>
 5   0  0.6679022E-08  0.2988284E+04  0.7818609E-02  0.8247085E-01
        1   -1    0    0  501    0  0.00000000000E+00  0.00000000000E+00  0.13313683607E+04  0.13313683607E+04  0.50400001928E-02 0. -1.
       -1   -1    0    0    0  501  0.00000000000E+00  0.00000000000E+00 -0.16768159046E+04  0.16768159046E+04  0.50400001928E-02 0.  1.
    10030    2    1    2    0    0  0.00000000000E+00  0.00000000000E+00 -0.34544754389E+03  0.30081842652E+04  0.29882835488E+04 0.  0.
        3    1    3    3  502    0 -0.71624446389E+01 -0.10316998890E+04  0.91521570309E+03  0.13791576252E+04  0.10100000352E+00 0. -1.
       -3    1    3    3    0  502  0.71624446389E+01  0.10316998890E+04 -0.12606632470E+04  0.16290266401E+04  0.10100000352E+00 0.  1.
</event>
<event>
 5   0  0.1810055E-07  0.3000324E+04  0.7818609E-02  0.8243638E-01
        2   -1    0    0  501    0  0.00000000000E+00  0.00000000000E+00  0.11923625626E+04  0.11923625626E+04  0.25500000920E-02 0. -1.
       -2   -1    0    0    0  501  0.00000000000E+00  0.00000000000E+00 -0.18874180411E+04  0.18874180411E+04  0.25500000920E-02 0.  1.
    10030    2    1    2    0    0  0.00000000000E+00  0.00000000000E+00 -0.69505547855E+03  0.30797806037E+04  0.30003243906E+04 0.  0.
        4    1    3    3  502    0  0.11379455759E+04  0.88725373411E+03  0.73637530480E+02  0.14448402753E+04  0.12699999809E+01 0. -1.
       -4    1    3    3    0  502 -0.11379455759E+04 -0.88725373411E+03 -0.76869300903E+03  0.16349403284E+04  0.12699999809E+01 0.  1.
</event>
<event>
 5   0  0.1810055E-07  0.3000348E+04  0.7818609E-02  0.8243632E-01
       -2   -1    0    0    0  501  0.00000000000E+00  0.00000000000E+00  0.10269794669E+04  0.10269794669E+04  0.25500000920E-02 0. -1.
        2   -1    0    0  501    0  0.00000000000E+00  0.00000000000E+00 -0.21913988743E+04  0.21913988743E+04  0.25500000920E-02 0.  1.
    10030    2    1    2    0    0  0.00000000000E+00  0.00000000000E+00 -0.11644194075E+04  0.32183783412E+04  0.30003477450E+04 0.  0.
        4    1    3    3  502    0 -0.67037317756E+03  0.96474884425E+03  0.41852700771E+03  0.12471194805E+04  0.12699999809E+01 0. -1.
       -4    1    3    3    0  502  0.67037317756E+03 -0.96474884425E+03 -0.15829464152E+04  0.19712588607E+04  0.12699999809E+01 0.  1.
</event>
<event>
 5   0  0.1817566E-07  0.2999570E+04  0.7818609E-02  0.8243854E-01
       -2   -1    0    0    0  501  0.00000000000E+00  0.00000000000E+00  0.13340035761E+04  0.13340035761E+04  0.25500000920E-02 0. -1.
        2   -1    0    0  501    0  0.00000000000E+00  0.00000000000E+00 -0.16861689410E+04  0.16861689410E+04  0.25500000920E-02 0.  1.
    10030    2    1    2    0    0  0.00000000000E+00  0.00000000000E+00 -0.35216536497E+03  0.30201725171E+04  0.29995702340E+04 0.  0.
        1    1    3    3  502    0 -0.13264503626E+04  0.11724320437E+02  0.52854349499E+03  0.14279237551E+04  0.50400001928E-02 0.  1.
       -1    1    3    3    0  502  0.13264503626E+04 -0.11724320437E+02 -0.88070885995E+03  0.15922487620E+04  0.50400001928E-02 0. -1.
</event>
<event>
 5   0  0.1914439E-07  0.3000630E+04  0.7818609E-02  0.8243551E-01
       -2   -1    0    0    0  501  0.00000000000E+00  0.00000000000E+00  0.12980396439E+04  0.12980396439E+04  0.25500000920E-02 0. -1.
        2   -1    0    0  501    0  0.00000000000E+00  0.00000000000E+00 -0.17341117576E+04  0.17341117576E+04  0.25500000920E-02 0.  1.
    10030    2    1    2    0    0  0.00000000000E+00  0.00000000000E+00 -0.43607211375E+03  0.30321514015E+04  0.30006304726E+04 0.  0.
        5    1    3    3  502    0 -0.21208590495E+03  0.10392295086E+04  0.85421631737E+03  0.13618685727E+04  0.46999998093E+01 0. -1.
       -5    1    3    3    0  502  0.21208590495E+03 -0.10392295086E+04 -0.12902884311E+04  0.16702828287E+04  0.46999998093E+01 0.  1.
</event>
<event>
 5   0  0.6679022E-08  0.3000765E+04  0.7818609E-02  0.8243513E-01
        1   -1    0    0  501    0  0.00000000000E+00  0.00000000000E+00  0.15620620056E+04  0.15620620056E+04  0.50400001928E-02 0.  1.
       -1   -1    0    0    0  501  0.00000000000E+00  0.00000000000E+00 -0.14411382926E+04  0.14411382927E+04  0.50400001928E-02 0. -1.
    10030    2    1    2    0    0  0.00000000000E+00  0.00000000000E+00  0.12092371294E+03  0.30032002982E+04  0.30007648170E+04 0.  0.
        3    1    3    3  502    0  0.33431793208E+03  0.90877205482E+03  0.12074776565E+04  0.15477846841E+04  0.10100000352E+00 0.  1.
       -3    1    3    3    0  502 -0.33431793208E+03 -0.90877205482E+03 -0.10865539436E+04  0.14554156141E+04  0.10100000352E+00 0. -1.
</event>
<event>
 5   0  0.6374748E-08  0.2998185E+04  0.7818609E-02  0.8244249E-01
        1   -1    0    0  501    0  0.00000000000E+00  0.00000000000E+00  0.14645268708E+04  0.14645268708E+04  0.50400001928E-02 0. -1.
       -1   -1    0    0    0  501  0.00000000000E+00  0.00000000000E+00 -0.15344735433E+04  0.15344735433E+04  0.50400001928E-02 0.  1.
    10030    2    1    2    0    0  0.00000000000E+00  0.00000000000E+00 -0.69946672513E+02  0.29990004141E+04  0.29981846085E+04 0.  0.
        1    1    3    3  502    0  0.73288171399E+03 -0.76039432492E+03 -0.10992001439E+04  0.15243215187E+04  0.50400001928E-02 0.  1.
       -1    1    3    3    0  502 -0.73288171399E+03  0.76039432492E+03  0.10292534714E+04  0.14746788954E+04  0.50400001928E-02 0. -1.
</event>
<event>
 5   0  0.1821305E-07  0.2999955E+04  0.7818609E-02  0.8243744E-01
        2   -1    0    0  501    0  0.00000000000E+00  0.00000000000E+00  0.20599326169E+04  0.20599326169E+04  0.25500000920E-02 0. -1.
       -2   -1    0    0    0  501  0.00000000000E+00  0.00000000000E+00 -0.10922359879E+04  0.10922359879E+04  0.25500000920E-02 0.  1.
    10030    2    1    2    0    0  0.00000000000E+00  0.00000000000E+00  0.96769662891E+03  0.31521686048E+04  0.29999550242E+04 0.  0.
        2    1    3    3  502    0  0.83697203195E+03 -0.70779693068E+03 -0.59203510480E+03  0.12457946230E+04  0.25500000920E-02 0.  1.
       -2    1    3    3    0  502 -0.83697203195E+03  0.70779693068E+03  0.15597317337E+04  0.19063739818E+04  0.25500000920E-02 0. -1.
</event>
<event>
 5   0  0.6464436E-08  0.2999645E+04  0.7818609E-02  0.8243832E-01
        1   -1    0    0  501    0  0.00000000000E+00  0.00000000000E+00  0.13734371187E+04  0.13734371187E+04  0.50400001928E-02 0.  1.
       -1   -1    0    0    0  501  0.00000000000E+00  0.00000000000E+00 -0.16378380066E+04  0.16378380066E+04  0.50400001928E-02 0. -1.
    10030    2    1    2    0    0  0.00000000000E+00  0.00000000000E+00 -0.26440088798E+03  0.30112751253E+04  0.29996449874E+04 0.  0.
        5    1    3    3  502    0 -0.57584592519E+03 -0.12479558973E+04  0.47050467954E+03  0.14527178648E+04  0.46999998093E+01 0.  1.
       -5    1    3    3    0  502  0.57584592519E+03  0.12479558973E+04 -0.73490556752E+03  0.15585572605E+04  0.46999998093E+01 0. -1.
</event>
<event>
 5   0  0.6679022E-08  0.2994000E+04  0.7818609E-02  0.8245446E-01
       -1   -1    0    0    0  501  0.00000000000E+00  0.00000000000E+00  0.18156130836E+04  0.18156130836E+04  0.50400001928E-02 0. -1.
        1   -1    0    0  501    0  0.00000000000E+00  0.00000000000E+00 -0.12342989830E+04  0.12342989830E+04  0.50400001928E-02 0.  1.
    10030    2    1    2    0    0  0.00000000000E+00  0.00000000000E+00  0.58131410060E+03  0.30499120666E+04  0.29940002556E+04 0.  0.
        3    1    3    3  502    0 -0.13004464964E+04  0.86932931104E+02 -0.45949907995E+03  0.13819760632E+04  0.10100000352E+00 0.  1.
       -3    1    3    3    0  502  0.13004464964E+04 -0.86932931104E+02  0.10408131805E+04  0.16679360034E+04  0.10100000352E+00 0. -1.
</event>
<event>
 5   0  0.6636007E-08  0.3001378E+04  0.7818609E-02  0.8243337E-01
       -1   -1    0    0    0  501  0.00000000000E+00  0.00000000000E+00  0.26098744315E+04  0.26098744315E+04  0.50400001928E-02 0. -1.
        1   -1    0    0  501    0  0.00000000000E+00  0.00000000000E+00 -0.86290285283E+03  0.86290285284E+03  0.50400001928E-02 0.  1.
    10030    2    1    2    0    0  0.00000000000E+00  0.00000000000E+00  0.17469715787E+04  0.34727772843E+04  0.30013784117E+04 0.  0.
        2    1    3    3  502    0 -0.20995068238E+02  0.24378531786E+03 -0.83966610173E+03  0.87459204003E+03  0.25500000920E-02 0.  1.
       -2    1    3    3    0  502  0.20995068238E+02 -0.24378531786E+03  0.25866376804E+04  0.25981852443E+04  0.25500000920E-02 0. -1.
</event>
<event>
 5   0  0.1821305E-07  0.3004062E+04  0.7818609E-02  0.8242572E-01
        2   -1    0    0  501    0  0.00000000000E+00  0.00000000000E+00  0.20291930977E+04  0.20291930977E+04  0.25500000920E-02 0. -1.
       -2   -1    0    0    0  501  0.00000000000E+00  0.00000000000E+00 -0.11118198124E+04  0.11118198124E+04  0.25500000920E-02 0.  1.
    10030    2    1    2    0    0  0.00000000000E+00  0.00000000000E+00  0.91737328529E+03  0.31410129100E+04  0.30040619761E+04 0.  0.
        2    1    3    3  502    0  0.52624230691E+03  0.70576591643E+03 -0.81378246267E+03  0.11988654599E+04  0.25500000920E-02 0.  1.
       -2    1    3    3    0  502 -0.52624230691E+03 -0.70576591643E+03  0.17311557480E+04  0.19421474501E+04  0.25500000920E-02 0. -1.
</event>
<event>
 5   0  0.1813720E-07  0.2998232E+04  0.7818609E-02  0.8244236E-01
       -2   -1    0    0    0  501  0.00000000000E+00  0.00000000000E+00  0.10006633491E+04  0.10006633491E+04  0.25500000920E-02 0. -1.
        2   -1    0    0  501    0  0.00000000000E+00  0.00000000000E+00 -0.22458594790E+04  0.22458594790E+04  0.25500000920E-02 0.  1.
    10030    2    1    2    0    0  0.00000000000E+00  0.00000000000E+00 -0.12451961299E+04  0.32465228281E+04  0.29982323245E+04 0.  0.
        3    1    3    3  502    0  0.10687830495E+04 -0.42932629913E+03  0.41641152708E+03  0.12247517496E+04  0.10100000352E+00 0. -1.
       -3    1    3    3    0  502 -0.10687830495E+04  0.42932629913E+03 -0.16616076570E+04  0.20217710786E+04  0.10100000352E+00 0.  1.
</event>
<event>
 5   0  0.6464436E-08  0.3000452E+04  0.7818609E-02  0.8243602E-01
        1   -1    0    0  501    0  0.00000000000E+00  0.00000000000E+00  0.26905658758E+04  0.26905658758E+04  0.50400001928E-02 0. -1.
       -1   -1    0    0    0  501  0.00000000000E+00  0.00000000000E+00 -0.83650745628E+03  0.83650745629E+03  0.50400001928E-02 0.  1.
    10030    2    1    2    0    0  0.00000000000E+00  0.00000000000E+00  0.18540584195E+04  0.35270733321E+04  0.30004522437E+04 0.  0.
        5    1    3    3  502    0  0.10982278636E+04 -0.84016421680E+03  0.16111298006E+04  0.21231442899E+04  0.46999998093E+01 0. -1.
       -5    1    3    3    0  502 -0.10982278636E+04  0.84016421680E+03  0.24292861894E+03  0.14039290422E+04  0.46999998093E+01 0.  1.
</event>
<event>
 5   0  0.6374748E-08  0.2998989E+04  0.7818609E-02  0.8244020E-01
        1   -1    0    0  501    0  0.00000000000E+00  0.00000000000E+00  0.78736544501E+03  0.78736544503E+03  0.50400001928E-02 0.  1.
       -1   -1    0    0    0  501  0.00000000000E+00  0.00000000000E+00 -0.28557045281E+04  0.28557045281E+04  0.50400001928E-02 0. -1.
    10030    2    1    2    0    0  0.00000000000E+00  0.00000000000E+00 -0.20683390830E+04  0.36430699731E+04  0.29989885406E+04 0.  0.
        1    1    3    3  502    0 -0.70693386963E+03 -0.58370821342E+03  0.40726833487E+03  0.10031641297E+04  0.50400001928E-02 0.  1.
       -1    1    3    3    0  502  0.70693386963E+03  0.58370821342E+03 -0.24756074179E+04  0.26399058434E+04  0.50400001928E-02 0. -1.
</event>
<event>
 5   0  0.6679022E-08  0.3000972E+04  0.7818609E-02  0.8243453E-01
        1   -1    0    0  501    0  0.00000000000E+00  0.00000000000E+00  0.14708693777E+04  0.14708693777E+04  0.50400001928E-02 0.  1.
       -1   -1    0    0    0  501  0.00000000000E+00  0.00000000000E+00 -0.15306987204E+04  0.15306987204E+04  0.50400001928E-02 0. -1.
    10030    2    1    2    0    0  0.00000000000E+00  0.00000000000E+00 -0.59829342676E+02  0.30015680981E+04  0.30009717588E+04 0.  0.
        3    1    3    3  502    0 -0.49991616506E+03 -0.67828556394E+03  0.12118917042E+04  0.14760315008E+04  0.10100000352E+00 0.  1.
       -3    1    3    3    0  502  0.49991616506E+03  0.67828556394E+03 -0.12717210469E+04  0.15255365973E+04  0.10100000352E+00 0. -1.
</event>
<event>
 5   0  0.1914439E-07  0.2999359E+04  0.7818609E-02  0.8243914E-01
        2   -1    0    0  501    0  0.00000000000E+00  0.00000000000E+00  0.19453516663E+04  0.19453516663E+04  0.25500000920E-02 0. -1.
       -2   -1    0    0    0  501  0.00000000000E+00  0.00000000000E+00 -0.11561093084E+04  0.11561093084E+04  0.25500000920E-02 0.  1.
    10030    2    1    2    0    0  0.00000000000E+00  0.00000000000E+00  0.78924235791E+03  0.31014609746E+04  0.29993593779E+04 0.  0.
        5    1    3    3  502    0  0.10518237872E+04 -0.73409858092E+03  0.11981071208E+04  0.17551970740E+04  0.46999998093E+01 0.  1.
       -5    1    3    3    0  502 -0.10518237872E+04  0.73409858092E+03 -0.40886476287E+03  0.13462639006E+04  0.46999998093E+01 0. -1.
</event>
<event>
 5   0  0.6017625E-08  0.3000287E+04  0.7818609E-02  0.8243649E-01
        3   -1    0    0  501    0  0.00000000000E+00  0.00000000000E+00  0.24734369482E+04  0.24734369503E+04  0.10100000352E+00 0.  1.
       -3   -1    0    0    0  501  0.00000000000E+00  0.00000000000E+00 -0.90983964715E+03  0.90983965276E+03  0.10100000352E+00 0. -1.
    10030    2    1    2    0    0  0.00000000000E+00  0.00000000000E+00  0.15635973011E+04  0.33832766030E+04  0.30002873284E+04 0.  0.
        1    1    3    3  502    0 -0.40303682843E+03  0.43440814046E+03 -0.77226703762E+03  0.97341948562E+03  0.50400001928E-02 0. -1.
       -1    1    3    3    0  502  0.40303682843E+03 -0.43440814046E+03  0.23358643387E+04  0.24098571174E+04  0.50400001928E-02 0.  1.
</event>
<event>
 5   0  0.1821305E-07  0.3000146E+04  0.7818609E-02  0.8243689E-01
        2   -1    0    0  501    0  0.00000000000E+00  0.00000000000E+00  0.97969883409E+03  0.97969883409E+03  0.25500000920E-02 0. -1.
       -2   -1    0    0    0  501  0.00000000000E+00  0.00000000000E+00 -0.22968472040E+04  0.22968472040E+04  0.25500000920E-02 0.  1.
    10030    2    1    2    0    0  0.00000000000E+00  0.00000000000E+00 -0.13171483699E+04  0.32765460381E+04  0.30001456817E+04 0.  0.
        2    1    3    3  502    0 -0.62940717951E+03 -0.41013733823E+03  0.75945025838E+03  0.10682372062E+04  0.25500000920E-02 0. -1.
       -2    1    3    3    0  502  0.62940717951E+03  0.41013733823E+03 -0.20765986283E+04  0.22083088319E+04  0.25500000920E-02 0.  1.
</event>
<event>
 5   0  0.1821305E-07  0.2998397E+04  0.7818609E-02  0.8244189E-01
        2   -1    0    0  501    0  0.00000000000E+00  0.00000000000E+00  0.11460789628E+04  0.11460789628E+04  0.25500000920E-02 0. -1.
       -2   -1    0    0    0  501  0.00000000000E+00  0.00000000000E+00 -0.19611180714E+04  0.19611180714E+04  0.25500000920E-02 0.  1.
    10030    2    1    2    0    0  0.00000000000E+00  0.00000000000E+00 -0.81503910869E+03  0.31071970342E+04  0.29983970152E+04 0.  0.
        2    1    3    3  502    0 -0.13956234013E+04 -0.33425854763E+03  0.41926097672E+02  0.14357058377E+04  0.25500000920E-02 0. -1.
       -2    1    3    3    0  502  0.13956234013E+04  0.33425854763E+03 -0.85696520636E+03  0.16714911964E+04  0.25500000920E-02 0.  1.
</event>
<event>
 5   0  0.1914439E-07  0.3009994E+04  0.7818609E-02  0.8240883E-01
       -2   -1    0    0    0  501  0.00000000000E+00  0.00000000000E+00  0.90054633205E+03  0.90054633206E+03  0.25500000920E-02 0.  1.
        2   -1    0    0  501    0  0.00000000000E+00  0.00000000000E+00 -0.25151577126E+04  0.25151577126E+04  0.25500000920E-02 0. -1.
    10030    2    1    2    0    0  0.00000000000E+00  0.00000000000E+00 -0.16146113805E+04  0.34157040446E+04  0.30099940549E+04 0.  0.
        5    1    3    3  502    0  0.17653644638E+02  0.25447549430E+03  0.87582751422E+03  0.91223097571E+03  0.46999998093E+01 0.  1.
       -5    1    3    3    0  502 -0.17653644638E+02 -0.25447549430E+03 -0.24904388947E+04  0.25034730689E+04  0.46999998093E+01 0. -1.
</event>
<event>
 5   0  0.1817566E-07  0.3000060E+04  0.7818609E-02  0.8243714E-01
        2   -1    0    0  501    0  0.00000000000E+00  0.00000000000E+00  0.23315378382E+04  0.23315378382E+04  0.25500000920E-02 0. -1.
       -2   -1    0    0    0  501  0.00000000000E+00  0.00000000000E+00 -0.96506665819E+03  0.96506665819E+03  0.25500000920E-02 0.  1.
    10030    2    1    2    0    0  0.00000000000E+00  0.00000000000E+00  0.13664711800E+04  0.32966044964E+04  0.30000596194E+04 0.  0.
        1    1    3    3  502    0 -0.76708592378E+03  0.40813996844E+03  0.20268377241E+04  0.22052369959E+04  0.50400001928E-02 0. -1.
       -1    1    3    3    0  502  0.76708592378E+03 -0.40813996844E+03 -0.66036654415E+03  0.10913675004E+04  0.50400001928E-02 0.  1.
</event>
<event>
 5   0  0.1821305E-07  0.2999060E+04  0.7818609E-02  0.8243999E-01
        2   -1    0    0  501    0  0.00000000000E+00  0.00000000000E+00  0.20908144672E+04  0.20908144672E+04  0.25500000920E-02 0. -1.
       -2   -1    0    0    0  501  0.00000000000E+00  0.00000000000E+00 -0.10754610376E+04  0.10754610376E+04  0.25500000920E-02 0.  1.
    10030    2    1    2    0    0  0.00000000000E+00  0.00000000000E+00  0.10153534296E+04  0.31662755048E+04  0.29990595168E+04 0.  0.
        2    1    3    3  502    0  0.11421678190E+04 -0.23068924217E+03 -0.48878295945E+03  0.12635955186E+04  0.25500000920E-02 0.  1.
       -2    1    3    3    0  502 -0.11421678190E+04  0.23068924217E+03  0.15041363890E+04  0.19026799862E+04  0.25500000920E-02 0. -1.
</event>
<event>
 5   0  0.1817566E-07  0.3001556E+04  0.7818609E-02  0.8243287E-01
       -2   -1    0    0    0  501  0.00000000000E+00  0.00000000000E+00  0.12189719735E+04  0.12189719735E+04  0.25500000920E-02 0.  1.
        2   -1    0    0  501    0  0.00000000000E+00  0.00000000000E+00 -0.18477327362E+04  0.18477327362E+04  0.25500000920E-02 0. -1.
    10030    2    1    2    0    0  0.00000000000E+00  0.00000000000E+00 -0.62876076275E+03  0.30667047097E+04  0.30015558765E+04 0.  0.
        1    1    3    3  502    0 -0.22144426214E+02 -0.14879613045E+04 -0.51306247681E+03  0.15740877753E+04  0.50400001928E-02 0. -1.
       -1    1    3    3    0  502  0.22144426214E+02  0.14879613045E+04 -0.11569828595E+03  0.14926169343E+04  0.50400001928E-02 0.  1.
</event>
<event>
 5   0  0.6525507E-08  0.3001919E+04  0.7818609E-02  0.8243183E-01
        1   -1    0    0  501    0  0.00000000000E+00  0.00000000000E+00  0.22277354378E+04  0.22277354378E+04  0.50400001928E-02 0. -1.
       -1   -1    0    0    0  501  0.00000000000E+00  0.00000000000E+00 -0.10112866816E+04  0.10112866816E+04  0.50400001928E-02 0.  1.
    10030    2    1    2    0    0  0.00000000000E+00  0.00000000000E+00  0.12164487562E+04  0.32390221194E+04  0.30019188386E+04 0.  0.
        4    1    3    3  502    0  0.68194400346E+03  0.99127585361E+03 -0.35998084996E+03  0.12558914233E+04  0.12699999809E+01 0.  1.
       -4    1    3    3    0  502 -0.68194400346E+03 -0.99127585361E+03  0.15764296062E+04  0.19831306961E+04  0.12699999809E+01 0. -1.
</event>
<event>
 5   0  0.6525507E-08  0.2998944E+04  0.7818609E-02  0.8244033E-01
       -1   -1    0    0    0  501  0.00000000000E+00  0.00000000000E+00  0.13581742457E+04  0.13581742458E+04  0.50400001928E-02 0. -1.
        1   -1    0    0  501    0  0.00000000000E+00  0.00000000000E+00 -0.16554696508E+04  0.16554696508E+04  0.50400001928E-02 0.  1.
    10030    2    1    2    0    0  0.00000000000E+00  0.00000000000E+00 -0.29729540510E+03  0.30136438966E+04  0.29989439771E+04 0.  0.
        4    1    3    3  502    0  0.11913439127E+04 -0.86677655886E+02 -0.10595129623E+04  0.15966786353E+04  0.12699999809E+01 0.  1.
       -4    1    3    3    0  502 -0.11913439127E+04  0.86677655886E+02  0.76221755719E+03  0.14169652613E+04  0.12699999809E+01 0. -1.
</event>
<event>
 5   0  0.6525507E-08  0.2998795E+04  0.7818609E-02  0.8244075E-01
       -1   -1    0    0    0  501  0.00000000000E+00  0.00000000000E+00  0.11035777580E+04  0.11035777580E+04  0.50400001928E-02 0.  1.
        1   -1    0    0  501    0  0.00000000000E+00  0.00000000000E+00 -0.20371859694E+04  0.20371859694E+04  0.50400001928E-02 0. -1.
    10030    2    1    2    0    0  0.00000000000E+00  0.00000000000E+00 -0.93360821145E+03  0.31407637274E+04  0.29987951746E+04 0.  0.
        4    1    3    3  502    0 -0.14357107864E+04  0.36231216996E+03 -0.21972033001E+03  0.14969349374E+04  0.12699999809E+01 0.  1.
       -4    1    3    3    0  502  0.14357107864E+04 -0.36231216996E+03 -0.71388788144E+03  0.16438287900E+04  0.12699999809E+01 0. -1.
</event>
<event>
 5   0  0.1810055E-07  0.3004933E+04  0.7818609E-02  0.8242324E-01
       -2   -1    0    0    0  501  0.00000000000E+00  0.00000000000E+00  0.12433417783E+04  0.12433417783E+04  0.25500000920E-02 0. -1.
        2   -1    0    0  501    0  0.00000000000E+00  0.00000000000E+00 -0.18155948048E+04  0.18155948048E+04  0.25500000920E-02 0.  1.
    10030    2    1    2    0    0  0.00000000000E+00  0.00000000000E+00 -0.57225302652E+03  0.30589365832E+04  0.30049325273E+04 0.  0.
        4    1    3    3  502    0 -0.11457795865E+04 -0.83100576611E+03 -0.79919017581E+03  0.16254500897E+04  0.12699999809E+01 0.  1.
       -4    1    3    3    0  502  0.11457795865E+04  0.83100576611E+03  0.22693714929E+03  0.14334864934E+04  0.12699999809E+01 0. -1.
</event>
<event>
 5   0  0.6464436E-08  0.3005108E+04  0.7818609E-02  0.8242274E-01
        1   -1    0    0  501    0  0.00000000000E+00  0.00000000000E+00  0.13469121120E+04  0.13469121121E+04  0.50400001928E-02 0.  1.
       -1   -1    0    0    0  501  0.00000000000E+00  0.00000000000E+00 -0.16761812874E+04  0.16761812874E+04  0.50400001928E-02 0. -1.
    10030    2    1    2    0    0  0.00000000000E+00  0.00000000000E+00 -0.32926917537E+03  0.30230933995E+04  0.30051082363E+04 0.  0.
        5    1    3    3  502    0 -0.46621615499E+03 -0.14229385681E+04 -0.39248688075E+02  0.14978899229E+04  0.46999998093E+01 0.  1.
       -5    1    3    3    0  502  0.46621615499E+03  0.14229385681E+04 -0.29002048729E+03  0.15252034765E+04  0.46999998093E+01 0. -1.
</event>
<event>
 5   0  0.6636007E-08  0.2999220E+04  0.7818609E-02  0.8243954E-01
       -1   -1    0    0    0  501  0.00000000000E+00  0.00000000000E+00  0.16030509623E+04  0.16030509623E+04  0.50400001928E-02 0.  1.
        1   -1    0    0  501    0  0.00000000000E+00  0.00000000000E+00 -0.14028438296E+04  0.14028438296E+04  0.50400001928E-02 0. -1.
    10030    2    1    2    0    0  0.00000000000E+00  0.00000000000E+00  0.20020713274E+03  0.30058947919E+04  0.29992199993E+04 0.  0.
        2    1    3    3  502    0 -0.19564630645E+03  0.14837025444E+04  0.19612615194E+03  0.15093429646E+04  0.25500000920E-02 0.  1.
       -2    1    3    3    0  502  0.19564630645E+03 -0.14837025444E+04  0.40809808024E+01  0.14965518273E+04  0.25500000920E-02 0. -1.
</event>
<event>
 5   0  0.6525507E-08  0.2999246E+04  0.7818609E-02  0.8243946E-01
        1   -1    0    0  501    0  0.00000000000E+00  0.00000000000E+00  0.22648018166E+04  0.22648018166E+04  0.50400001928E-02 0. -1.
       -1   -1    0    0    0  501  0.00000000000E+00  0.00000000000E+00 -0.99296503396E+03  0.99296503398E+03  0.50400001928E-02 0.  1.
    10030    2    1    2    0    0  0.00000000000E+00  0.00000000000E+00  0.12718367826E+04  0.32577668506E+04  0.29992459137E+04 0.  0.
        4    1    3    3  502    0  0.14968212097E+03 -0.55811471663E+03  0.21390222243E+04  0.22156972860E+04  0.12699999809E+01 0. -1.
       -4    1    3    3    0  502 -0.14968212097E+03  0.55811471663E+03 -0.86718544167E+03  0.10420695646E+04  0.12699999809E+01 0.  1.
</event>
<event>
 5   0  0.6525507E-08  0.2999459E+04  0.7818609E-02  0.8243885E-01
       -1   -1    0    0    0  501  0.00000000000E+00  0.00000000000E+00  0.12046985133E+04  0.12046985133E+04  0.50400001928E-02 0. -1.
        1   -1    0    0  501    0  0.00000000000E+00  0.00000000000E+00 -0.18670132035E+04  0.18670132035E+04  0.50400001928E-02 0.  1.
    10030    2    1    2    0    0  0.00000000000E+00  0.00000000000E+00 -0.66231469015E+03  0.30717117168E+04  0.29994586382E+04 0.  0.
        4    1    3    3  502    0  0.27800821127E+03 -0.79334063776E+03  0.94073794056E+03  0.12616130226E+04  0.12699999809E+01 0. -1.
       -4    1    3    3    0  502 -0.27800821127E+03  0.79334063776E+03 -0.16030526307E+04  0.18100986942E+04  0.12699999809E+01 0.  1.
</event>
<event>
 5   0  0.1813720E-07  0.2978016E+04  0.7818609E-02  0.8250037E-01
       -2   -1    0    0    0  501  0.00000000000E+00  0.00000000000E+00  0.14336109774E+04  0.14336109774E+04  0.25500000920E-02 0. -1.
        2   -1    0    0  501    0  0.00000000000E+00  0.00000000000E+00 -0.15465453122E+04  0.15465453122E+04  0.25500000920E-02 0.  1.
    10030    2    1    2    0    0  0.00000000000E+00  0.00000000000E+00 -0.11293433484E+03  0.29801562896E+04  0.29780156726E+04 0.  0.
        3    1    3    3  502    0  0.17698872458E+03 -0.10838626312E+04  0.94977095122E+03  0.14519463082E+04  0.10100000352E+00 0. -1.
       -3    1    3    3    0  502 -0.17698872458E+03  0.10838626312E+04 -0.10627052861E+04  0.15282099814E+04  0.10100000352E+00 0.  1.
</event>
<event>
 5   0  0.6636007E-08  0.3000583E+04  0.7818609E-02  0.8243564E-01
        1   -1    0    0  501    0  0.00000000000E+00  0.00000000000E+00  0.98840717134E+03  0.98840717135E+03  0.50400001928E-02 0. -1.
       -1   -1    0    0    0  501  0.00000000000E+00  0.00000000000E+00 -0.22772748770E+04  0.22772748770E+04  0.50400001928E-02 0.  1.
    10030    2    1    2    0    0  0.00000000000E+00  0.00000000000E+00 -0.12888677057E+04  0.32656820484E+04  0.30005831564E+04 0.  0.
        2    1    3    3  502    0  0.23288755218E+03  0.14789759156E+04 -0.53965545366E+03  0.15914881022E+04  0.25500000920E-02 0.  1.
       -2    1    3    3    0  502 -0.23288755218E+03 -0.14789759156E+04 -0.74921225202E+03  0.16741939462E+04  0.25500000920E-02 0. -1.
</event>
<event>
 5   0  0.1813720E-07  0.2997222E+04  0.7818609E-02  0.8244525E-01
       -2   -1    0    0    0  501  0.00000000000E+00  0.00000000000E+00  0.85004493403E+03  0.85004493403E+03  0.25500000920E-02 0.  1.
        2   -1    0    0  501    0  0.00000000000E+00  0.00000000000E+00 -0.26420182026E+04  0.26420182026E+04  0.25500000920E-02 0. -1.
    10030    2    1    2    0    0  0.00000000000E+00  0.00000000000E+00 -0.17919732686E+04  0.34920631366E+04  0.29972215058E+04 0.  0.
        3    1    3    3  502    0 -0.10202080865E+04  0.92962712007E+03 -0.21582052646E+03  0.13970002262E+04  0.10100000352E+00 0.  1.
       -3    1    3    3    0  502  0.10202080865E+04 -0.92962712007E+03 -0.15761527421E+04  0.20950629105E+04  0.10100000352E+00 0. -1.
</event>
<event>
 5   0  0.6464436E-08  0.2999992E+04  0.7818609E-02  0.8243733E-01
        1   -1    0    0  501    0  0.00000000000E+00  0.00000000000E+00  0.31637261084E+04  0.31637261084E+04  0.50400001928E-02 0.  1.
       -1   -1    0    0    0  501  0.00000000000E+00  0.00000000000E+00 -0.71118313254E+03  0.71118313256E+03  0.50400001928E-02 0. -1.
    10030    2    1    2    0    0  0.00000000000E+00  0.00000000000E+00  0.24525429758E+04  0.38749092409E+04  0.29999924295E+04 0.  0.
        5    1    3    3  502    0 -0.28151645627E+03  0.95263457293E+03  0.26779747367E+04  0.28562799101E+04  0.46999998093E+01 0.  1.
       -5    1    3    3    0  502  0.28151645627E+03 -0.95263457293E+03 -0.22543176089E+03  0.10186293308E+04  0.46999998093E+01 0. -1.
</event>
<event>
 5   0  0.1813720E-07  0.2999327E+04  0.7818609E-02  0.8243923E-01
        2   -1    0    0  501    0  0.00000000000E+00  0.00000000000E+00  0.15595378789E+04  0.15595378789E+04  0.25500000920E-02 0.  1.
       -2   -1    0    0    0  501  0.00000000000E+00  0.00000000000E+00 -0.14420873703E+04  0.14420873703E+04  0.25500000920E-02 0. -1.
    10030    2    1    2    0    0  0.00000000000E+00  0.00000000000E+00  0.11745050860E+03  0.30016252493E+04  0.29993265103E+04 0.  0.
        3    1    3    3  502    0 -0.66749448727E+03 -0.12517566317E+04 -0.42800777195E+03  0.14817672620E+04  0.10100000352E+00 0.  1.
       -3    1    3    3    0  502  0.66749448727E+03  0.12517566317E+04  0.54545828055E+03  0.15198579873E+04  0.10100000352E+00 0. -1.
</event>
<event>
 5   0  0.6679022E-08  0.3004027E+04  0.7818609E-02  0.8242582E-01
        1   -1    0    0  501    0  0.00000000000E+00  0.00000000000E+00  0.13524275071E+04  0.13524275071E+04  0.50400001928E-02 0. -1.
       -1   -1    0    0    0  501  0.00000000000E+00  0.00000000000E+00 -0.16681441606E+04  0.16681441606E+04  0.50400001928E-02 0.  1.
    10030    2    1    2    0    0  0.00000000000E+00  0.00000000000E+00 -0.31571665354E+03  0.30205716677E+04  0.30040266634E+04 0.  0.
        3    1    3    3  502    0 -0.31638701468E+03  0.23106985947E+03  0.13001450479E+04  0.13578921823E+04  0.10100000352E+00 0. -1.
       -3    1    3    3    0  502  0.31638701468E+03 -0.23106985947E+03 -0.16158617014E+04  0.16626794854E+04  0.10100000352E+00 0.  1.
</event>
<event>
 5   0  0.6464436E-08  0.3000361E+04  0.7818609E-02  0.8243628E-01
        1   -1    0    0  501    0  0.00000000000E+00  0.00000000000E+00  0.19498209138E+04  0.19498209138E+04  0.50400001928E-02 0.  1.
       -1   -1    0    0    0  501  0.00000000000E+00  0.00000000000E+00 -0.11542301830E+04  0.11542301830E+04  0.50400001928E-02 0. -1.
    10030    2    1    2    0    0  0.00000000000E+00  0.00000000000E+00  0.79559073078E+03  0.31040510968E+04  0.30003614117E+04 0.  0.
        5    1    3    3  502    0  0.61616027057E+03  0.12085365223E+04 -0.26489285924E+03  0.13821737668E+04  0.46999998093E+01 0.  1.
       -5    1    3    3    0  502 -0.61616027057E+03 -0.12085365223E+04  0.10604835900E+04  0.17218773300E+04  0.46999998093E+01 0. -1.
</event>
<event>
 5   0  0.1914439E-07  0.2998153E+04  0.7818609E-02  0.8244259E-01
       -2   -1    0    0    0  501  0.00000000000E+00  0.00000000000E+00  0.13867091085E+04  0.13867091085E+04  0.25500000920E-02 0. -1.
        2   -1    0    0  501    0  0.00000000000E+00  0.00000000000E+00 -0.16205488063E+04  0.16205488063E+04  0.25500000920E-02 0.  1.
    10030    2    1    2    0    0  0.00000000000E+00  0.00000000000E+00 -0.23383969783E+03  0.30072579148E+04  0.29981526249E+04 0.  0.
        5    1    3    3  502    0 -0.11182589601E+04 -0.96604205465E+03 -0.36961220947E+03  0.15232779223E+04  0.46999998093E+01 0. -1.
       -5    1    3    3    0  502  0.11182589601E+04  0.96604205465E+03  0.13577251164E+03  0.14839799925E+04  0.46999998093E+01 0.  1.
</event>
<event>
 5   0  0.6679022E-08  0.2999759E+04  0.7818609E-02  0.8243800E-01
        1   -1    0    0  501    0  0.00000000000E+00  0.00000000000E+00  0.10903647819E+04  0.10903647819E+04  0.50400001928E-02 0. -1.
       -1   -1    0    0    0  501  0.00000000000E+00  0.00000000000E+00 -0.20631980869E+04  0.20631980869E+04  0.50400001928E-02 0.  1.
    10030    2    1    2    0    0  0.00000000000E+00  0.00000000000E+00 -0.97283330503E+03  0.31535628688E+04  0.29997590117E+04 0.  0.
        3    1    3    3  502    0  0.63006020433E+03  0.53272223135E+03 -0.18031825258E+04  0.19829866536E+04  0.10100000352E+00 0.  1.
       -3    1    3    3    0  502 -0.63006020433E+03 -0.53272223135E+03  0.83034922078E+03  0.11705762152E+04  0.10100000352E+00 0. -1.
</event>
<event>
 5   0  0.6636007E-08  0.2997472E+04  0.7818609E-02  0.8244453E-01
       -1   -1    0    0    0  501  0.00000000000E+00  0.00000000000E+00  0.13564702110E+04  0.13564702110E+04  0.50400001928E-02 0.  1.
        1   -1    0    0  501    0  0.00000000000E+00  0.00000000000E+00 -0.16559230271E+04  0.16559230272E+04  0.50400001928E-02 0. -1.
    10030    2    1    2    0    0  0.00000000000E+00  0.00000000000E+00 -0.29945281616E+03  0.30123932381E+04  0.29974724406E+04 0.  0.
        2    1    3    3  502    0  0.38836173986E+03  0.78047812619E+03 -0.13749090564E+04  0.16279882861E+04  0.25500000920E-02 0. -1.
       -2    1    3    3    0  502 -0.38836173986E+03 -0.78047812619E+03  0.10754562402E+04  0.13844049520E+04  0.25500000920E-02 0.  1.
</event>
<event>
 5   0  0.1821305E-07  0.2996191E+04  0.7818609E-02  0.8244820E-01
        2   -1    0    0  501    0  0.00000000000E+00  0.00000000000E+00  0.16673976405E+04  0.16673976405E+04  0.25500000920E-02 0.  1.
       -2   -1    0    0    0  501  0.00000000000E+00  0.00000000000E+00 -0.13459833753E+04  0.13459833753E+04  0.25500000920E-02 0. -1.
    10030    2    1    2    0    0  0.00000000000E+00  0.00000000000E+00  0.32141426527E+03  0.30133810158E+04  0.29961905842E+04 0.  0.
        2    1    3    3  502    0  0.11256336649E+04 -0.36542734365E+03 -0.76309497724E+03  0.14081556148E+04  0.25500000920E-02 0. -1.
       -2    1    3    3    0  502 -0.11256336649E+04  0.36542734365E+03  0.10845092425E+04  0.16052254011E+04  0.25500000920E-02 0.  1.
</event>
<event>
 5   0  0.1821305E-07  0.2999111E+04  0.7818609E-02  0.8243985E-01
        2   -1    0    0  501    0  0.00000000000E+00  0.00000000000E+00  0.17952837609E+04  0.17952837609E+04  0.25500000920E-02 0.  1.
       -2   -1    0    0    0  501  0.00000000000E+00  0.00000000000E+00 -0.12525414939E+04  0.12525414939E+04  0.25500000920E-02 0. -1.
    10030    2    1    2    0    0  0.00000000000E+00  0.00000000000E+00  0.54274226704E+03  0.30478252548E+04  0.29991114710E+04 0.  0.
        2    1    3    3  502    0 -0.14625811907E+04  0.33093511865E+03  0.26896372496E+03  0.15234839275E+04  0.25500000920E-02 0. -1.
       -2    1    3    3    0  502  0.14625811907E+04 -0.33093511865E+03  0.27377854207E+03  0.15243413273E+04  0.25500000920E-02 0.  1.
</event>
<event>
 5   0  0.1810055E-07  0.3000111E+04  0.7818609E-02  0.8243699E-01
        2   -1    0    0  501    0  0.00000000000E+00  0.00000000000E+00  0.12763870734E+04  0.12763870734E+04  0.25500000920E-02 0.  1.
       -2   -1    0    0    0  501  0.00000000000E+00  0.00000000000E+00 -0.17629185213E+04  0.17629185213E+04  0.25500000920E-02 0. -1.
    10030    2    1    2    0    0  0.00000000000E+00  0.00000000000E+00 -0.48653144798E+03  0.30393055947E+04  0.30001109393E+04 0.  0.
        4    1    3    3  502    0  0.52045496653E+03 -0.11588186791E+04  0.56492267857E+03  0.13902781552E+04  0.12699999809E+01 0.  1.
       -4    1    3    3    0  502 -0.52045496653E+03  0.11588186791E+04 -0.10514541265E+04  0.16490274395E+04  0.12699999809E+01 0. -1.
</event>
<event>
 5   0  0.1817566E-07  0.2999864E+04  0.7818609E-02  0.8243770E-01
       -2   -1    0    0    0  501  0.00000000000E+00  0.00000000000E+00  0.31899878544E+04  0.31899878544E+04  0.25500000920E-02 0.  1.
        2   -1    0    0  501    0  0.00000000000E+00  0.00000000000E+00 -0.70526773414E+03  0.70526773414E+03  0.25500000920E-02 0. -1.
    10030    2    1    2    0    0  0.00000000000E+00  0.00000000000E+00  0.24847201202E+04  0.38952555885E+04  0.29998636676E+04 0.  0.
        1    1    3    3  502    0 -0.95289463535E+03  0.39885428586E+03  0.26544820403E+04  0.28483974143E+04  0.50400001928E-02 0.  1.
       -1    1    3    3    0  502  0.95289463535E+03 -0.39885428586E+03 -0.16976192006E+03  0.10468581742E+04  0.50400001928E-02 0. -1.
</event>
<event>
 5   0  0.6017625E-08  0.3001289E+04  0.7818609E-02  0.8243363E-01
        4   -1    0    0  501    0  0.00000000000E+00  0.00000000000E+00  0.16496542074E+04  0.16496546963E+04  0.12699999809E+01 0. -1.
       -4   -1    0    0    0  501  0.00000000000E+00  0.00000000000E+00 -0.13650935862E+04  0.13650941770E+04  0.12699999809E+01 0.  1.
    10030    2    1    2    0    0  0.00000000000E+00  0.00000000000E+00  0.28456062116E+03  0.30147488733E+04  0.30012890600E+04 0.  0.
        5    1    3    3  502    0 -0.49299343791E+03 -0.10244273213E+04  0.11261719235E+04  0.16002434683E+04  0.46999998093E+01 0. -1.
       -5    1    3    3    0  502  0.49299343791E+03  0.10244273213E+04 -0.84161130235E+03  0.14145054050E+04  0.46999998093E+01 0.  1.
</event>
<event>
 5   0  0.1821305E-07  0.2997934E+04  0.7818609E-02  0.8244321E-01
       -2   -1    0    0    0  501  0.00000000000E+00  0.00000000000E+00  0.14558380963E+04  0.14558380963E+04  0.25500000920E-02 0.  1.
        2   -1    0    0  501    0  0.00000000000E+00  0.00000000000E+00 -0.15433740995E+04  0.15433740995E+04  0.25500000920E-02 0. -1.
    10030    2    1    2    0    0  0.00000000000E+00  0.00000000000E+00 -0.87536003246E+02  0.29992121958E+04  0.29979344962E+04 0.  0.
        2    1    3    3  502    0 -0.12716913491E+04  0.78257836169E+03  0.87722528290E+02  0.14957683716E+04  0.25500000920E-02 0.  1.
       -2    1    3    3    0  502  0.12716913491E+04 -0.78257836169E+03 -0.17525853154E+03  0.15034438242E+04  0.25500000920E-02 0. -1.
</event>
<event>
 5   0  0.1813720E-07  0.3006045E+04  0.7818609E-02  0.8242007E-01
        2   -1    0    0  501    0  0.00000000000E+00  0.00000000000E+00  0.26687101896E+04  0.26687101896E+04  0.25500000920E-02 0.  1.
       -2   -1    0    0    0  501  0.00000000000E+00  0.00000000000E+00 -0.84650531507E+03  0.84650531508E+03  0.25500000920E-02 0. -1.
    10030    2    1    2    0    0  0.00000000000E+00  0.00000000000E+00  0.18222048745E+04  0.35152155046E+04  0.30060454819E+04 0.  0.
        3    1    3    3  502    0  0.15524669607E+03 -0.14417976566E+04  0.13732603901E+04  0.19971795434E+04  0.10100000352E+00 0.  1.
       -3    1    3    3    0  502 -0.15524669607E+03  0.14417976566E+04  0.44894448434E+03  0.15180359612E+04  0.10100000352E+00 0. -1.
</event>
<event>
 5   0  0.6017625E-08  0.3000085E+04  0.7818609E-02  0.8243707E-01
        3   -1    0    0  501    0  0.00000000000E+00  0.00000000000E+00  0.20445961269E+04  0.20445961294E+04  0.10100000352E+00 0. -1.
       -3   -1    0    0    0  501  0.00000000000E+00  0.00000000000E+00 -0.11005241848E+04  0.11005241895E+04  0.10100000352E+00 0.  1.
    10030    2    1    2    0    0  0.00000000000E+00  0.00000000000E+00  0.94407194212E+03  0.31451203189E+04  0.30000849969E+04 0.  0.
        5    1    3    3  502    0  0.21140403313E+03  0.35273832385E+03 -0.10402664277E+04  0.11186117829E+04  0.46999998093E+01 0.  1.
       -5    1    3    3    0  502 -0.21140403313E+03 -0.35273832385E+03  0.19843383698E+04  0.20265085360E+04  0.46999998093E+01 0. -1.
</event>
<event>
 5   0  0.6017625E-08  0.2999446E+04  0.7818609E-02  0.8243889E-01
        3   -1    0    0  501    0  0.00000000000E+00  0.00000000000E+00  0.21603715797E+04  0.21603715821E+04  0.10100000352E+00 0.  1.
       -3   -1    0    0    0  501  0.00000000000E+00  0.00000000000E+00 -0.10411025584E+04  0.10411025633E+04  0.10100000352E+00 0. -1.
    10030    2    1    2    0    0  0.00000000000E+00  0.00000000000E+00  0.11192690213E+04  0.32014741454E+04  0.29994455423E+04 0.  0.
        3    1    3    3  502    0 -0.13998033580E+04 -0.29959698850E+03  0.10369232797E+04  0.17676022445E+04  0.10100000352E+00 0.  1.
       -3    1    3    3    0  502  0.13998033580E+04  0.29959698850E+03  0.82345741620E+02  0.14338719008E+04  0.10100000352E+00 0. -1.
</event>
<event>
 5   0  0.6679022E-08  0.2998316E+04  0.7818609E-02  0.8244212E-01
       -1   -1    0    0    0  501  0.00000000000E+00  0.00000000000E+00  0.20074985972E+04  0.20074985972E+04  0.50400001928E-02 0. -1.
        1   -1    0    0  501    0  0.00000000000E+00  0.00000000000E+00 -0.11195394987E+04  0.11195394987E+04  0.50400001928E-02 0.  1.
    10030    2    1    2    0    0  0.00000000000E+00  0.00000000000E+00  0.88795909854E+03  0.31270380960E+04  0.29983155092E+04 0.  0.
        3    1    3    3  502    0  0.70960204055E+03  0.12405854349E+04 -0.28097307292E+02  0.14294672945E+04  0.10100000352E+00 0.  1.
       -3    1    3    3    0  502 -0.70960204055E+03 -0.12405854349E+04  0.91605640583E+03  0.16975708015E+04  0.10100000352E+00 0. -1.
</event>
<event>
 5   0  0.1914439E-07  0.2998407E+04  0.7818609E-02  0.8244186E-01
        2   -1    0    0  501    0  0.00000000000E+00  0.00000000000E+00  0.91675907493E+03  0.91675907493E+03  0.25500000920E-02 0.  1.
       -2   -1    0    0    0  501  0.00000000000E+00  0.00000000000E+00 -0.24516915802E+04  0.24516915802E+04  0.25500000920E-02 0. -1.
    10030    2    1    2    0    0  0.00000000000E+00  0.00000000000E+00 -0.15349325053E+04  0.33684506551E+04  0.29984065802E+04 0.  0.
        5    1    3    3  502    0 -0.12396010864E+04  0.81567897489E+03 -0.10074810628E+04  0.17935950562E+04  0.46999998093E+01 0.  1.
       -5    1    3    3    0  502  0.12396010864E+04 -0.81567897489E+03 -0.52745144242E+03  0.15748555990E+04  0.46999998093E+01 0. -1.
</event>
<event>
 5   0  0.6525507E-08  0.3000835E+04  0.7818609E-02  0.8243492E-01
       -1   -1    0    0    0  501  0.00000000000E+00  0.00000000000E+00  0.32991586607E+04  0.32991586607E+04  0.50400001928E-02 0. -1.
        1   -1    0    0  501    0  0.00000000000E+00  0.00000000000E+00 -0.68237197599E+03  0.68237197600E+03  0.50400001928E-02 0.  1.
    10030    2    1    2    0    0  0.00000000000E+00  0.00000000000E+00  0.26167866847E+04  0.39815306367E+04  0.30008354933E+04 0.  0.
        4    1    3    3  502    0  0.42490361690E+03 -0.10773687155E+04  0.42709958331E+02  0.11589185417E+04  0.12699999809E+01 0.  1.
       -4    1    3    3    0  502 -0.42490361690E+03  0.10773687155E+04  0.25740767263E+04  0.28226120950E+04  0.12699999809E+01 0. -1.
</event>
<event>
 5   0  0.1817566E-07  0.2999551E+04  0.7818609E-02  0.8243859E-01
        2   -1    0    0  501    0  0.00000000000E+00  0.00000000000E+00  0.14833458526E+04  0.14833458526E+04  0.25500000920E-02 0.  1.
       -2   -1    0    0    0  501  0.00000000000E+00  0.00000000000E+00 -0.15163869756E+04  0.15163869756E+04  0.25500000920E-02 0. -1.
    10030    2    1    2    0    0  0.00000000000E+00  0.00000000000E+00 -0.33041123003E+02  0.29997328282E+04  0.29995508539E+04 0.  0.
        1    1    3    3  502    0 -0.66632693272E+03  0.13433949281E+04 -0.41518419122E+02  0.15001417577E+04  0.50400001928E-02 0. -1.
       -1    1    3    3    0  502  0.66632693272E+03 -0.13433949281E+04  0.84772961191E+01  0.14995910705E+04  0.50400001928E-02 0.  1.
</event>
<event>
 5   0  0.1821305E-07  0.2998373E+04  0.7818609E-02  0.8244196E-01
       -2   -1    0    0    0  501  0.00000000000E+00  0.00000000000E+00  0.14012005511E+04  0.14012005511E+04  0.25500000920E-02 0. -1.
        2   -1    0    0  501    0  0.00000000000E+00  0.00000000000E+00 -0.16040250436E+04  0.16040250436E+04  0.25500000920E-02 0.  1.
    10030    2    1    2    0    0  0.00000000000E+00  0.00000000000E+00 -0.20282449249E+03  0.30052255947E+04  0.29983734090E+04 0.  0.
        2    1    3    3  502    0 -0.13176293197E+03 -0.43963769648E+03 -0.15318802046E+04  0.15991559448E+04  0.25500000920E-02 0.  1.
       -2    1    3    3    0  502  0.13176293197E+03  0.43963769648E+03  0.13290557121E+04  0.14060696499E+04  0.25500000920E-02 0. -1.
</event>
<event>
 5   0  0.6464436E-08  0.3000409E+04  0.7818609E-02  0.8243614E-01
       -1   -1    0    0    0  501  0.00000000000E+00  0.00000000000E+00  0.94419457687E+03  0.94419457688E+03  0.50400001928E-02 0.  1.
        1   -1    0    0  501    0  0.00000000000E+00  0.00000000000E+00 -0.23836331241E+04  0.23836331241E+04  0.50400001928E-02 0. -1.
    10030    2    1    2    0    0  0.00000000000E+00  0.00000000000E+00 -0.14394385472E+04  0.33278277010E+04  0.30004089515E+04 0.  0.
        5    1    3    3  502    0  0.16030904982E+03  0.81177322160E+03  0.66820156813E+03  0.10635742477E+04  0.46999998093E+01 0.  1.
       -5    1    3    3    0  502 -0.16030904982E+03 -0.81177322160E+03 -0.21076401154E+04  0.22642534533E+04  0.46999998093E+01 0. -1.
</event>
<event>
 5   0  0.1810055E-07  0.2998577E+04  0.7818609E-02  0.8244137E-01
       -2   -1    0    0    0  501  0.00000000000E+00  0.00000000000E+00  0.91606933307E+03  0.91606933307E+03  0.25500000920E-02 0.  1.
        2   -1    0    0  501    0  0.00000000000E+00  0.00000000000E+00 -0.24538160907E+04  0.24538160907E+04  0.25500000920E-02 0. -1.
    10030    2    1    2    0    0  0.00000000000E+00  0.00000000000E+00 -0.15377467576E+04  0.33698854237E+04  0.29985767755E+04 0.  0.
        4    1    3    3  502    0 -0.69103810490E+03  0.11645749876E+04 -0.45687039828E+02  0.13549381841E+04  0.12699999809E+01 0.  1.
       -4    1    3    3    0  502  0.69103810490E+03 -0.11645749876E+04 -0.14920597178E+04  0.20149472396E+04  0.12699999809E+01 0. -1.
</event>
<event>
 5   0  0.1914439E-07  0.3004948E+04  0.7818609E-02  0.8242319E-01
       -2   -1    0    0    0  501  0.00000000000E+00  0.00000000000E+00  0.14668150700E+04  0.14668150700E+04  0.25500000920E-02 0.  1.
        2   -1    0    0  501    0  0.00000000000E+00  0.00000000000E+00 -0.15390000355E+04  0.15390000355E+04  0.25500000920E-02 0. -1.
    10030    2    1    2    0    0  0.00000000000E+00  0.00000000000E+00 -0.72184965578E+02  0.30058151055E+04  0.30049482157E+04 0.  0.
        5    1    3    3  502    0 -0.26437758705E+03 -0.14471848251E+04  0.26922815354E+03  0.14955752456E+04  0.46999998093E+01 0.  1.
       -5    1    3    3    0  502  0.26437758705E+03  0.14471848251E+04 -0.34141311911E+03  0.15102398599E+04  0.46999998093E+01 0. -1.
</event>
<event>
 5   0  0.6525507E-08  0.3012900E+04  0.7818609E-02  0.8240057E-01
       -1   -1    0    0    0  501  0.00000000000E+00  0.00000000000E+00  0.11039313078E+04  0.11039313078E+04  0.50400001928E-02 0.  1.
        1   -1    0    0  501    0  0.00000000000E+00  0.00000000000E+00 -0.20557367148E+04  0.20557367148E+04  0.50400001928E-02 0. -1.
    10030    2    1    2    0    0  0.00000000000E+00  0.00000000000E+00 -0.95180540696E+03  0.31596680226E+04  0.30129003436E+04 0.  0.
        4    1    3    3  502    0  0.11533263597E+04 -0.85061205969E+03 -0.96294829700E+03  0.17265496238E+04  0.12699999809E+01 0. -1.
       -4    1    3    3    0  502 -0.11533263597E+04  0.85061205969E+03  0.11142890044E+02  0.14331183988E+04  0.12699999809E+01 0.  1.
</event>
<event>
 5   0  0.1817566E-07  0.3000306E+04  0.7818609E-02  0.8243644E-01
       -2   -1    0    0    0  501  0.00000000000E+00  0.00000000000E+00  0.18572188948E+04  0.18572188948E+04  0.25500000920E-02 0.  1.
        2   -1    0    0  501    0  0.00000000000E+00  0.00000000000E+00 -0.12117357421E+04  0.12117357421E+04  0.25500000920E-02 0. -1.
    10030    2    1    2    0    0  0.00000000000E+00  0.00000000000E+00  0.64548315262E+03  0.30689546369E+04  0.30003056616E+04 0.  0.
        1    1    3    3  502    0 -0.12084620572E+04 -0.47712787689E+03  0.10898522633E+04  0.16958211906E+04  0.50400001928E-02 0.  1.
       -1    1    3    3    0  502  0.12084620572E+04  0.47712787689E+03 -0.44436911071E+03  0.13731334463E+04  0.50400001928E-02 0. -1.
</event>
<event>
 5   0  0.6464436E-08  0.3001285E+04  0.7818609E-02  0.8243364E-01
        1   -1    0    0  501    0  0.00000000000E+00  0.00000000000E+00  0.22305833171E+04  0.22305833171E+04  0.50400001928E-02 0.  1.
       -1   -1    0    0    0  501  0.00000000000E+00  0.00000000000E+00 -0.10095693036E+04  0.10095693036E+04  0.50400001928E-02 0. -1.
    10030    2    1    2    0    0  0.00000000000E+00  0.00000000000E+00  0.12210140134E+04  0.32401526207E+04  0.30012853554E+04 0.  0.
        5    1    3    3  502    0 -0.73407220782E+03 -0.12959025696E+04  0.41237716518E+03  0.15454133727E+04  0.46999998093E+01 0.  1.
       -5    1    3    3    0  502  0.73407220782E+03  0.12959025696E+04  0.80863684827E+03  0.16947392480E+04  0.46999998093E+01 0. -1.
</event>
<event>
 5   0  0.6679022E-08  0.3001447E+04  0.7818609E-02  0.8243318E-01
        1   -1    0    0  501    0  0.00000000000E+00  0.00000000000E+00  0.24555609612E+04  0.24555609612E+04  0.50400001928E-02 0.  1.
       -1   -1    0    0    0  501  0.00000000000E+00  0.00000000000E+00 -0.91717190966E+03  0.91717190967E+03  0.50400001928E-02 0. -1.
    10030    2    1    2    0    0  0.00000000000E+00  0.00000000000E+00  0.15383890516E+04  0.33727328709E+04  0.30014473416E+04 0.  0.
        3    1    3    3  502    0 -0.71208595943E+03  0.92575353698E+03 -0.28976316026E+03  0.12033489619E+04  0.10100000352E+00 0. -1.
       -3    1    3    3    0  502  0.71208595943E+03 -0.92575353698E+03  0.18281522118E+04  0.21693839090E+04  0.10100000352E+00 0.  1.
</event>
<event>
 5   0  0.6679022E-08  0.3001293E+04  0.7818609E-02  0.8243362E-01
        1   -1    0    0  501    0  0.00000000000E+00  0.00000000000E+00  0.13557650526E+04  0.13557650527E+04  0.50400001928E-02 0.  1.
       -1   -1    0    0    0  501  0.00000000000E+00  0.00000000000E+00 -0.16610100851E+04  0.16610100852E+04  0.50400001928E-02 0. -1.
    10030    2    1    2    0    0  0.00000000000E+00  0.00000000000E+00 -0.30524503250E+03  0.30167751378E+04  0.30012926719E+04 0.  0.
        3    1    3    3  502    0  0.98373128779E+03 -0.92083157981E+03 -0.81654584148E+03  0.15755650308E+04  0.10100000352E+00 0. -1.
       -3    1    3    3    0  502 -0.98373128779E+03  0.92083157981E+03  0.51130080898E+03  0.14412101070E+04  0.10100000352E+00 0.  1.
</event>
<event>
 5   0  0.6374748E-08  0.2996430E+04  0.7818609E-02  0.8244751E-01
       -1   -1    0    0    0  501  0.00000000000E+00  0.00000000000E+00  0.10688991922E+04  0.10688991922E+04  0.50400001928E-02 0. -1.
        1   -1    0    0  501    0  0.00000000000E+00  0.00000000000E+00 -0.20999628550E+04  0.20999628550E+04  0.50400001928E-02 0.  1.
    10030    2    1    2    0    0  0.00000000000E+00  0.00000000000E+00 -0.10310636628E+04  0.31688620472E+04  0.29964302757E+04 0.  0.
        1    1    3    3  502    0  0.17673994180E+03 -0.62799097319E+03  0.91079861715E+03  0.11203409260E+04  0.50400001928E-02 0. -1.
       -1    1    3    3    0  502 -0.17673994180E+03  0.62799097319E+03 -0.19418622800E+04  0.20485211212E+04  0.50400001928E-02 0.  1.
</event>
<event>
 5   0  0.1813720E-07  0.3000428E+04  0.7818609E-02  0.8243609E-01
        2   -1    0    0  501    0  0.00000000000E+00  0.00000000000E+00  0.20507967889E+04  0.20507967889E+04  0.25500000920E-02 0. -1.
       -2   -1    0    0    0  501  0.00000000000E+00  0.00000000000E+00 -0.10974479033E+04  0.10974479033E+04  0.25500000920E-02 0.  1.
    10030    2    1    2    0    0  0.00000000000E+00  0.00000000000E+00  0.95334888555E+03  0.31482446922E+04  0.30004283935E+04 0.  0.
        3    1    3    3  502    0 -0.13778275082E+03  0.25604846824E+03 -0.10675991178E+04  0.11064866882E+04  0.10100000352E+00 0.  1.
       -3    1    3    3    0  502  0.13778275082E+03 -0.25604846824E+03  0.20209480034E+04  0.20417580040E+04  0.10100000352E+00 0. -1.
</event>
<event>
 5   0  0.6017625E-08  0.2996106E+04  0.7818609E-02  0.8244844E-01
        3   -1    0    0  501    0  0.00000000000E+00  0.00000000000E+00  0.18008980401E+04  0.18008980429E+04  0.10100000352E+00 0. -1.
       -3   -1    0    0    0  501  0.00000000000E+00  0.00000000000E+00 -0.12461357236E+04  0.12461357277E+04  0.10100000352E+00 0.  1.
    10030    2    1    2    0    0  0.00000000000E+00  0.00000000000E+00  0.55476231650E+03  0.30470337706E+04  0.29961064018E+04 0.  0.
        4    1    3    3  502    0  0.54692444962E+03  0.11053581053E+04 -0.58749696942E+03  0.13660516815E+04  0.12699999809E+01 0.  1.
       -4    1    3    3    0  502 -0.54692444962E+03 -0.11053581053E+04  0.11422592859E+04  0.16809820891E+04  0.12699999809E+01 0. -1.
</event>
<event>
 5   0  0.1813720E-07  0.2994932E+04  0.7818609E-02  0.8245180E-01
        2   -1    0    0  501    0  0.00000000000E+00  0.00000000000E+00  0.17760947310E+04  0.17760947310E+04  0.25500000920E-02 0.  1.
       -2   -1    0    0    0  501  0.00000000000E+00  0.00000000000E+00 -0.12625475199E+04  0.12625475199E+04  0.25500000920E-02 0. -1.
    10030    2    1    2    0    0  0.00000000000E+00  0.00000000000E+00  0.51354721103E+03  0.30386422509E+04  0.29949317172E+04 0.  0.
        3    1    3    3  502    0  0.80846574329E+03  0.12591179919E+04  0.31601249484E+03  0.15293328227E+04  0.10100000352E+00 0. -1.
       -3    1    3    3    0  502 -0.80846574329E+03 -0.12591179919E+04  0.19753471618E+03  0.15093094282E+04  0.10100000352E+00 0.  1.
</event>
<event>
 5   0  0.1914439E-07  0.3004195E+04  0.7818609E-02  0.8242534E-01
        2   -1    0    0  501    0  0.00000000000E+00  0.00000000000E+00  0.23945002036E+04  0.23945002036E+04  0.25500000920E-02 0.  1.
       -2   -1    0    0    0  501  0.00000000000E+00  0.00000000000E+00 -0.94228313090E+03  0.94228313090E+03  0.25500000920E-02 0. -1.
    10030    2    1    2    0    0  0.00000000000E+00  0.00000000000E+00  0.14522170727E+04  0.33367833345E+04  0.30041951660E+04 0.  0.
        5    1    3    3  502    0 -0.68986119398E+03 -0.49672643135E+03  0.21016069181E+04  0.22670287477E+04  0.46999998093E+01 0.  1.
       -5    1    3    3    0  502  0.68986119398E+03  0.49672643135E+03 -0.64938984546E+03  0.10697545868E+04  0.46999998093E+01 0. -1.
</event>
<event>
 5   0  0.6636007E-08  0.2997600E+04  0.7818609E-02  0.8244417E-01
        1   -1    0    0  501    0  0.00000000000E+00  0.00000000000E+00  0.17369597390E+04  0.17369597390E+04  0.50400001928E-02 0.  1.
       -1   -1    0    0    0  501  0.00000000000E+00  0.00000000000E+00 -0.12932947923E+04  0.12932947923E+04  0.50400001928E-02 0. -1.
    10030    2    1    2    0    0  0.00000000000E+00  0.00000000000E+00  0.44366494662E+03  0.30302545313E+04  0.29975996964E+04 0.  0.
        2    1    3    3  502    0  0.11352835658E+04 -0.63302513217E+03  0.97615925863E+03  0.16255695897E+04  0.25500000920E-02 0.  1.
       -2    1    3    3    0  502 -0.11352835658E+04  0.63302513217E+03 -0.53249431201E+03  0.14046849416E+04  0.25500000920E-02 0. -1.
</event>
<event>
 5   0  0.6525507E-08  0.3010965E+04  0.7818609E-02  0.8240607E-01
       -1   -1    0    0    0  501  0.00000000000E+00  0.00000000000E+00  0.20844375091E+04  0.20844375091E+04  0.50400001928E-02 0. -1.
        1   -1    0    0  501    0  0.00000000000E+00  0.00000000000E+00 -0.10873329407E+04  0.10873329407E+04  0.50400001928E-02 0.  1.
    10030    2    1    2    0    0  0.00000000000E+00  0.00000000000E+00  0.99710456836E+03  0.31717704498E+04  0.30109650058E+04 0.  0.
        4    1    3    3  502    0 -0.92379106054E+03 -0.74791056536E+03  0.14718656881E+04  0.18918642536E+04  0.12699999809E+01 0. -1.
       -4    1    3    3    0  502  0.92379106054E+03  0.74791056536E+03 -0.47476111975E+03  0.12799061962E+04  0.12699999809E+01 0.  1.
</event>
<event>
 5   0  0.1821305E-07  0.2999762E+04  0.7818609E-02  0.8243799E-01
        2   -1    0    0  501    0  0.00000000000E+00  0.00000000000E+00  0.24040263445E+04  0.24040263445E+04  0.25500000920E-02 0. -1.
       -2   -1    0    0    0  501  0.00000000000E+00  0.00000000000E+00 -0.93578151207E+03  0.93578151207E+03  0.25500000920E-02 0.  1.
    10030    2    1    2    0    0  0.00000000000E+00  0.00000000000E+00  0.14682448324E+04  0.33398078566E+04  0.29997622624E+04 0.  0.
        2    1    3    3  502    0 -0.14841840029E+04 -0.68914128282E+02  0.50570199858E+03  0.15694858467E+04  0.25500000920E-02 0. -1.
       -2    1    3    3    0  502  0.14841840029E+04  0.68914128282E+02  0.96254283387E+03  0.17703220099E+04  0.25500000920E-02 0.  1.
</event>
<event>
 5   0  0.1813720E-07  0.3000051E+04  0.7818609E-02  0.8243716E-01
        2   -1    0    0  501    0  0.00000000000E+00  0.00000000000E+00  0.14257762373E+04  0.14257762373E+04  0.25500000920E-02 0. -1.
       -2   -1    0    0    0  501  0.00000000000E+00  0.00000000000E+00 -0.15781413603E+04  0.15781413603E+04  0.25500000920E-02 0.  1.
    10030    2    1    2    0    0  0.00000000000E+00  0.00000000000E+00 -0.15236512300E+03  0.30039175977E+04  0.30000509667E+04 0.  0.
        3    1    3    3  502    0  0.90734583015E+03 -0.10473388860E+04 -0.65127570977E+03  0.15311287529E+04  0.10100000352E+00 0.  1.
       -3    1    3    3    0  502 -0.90734583015E+03  0.10473388860E+04  0.49891058677E+03  0.14727888448E+04  0.10100000352E+00 0. -1.
</event>
<event>
 5   0  0.6374748E-08  0.2999859E+04  0.7818609E-02  0.8243771E-01
        1   -1    0    0  501    0  0.00000000000E+00  0.00000000000E+00  0.27923408207E+04  0.27923408208E+04  0.50400001928E-02 0.  1.
       -1   -1    0    0    0  501  0.00000000000E+00  0.00000000000E+00 -0.80569981441E+03  0.80569981442E+03  0.50400001928E-02 0. -1.
    10030    2    1    2    0    0  0.00000000000E+00  0.00000000000E+00  0.19866410063E+04  0.35980406352E+04  0.29998589841E+04 0.  0.
        1    1    3    3  502    0  0.68587461447E+03 -0.13159942369E+04  0.73185152072E+03  0.16546514638E+04  0.50400001928E-02 0.  1.
       -1    1    3    3    0  502 -0.68587461447E+03  0.13159942369E+04  0.12547894856E+04  0.19433891714E+04  0.50400001928E-02 0. -1.
</event>
<event>
 5   0  0.1914439E-07  0.3000298E+04  0.7818609E-02  0.8243646E-01
       -2   -1    0    0    0  501  0.00000000000E+00  0.00000000000E+00  0.21303321713E+04  0.21303321713E+04  0.25500000920E-02 0.  1.
        2   -1    0    0  501    0  0.00000000000E+00  0.00000000000E+00 -0.10563829840E+04  0.10563829840E+04  0.25500000920E-02 0. -1.
    10030    2    1    2    0    0  0.00000000000E+00  0.00000000000E+00  0.10739491873E+04  0.31867151553E+04  0.30002977559E+04 0.  0.
        5    1    3    3  502    0  0.26335757821E+03 -0.49633189300E+03 -0.94039165854E+03  0.10954730136E+04  0.46999998093E+01 0. -1.
       -5    1    3    3    0  502 -0.26335757821E+03  0.49633189300E+03  0.20143408458E+04  0.20912421417E+04  0.46999998093E+01 0.  1.
</event>
<event>
 5   0  0.6525507E-08  0.3000040E+04  0.7818609E-02  0.8243719E-01
       -1   -1    0    0    0  501  0.00000000000E+00  0.00000000000E+00  0.13078365689E+04  0.13078365689E+04  0.50400001928E-02 0. -1.
        1   -1    0    0  501    0  0.00000000000E+00  0.00000000000E+00 -0.17204448773E+04  0.17204448774E+04  0.50400001928E-02 0.  1.
    10030    2    1    2    0    0  0.00000000000E+00  0.00000000000E+00 -0.41260830843E+03  0.30282814463E+04  0.30000404834E+04 0.  0.
        4    1    3    3  502    0 -0.52679846830E+03 -0.37327445073E+03 -0.15730100623E+04  0.17003566423E+04  0.12699999809E+01 0.  1.
       -4    1    3    3    0  502  0.52679846830E+03  0.37327445073E+03  0.11604017539E+04  0.13279248040E+04  0.12699999809E+01 0. -1.
</event>
<event>
 5   0  0.6464436E-08  0.3000903E+04  0.7818609E-02  0.8243473E-01
       -1   -1    0    0    0  501  0.00000000000E+00  0.00000000000E+00  0.11831545870E+04  0.11831545870E+04  0.50400001928E-02 0.  1.
        1   -1    0    0  501    0  0.00000000000E+00  0.00000000000E+00 -0.19028406304E+04  0.19028406304E+04  0.50400001928E-02 0. -1.
    10030    2    1    2    0    0  0.00000000000E+00  0.00000000000E+00 -0.71968604338E+03  0.30859952174E+04  0.30009029443E+04 0.  0.
        5    1    3    3  502    0  0.12008279764E+04 -0.34364873963E+03  0.49514680696E+03  0.13436051264E+04  0.46999998093E+01 0.  1.
       -5    1    3    3    0  502 -0.12008279764E+04  0.34364873963E+03 -0.12148328503E+04  0.17423900911E+04  0.46999998093E+01 0. -1.
</event>
<event>
 5   0  0.1821305E-07  0.2999666E+04  0.7818609E-02  0.8243826E-01
        2   -1    0    0  501    0  0.00000000000E+00  0.00000000000E+00  0.12177849218E+04  0.12177849218E+04  0.25500000920E-02 0.  1.
       -2   -1    0    0    0  501  0.00000000000E+00  0.00000000000E+00 -0.18472061024E+04  0.18472061024E+04  0.25500000920E-02 0. -1.
    10030    2    1    2    0    0  0.00000000000E+00  0.00000000000E+00 -0.62942118062E+03  0.30649910242E+04  0.29996664741E+04 0.  0.
        2    1    3    3  502    0  0.12762129370E+04  0.22812722709E+03 -0.10852812260E+04  0.16907385462E+04  0.25500000920E-02 0. -1.
       -2    1    3    3    0  502 -0.12762129370E+04 -0.22812722709E+03  0.45586004538E+03  0.13742524780E+04  0.25500000920E-02 0.  1.
</event>
<event>
 5   0  0.6374748E-08  0.3000996E+04  0.7818609E-02  0.8243446E-01
       -1   -1    0    0    0  501  0.00000000000E+00  0.00000000000E+00  0.11285314979E+04  0.11285314980E+04  0.50400001928E-02 0.  1.
        1   -1    0    0  501    0  0.00000000000E+00  0.00000000000E+00 -0.19950659672E+04  0.19950659672E+04  0.50400001928E-02 0. -1.
    10030    2    1    2    0    0  0.00000000000E+00  0.00000000000E+00 -0.86653446929E+03  0.31235974652E+04  0.30009963576E+04 0.  0.
        1    1    3    3  502    0 -0.68664286433E+03  0.54533716582E+03  0.83410756642E+03  0.12102092711E+04  0.50400001928E-02 0.  1.
       -1    1    3    3    0  502  0.68664286433E+03 -0.54533716582E+03 -0.17006420357E+04  0.19133881941E+04  0.50400001928E-02 0. -1.
</event>
<event>
 5   0  0.6636007E-08  0.2996925E+04  0.7818609E-02  0.8244609E-01
       -1   -1    0    0    0  501  0.00000000000E+00  0.00000000000E+00  0.13015892359E+04  0.13015892359E+04  0.50400001928E-02 0. -1.
        1   -1    0    0  501    0  0.00000000000E+00  0.00000000000E+00 -0.17251146014E+04  0.17251146014E+04  0.50400001928E-02 0.  1.
    10030    2    1    2    0    0  0.00000000000E+00  0.00000000000E+00 -0.42352536553E+03  0.30267038373E+04  0.29969254885E+04 0.  0.
        2    1    3    3  502    0  0.99668133130E+03  0.11055065710E+04 -0.37209746567E+02  0.14889268014E+04  0.25500000920E-02 0.  1.
       -2    1    3    3    0  502 -0.99668133130E+03 -0.11055065710E+04 -0.38631561897E+03  0.15377770359E+04  0.25500000920E-02 0. -1.
</event>
<event>
 5   0  0.1914439E-07  0.3007010E+04  0.7818609E-02  0.8241732E-01
        2   -1    0    0  501    0  0.00000000000E+00  0.00000000000E+00  0.12887087768E+04  0.12887087768E+04  0.25500000920E-02 0. -1.
       -2   -1    0    0    0  501  0.00000000000E+00  0.00000000000E+00 -0.17541026686E+04  0.17541026686E+04  0.25500000920E-02 0.  1.
    10030    2    1    2    0    0  0.00000000000E+00  0.00000000000E+00 -0.46539389173E+03  0.30428114454E+04  0.30070101459E+04 0.  0.
        5    1    3    3  502    0  0.38109027594E+03  0.14489119980E+04 -0.10498159456E+03  0.15018718326E+04  0.46999998093E+01 0.  1.
       -5    1    3    3    0  502 -0.38109027594E+03 -0.14489119980E+04 -0.36041229717E+03  0.15409396128E+04  0.46999998093E+01 0. -1.
</event>
<event>
 5   0  0.1810055E-07  0.2997002E+04  0.7818609E-02  0.8244588E-01
       -2   -1    0    0    0  501  0.00000000000E+00  0.00000000000E+00  0.14049429193E+04  0.14049429193E+04  0.25500000920E-02 0. -1.
        2   -1    0    0  501    0  0.00000000000E+00  0.00000000000E+00 -0.15982892788E+04  0.15982892788E+04  0.25500000920E-02 0.  1.
    10030    2    1    2    0    0  0.00000000000E+00  0.00000000000E+00 -0.19334635956E+03  0.30032321981E+04  0.29970019722E+04 0.  0.
        4    1    3    3  502    0 -0.76605065875E+02 -0.12279776173E+04  0.76050332479E+03  0.14464315693E+04  0.12699999809E+01 0. -1.
       -4    1    3    3    0  502  0.76605065875E+02  0.12279776173E+04 -0.95384968434E+03  0.15568006288E+04  0.12699999809E+01 0.  1.
</event>
<event>
 5   0  0.6636007E-08  0.2997350E+04  0.7818609E-02  0.8244488E-01
        1   -1    0    0  501    0  0.00000000000E+00  0.00000000000E+00  0.16152021814E+04  0.16152021814E+04  0.50400001928E-02 0.  1.
       -1   -1    0    0    0  501  0.00000000000E+00  0.00000000000E+00 -0.13905541679E+04  0.13905541679E+04  0.50400001928E-02 0. -1.
    10030    2    1    2    0    0  0.00000000000E+00  0.00000000000E+00  0.22464801345E+03  0.30057563493E+04  0.29973495795E+04 0.  0.
        2    1    3    3  502    0  0.54607751138E+03 -0.13652672429E+04  0.40274088456E+03  0.15245837180E+04  0.25500000920E-02 0.  1.
       -2    1    3    3    0  502 -0.54607751138E+03  0.13652672429E+04 -0.17809287111E+03  0.14811726313E+04  0.25500000920E-02 0. -1.
</event>
<event>
 5   0  0.6679022E-08  0.2999473E+04  0.7818609E-02  0.8243881E-01
       -1   -1    0    0    0  501  0.00000000000E+00  0.00000000000E+00  0.22155166886E+04  0.22155166886E+04  0.50400001928E-02 0. -1.
        1   -1    0    0  501    0  0.00000000000E+00  0.00000000000E+00 -0.10152075056E+04  0.10152075056E+04  0.50400001928E-02 0.  1.
    10030    2    1    2    0    0  0.00000000000E+00  0.00000000000E+00  0.12003091830E+04  0.32307241943E+04  0.29994727344E+04 0.  0.
        3    1    3    3  502    0  0.11590496284E+03  0.21480604053E+03  0.21939797816E+04  0.22075150934E+04  0.10100000352E+00 0. -1.
       -3    1    3    3    0  502 -0.11590496284E+03 -0.21480604053E+03 -0.99367059856E+03  0.10232091009E+04  0.10100000352E+00 0.  1.
</event>
<event>
 5   0  0.6636007E-08  0.3000583E+04  0.7818609E-02  0.8243565E-01
       -1   -1    0    0    0  501  0.00000000000E+00  0.00000000000E+00  0.19489439269E+04  0.19489439269E+04  0.50400001928E-02 0.  1.
        1   -1    0    0  501    0  0.00000000000E+00  0.00000000000E+00 -0.11549199075E+04  0.11549199075E+04  0.50400001928E-02 0. -1.
    10030    2    1    2    0    0  0.00000000000E+00  0.00000000000E+00  0.79402401940E+03  0.31038638344E+04  0.30005827032E+04 0.  0.
        2    1    3    3  502    0  0.75334762017E+03  0.19493683843E+03 -0.92984779069E+03  0.12124973904E+04  0.25500000920E-02 0. -1.
       -2    1    3    3    0  502 -0.75334762017E+03 -0.19493683843E+03  0.17238718101E+04  0.18913664440E+04  0.25500000920E-02 0.  1.
</event>
<event>
 5   0  0.1813720E-07  0.2994800E+04  0.7818609E-02  0.8245217E-01
       -2   -1    0    0    0  501  0.00000000000E+00  0.00000000000E+00  0.17084353606E+04  0.17084353606E+04  0.25500000920E-02 0. -1.
        2   -1    0    0  501    0  0.00000000000E+00  0.00000000000E+00 -0.13124331521E+04  0.13124331521E+04  0.25500000920E-02 0.  1.
    10030    2    1    2    0    0  0.00000000000E+00  0.00000000000E+00  0.39600220852E+03  0.30208685127E+04  0.29948002975E+04 0.  0.
        3    1    3    3  502    0  0.45791069245E+03 -0.13839398008E+04 -0.14737616263E+03  0.14651591443E+04  0.10100000352E+00 0.  1.
       -3    1    3    3    0  502 -0.45791069245E+03  0.13839398008E+04  0.54337837115E+03  0.15557093684E+04  0.10100000352E+00 0. -1.
</event>
<event>
 5   0  0.6464436E-08  0.3000200E+04  0.7818609E-02  0.8243674E-01
        1   -1    0    0  501    0  0.00000000000E+00  0.00000000000E+00  0.25684051948E+04  0.25684051948E+04  0.50400001928E-02 0.  1.
       -1   -1    0    0    0  501  0.00000000000E+00  0.00000000000E+00 -0.87614705916E+03  0.87614705917E+03  0.50400001928E-02 0. -1.
    10030    2    1    2    0    0  0.00000000000E+00  0.00000000000E+00  0.16922581357E+04  0.34445522540E+04  0.30002004321E+04 0.  0.
        5    1    3    3  502    0  0.14645142409E+03  0.90544899470E+03  0.22089439720E+04  0.23918071542E+04  0.46999998093E+01 0.  1.
       -5    1    3    3    0  502 -0.14645142409E+03 -0.90544899470E+03 -0.51668583633E+03  0.10527450998E+04  0.46999998093E+01 0. -1.
</event>
<event>
 5   0  0.6525507E-08  0.2981884E+04  0.7818609E-02  0.8248923E-01
        1   -1    0    0  501    0  0.00000000000E+00  0.00000000000E+00  0.20041533130E+04  0.20041533130E+04  0.50400001928E-02 0. -1.
       -1   -1    0    0    0  501  0.00000000000E+00  0.00000000000E+00 -0.11091507676E+04  0.11091507677E+04  0.50400001928E-02 0.  1.
    10030    2    1    2    0    0  0.00000000000E+00  0.00000000000E+00  0.89500254536E+03  0.31133040807E+04  0.29818840927E+04 0.  0.
        4    1    3    3  502    0 -0.13466817261E+04 -0.39939032352E+03 -0.74370421598E+02  0.14066260607E+04  0.12699999809E+01 0.  1.
       -4    1    3    3    0  502  0.13466817261E+04  0.39939032352E+03  0.96937296696E+03  0.17066780200E+04  0.12699999809E+01 0. -1.
</event>
<event>
 5   0  0.6679022E-08  0.3000211E+04  0.7818609E-02  0.8243671E-01
       -1   -1    0    0    0  501  0.00000000000E+00  0.00000000000E+00  0.20200033277E+04  0.20200033277E+04  0.50400001928E-02 0. -1.
        1   -1    0    0  501    0  0.00000000000E+00  0.00000000000E+00 -0.11140162875E+04  0.11140162875E+04  0.50400001928E-02 0.  1.
    10030    2    1    2    0    0  0.00000000000E+00  0.00000000000E+00  0.90598704021E+03  0.31340196153E+04  0.30002110646E+04 0.  0.
        3    1    3    3  502    0  0.18694034226E+03  0.62331605523E+02 -0.11004371280E+04  0.11179417711E+04  0.10100000352E+00 0.  1.
       -3    1    3    3    0  502 -0.18694034226E+03 -0.62331605523E+02  0.20064241683E+04  0.20160778442E+04  0.10100000352E+00 0. -1.
</event>
<event>
 5   0  0.1817566E-07  0.2999330E+04  0.7818609E-02  0.8243922E-01
       -2   -1    0    0    0  501  0.00000000000E+00  0.00000000000E+00  0.72983194234E+03  0.72983194235E+03  0.25500000920E-02 0.  1.
        2   -1    0    0  501    0  0.00000000000E+00  0.00000000000E+00 -0.30815243396E+04  0.30815243396E+04  0.25500000920E-02 0. -1.
    10030    2    1    2    0    0  0.00000000000E+00  0.00000000000E+00 -0.23516923973E+04  0.38113562820E+04  0.29993298546E+04 0.  0.
        1    1    3    3  502    0 -0.78406705564E+03 -0.42433841620E+03 -0.27082139578E+04  0.28511834526E+04  0.50400001928E-02 0. -1.
       -1    1    3    3    0  502  0.78406705564E+03  0.42433841620E+03  0.35652156048E+03  0.96017282940E+03  0.50400001928E-02 0.  1.
</event>
<event>
 5   0  0.6374748E-08  0.2999387E+04  0.7818609E-02  0.8243906E-01
        1   -1    0    0  501    0  0.00000000000E+00  0.00000000000E+00  0.18117697679E+04  0.18117697679E+04  0.50400001928E-02 0. -1.
       -1   -1    0    0    0  501  0.00000000000E+00  0.00000000000E+00 -0.12413725943E+04  0.12413725944E+04  0.50400001928E-02 0.  1.
    10030    2    1    2    0    0  0.00000000000E+00  0.00000000000E+00  0.57039717356E+03  0.30531423623E+04  0.29993874956E+04 0.  0.
        1    1    3    3  502    0  0.30241568130E+03  0.42010056927E+03 -0.11475574194E+04  0.12588994255E+04  0.50400001928E-02 0.  1.
       -1    1    3    3    0  502 -0.30241568130E+03 -0.42010056927E+03  0.17179545930E+04  0.17942429368E+04  0.50400001928E-02 0. -1.
</event>
<event>
 5   0  0.1813720E-07  0.3011574E+04  0.7818609E-02  0.8240434E-01
       -2   -1    0    0    0  501  0.00000000000E+00  0.00000000000E+00  0.23296493472E+04  0.23296493472E+04  0.25500000920E-02 0. -1.
        2   -1    0    0  501    0  0.00000000000E+00  0.00000000000E+00 -0.97327722094E+03  0.97327722094E+03  0.25500000920E-02 0.  1.
    10030    2    1    2    0    0  0.00000000000E+00  0.00000000000E+00  0.13563721263E+04  0.33029265682E+04  0.30115741017E+04 0.  0.
        3    1    3    3  502    0  0.81056300725E+03 -0.47288803009E+03  0.19697201876E+04  0.21818416774E+04  0.10100000352E+00 0. -1.
       -3    1    3    3    0  502 -0.81056300725E+03  0.47288803009E+03 -0.61334806131E+03  0.11210848907E+04  0.10100000352E+00 0.  1.
</event>
<event>
 5   0  0.1813720E-07  0.3021163E+04  0.7818609E-02  0.8237713E-01
        2   -1    0    0  501    0  0.00000000000E+00  0.00000000000E+00  0.16296963924E+04  0.16296963924E+04  0.25500000920E-02 0.  1.
       -2   -1    0    0    0  501  0.00000000000E+00  0.00000000000E+00 -0.14001726278E+04  0.14001726278E+04  0.25500000920E-02 0. -1.
    10030    2    1    2    0    0  0.00000000000E+00  0.00000000000E+00  0.22952376460E+03  0.30298690203E+04  0.30211628757E+04 0.  0.
        3    1    3    3  502    0  0.12696663961E+03 -0.14904680172E+04 -0.96179292108E+02  0.14989549374E+04  0.10100000352E+00 0. -1.
       -3    1    3    3    0  502 -0.12696663961E+03  0.14904680172E+04  0.32570305671E+03  0.15309140829E+04  0.10100000352E+00 0.  1.
</event>
<event>
 5   0  0.1810055E-07  0.3008817E+04  0.7818609E-02  0.8241218E-01
        2   -1    0    0  501    0  0.00000000000E+00  0.00000000000E+00  0.11066714793E+04  0.11066714793E+04  0.25500000920E-02 0. -1.
       -2   -1    0    0    0  501  0.00000000000E+00  0.00000000000E+00 -0.20450915035E+04  0.20450915035E+04  0.25500000920E-02 0.  1.
    10030    2    1    2    0    0  0.00000000000E+00  0.00000000000E+00 -0.93842002418E+03  0.31517629827E+04  0.30088166706E+04 0.  0.
        4    1    3    3  502    0  0.10061917186E+04  0.21097378335E+03  0.68129228060E+03  0.12333257868E+04  0.12699999809E+01 0. -1.
       -4    1    3    3    0  502 -0.10061917186E+04 -0.21097378335E+03 -0.16197123048E+04  0.19184371960E+04  0.12699999809E+01 0.  1.
</event>
<event>
 5   0  0.6679022E-08  0.3000281E+04  0.7818609E-02  0.8243651E-01
       -1   -1    0    0    0  501  0.00000000000E+00  0.00000000000E+00  0.66001137665E+03  0.66001137667E+03  0.50400001928E-02 0. -1.
        1   -1    0    0  501    0  0.00000000000E+00  0.00000000000E+00 -0.34096697707E+04  0.34096697707E+04  0.50400001928E-02 0.  1.
    10030    2    1    2    0    0  0.00000000000E+00  0.00000000000E+00 -0.27496583941E+04  0.40696811474E+04  0.30002805464E+04 0.  0.
        3    1    3    3  502    0 -0.84288968498E+03  0.85031061192E+03 -0.26008302786E+04  0.28631816754E+04  0.10100000352E+00 0.  1.
       -3    1    3    3    0  502  0.84288968498E+03 -0.85031061192E+03 -0.14882811541E+03  0.12064994720E+04  0.10100000352E+00 0. -1.
</event>
<event>
 5   0  0.1810055E-07  0.2999193E+04  0.7818609E-02  0.8243961E-01
       -2   -1    0    0    0  501  0.00000000000E+00  0.00000000000E+00  0.11223171990E+04  0.11223171990E+04  0.25500000920E-02 0.  1.
        2   -1    0    0  501    0  0.00000000000E+00  0.00000000000E+00 -0.20037025982E+04  0.20037025982E+04  0.25500000920E-02 0. -1.
    10030    2    1    2    0    0  0.00000000000E+00  0.00000000000E+00 -0.88138539926E+03  0.31260197972E+04  0.29991931499E+04 0.  0.
        4    1    3    3  502    0  0.14714525979E+04 -0.98333805509E+00 -0.13930311334E+03  0.14780327078E+04  0.12699999809E+01 0.  1.
       -4    1    3    3    0  502 -0.14714525979E+04  0.98333805509E+00 -0.74208228592E+03  0.16479870894E+04  0.12699999809E+01 0. -1.
</event>
<event>
 5   0  0.6464436E-08  0.3000668E+04  0.7818609E-02  0.8243540E-01
       -1   -1    0    0    0  501  0.00000000000E+00  0.00000000000E+00  0.11683355752E+04  0.11683355752E+04  0.50400001928E-02 0. -1.
        1   -1    0    0  501    0  0.00000000000E+00  0.00000000000E+00 -0.19266736630E+04  0.19266736630E+04  0.50400001928E-02 0.  1.
    10030    2    1    2    0    0  0.00000000000E+00  0.00000000000E+00 -0.75833808787E+03  0.30950092382E+04  0.30006675139E+04 0.  0.
        5    1    3    3  502    0  0.10539272255E+04 -0.10459596637E+04 -0.15750517374E+03  0.14931926147E+04  0.46999998093E+01 0.  1.
       -5    1    3    3    0  502 -0.10539272255E+04  0.10459596637E+04 -0.60083291413E+03  0.16018166235E+04  0.46999998093E+01 0. -1.
</event>
<event>
 5   0  0.1817566E-07  0.3001066E+04  0.7818609E-02  0.8243427E-01
        2   -1    0    0  501    0  0.00000000000E+00  0.00000000000E+00  0.17857161360E+04  0.17857161360E+04  0.25500000920E-02 0. -1.
       -2   -1    0    0    0  501  0.00000000000E+00  0.00000000000E+00 -0.12608942374E+04  0.12608942374E+04  0.25500000920E-02 0.  1.
    10030    2    1    2    0    0  0.00000000000E+00  0.00000000000E+00  0.52482189866E+03  0.30466103734E+04  0.30010659343E+04 0.  0.
        1    1    3    3  502    0 -0.24158187378E+03 -0.65170582999E+03  0.16124489275E+04  0.17558683990E+04  0.50400001928E-02 0. -1.
       -1    1    3    3    0  502  0.24158187378E+03  0.65170582999E+03 -0.10876270289E+04  0.12907419744E+04  0.50400001928E-02 0.  1.
</event>
<event>
 5   0  0.6636007E-08  0.3001579E+04  0.7818609E-02  0.8243280E-01
       -1   -1    0    0    0  501  0.00000000000E+00  0.00000000000E+00  0.25552582525E+04  0.25552582525E+04  0.50400001928E-02 0. -1.
        1   -1    0    0  501    0  0.00000000000E+00  0.00000000000E+00 -0.88146461242E+03  0.88146461243E+03  0.50400001928E-02 0.  1.
    10030    2    1    2    0    0  0.00000000000E+00  0.00000000000E+00  0.16737936401E+04  0.34367228649E+04  0.30015794010E+04 0.  0.
        2    1    3    3  502    0  0.11634565534E+04  0.74100408282E+03  0.15985984415E+03  0.13886228330E+04  0.25500000920E-02 0.  1.
       -2    1    3    3    0  502 -0.11634565534E+04 -0.74100408282E+03  0.15139337959E+04  0.20481000320E+04  0.25500000920E-02 0. -1.
</event>
<event>
 5   0  0.1914439E-07  0.3000555E+04  0.7818609E-02  0.8243572E-01
       -2   -1    0    0    0  501  0.00000000000E+00  0.00000000000E+00  0.72781411909E+03  0.72781411909E+03  0.25500000920E-02 0. -1.
        2   -1    0    0  501    0  0.00000000000E+00  0.00000000000E+00 -0.30925935203E+04  0.30925935203E+04  0.25500000920E-02 0.  1.
    10030    2    1    2    0    0  0.00000000000E+00  0.00000000000E+00 -0.23647794012E+04  0.38204076394E+04  0.30005554344E+04 0.  0.
        5    1    3    3  502    0  0.61271887689E+02 -0.93267623892E+03 -0.26765669894E+04  0.28350788612E+04  0.46999998093E+01 0.  1.
       -5    1    3    3    0  502 -0.61271887689E+02  0.93267623892E+03  0.31178758819E+03  0.98532877813E+03  0.46999998093E+01 0. -1.
</event>
<event>
 5   0  0.6679022E-08  0.3000361E+04  0.7818609E-02  0.8243628E-01
        1   -1    0    0  501    0  0.00000000000E+00  0.00000000000E+00  0.16514193279E+04  0.16514193279E+04  0.50400001928E-02 0.  1.
       -1   -1    0    0    0  501  0.00000000000E+00  0.00000000000E+00 -0.13627920439E+04  0.13627920439E+04  0.50400001928E-02 0. -1.
    10030    2    1    2    0    0  0.00000000000E+00  0.00000000000E+00  0.28862728392E+03  0.30142113718E+04  0.30003607258E+04 0.  0.
        3    1    3    3  502    0 -0.51665501741E+03  0.13456734721E+04 -0.27326321678E+03  0.14671204096E+04  0.10100000352E+00 0.  1.
       -3    1    3    3    0  502  0.51665501741E+03 -0.13456734721E+04  0.56189050070E+03  0.15470909622E+04  0.10100000352E+00 0. -1.
</event>
<event>
 5   0  0.6679022E-08  0.2998715E+04  0.7818609E-02  0.8244098E-01
       -1   -1    0    0    0  501  0.00000000000E+00  0.00000000000E+00  0.20153474345E+04  0.20153474345E+04  0.50400001928E-02 0.  1.
        1   -1    0    0  501    0  0.00000000000E+00  0.00000000000E+00 -0.11154764779E+04  0.11154764779E+04  0.50400001928E-02 0. -1.
    10030    2    1    2    0    0  0.00000000000E+00  0.00000000000E+00  0.89987095660E+03  0.31308239124E+04  0.29987148301E+04 0.  0.
        3    1    3    3  502    0 -0.38102004737E+03  0.17854617772E+02  0.19638434985E+04  0.20005440161E+04  0.10100000352E+00 0.  1.
       -3    1    3    3    0  502  0.38102004737E+03 -0.17854617772E+02 -0.10639725419E+04  0.11302798963E+04  0.10100000352E+00 0. -1.
</event>
<event>
 5   0  0.6017625E-08  0.2999162E+04  0.7818609E-02  0.8243970E-01
       -3   -1    0    0    0  501  0.00000000000E+00  0.00000000000E+00  0.23621342024E+04  0.23621342046E+04  0.10100000352E+00 0.  1.
        3   -1    0    0  501    0  0.00000000000E+00  0.00000000000E+00 -0.95199658563E+03  0.95199659099E+03  0.10100000352E+00 0. -1.
    10030    2    1    2    0    0  0.00000000000E+00  0.00000000000E+00  0.14101376168E+04  0.33141307956E+04  0.29991623550E+04 0.  0.
        1    1    3    3  502    0  0.51421949557E+03  0.35077576555E+03  0.22126313378E+04  0.22985218651E+04  0.50400001928E-02 0.  1.
       -1    1    3    3    0  502 -0.51421949557E+03 -0.35077576555E+03 -0.80249372102E+03  0.10156089305E+04  0.50400001928E-02 0. -1.
</event>
<event>
 5   0  0.6679022E-08  0.2998866E+04  0.7818609E-02  0.8244055E-01
       -1   -1    0    0    0  501  0.00000000000E+00  0.00000000000E+00  0.12529308876E+04  0.12529308876E+04  0.50400001928E-02 0.  1.
        1   -1    0    0  501    0  0.00000000000E+00  0.00000000000E+00 -0.17944323593E+04  0.17944323593E+04  0.50400001928E-02 0. -1.
    10030    2    1    2    0    0  0.00000000000E+00  0.00000000000E+00 -0.54150147163E+03  0.30473632469E+04  0.29988662716E+04 0.  0.
        3    1    3    3  502    0 -0.51074288903E+03  0.67859094648E+03  0.98493323717E+03  0.13005527530E+04  0.10100000352E+00 0.  1.
       -3    1    3    3    0  502  0.51074288903E+03 -0.67859094648E+03 -0.15264347088E+04  0.17468104939E+04  0.10100000352E+00 0. -1.
</event>
<event>
 5   0  0.6636007E-08  0.2999929E+04  0.7818609E-02  0.8243751E-01
       -1   -1    0    0    0  501  0.00000000000E+00  0.00000000000E+00  0.20342300264E+04  0.20342300264E+04  0.50400001928E-02 0.  1.
        1   -1    0    0  501    0  0.00000000000E+00  0.00000000000E+00 -0.11060170445E+04  0.11060170445E+04  0.50400001928E-02 0. -1.
    10030    2    1    2    0    0  0.00000000000E+00  0.00000000000E+00  0.92821298186E+03  0.31402470709E+04  0.29999287203E+04 0.  0.
        2    1    3    3  502    0 -0.47178957043E+03  0.17917978454E+03 -0.10144786943E+04  0.11330744967E+04  0.25500000920E-02 0. -1.
       -2    1    3    3    0  502  0.47178957043E+03 -0.17917978454E+03  0.19426916762E+04  0.20071725742E+04  0.25500000920E-02 0.  1.
</event>
<event>
 5   0  0.6464436E-08  0.2999107E+04  0.7818609E-02  0.8243986E-01
       -1   -1    0    0    0  501  0.00000000000E+00  0.00000000000E+00  0.13743393641E+04  0.13743393641E+04  0.50400001928E-02 0. -1.
        1   -1    0    0  501    0  0.00000000000E+00  0.00000000000E+00 -0.16361754643E+04  0.16361754643E+04  0.50400001928E-02 0.  1.
    10030    2    1    2    0    0  0.00000000000E+00  0.00000000000E+00 -0.26183610014E+03  0.30105148284E+04  0.29991067652E+04 0.  0.
        5    1    3    3  502    0 -0.23412068537E+03 -0.16554699090E+03  0.13465570415E+04  0.13767557000E+04  0.46999998093E+01 0. -1.
       -5    1    3    3    0  502  0.23412068537E+03  0.16554699090E+03 -0.16083931417E+04  0.16337591284E+04  0.46999998093E+01 0.  1.
</event>
<event>
 5   0  0.1914439E-07  0.3001166E+04  0.7818609E-02  0.8243398E-01
       -2   -1    0    0    0  501  0.00000000000E+00  0.00000000000E+00  0.10806347784E+04  0.10806347784E+04  0.25500000920E-02 0. -1.
        2   -1    0    0  501    0  0.00000000000E+00  0.00000000000E+00 -0.20837290223E+04  0.20837290223E+04  0.25500000920E-02 0.  1.
    10030    2    1    2    0    0  0.00000000000E+00  0.00000000000E+00 -0.10030942439E+04  0.31643638007E+04  0.30011664734E+04 0.  0.
        5    1    3    3  502    0 -0.27894659654E+03  0.89843960757E+02 -0.20532550883E+04  0.20740688727E+04  0.46999998093E+01 0.  1.
       -5    1    3    3    0  502  0.27894659654E+03 -0.89843960757E+02  0.10501608444E+04  0.10902949280E+04  0.46999998093E+01 0. -1.
</event>
<event>
 5   0  0.6464436E-08  0.2996849E+04  0.7818609E-02  0.8244631E-01
        1   -1    0    0  501    0  0.00000000000E+00  0.00000000000E+00  0.86424717494E+03  0.86424717496E+03  0.50400001928E-02 0. -1.
       -1   -1    0    0    0  501  0.00000000000E+00  0.00000000000E+00 -0.25979552333E+04  0.25979552333E+04  0.50400001928E-02 0.  1.
    10030    2    1    2    0    0  0.00000000000E+00  0.00000000000E+00 -0.17337080583E+04  0.34622024082E+04  0.29968486589E+04 0.  0.
        5    1    3    3  502    0 -0.14604443309E+04  0.18337669148E+03 -0.54269788688E+03  0.15687790606E+04  0.46999998093E+01 0. -1.
       -5    1    3    3    0  502  0.14604443309E+04 -0.18337669148E+03 -0.11910101715E+04  0.18934233476E+04  0.46999998093E+01 0.  1.
</event>
<event>
 5   0  0.1817566E-07  0.3001201E+04  0.7818609E-02  0.8243388E-01
        2   -1    0    0  501    0  0.00000000000E+00  0.00000000000E+00  0.23309427214E+04  0.23309427214E+04  0.25500000920E-02 0. -1.
       -2   -1    0    0    0  501  0.00000000000E+00  0.00000000000E+00 -0.96604779047E+03  0.96604779047E+03  0.25500000920E-02 0.  1.
    10030    2    1    2    0    0  0.00000000000E+00  0.00000000000E+00  0.13648949309E+04  0.32969905119E+04  0.30012011367E+04 0.  0.
        1    1    3    3  502    0  0.13363974547E+04 -0.23373894170E+03 -0.22009450685E+02  0.13568627291E+04  0.50400001928E-02 0.  1.
       -1    1    3    3    0  502 -0.13363974547E+04  0.23373894170E+03  0.13869043816E+04  0.19401277828E+04  0.50400001928E-02 0. -1.
</event>
<event>
 5   0  0.6374748E-08  0.3000138E+04  0.7818609E-02  0.8243692E-01
        1   -1    0    0  501    0  0.00000000000E+00  0.00000000000E+00  0.13608572546E+04  0.13608572546E+04  0.50400001928E-02 0.  1.
       -1   -1    0    0    0  501  0.00000000000E+00  0.00000000000E+00 -0.16535214856E+04  0.16535214856E+04  0.50400001928E-02 0. -1.
    10030    2    1    2    0    0  0.00000000000E+00  0.00000000000E+00 -0.29266423093E+03  0.30143787402E+04  0.30001378031E+04 0.  0.
        1    1    3    3  502    0 -0.10943951711E+04 -0.72370588900E+03  0.58427542126E+03  0.14362551209E+04  0.50400001928E-02 0.  1.
       -1    1    3    3    0  502  0.10943951711E+04  0.72370588900E+03 -0.87693965219E+03  0.15781236193E+04  0.50400001928E-02 0. -1.
</event>
<event>
 5   0  0.1810055E-07  0.2993675E+04  0.7818609E-02  0.8245539E-01
       -2   -1    0    0    0  501  0.00000000000E+00  0.00000000000E+00  0.18079007563E+04  0.18079007563E+04  0.25500000920E-02 0.  1.
        2   -1    0    0  501    0  0.00000000000E+00  0.00000000000E+00 -0.12392947727E+04  0.12392947727E+04  0.25500000920E-02 0. -1.
    10030    2    1    2    0    0  0.00000000000E+00  0.00000000000E+00  0.56860598354E+03  0.30471955290E+04  0.29936746362E+04 0.  0.
        4    1    3    3  502    0  0.74501552840E+03  0.12555541090E+04 -0.51837381386E+02  0.14608740483E+04  0.12699999809E+01 0. -1.
       -4    1    3    3    0  502 -0.74501552840E+03 -0.12555541090E+04  0.62044336493E+03  0.15863214807E+04  0.12699999809E+01 0.  1.
</event>
<event>
 5   0  0.1813720E-07  0.3002050E+04  0.7818609E-02  0.8243146E-01
        2   -1    0    0  501    0  0.00000000000E+00  0.00000000000E+00  0.18076669669E+04  0.18076669669E+04  0.25500000920E-02 0.  1.
       -2   -1    0    0    0  501  0.00000000000E+00  0.00000000000E+00 -0.12464001013E+04  0.12464001013E+04  0.25500000920E-02 0. -1.
    10030    2    1    2    0    0  0.00000000000E+00  0.00000000000E+00  0.56126686556E+03  0.30540670682E+04  0.30020501599E+04 0.  0.
        3    1    3    3  502    0  0.26202987420E+03  0.23531277513E+03  0.17650404458E+04  0.17998331985E+04  0.10100000352E+00 0.  1.
       -3    1    3    3    0  502 -0.26202987420E+03 -0.23531277513E+03 -0.12037735802E+04  0.12542338696E+04  0.10100000352E+00 0. -1.
</event>
<event>
 5   0  0.6679022E-08  0.3000972E+04  0.7818609E-02  0.8243453E-01
        1   -1    0    0  501    0  0.00000000000E+00  0.00000000000E+00  0.18332072728E+04  0.18332072728E+04  0.50400001928E-02 0. -1.
       -1   -1    0    0    0  501  0.00000000000E+00  0.00000000000E+00 -0.12281527448E+04  0.12281527448E+04  0.50400001928E-02 0.  1.
    10030    2    1    2    0    0  0.00000000000E+00  0.00000000000E+00  0.60505452796E+03  0.30613600177E+04  0.30009722051E+04 0.  0.
        3    1    3    3  502    0  0.12802561746E+04 -0.71027986658E+03  0.63762659758E+03  0.15969098439E+04  0.10100000352E+00 0. -1.
       -3    1    3    3    0  502 -0.12802561746E+04  0.71027986658E+03 -0.32572069617E+02  0.14644501737E+04  0.10100000352E+00 0.  1.
</event>
<event>
 5   0  0.6464436E-08  0.2995079E+04  0.7818609E-02  0.8245137E-01
       -1   -1    0    0    0  501  0.00000000000E+00  0.00000000000E+00  0.10923726464E+04  0.10923726464E+04  0.50400001928E-02 0.  1.
        1   -1    0    0  501    0  0.00000000000E+00  0.00000000000E+00 -0.20529852808E+04  0.20529852808E+04  0.50400001928E-02 0. -1.
    10030    2    1    2    0    0  0.00000000000E+00  0.00000000000E+00 -0.96061263436E+03  0.31453579272E+04  0.29950792739E+04 0.  0.
        5    1    3    3  502    0 -0.51221940839E+03  0.12625944967E+04 -0.11328440476E+04  0.17719682028E+04  0.46999998093E+01 0. -1.
       -5    1    3    3    0  502  0.51221940839E+03 -0.12625944967E+04  0.17223141321E+03  0.13733897245E+04  0.46999998093E+01 0.  1.
</event>
<event>
 5   0  0.6525507E-08  0.2999358E+04  0.7818609E-02  0.8243914E-01
       -1   -1    0    0    0  501  0.00000000000E+00  0.00000000000E+00  0.88660134958E+03  0.88660134959E+03  0.50400001928E-02 0. -1.
        1   -1    0    0  501    0  0.00000000000E+00  0.00000000000E+00 -0.25366955064E+04  0.25366955064E+04  0.50400001928E-02 0.  1.
    10030    2    1    2    0    0  0.00000000000E+00  0.00000000000E+00 -0.16500941568E+04  0.34232968560E+04  0.29993583710E+04 0.  0.
        4    1    3    3  502    0  0.76158960665E+03 -0.10198554387E+04 -0.17301776047E+04  0.21479385470E+04  0.12699999809E+01 0.  1.
       -4    1    3    3    0  502 -0.76158960665E+03  0.10198554387E+04  0.80083447871E+02  0.12753583090E+04  0.12699999809E+01 0. -1.
</event>
<event>
 5   0  0.1813720E-07  0.3000299E+04  0.7818609E-02  0.8243646E-01
       -2   -1    0    0    0  501  0.00000000000E+00  0.00000000000E+00  0.14527342870E+04  0.14527342870E+04  0.25500000920E-02 0. -1.
        2   -1    0    0  501    0  0.00000000000E+00  0.00000000000E+00 -0.15491120141E+04  0.15491120141E+04  0.25500000920E-02 0.  1.
    10030    2    1    2    0    0  0.00000000000E+00  0.00000000000E+00 -0.96377727071E+02  0.30018463011E+04  0.30002987433E+04 0.  0.
        3    1    3    3  502    0  0.35462348566E+02 -0.73392480580E+02  0.14505170461E+04  0.14528054741E+04  0.10100000352E+00 0. -1.
       -3    1    3    3    0  502 -0.35462348566E+02  0.73392480580E+02 -0.15468947732E+04  0.15490408270E+04  0.10100000352E+00 0.  1.
</event>
<event>
 5   0  0.1821305E-07  0.2999572E+04  0.7818609E-02  0.8243853E-01
        2   -1    0    0  501    0  0.00000000000E+00  0.00000000000E+00  0.17492428389E+04  0.17492428389E+04  0.25500000920E-02 0. -1.
       -2   -1    0    0    0  501  0.00000000000E+00  0.00000000000E+00 -0.12859042327E+04  0.12859042328E+04  0.25500000920E-02 0.  1.
    10030    2    1    2    0    0  0.00000000000E+00  0.00000000000E+00  0.46333860613E+03  0.30351470716E+04  0.29995724833E+04 0.  0.
        2    1    3    3  502    0  0.25619588826E+03 -0.31870886120E+03  0.16917473910E+04  0.17404657154E+04  0.25500000920E-02 0. -1.
       -2    1    3    3    0  502 -0.25619588826E+03  0.31870886120E+03 -0.12284087849E+04  0.12946813562E+04  0.25500000920E-02 0.  1.
</event>
<event>
 5   0  0.1813720E-07  0.2987848E+04  0.7818609E-02  0.8247210E-01
        2   -1    0    0  501    0  0.00000000000E+00  0.00000000000E+00  0.20851317535E+04  0.20851317535E+04  0.25500000920E-02 0. -1.
       -2   -1    0    0    0  501  0.00000000000E+00  0.00000000000E+00 -0.10703441776E+04  0.10703441776E+04  0.25500000920E-02 0.  1.
    10030    2    1    2    0    0  0.00000000000E+00  0.00000000000E+00  0.10147875759E+04  0.31554759311E+04  0.29878478086E+04 0.  0.
        3    1    3    3  502    0  0.54193395239E+03  0.20056198518E+03  0.19623236063E+04  0.20456371781E+04  0.10100000352E+00 0. -1.
       -3    1    3    3    0  502 -0.54193395239E+03 -0.20056198518E+03 -0.94753603031E+03  0.11098387530E+04  0.10100000352E+00 0.  1.
</event>
<event>
 5   0  0.1821305E-07  0.2999666E+04  0.7818609E-02  0.8243826E-01
        2   -1    0    0  501    0  0.00000000000E+00  0.00000000000E+00  0.13726717249E+04  0.13726717249E+04  0.25500000920E-02 0.  1.
       -2   -1    0    0    0  501  0.00000000000E+00  0.00000000000E+00 -0.16387747085E+04  0.16387747085E+04  0.25500000920E-02 0. -1.
    10030    2    1    2    0    0  0.00000000000E+00  0.00000000000E+00 -0.26610298367E+03  0.30114464334E+04  0.29996664520E+04 0.  0.
        2    1    3    3  502    0 -0.56285985029E+03 -0.11506440253E+03  0.12578309628E+04  0.13828194961E+04  0.25500000920E-02 0.  1.
       -2    1    3    3    0  502  0.56285985029E+03  0.11506440253E+03 -0.15239339464E+04  0.16286269373E+04  0.25500000920E-02 0. -1.
</event>
<event>
 5   0  0.1813720E-07  0.3002307E+04  0.7818609E-02  0.8243072E-01
       -2   -1    0    0    0  501  0.00000000000E+00  0.00000000000E+00  0.83491749246E+03  0.83491749247E+03  0.25500000920E-02 0. -1.
        2   -1    0    0  501    0  0.00000000000E+00  0.00000000000E+00 -0.26990234731E+04  0.26990234731E+04  0.25500000920E-02 0.  1.
    10030    2    1    2    0    0  0.00000000000E+00  0.00000000000E+00 -0.18641059806E+04  0.35339409656E+04  0.30023070531E+04 0.  0.
        3    1    3    3  502    0 -0.58556310806E+02 -0.94106148353E+03 -0.23069837346E+04  0.24922278225E+04  0.10100000352E+00 0.  1.
       -3    1    3    3    0  502  0.58556310806E+02  0.94106148353E+03  0.44287775396E+03  0.10417131431E+04  0.10100000352E+00 0. -1.
</event>
<event>
 5   0  0.1914439E-07  0.2999039E+04  0.7818609E-02  0.8244005E-01
        2   -1    0    0  501    0  0.00000000000E+00  0.00000000000E+00  0.20500511557E+04  0.20500511557E+04  0.25500000920E-02 0. -1.
       -2   -1    0    0    0  501  0.00000000000E+00  0.00000000000E+00 -0.10968302323E+04  0.10968302323E+04  0.25500000920E-02 0.  1.
    10030    2    1    2    0    0  0.00000000000E+00  0.00000000000E+00  0.95322092347E+03  0.31468813880E+04  0.29990385695E+04 0.  0.
        5    1    3    3  502    0 -0.31433607587E+03  0.12231048376E+04  0.13250130324E+04  0.18304300693E+04  0.46999998093E+01 0.  1.
       -5    1    3    3    0  502  0.31433607587E+03 -0.12231048376E+04 -0.37179210895E+03  0.13164513188E+04  0.46999998093E+01 0. -1.
</event>
<event>
 5   0  0.1810055E-07  0.3001076E+04  0.7818609E-02  0.8243424E-01
        2   -1    0    0  501    0  0.00000000000E+00  0.00000000000E+00  0.20458558224E+04  0.20458558224E+04  0.25500000920E-02 0. -1.
       -2   -1    0    0    0  501  0.00000000000E+00  0.00000000000E+00 -0.11005733233E+04  0.11005733233E+04  0.25500000920E-02 0.  1.
    10030    2    1    2    0    0  0.00000000000E+00  0.00000000000E+00  0.94528249914E+03  0.31464291457E+04  0.30010760347E+04 0.  0.
        4    1    3    3  502    0  0.14622975955E+02  0.58717410405E+03 -0.97504234391E+03  0.11382866270E+04  0.12699999809E+01 0.  1.
       -4    1    3    3    0  502 -0.14622975955E+02 -0.58717410405E+03  0.19203248430E+04  0.20081425187E+04  0.12699999809E+01 0. -1.
</event>
<event>
 5   0  0.1810055E-07  0.3000703E+04  0.7818609E-02  0.8243530E-01
        2   -1    0    0  501    0  0.00000000000E+00  0.00000000000E+00  0.14275660629E+04  0.14275660629E+04  0.25500000920E-02 0. -1.
       -2   -1    0    0    0  501  0.00000000000E+00  0.00000000000E+00 -0.15768480891E+04  0.15768480891E+04  0.25500000920E-02 0.  1.
    10030    2    1    2    0    0  0.00000000000E+00  0.00000000000E+00 -0.14928202613E+03  0.30044141520E+04  0.30007031299E+04 0.  0.
        4    1    3    3  502    0 -0.79710757035E+03 -0.18347717562E+03  0.11846938386E+04  0.14396337926E+04  0.12699999809E+01 0. -1.
       -4    1    3    3    0  502  0.79710757035E+03  0.18347717562E+03 -0.13339758647E+04  0.15647803594E+04  0.12699999809E+01 0.  1.
</event>
<event>
 5   0  0.6374748E-08  0.2999616E+04  0.7818609E-02  0.8243840E-01
       -1   -1    0    0    0  501  0.00000000000E+00  0.00000000000E+00  0.17437620803E+04  0.17437620803E+04  0.50400001928E-02 0. -1.
        1   -1    0    0  501    0  0.00000000000E+00  0.00000000000E+00 -0.12899834992E+04  0.12899834992E+04  0.50400001928E-02 0.  1.
    10030    2    1    2    0    0  0.00000000000E+00  0.00000000000E+00  0.45377858102E+03  0.30337455795E+04  0.29996161822E+04 0.  0.
        1    1    3    3  502    0  0.96904791883E+03  0.26555443080E+03  0.13530445436E+04  0.16853197209E+04  0.50400001928E-02 0. -1.
       -1    1    3    3    0  502 -0.96904791883E+03 -0.26555443080E+03 -0.89926596257E+03  0.13484258586E+04  0.50400001928E-02 0.  1.
</event>
<event>
 5   0  0.1821305E-07  0.3000662E+04  0.7818609E-02  0.8243542E-01
        2   -1    0    0  501    0  0.00000000000E+00  0.00000000000E+00  0.22811807511E+04  0.22811807511E+04  0.25500000920E-02 0.  1.
       -2   -1    0    0    0  501  0.00000000000E+00  0.00000000000E+00 -0.98676646981E+03  0.98676646982E+03  0.25500000920E-02 0. -1.
    10030    2    1    2    0    0  0.00000000000E+00  0.00000000000E+00  0.12944142813E+04  0.32679472210E+04  0.30006617116E+04 0.  0.
        2    1    3    3  502    0  0.58846393995E+03  0.13511528593E+04  0.95348495713E+03  0.17552884154E+04  0.25500000920E-02 0.  1.
       -2    1    3    3    0  502 -0.58846393995E+03 -0.13511528593E+04  0.34092932420E+03  0.15126588055E+04  0.25500000920E-02 0. -1.
</event>
<event>
 5   0  0.6464436E-08  0.2999095E+04  0.7818609E-02  0.8243989E-01
        1   -1    0    0  501    0  0.00000000000E+00  0.00000000000E+00  0.11935803025E+04  0.11935803025E+04  0.50400001928E-02 0.  1.
       -1   -1    0    0    0  501  0.00000000000E+00  0.00000000000E+00 -0.18839481818E+04  0.18839481818E+04  0.50400001928E-02 0. -1.
    10030    2    1    2    0    0  0.00000000000E+00  0.00000000000E+00 -0.69036787935E+03  0.30775284843E+04  0.29990954908E+04 0.  0.
        5    1    3    3  502    0  0.81336273004E+03  0.27102686607E+03  0.91727810697E+03  0.12555619094E+04  0.46999998093E+01 0.  1.
       -5    1    3    3    0  502 -0.81336273004E+03 -0.27102686607E+03 -0.16076459863E+04  0.18219665749E+04  0.46999998093E+01 0. -1.
</event>
<event>
 5   0  0.6374748E-08  0.3000043E+04  0.7818609E-02  0.8243719E-01
        1   -1    0    0  501    0  0.00000000000E+00  0.00000000000E+00  0.15103479103E+04  0.15103479103E+04  0.50400001928E-02 0. -1.
       -1   -1    0    0    0  501  0.00000000000E+00  0.00000000000E+00 -0.14897658001E+04  0.14897658001E+04  0.50400001928E-02 0.  1.
    10030    2    1    2    0    0  0.00000000000E+00  0.00000000000E+00  0.20582110133E+02  0.30001137104E+04  0.30000431084E+04 0.  0.
        1    1    3    3  502    0  0.55515326992E+03  0.44940973687E+03  0.13293749386E+04  0.15091063555E+04  0.50400001928E-02 0. -1.
       -1    1    3    3    0  502 -0.55515326992E+03 -0.44940973687E+03 -0.13087928285E+04  0.14910073550E+04  0.50400001928E-02 0.  1.
</event>
<event>
 5   0  0.6464436E-08  0.3000338E+04  0.7818609E-02  0.8243634E-01
       -1   -1    0    0    0  501  0.00000000000E+00  0.00000000000E+00  0.13958772953E+04  0.13958772953E+04  0.50400001928E-02 0.  1.
        1   -1    0    0  501    0  0.00000000000E+00  0.00000000000E+00 -0.16122530079E+04  0.16122530079E+04  0.50400001928E-02 0. -1.
    10030    2    1    2    0    0  0.00000000000E+00  0.00000000000E+00 -0.21637571258E+03  0.30081303032E+04  0.30003382262E+04 0.  0.
        5    1    3    3  502    0  0.11945900633E+04  0.19584592171E+02  0.80139277073E+03  0.14386387450E+04  0.46999998093E+01 0.  1.
       -5    1    3    3    0  502 -0.11945900633E+04 -0.19584592171E+02 -0.10177684833E+04  0.15694915582E+04  0.46999998093E+01 0. -1.
</event>
<event>
 5   0  0.1817566E-07  0.3000237E+04  0.7818609E-02  0.8243663E-01
       -2   -1    0    0    0  501  0.00000000000E+00  0.00000000000E+00  0.19598830934E+04  0.19598830934E+04  0.25500000920E-02 0. -1.
        2   -1    0    0  501    0  0.00000000000E+00  0.00000000000E+00 -0.11482086988E+04  0.11482086988E+04  0.25500000920E-02 0.  1.
    10030    2    1    2    0    0  0.00000000000E+00  0.00000000000E+00  0.81167439462E+03  0.31080917922E+04  0.30002365350E+04 0.  0.
        1    1    3    3  502    0  0.34100072117E+03  0.14024923016E+04  0.82929665838E+03  0.16646318198E+04  0.50400001928E-02 0.  1.
       -1    1    3    3    0  502 -0.34100072117E+03 -0.14024923016E+04 -0.17622263758E+02  0.14434599724E+04  0.50400001928E-02 0. -1.
</event>
<event>
 5   0  0.1813720E-07  0.2999104E+04  0.7818609E-02  0.8243987E-01
        2   -1    0    0  501    0  0.00000000000E+00  0.00000000000E+00  0.17571403560E+04  0.17571403560E+04  0.25500000920E-02 0.  1.
       -2   -1    0    0    0  501  0.00000000000E+00  0.00000000000E+00 -0.12797245297E+04  0.12797245297E+04  0.25500000920E-02 0. -1.
    10030    2    1    2    0    0  0.00000000000E+00  0.00000000000E+00  0.47741582638E+03  0.30368648857E+04  0.29991036099E+04 0.  0.
        3    1    3    3  502    0 -0.52462229081E+03 -0.34904655630E+03  0.16165734291E+04  0.17350422786E+04  0.10100000352E+00 0.  1.
       -3    1    3    3    0  502  0.52462229081E+03  0.34904655630E+03 -0.11391576027E+04  0.13018226072E+04  0.10100000352E+00 0. -1.
</event>
<event>
 5   0  0.1914439E-07  0.3000089E+04  0.7818609E-02  0.8243706E-01
        2   -1    0    0  501    0  0.00000000000E+00  0.00000000000E+00  0.15065280784E+04  0.15065280784E+04  0.25500000920E-02 0.  1.
       -2   -1    0    0    0  501  0.00000000000E+00  0.00000000000E+00 -0.14935884721E+04  0.14935884721E+04  0.25500000920E-02 0. -1.
    10030    2    1    2    0    0  0.00000000000E+00  0.00000000000E+00  0.12939606336E+02  0.30001165505E+04  0.30000886459E+04 0.  0.
        5    1    3    3  502    0 -0.36052393919E+03 -0.12973607306E+04 -0.65458740608E+03  0.14972071127E+04  0.46999998093E+01 0. -1.
       -5    1    3    3    0  502  0.36052393919E+03  0.12973607306E+04  0.66752701242E+03  0.15029094379E+04  0.46999998093E+01 0.  1.
</event>
<event>
 5   0  0.6464436E-08  0.3003631E+04  0.7818609E-02  0.8242695E-01
        1   -1    0    0  501    0  0.00000000000E+00  0.00000000000E+00  0.17517168245E+04  0.17517168245E+04  0.50400001928E-02 0. -1.
       -1   -1    0    0    0  501  0.00000000000E+00  0.00000000000E+00 -0.12875648923E+04  0.12875648923E+04  0.50400001928E-02 0.  1.
    10030    2    1    2    0    0  0.00000000000E+00  0.00000000000E+00  0.46415193217E+03  0.30392817168E+04  0.30036305263E+04 0.  0.
        5    1    3    3  502    0  0.94755319247E+03  0.10558677025E+04  0.73058297473E+03  0.15957716725E+04  0.46999998093E+01 0. -1.
       -5    1    3    3    0  502 -0.94755319247E+03 -0.10558677025E+04 -0.26643104256E+03  0.14435100444E+04  0.46999998093E+01 0.  1.
</event>
<event>
 5   0  0.1813720E-07  0.3000278E+04  0.7818609E-02  0.8243652E-01
       -2   -1    0    0    0  501  0.00000000000E+00  0.00000000000E+00  0.17116453028E+04  0.17116453028E+04  0.25500000920E-02 0.  1.
        2   -1    0    0  501    0  0.00000000000E+00  0.00000000000E+00 -0.13147683162E+04  0.13147683162E+04  0.25500000920E-02 0. -1.
    10030    2    1    2    0    0  0.00000000000E+00  0.00000000000E+00  0.39687698658E+03  0.30264136191E+04  0.30002779957E+04 0.  0.
        3    1    3    3  502    0 -0.72250666635E+03  0.23691581482E+03 -0.11059899106E+04  0.13421470407E+04  0.10100000352E+00 0. -1.
       -3    1    3    3    0  502  0.72250666635E+03 -0.23691581482E+03  0.15028668972E+04  0.16842665784E+04  0.10100000352E+00 0.  1.
</event>
<event>
 5   0  0.1810055E-07  0.2998886E+04  0.7818609E-02  0.8244049E-01
       -2   -1    0    0    0  501  0.00000000000E+00  0.00000000000E+00  0.16004686000E+04  0.16004686000E+04  0.25500000920E-02 0. -1.
        2   -1    0    0  501    0  0.00000000000E+00  0.00000000000E+00 -0.14047940363E+04  0.14047940363E+04  0.25500000920E-02 0.  1.
    10030    2    1    2    0    0  0.00000000000E+00  0.00000000000E+00  0.19567456368E+03  0.30052626364E+04  0.29988856228E+04 0.  0.
        4    1    3    3  502    0  0.48859825723E+03  0.93483027695E+03 -0.97011701021E+03  0.14330961343E+04  0.12699999809E+01 0.  1.
       -4    1    3    3    0  502 -0.48859825723E+03 -0.93483027695E+03  0.11657915739E+04  0.15721665021E+04  0.12699999809E+01 0. -1.
</event>
<event>
 5   0  0.1914439E-07  0.2997955E+04  0.7818609E-02  0.8244315E-01
       -2   -1    0    0    0  501  0.00000000000E+00  0.00000000000E+00  0.11757822317E+04  0.11757822317E+04  0.25500000920E-02 0. -1.
        2   -1    0    0  501    0  0.00000000000E+00  0.00000000000E+00 -0.19110119913E+04  0.19110119913E+04  0.25500000920E-02 0.  1.
    10030    2    1    2    0    0  0.00000000000E+00  0.00000000000E+00 -0.73522975966E+03  0.30867942230E+04  0.29979552658E+04 0.  0.
        5    1    3    3  502    0 -0.53372802309E+01 -0.11204913699E+04 -0.13928020097E+04  0.17875818652E+04  0.46999998093E+01 0.  1.
       -5    1    3    3    0  502  0.53372802309E+01  0.11204913699E+04  0.65757225001E+03  0.12992123578E+04  0.46999998093E+01 0. -1.
</event>
<event>
 5   0  0.6464436E-08  0.2998162E+04  0.7818609E-02  0.8244256E-01
       -1   -1    0    0    0  501  0.00000000000E+00  0.00000000000E+00  0.21797598439E+04  0.21797598440E+04  0.50400001928E-02 0.  1.
        1   -1    0    0  501    0  0.00000000000E+00  0.00000000000E+00 -0.10309592257E+04  0.10309592257E+04  0.50400001928E-02 0. -1.
    10030    2    1    2    0    0  0.00000000000E+00  0.00000000000E+00  0.11488006182E+04  0.32107190697E+04  0.29981617842E+04 0.  0.
        5    1    3    3  502    0  0.12435575094E+03  0.13319290309E+03 -0.10190469457E+04  0.10352214593E+04  0.46999998093E+01 0. -1.
       -5    1    3    3    0  502 -0.12435575094E+03 -0.13319290309E+03  0.21678475640E+04  0.21754976104E+04  0.46999998093E+01 0.  1.
</event>
<event>
 5   0  0.1813720E-07  0.2999183E+04  0.7818609E-02  0.8243964E-01
        2   -1    0    0  501    0  0.00000000000E+00  0.00000000000E+00  0.10222322934E+04  0.10222322934E+04  0.25500000920E-02 0. -1.
       -2   -1    0    0    0  501  0.00000000000E+00  0.00000000000E+00 -0.21998664219E+04  0.21998664219E+04  0.25500000920E-02 0.  1.
    10030    2    1    2    0    0  0.00000000000E+00  0.00000000000E+00 -0.11776341285E+04  0.32220987153E+04  0.29991828872E+04 0.  0.
        3    1    3    3  502    0 -0.10304943418E+04 -0.89553422084E+03 -0.12553097401E+04  0.18546435460E+04  0.10100000352E+00 0.  1.
       -3    1    3    3    0  502  0.10304943418E+04  0.89553422084E+03  0.77675611554E+02  0.13674551693E+04  0.10100000352E+00 0. -1.
</event>
<event>
 5   0  0.1817566E-07  0.2999649E+04  0.7818609E-02  0.8243831E-01
       -2   -1    0    0    0  501  0.00000000000E+00  0.00000000000E+00  0.64705509542E+03  0.64705509543E+03  0.25500000920E-02 0. -1.
        2   -1    0    0  501    0  0.00000000000E+00  0.00000000000E+00 -0.34764784110E+04  0.34764784110E+04  0.25500000920E-02 0.  1.
    10030    2    1    2    0    0  0.00000000000E+00  0.00000000000E+00 -0.28294233156E+04  0.41235335065E+04  0.29996486928E+04 0.  0.
        1    1    3    3  502    0 -0.60461014341E+03 -0.10438397151E+04 -0.18954148452E+03  0.12210981741E+04  0.50400001928E-02 0.  1.
       -1    1    3    3    0  502  0.60461014341E+03  0.10438397151E+04 -0.26398818311E+04  0.29024353324E+04  0.50400001928E-02 0. -1.
</event>
<event>
 5   0  0.1810055E-07  0.2999979E+04  0.7818609E-02  0.8243737E-01
        2   -1    0    0  501    0  0.00000000000E+00  0.00000000000E+00  0.19350306688E+04  0.19350306688E+04  0.25500000920E-02 0.  1.
       -2   -1    0    0    0  501  0.00000000000E+00  0.00000000000E+00 -0.11627559706E+04  0.11627559706E+04  0.25500000920E-02 0. -1.
    10030    2    1    2    0    0  0.00000000000E+00  0.00000000000E+00  0.77227469817E+03  0.30977866394E+04  0.29999789755E+04 0.  0.
        4    1    3    3  502    0  0.71116168267E+03 -0.44208749147E+03  0.16712091527E+04  0.18692602638E+04  0.12699999809E+01 0.  1.
       -4    1    3    3    0  502 -0.71116168267E+03  0.44208749147E+03 -0.89893445451E+03  0.12285263755E+04  0.12699999809E+01 0. -1.
</event>
<event>
 5   0  0.1817566E-07  0.2996178E+04  0.7818609E-02  0.8244823E-01
        2   -1    0    0  501    0  0.00000000000E+00  0.00000000000E+00  0.15969364059E+04  0.15969364059E+04  0.25500000920E-02 0. -1.
       -2   -1    0    0    0  501  0.00000000000E+00  0.00000000000E+00 -0.14053601459E+04  0.14053601459E+04  0.25500000920E-02 0.  1.
    10030    2    1    2    0    0  0.00000000000E+00  0.00000000000E+00  0.19157626003E+03  0.30022965518E+04  0.29961780857E+04 0.  0.
        1    1    3    3  502    0 -0.54905929084E+03  0.62876110183E+03  0.13422995533E+04  0.15806880523E+04  0.50400001928E-02 0. -1.
       -1    1    3    3    0  502  0.54905929084E+03 -0.62876110183E+03 -0.11507232933E+04  0.14216084994E+04  0.50400001928E-02 0.  1.
</event>
<event>
 5   0  0.1813720E-07  0.2992186E+04  0.7818609E-02  0.8245966E-01
        2   -1    0    0  501    0  0.00000000000E+00  0.00000000000E+00  0.20507893617E+04  0.20507893617E+04  0.25500000920E-02 0. -1.
       -2   -1    0    0    0  501  0.00000000000E+00  0.00000000000E+00 -0.10914304969E+04  0.10914304969E+04  0.25500000920E-02 0.  1.
    10030    2    1    2    0    0  0.00000000000E+00  0.00000000000E+00  0.95935886481E+03  0.31422198586E+04  0.29921858579E+04 0.  0.
        3    1    3    3  502    0  0.44055441152E+03 -0.14204989238E+04  0.65027065007E+03  0.16231935531E+04  0.10100000352E+00 0. -1.
       -3    1    3    3    0  502 -0.44055441152E+03  0.14204989238E+04  0.30908821475E+03  0.15190263055E+04  0.10100000352E+00 0.  1.
</event>
<event>
 5   0  0.1821305E-07  0.3001331E+04  0.7818609E-02  0.8243351E-01
        2   -1    0    0  501    0  0.00000000000E+00  0.00000000000E+00  0.21639409567E+04  0.21639409567E+04  0.25500000920E-02 0. -1.
       -2   -1    0    0    0  501  0.00000000000E+00  0.00000000000E+00 -0.10406927136E+04  0.10406927136E+04  0.25500000920E-02 0.  1.
    10030    2    1    2    0    0  0.00000000000E+00  0.00000000000E+00  0.11232482430E+04  0.32046336703E+04  0.30013314288E+04 0.  0.
        2    1    3    3  502    0 -0.62239653677E+02 -0.14433175976E+04  0.99528604346E+03  0.17543186057E+04  0.25500000920E-02 0. -1.
       -2    1    3    3    0  502  0.62239653677E+02  0.14433175976E+04  0.12796219958E+03  0.14503150646E+04  0.25500000920E-02 0.  1.
</event>
<event>
 5   0  0.1817566E-07  0.3000286E+04  0.7818609E-02  0.8243649E-01
       -2   -1    0    0    0  501  0.00000000000E+00  0.00000000000E+00  0.16311710902E+04  0.16311710902E+04  0.25500000920E-02 0. -1.
        2   -1    0    0  501    0  0.00000000000E+00  0.00000000000E+00 -0.13796401378E+04  0.13796401378E+04  0.25500000920E-02 0.  1.
    10030    2    1    2    0    0  0.00000000000E+00  0.00000000000E+00  0.25153095235E+03  0.30108112280E+04  0.30002860581E+04 0.  0.
        1    1    3    3  502    0  0.76357016512E+03 -0.10618584316E+04  0.86308538473E+03  0.15670032250E+04  0.50400001928E-02 0. -1.
       -1    1    3    3    0  502 -0.76357016512E+03  0.10618584316E+04 -0.61155443238E+03  0.14438080030E+04  0.50400001928E-02 0.  1.
</event>
<event>
 5   0  0.1821305E-07  0.3001808E+04  0.7818609E-02  0.8243215E-01
        2   -1    0    0  501    0  0.00000000000E+00  0.00000000000E+00  0.22046503765E+04  0.22046503765E+04  0.25500000920E-02 0.  1.
       -2   -1    0    0    0  501  0.00000000000E+00  0.00000000000E+00 -0.10218006374E+04  0.10218006374E+04  0.25500000920E-02 0. -1.
    10030    2    1    2    0    0  0.00000000000E+00  0.00000000000E+00  0.11828497391E+04  0.32264510139E+04  0.30018082283E+04 0.  0.
        2    1    3    3  502    0  0.11832985740E+03  0.10903340932E+04 -0.50989262027E+03  0.12094713201E+04  0.25500000920E-02 0. -1.
       -2    1    3    3    0  502 -0.11832985740E+03 -0.10903340932E+04  0.16927423594E+04  0.20169796938E+04  0.25500000920E-02 0.  1.
</event>
<event>
 5   0  0.6374748E-08  0.3000551E+04  0.7818609E-02  0.8243574E-01
       -1   -1    0    0    0  501  0.00000000000E+00  0.00000000000E+00  0.12714907900E+04  0.12714907900E+04  0.50400001928E-02 0. -1.
        1   -1    0    0  501    0  0.00000000000E+00  0.00000000000E+00 -0.17702260853E+04  0.17702260853E+04  0.50400001928E-02 0.  1.
    10030    2    1    2    0    0  0.00000000000E+00  0.00000000000E+00 -0.49873529533E+03  0.30417168753E+04  0.30005507252E+04 0.  0.
        1    1    3    3  502    0 -0.10835808600E+04  0.10232445251E+04 -0.42391980561E+03  0.15494788930E+04  0.50400001928E-02 0. -1.
       -1    1    3    3    0  502  0.10835808600E+04 -0.10232445251E+04 -0.74815489723E+02  0.14922379823E+04  0.50400001928E-02 0.  1.
</event>
<event>
 5   0  0.6636007E-08  0.2998350E+04  0.7818609E-02  0.8244202E-01
       -1   -1    0    0    0  501  0.00000000000E+00  0.00000000000E+00  0.15915682514E+04  0.15915682514E+04  0.50400001928E-02 0. -1.
        1   -1    0    0  501    0  0.00000000000E+00  0.00000000000E+00 -0.14121452599E+04  0.14121452599E+04  0.50400001928E-02 0.  1.
    10030    2    1    2    0    0  0.00000000000E+00  0.00000000000E+00  0.17942299149E+03  0.30037135113E+04  0.29983499209E+04 0.  0.
        2    1    3    3  502    0 -0.11979647385E+04  0.26414535037E+03  0.95301478704E+03  0.15534250755E+04  0.25500000920E-02 0. -1.
       -2    1    3    3    0  502  0.11979647385E+04 -0.26414535037E+03 -0.77359179555E+03  0.14502884358E+04  0.25500000920E-02 0.  1.
</event>
<event>
 5   0  0.6525507E-08  0.2999339E+04  0.7818609E-02  0.8243920E-01
       -1   -1    0    0    0  501  0.00000000000E+00  0.00000000000E+00  0.10534141539E+04  0.10534141539E+04  0.50400001928E-02 0. -1.
        1   -1    0    0  501    0  0.00000000000E+00  0.00000000000E+00 -0.21349714281E+04  0.21349714281E+04  0.50400001928E-02 0.  1.
    10030    2    1    2    0    0  0.00000000000E+00  0.00000000000E+00 -0.10815572743E+04  0.31883855820E+04  0.29993393410E+04 0.  0.
        4    1    3    3  502    0 -0.97004864057E+03  0.11157585835E+04 -0.27375734605E+03  0.15036144051E+04  0.12699999809E+01 0. -1.
       -4    1    3    3    0  502  0.97004864057E+03 -0.11157585835E+04 -0.80779992821E+03  0.16847711769E+04  0.12699999809E+01 0.  1.
</event>
<event>
 5   0  0.6464436E-08  0.2999011E+04  0.7818609E-02  0.8244013E-01
        1   -1    0    0  501    0  0.00000000000E+00  0.00000000000E+00  0.19895338690E+04  0.19895338690E+04  0.50400001928E-02 0. -1.
       -1   -1    0    0    0  501  0.00000000000E+00  0.00000000000E+00 -0.11301727116E+04  0.11301727116E+04  0.50400001928E-02 0.  1.
    10030    2    1    2    0    0  0.00000000000E+00  0.00000000000E+00  0.85936115739E+03  0.31197065807E+04  0.29990110955E+04 0.  0.
        5    1    3    3  502    0 -0.95519841404E+03 -0.52583842898E+03  0.15004686459E+04  0.18548148994E+04  0.46999998093E+01 0. -1.
       -5    1    3    3    0  502  0.95519841404E+03  0.52583842898E+03 -0.64110748852E+03  0.12648916813E+04  0.46999998093E+01 0.  1.
</event>
<event>
 5   0  0.1813720E-07  0.3000294E+04  0.7818609E-02  0.8243647E-01
        2   -1    0    0  501    0  0.00000000000E+00  0.00000000000E+00  0.16736080213E+04  0.16736080213E+04  0.25500000920E-02 0. -1.
       -2   -1    0    0    0  501  0.00000000000E+00  0.00000000000E+00 -0.13446647565E+04  0.13446647565E+04  0.25500000920E-02 0.  1.
    10030    2    1    2    0    0  0.00000000000E+00  0.00000000000E+00  0.32894326472E+03  0.30182727778E+04  0.30002944672E+04 0.  0.
        3    1    3    3  502    0 -0.13918889414E+04  0.37146814885E+03 -0.25648327062E+03  0.14632590643E+04  0.10100000352E+00 0. -1.
       -3    1    3    3    0  502  0.13918889414E+04 -0.37146814885E+03  0.58542653534E+03  0.15550137135E+04  0.10100000352E+00 0.  1.
</event>
<event>
 5   0  0.1813720E-07  0.2999630E+04  0.7818609E-02  0.8243836E-01
       -2   -1    0    0    0  501  0.00000000000E+00  0.00000000000E+00  0.23194873182E+04  0.23194873182E+04  0.25500000920E-02 0. -1.
        2   -1    0    0  501    0  0.00000000000E+00  0.00000000000E+00 -0.96980280590E+03  0.96980280591E+03  0.25500000920E-02 0.  1.
    10030    2    1    2    0    0  0.00000000000E+00  0.00000000000E+00  0.13496845123E+04  0.32892901241E+04  0.29996301835E+04 0.  0.
        3    1    3    3  502    0  0.82051503611E+03  0.73083094089E+03  0.17942449642E+04  0.21039662046E+04  0.10100000352E+00 0. -1.
       -3    1    3    3    0  502 -0.82051503611E+03 -0.73083094089E+03 -0.44456045182E+03  0.11853239195E+04  0.10100000352E+00 0.  1.
</event>
<event>
 5   0  0.6679022E-08  0.2999017E+04  0.7818609E-02  0.8244012E-01
        1   -1    0    0  501    0  0.00000000000E+00  0.00000000000E+00  0.21495064329E+04  0.21495064329E+04  0.50400001928E-02 0.  1.
       -1   -1    0    0    0  501  0.00000000000E+00  0.00000000000E+00 -0.10460661051E+04  0.10460661051E+04  0.50400001928E-02 0. -1.
    10030    2    1    2    0    0  0.00000000000E+00  0.00000000000E+00  0.11034403278E+04  0.31955725380E+04  0.29990170538E+04 0.  0.
        3    1    3    3  502    0  0.12705388789E+04 -0.11438953436E+03  0.13915196642E+04  0.18877714359E+04  0.10100000352E+00 0.  1.
       -3    1    3    3    0  502 -0.12705388789E+04  0.11438953436E+03 -0.28807933638E+03  0.13078011021E+04  0.10100000352E+00 0. -1.
</event>
<event>
 5   0  0.6525507E-08  0.2999299E+04  0.7818609E-02  0.8243931E-01
       -1   -1    0    0    0  501  0.00000000000E+00  0.00000000000E+00  0.95829009637E+03  0.95829009638E+03  0.50400001928E-02 0. -1.
        1   -1    0    0  501    0  0.00000000000E+00  0.00000000000E+00 -0.23468356567E+04  0.23468356567E+04  0.50400001928E-02 0.  1.
    10030    2    1    2    0    0  0.00000000000E+00  0.00000000000E+00 -0.13885455603E+04  0.33051257531E+04  0.29992994966E+04 0.  0.
        4    1    3    3  502    0  0.12379734025E+04  0.10301765340E+03  0.23148152887E+03  0.12636360605E+04  0.12699999809E+01 0. -1.
       -4    1    3    3    0  502 -0.12379734025E+04 -0.10301765340E+03 -0.16200270892E+04  0.20414896926E+04  0.12699999809E+01 0.  1.
</event>
<event>
 5   0  0.6464436E-08  0.2998612E+04  0.7818609E-02  0.8244127E-01
        1   -1    0    0  501    0  0.00000000000E+00  0.00000000000E+00  0.19716396379E+04  0.19716396379E+04  0.50400001928E-02 0.  1.
       -1   -1    0    0    0  501  0.00000000000E+00  0.00000000000E+00 -0.11401265332E+04  0.11401265332E+04  0.50400001928E-02 0. -1.
    10030    2    1    2    0    0  0.00000000000E+00  0.00000000000E+00  0.83151310468E+03  0.31117661711E+04  0.29986121224E+04 0.  0.
        5    1    3    3  502    0  0.35934857911E+03  0.13451008938E+03 -0.10883056861E+04  0.11539738826E+04  0.46999998093E+01 0. -1.
       -5    1    3    3    0  502 -0.35934857911E+03 -0.13451008938E+03  0.19198187908E+04  0.19577922885E+04  0.46999998093E+01 0.  1.
</event>
<event>
 5   0  0.1810055E-07  0.2999538E+04  0.7818609E-02  0.8243863E-01
       -2   -1    0    0    0  501  0.00000000000E+00  0.00000000000E+00  0.92373227010E+03  0.92373227010E+03  0.25500000920E-02 0.  1.
        2   -1    0    0  501    0  0.00000000000E+00  0.00000000000E+00 -0.24350197765E+04  0.24350197765E+04  0.25500000920E-02 0. -1.
    10030    2    1    2    0    0  0.00000000000E+00  0.00000000000E+00 -0.15112875064E+04  0.33587520466E+04  0.29995375283E+04 0.  0.
        4    1    3    3  502    0 -0.13977706238E+03  0.13079189870E+04 -0.15624243512E+04  0.20423910423E+04  0.12699999809E+01 0. -1.
       -4    1    3    3    0  502  0.13977706238E+03 -0.13079189870E+04  0.51136844808E+02  0.13163610043E+04  0.12699999809E+01 0.  1.
</event>
<event>
 5   0  0.1810055E-07  0.2999981E+04  0.7818609E-02  0.8243736E-01
       -2   -1    0    0    0  501  0.00000000000E+00  0.00000000000E+00  0.11335830205E+04  0.11335830205E+04  0.25500000920E-02 0.  1.
        2   -1    0    0  501    0  0.00000000000E+00  0.00000000000E+00 -0.19848319416E+04  0.19848319416E+04  0.25500000920E-02 0. -1.
    10030    2    1    2    0    0  0.00000000000E+00  0.00000000000E+00 -0.85124892110E+03  0.31184149620E+04  0.29999811915E+04 0.  0.
        4    1    3    3  502    0 -0.31357805813E+03 -0.14317725206E+04 -0.94185048142E+02  0.14687328503E+04  0.12699999809E+01 0. -1.
       -4    1    3    3    0  502  0.31357805813E+03  0.14317725206E+04 -0.75706387296E+03  0.16496821118E+04  0.12699999809E+01 0.  1.
</event>
<event>
 5   0  0.1813720E-07  0.2999906E+04  0.7818609E-02  0.8243758E-01
       -2   -1    0    0    0  501  0.00000000000E+00  0.00000000000E+00  0.97384635025E+03  0.97384635025E+03  0.25500000920E-02 0.  1.
        2   -1    0    0  501    0  0.00000000000E+00  0.00000000000E+00 -0.23102805352E+04  0.23102805352E+04  0.25500000920E-02 0. -1.
    10030    2    1    2    0    0  0.00000000000E+00  0.00000000000E+00 -0.13364341850E+04  0.32841268855E+04  0.29999055100E+04 0.  0.
        3    1    3    3  502    0  0.21492499260E+03  0.30950780434E+03 -0.22576211141E+04  0.22888514452E+04  0.10100000352E+00 0. -1.
       -3    1    3    3    0  502 -0.21492499260E+03 -0.30950780434E+03  0.92118692910E+03  0.99527544024E+03  0.10100000352E+00 0.  1.
</event>
<event>
 5   0  0.6374748E-08  0.3000500E+04  0.7818609E-02  0.8243588E-01
        1   -1    0    0  501    0  0.00000000000E+00  0.00000000000E+00  0.14771746260E+04  0.14771746260E+04  0.50400001928E-02 0.  1.
       -1   -1    0    0    0  501  0.00000000000E+00  0.00000000000E+00 -0.15236854681E+04  0.15236854681E+04  0.50400001928E-02 0. -1.
    10030    2    1    2    0    0  0.00000000000E+00  0.00000000000E+00 -0.46510842054E+02  0.30008600941E+04  0.30004996327E+04 0.  0.
        1    1    3    3  502    0 -0.38237974795E+03 -0.10186321162E+04 -0.10562995702E+04  0.15164413744E+04  0.50400001928E-02 0. -1.
       -1    1    3    3    0  502  0.38237974795E+03  0.10186321162E+04  0.10097887282E+04  0.14844187197E+04  0.50400001928E-02 0.  1.
</event>
<event>
 5   0  0.1810055E-07  0.2999687E+04  0.7818609E-02  0.8243820E-01
       -2   -1    0    0    0  501  0.00000000000E+00  0.00000000000E+00  0.96057452211E+03  0.96057452211E+03  0.25500000920E-02 0. -1.
        2   -1    0    0  501    0  0.00000000000E+00  0.00000000000E+00 -0.23418592224E+04  0.23418592224E+04  0.25500000920E-02 0.  1.
    10030    2    1    2    0    0  0.00000000000E+00  0.00000000000E+00 -0.13812847002E+04  0.33024337445E+04  0.29996868526E+04 0.  0.
        4    1    3    3  502    0 -0.11493600593E+03 -0.40276326595E+03 -0.22761672099E+04  0.23143827069E+04  0.12699999809E+01 0.  1.
       -4    1    3    3    0  502  0.11493600593E+03  0.40276326595E+03  0.89488250963E+03  0.98805103755E+03  0.12699999809E+01 0. -1.
</event>
<event>
 5   0  0.6525507E-08  0.3007398E+04  0.7818609E-02  0.8241622E-01
       -1   -1    0    0    0  501  0.00000000000E+00  0.00000000000E+00  0.12239656181E+04  0.12239656182E+04  0.50400001928E-02 0.  1.
        1   -1    0    0  501    0  0.00000000000E+00  0.00000000000E+00 -0.18473640443E+04  0.18473640443E+04  0.50400001928E-02 0. -1.
    10030    2    1    2    0    0  0.00000000000E+00  0.00000000000E+00 -0.62339842618E+03  0.30713296625E+04  0.30073975956E+04 0.  0.
        4    1    3    3  502    0  0.66067964539E+03  0.13455355977E+04 -0.43315951156E+03  0.15603180490E+04  0.12699999809E+01 0. -1.
       -4    1    3    3    0  502 -0.66067964539E+03 -0.13455355977E+04 -0.19023891462E+03  0.15110116135E+04  0.12699999809E+01 0.  1.
</event>
<event>
 5   0  0.1817566E-07  0.2998433E+04  0.7818609E-02  0.8244178E-01
        2   -1    0    0  501    0  0.00000000000E+00  0.00000000000E+00  0.15274760255E+04  0.15274760255E+04  0.25500000920E-02 0. -1.
       -2   -1    0    0    0  501  0.00000000000E+00  0.00000000000E+00 -0.14714797633E+04  0.14714797633E+04  0.25500000920E-02 0.  1.
    10030    2    1    2    0    0  0.00000000000E+00  0.00000000000E+00  0.55996262274E+02  0.29989557888E+04  0.29984329644E+04 0.  0.
        1    1    3    3  502    0 -0.24504482120E+03 -0.80964422782E+03 -0.12099896118E+04  0.14763622864E+04  0.50400001928E-02 0.  1.
       -1    1    3    3    0  502  0.24504482120E+03  0.80964422782E+03  0.12659858741E+04  0.15225935024E+04  0.50400001928E-02 0. -1.
</event>
<event>
 5   0  0.1914439E-07  0.2996178E+04  0.7818609E-02  0.8244823E-01
        2   -1    0    0  501    0  0.00000000000E+00  0.00000000000E+00  0.20069580817E+04  0.20069580817E+04  0.25500000920E-02 0.  1.
       -2   -1    0    0    0  501  0.00000000000E+00  0.00000000000E+00 -0.11182450295E+04  0.11182450295E+04  0.25500000920E-02 0. -1.
    10030    2    1    2    0    0  0.00000000000E+00  0.00000000000E+00  0.88871305222E+03  0.31252031112E+04  0.29961781651E+04 0.  0.
        5    1    3    3  502    0 -0.40911775033E+03 -0.11064671639E+04  0.14074839721E+04  0.18364858126E+04  0.46999998093E+01 0.  1.
       -5    1    3    3    0  502  0.40911775033E+03  0.11064671639E+04 -0.51877091984E+03  0.12887172986E+04  0.46999998093E+01 0. -1.
</event>
<event>
 5   0  0.6374748E-08  0.2997709E+04  0.7818609E-02  0.8244385E-01
        1   -1    0    0  501    0  0.00000000000E+00  0.00000000000E+00  0.26803607997E+04  0.26803607997E+04  0.50400001928E-02 0. -1.
       -1   -1    0    0    0  501  0.00000000000E+00  0.00000000000E+00 -0.83815740878E+03  0.83815740880E+03  0.50400001928E-02 0.  1.
    10030    2    1    2    0    0  0.00000000000E+00  0.00000000000E+00  0.18422033909E+04  0.35185182085E+04  0.29977086333E+04 0.  0.
        1    1    3    3  502    0 -0.13794370564E+04 -0.22849092607E+03  0.28738260521E+03  0.14274604925E+04  0.50400001928E-02 0.  1.
       -1    1    3    3    0  502  0.13794370564E+04  0.22849092607E+03  0.15548207857E+04  0.20910577160E+04  0.50400001928E-02 0. -1.
</event>
<event>
 5   0  0.6374748E-08  0.3001280E+04  0.7818609E-02  0.8243366E-01
        1   -1    0    0  501    0  0.00000000000E+00  0.00000000000E+00  0.17830363460E+04  0.17830363460E+04  0.50400001928E-02 0.  1.
       -1   -1    0    0    0  501  0.00000000000E+00  0.00000000000E+00 -0.12629691009E+04  0.12629691009E+04  0.50400001928E-02 0. -1.
    10030    2    1    2    0    0  0.00000000000E+00  0.00000000000E+00  0.52006724516E+03  0.30460054469E+04  0.30012796009E+04 0.  0.
        1    1    3    3  502    0  0.39758798835E+03 -0.87268221666E+03 -0.91140688536E+03  0.13229939420E+04  0.50400001928E-02 0. -1.
       -1    1    3    3    0  502 -0.39758798835E+03  0.87268221666E+03  0.14314741305E+04  0.17230115049E+04  0.50400001928E-02 0.  1.
</event>
<event>
 5   0  0.6525507E-08  0.2999928E+04  0.7818609E-02  0.8243751E-01
       -1   -1    0    0    0  501  0.00000000000E+00  0.00000000000E+00  0.94786032971E+03  0.94786032973E+03  0.50400001928E-02 0. -1.
        1   -1    0    0  501    0  0.00000000000E+00  0.00000000000E+00 -0.23736540726E+04  0.23736540726E+04  0.50400001928E-02 0.  1.
    10030    2    1    2    0    0  0.00000000000E+00  0.00000000000E+00 -0.14257937429E+04  0.33215144023E+04  0.29999283538E+04 0.  0.
        4    1    3    3  502    0 -0.87007628499E+03  0.93572437152E+02 -0.20617267803E+04  0.22397561189E+04  0.12699999809E+01 0.  1.
       -4    1    3    3    0  502  0.87007628499E+03 -0.93572437152E+02  0.63593303744E+03  0.10817582834E+04  0.12699999809E+01 0. -1.
</event>
<event>
 5   0  0.1810055E-07  0.2993434E+04  0.7818609E-02  0.8245608E-01
       -2   -1    0    0    0  501  0.00000000000E+00  0.00000000000E+00  0.13668755532E+04  0.13668755532E+04  0.25500000920E-02 0.  1.
        2   -1    0    0  501    0  0.00000000000E+00  0.00000000000E+00 -0.16388923930E+04  0.16388923930E+04  0.25500000920E-02 0. -1.
    10030    2    1    2    0    0  0.00000000000E+00  0.00000000000E+00 -0.27201683980E+03  0.30057679461E+04  0.29934341123E+04 0.  0.
        4    1    3    3  502    0 -0.29488426409E+03  0.11165036947E+02  0.13373748101E+04  0.13695453198E+04  0.12699999809E+01 0.  1.
       -4    1    3    3    0  502  0.29488426409E+03 -0.11165036947E+02 -0.16093916499E+04  0.16362226264E+04  0.12699999809E+01 0. -1.
</event>
<event>
 5   0  0.6374748E-08  0.3001412E+04  0.7818609E-02  0.8243328E-01
       -1   -1    0    0    0  501  0.00000000000E+00  0.00000000000E+00  0.15058252210E+04  0.15058252210E+04  0.50400001928E-02 0. -1.
        1   -1    0    0  501    0  0.00000000000E+00  0.00000000000E+00 -0.14956039234E+04  0.14956039234E+04  0.50400001928E-02 0.  1.
    10030    2    1    2    0    0  0.00000000000E+00  0.00000000000E+00  0.10221297534E+02  0.30014291444E+04  0.30014117402E+04 0.  0.
        1    1    3    3  502    0  0.17323694304E+03  0.14837260388E+04  0.14886165423E+03  0.15012041129E+04  0.50400001928E-02 0. -1.
       -1    1    3    3    0  502 -0.17323694304E+03 -0.14837260388E+04 -0.13864035670E+03  0.15002250315E+04  0.50400001928E-02 0.  1.
</event>
<event>
 5   0  0.1817566E-07  0.2999012E+04  0.7818609E-02  0.8244013E-01
        2   -1    0    0  501    0  0.00000000000E+00  0.00000000000E+00  0.15822084831E+04  0.15822084831E+04  0.25500000920E-02 0. -1.
       -2   -1    0    0    0  501  0.00000000000E+00  0.00000000000E+00 -0.14211267139E+04  0.14211267139E+04  0.25500000920E-02 0.  1.
    10030    2    1    2    0    0  0.00000000000E+00  0.00000000000E+00  0.16108176915E+03  0.30033351970E+04  0.29990123323E+04 0.  0.
        1    1    3    3  502    0 -0.35672289933E+03 -0.13965980104E+04 -0.33331199591E+03  0.14794708906E+04  0.50400001928E-02 0.  1.
       -1    1    3    3    0  502  0.35672289933E+03  0.13965980104E+04  0.49439376506E+03  0.15238643064E+04  0.50400001928E-02 0. -1.
</event>
<event>
 5   0  0.6017625E-08  0.2999743E+04  0.7818609E-02  0.8243804E-01
        3   -1    0    0  501    0  0.00000000000E+00  0.00000000000E+00  0.14205235099E+04  0.14205235135E+04  0.10100000352E+00 0. -1.
       -3   -1    0    0    0  501  0.00000000000E+00  0.00000000000E+00 -0.15836514179E+04  0.15836514211E+04  0.10100000352E+00 0.  1.
    10030    2    1    2    0    0  0.00000000000E+00  0.00000000000E+00 -0.16312790800E+03  0.30041749345E+04  0.29997427095E+04 0.  0.
        5    1    3    3  502    0 -0.41818314129E+03 -0.73008037405E+02  0.13590971346E+04  0.14238589904E+04  0.46999998093E+01 0. -1.
       -5    1    3    3    0  502  0.41818314129E+03  0.73008037405E+02 -0.15222250426E+04  0.15803159442E+04  0.46999998093E+01 0.  1.
</event>
<event>
 5   0  0.6464436E-08  0.3000357E+04  0.7818609E-02  0.8243629E-01
        1   -1    0    0  501    0  0.00000000000E+00  0.00000000000E+00  0.11430036672E+04  0.11430036672E+04  0.50400001928E-02 0. -1.
       -1   -1    0    0    0  501  0.00000000000E+00  0.00000000000E+00 -0.19689661865E+04  0.19689661865E+04  0.50400001928E-02 0.  1.
    10030    2    1    2    0    0  0.00000000000E+00  0.00000000000E+00 -0.82596251935E+03  0.31119698537E+04  0.30003570266E+04 0.  0.
        5    1    3    3  502    0  0.14717024342E+04  0.11599989356E+03 -0.68964243881E+03  0.16294148684E+04  0.46999998093E+01 0. -1.
       -5    1    3    3    0  502 -0.14717024342E+04 -0.11599989356E+03 -0.13632008054E+03  0.14825549853E+04  0.46999998093E+01 0.  1.
</event>
<event>
 5   0  0.1813720E-07  0.2998350E+04  0.7818609E-02  0.8244202E-01
        2   -1    0    0  501    0  0.00000000000E+00  0.00000000000E+00  0.15899771572E+04  0.15899771572E+04  0.25500000920E-02 0. -1.
       -2   -1    0    0    0  501  0.00000000000E+00  0.00000000000E+00 -0.14135588513E+04  0.14135588513E+04  0.25500000920E-02 0.  1.
    10030    2    1    2    0    0  0.00000000000E+00  0.00000000000E+00  0.17641830592E+03  0.30035360085E+04  0.29983504024E+04 0.  0.
        3    1    3    3  502    0  0.11586265814E+04  0.69490111992E+02  0.10386819754E+04  0.15575958034E+04  0.10100000352E+00 0. -1.
       -3    1    3    3    0  502 -0.11586265814E+04 -0.69490111992E+02 -0.86226366944E+03  0.14459402050E+04  0.10100000352E+00 0.  1.
</event>
<event>
 5   0  0.6374748E-08  0.3000371E+04  0.7818609E-02  0.8243625E-01
        1   -1    0    0  501    0  0.00000000000E+00  0.00000000000E+00  0.13131396847E+04  0.13131396847E+04  0.50400001928E-02 0.  1.
       -1   -1    0    0    0  501  0.00000000000E+00  0.00000000000E+00 -0.17138747012E+04  0.17138747012E+04  0.50400001928E-02 0. -1.
    10030    2    1    2    0    0  0.00000000000E+00  0.00000000000E+00 -0.40073501652E+03  0.30270143859E+04  0.30003712335E+04 0.  0.
        1    1    3    3  502    0 -0.54465992350E+03  0.70471640991E+03 -0.14182645684E+04  0.16747399908E+04  0.50400001928E-02 0. -1.
       -1    1    3    3    0  502  0.54465992350E+03 -0.70471640991E+03  0.10175295519E+04  0.13522743951E+04  0.50400001928E-02 0.  1.
</event>
<event>
 5   0  0.6464436E-08  0.3001878E+04  0.7818609E-02  0.8243195E-01
       -1   -1    0    0    0  501  0.00000000000E+00  0.00000000000E+00  0.10871666152E+04  0.10871666152E+04  0.50400001928E-02 0. -1.
        1   -1    0    0  501    0  0.00000000000E+00  0.00000000000E+00 -0.20721915635E+04  0.20721915635E+04  0.50400001928E-02 0.  1.
    10030    2    1    2    0    0  0.00000000000E+00  0.00000000000E+00 -0.98502494834E+03  0.31593581787E+04  0.30018777378E+04 0.  0.
        5    1    3    3  502    0 -0.14099171921E+04 -0.47596390060E+03 -0.69871762326E+03  0.16439697474E+04  0.46999998093E+01 0.  1.
       -5    1    3    3    0  502  0.14099171921E+04  0.47596390060E+03 -0.28630732508E+03  0.15153884313E+04  0.46999998093E+01 0. -1.
</event>
<event>
 5   0  0.1914439E-07  0.2998821E+04  0.7818609E-02  0.8244068E-01
        2   -1    0    0  501    0  0.00000000000E+00  0.00000000000E+00  0.20265916406E+04  0.20265916406E+04  0.25500000920E-02 0.  1.
       -2   -1    0    0    0  501  0.00000000000E+00  0.00000000000E+00 -0.11093657518E+04  0.11093657518E+04  0.25500000920E-02 0. -1.
    10030    2    1    2    0    0  0.00000000000E+00  0.00000000000E+00  0.91722588874E+03  0.31359573924E+04  0.29988206742E+04 0.  0.
        5    1    3    3  502    0 -0.47638888218E+03  0.11396568273E+04 -0.43022404046E+03  0.13080056827E+04  0.46999998093E+01 0. -1.
       -5    1    3    3    0  502  0.47638888218E+03 -0.11396568273E+04  0.13474499292E+04  0.18279517096E+04  0.46999998093E+01 0.  1.
</event>
<event>
 5   0  0.6374748E-08  0.3000519E+04  0.7818609E-02  0.8243583E-01
       -1   -1    0    0    0  501  0.00000000000E+00  0.00000000000E+00  0.12967447254E+04  0.12967447254E+04  0.50400001928E-02 0.  1.
        1   -1    0    0  501    0  0.00000000000E+00  0.00000000000E+00 -0.17357144878E+04  0.17357144878E+04  0.50400001928E-02 0. -1.
    10030    2    1    2    0    0  0.00000000000E+00  0.00000000000E+00 -0.43896976243E+03  0.30324592133E+04  0.30005190264E+04 0.  0.
        1    1    3    3  502    0  0.29389289159E+03  0.14586980062E+04 -0.41284769326E+03  0.15442202313E+04  0.50400001928E-02 0. -1.
       -1    1    3    3    0  502 -0.29389289159E+03 -0.14586980062E+04 -0.26122069163E+02  0.14882389820E+04  0.50400001928E-02 0.  1.
</event>
<event>
 5   0  0.6464436E-08  0.3000326E+04  0.7818609E-02  0.8243638E-01
       -1   -1    0    0    0  501  0.00000000000E+00  0.00000000000E+00  0.15730852507E+04  0.15730852507E+04  0.50400001928E-02 0.  1.
        1   -1    0    0  501    0  0.00000000000E+00  0.00000000000E+00 -0.14306214122E+04  0.14306214123E+04  0.50400001928E-02 0. -1.
    10030    2    1    2    0    0  0.00000000000E+00  0.00000000000E+00  0.14246383846E+03  0.30037066630E+04  0.30003262776E+04 0.  0.
        5    1    3    3  502    0 -0.65202642345E+03  0.81831168489E+03  0.11474756319E+04  0.15528988654E+04  0.46999998093E+01 0.  1.
       -5    1    3    3    0  502  0.65202642345E+03 -0.81831168489E+03 -0.10050117934E+04  0.14508077975E+04  0.46999998093E+01 0. -1.
</event>
<event>
 5   0  0.6679022E-08  0.3000217E+04  0.7818609E-02  0.8243669E-01
        1   -1    0    0  501    0  0.00000000000E+00  0.00000000000E+00  0.11339716286E+04  0.11339716287E+04  0.50400001928E-02 0.  1.
       -1   -1    0    0    0  501  0.00000000000E+00  0.00000000000E+00 -0.19844637515E+04  0.19844637515E+04  0.50400001928E-02 0. -1.
    10030    2    1    2    0    0  0.00000000000E+00  0.00000000000E+00 -0.85049212290E+03  0.31184353802E+04  0.30002170537E+04 0.  0.
        3    1    3    3  502    0 -0.69456901432E+03 -0.18109792154E+03 -0.17943824251E+04  0.19326227957E+04  0.10100000352E+00 0. -1.
       -3    1    3    3    0  502  0.69456901432E+03  0.18109792154E+03  0.94389030217E+03  0.11858125845E+04  0.10100000352E+00 0.  1.
</event>
<event>
 5   0  0.1810055E-07  0.2999071E+04  0.7818609E-02  0.8243996E-01
       -2   -1    0    0    0  501  0.00000000000E+00  0.00000000000E+00  0.14072246967E+04  0.14072246967E+04  0.25500000920E-02 0.  1.
        2   -1    0    0  501    0  0.00000000000E+00  0.00000000000E+00 -0.15979019084E+04  0.15979019084E+04  0.25500000920E-02 0. -1.
    10030    2    1    2    0    0  0.00000000000E+00  0.00000000000E+00 -0.19067721174E+03  0.30051266051E+04  0.29990712085E+04 0.  0.
        4    1    3    3  502    0  0.37561602397E+02 -0.11552850920E+04  0.86184450211E+03  0.14418294201E+04  0.12699999809E+01 0.  1.
       -4    1    3    3    0  502 -0.37561602397E+02  0.11552850920E+04 -0.10525217139E+04  0.15632971851E+04  0.12699999809E+01 0. -1.
</event>
<event>
 5   0  0.6636007E-08  0.3000470E+04  0.7818609E-02  0.8243597E-01
       -1   -1    0    0    0  501  0.00000000000E+00  0.00000000000E+00  0.11800313401E+04  0.11800313401E+04  0.50400001928E-02 0. -1.
        1   -1    0    0  501    0  0.00000000000E+00  0.00000000000E+00 -0.19073270301E+04  0.19073270301E+04  0.50400001928E-02 0.  1.
    10030    2    1    2    0    0  0.00000000000E+00  0.00000000000E+00 -0.72729569001E+03  0.30873583702E+04  0.30004704106E+04 0.  0.
        2    1    3    3  502    0  0.13630173555E+04 -0.24773963226E+03 -0.95609404321E+03  0.16832430176E+04  0.25500000920E-02 0.  1.
       -2    1    3    3    0  502 -0.13630173555E+04  0.24773963226E+03  0.22879835319E+03  0.14041153526E+04  0.25500000920E-02 0. -1.
</event>
<event>
 5   0  0.6017625E-08  0.2998673E+04  0.7818609E-02  0.8244110E-01
       -3   -1    0    0    0  501  0.00000000000E+00  0.00000000000E+00  0.14583717137E+04  0.14583717172E+04  0.10100000352E+00 0. -1.
        3   -1    0    0  501    0  0.00000000000E+00  0.00000000000E+00 -0.15414516809E+04  0.15414516842E+04  0.10100000352E+00 0.  1.
    10030    2    1    2    0    0  0.00000000000E+00  0.00000000000E+00 -0.83079967270E+02  0.29998234014E+04  0.29986727328E+04 0.  0.
        1    1    3    3  502    0  0.74572205785E+03 -0.11179199010E+04 -0.70674871117E+03  0.15183346250E+04  0.50400001928E-02 0.  1.
       -1    1    3    3    0  502 -0.74572205785E+03  0.11179199010E+04  0.62366874390E+03  0.14814887764E+04  0.50400001928E-02 0. -1.
</event>
<event>
 5   0  0.1817566E-07  0.3008483E+04  0.7818609E-02  0.8241313E-01
       -2   -1    0    0    0  501  0.00000000000E+00  0.00000000000E+00  0.19036521625E+04  0.19036521625E+04  0.25500000920E-02 0. -1.
        2   -1    0    0  501    0  0.00000000000E+00  0.00000000000E+00 -0.11886320617E+04  0.11886320617E+04  0.25500000920E-02 0.  1.
    10030    2    1    2    0    0  0.00000000000E+00  0.00000000000E+00  0.71502010079E+03  0.30922842241E+04  0.30084826704E+04 0.  0.
        1    1    3    3  502    0 -0.20542531615E+03  0.82379282517E+03 -0.91881441885E+03  0.12510212291E+04  0.50400001928E-02 0.  1.
       -1    1    3    3    0  502  0.20542531615E+03 -0.82379282517E+03  0.16338345196E+04  0.18412629950E+04  0.50400001928E-02 0. -1.
</event>
<event>
 5   0  0.1810055E-07  0.3000294E+04  0.7818609E-02  0.8243647E-01
       -2   -1    0    0    0  501  0.00000000000E+00  0.00000000000E+00  0.16580836130E+04  0.16580836130E+04  0.25500000920E-02 0.  1.
        2   -1    0    0  501    0  0.00000000000E+00  0.00000000000E+00 -0.13572544660E+04  0.13572544660E+04  0.25500000920E-02 0. -1.
    10030    2    1    2    0    0  0.00000000000E+00  0.00000000000E+00  0.30082914696E+03  0.30153380790E+04  0.30002942448E+04 0.  0.
        4    1    3    3  502    0 -0.70854154487E+03 -0.12366681249E+04 -0.31997133575E+03  0.14607403741E+04  0.12699999809E+01 0. -1.
       -4    1    3    3    0  502  0.70854154487E+03  0.12366681249E+04  0.62080048271E+03  0.15545977049E+04  0.12699999809E+01 0.  1.
</event>
<event>
 5   0  0.1810055E-07  0.3003756E+04  0.7818609E-02  0.8242659E-01
        2   -1    0    0  501    0  0.00000000000E+00  0.00000000000E+00  0.15886755659E+04  0.15886755659E+04  0.25500000920E-02 0. -1.
       -2   -1    0    0    0  501  0.00000000000E+00  0.00000000000E+00 -0.14198228680E+04  0.14198228680E+04  0.25500000920E-02 0.  1.
    10030    2    1    2    0    0  0.00000000000E+00  0.00000000000E+00  0.16885269787E+03  0.30084984339E+04  0.30037562473E+04 0.  0.
        4    1    3    3  502    0 -0.10404635547E+04 -0.66128217365E+03 -0.77470275590E+03  0.14560303894E+04  0.12699999809E+01 0.  1.
       -4    1    3    3    0  502  0.10404635547E+04  0.66128217365E+03  0.94355545377E+03  0.15524680445E+04  0.12699999809E+01 0. -1.
</event>
<event>
 5   0  0.1821305E-07  0.3000291E+04  0.7818609E-02  0.8243648E-01
        2   -1    0    0  501    0  0.00000000000E+00  0.00000000000E+00  0.18531368928E+04  0.18531368928E+04  0.25500000920E-02 0.  1.
       -2   -1    0    0    0  501  0.00000000000E+00  0.00000000000E+00 -0.12143927379E+04  0.12143927379E+04  0.25500000920E-02 0. -1.
    10030    2    1    2    0    0  0.00000000000E+00  0.00000000000E+00  0.63874415488E+03  0.30675296307E+04  0.30002906426E+04 0.  0.
        2    1    3    3  502    0 -0.78850277877E+03 -0.62495556322E+03 -0.81827759011E+03  0.12968748215E+04  0.25500000920E-02 0. -1.
       -2    1    3    3    0  502  0.78850277877E+03  0.62495556322E+03  0.14570217450E+04  0.17706548092E+04  0.25500000920E-02 0.  1.
</event>
<event>
 5   0  0.1813720E-07  0.3002395E+04  0.7818609E-02  0.8243047E-01
       -2   -1    0    0    0  501  0.00000000000E+00  0.00000000000E+00  0.15708104828E+04  0.15708104828E+04  0.25500000920E-02 0.  1.
        2   -1    0    0  501    0  0.00000000000E+00  0.00000000000E+00 -0.14346699707E+04  0.14346699707E+04  0.25500000920E-02 0. -1.
    10030    2    1    2    0    0  0.00000000000E+00  0.00000000000E+00  0.13614051214E+03  0.30054804535E+04  0.30023954632E+04 0.  0.
        3    1    3    3  502    0  0.10724446764E+04 -0.91881431493E+03 -0.44160640727E+03  0.14796531886E+04  0.10100000352E+00 0. -1.
       -3    1    3    3    0  502 -0.10724446764E+04  0.91881431493E+03  0.57774691941E+03  0.15258272649E+04  0.10100000352E+00 0.  1.
</event>
<event>
 5   0  0.6679022E-08  0.3000914E+04  0.7818609E-02  0.8243470E-01
       -1   -1    0    0    0  501  0.00000000000E+00  0.00000000000E+00  0.12661846355E+04  0.12661846355E+04  0.50400001928E-02 0.  1.
        1   -1    0    0  501    0  0.00000000000E+00  0.00000000000E+00 -0.17780752675E+04  0.17780752675E+04  0.50400001928E-02 0. -1.
    10030    2    1    2    0    0  0.00000000000E+00  0.00000000000E+00 -0.51189063200E+03  0.30442599030E+04  0.30009142503E+04 0.  0.
        3    1    3    3  502    0 -0.11337512577E+04  0.88752505082E+03 -0.68427499530E+03  0.15941533520E+04  0.10100000352E+00 0. -1.
       -3    1    3    3    0  502  0.11337512577E+04 -0.88752505082E+03  0.17238436330E+03  0.14501065510E+04  0.10100000352E+00 0.  1.
</event>
<event>
 5   0  0.6525507E-08  0.3000333E+04  0.7818609E-02  0.8243636E-01
        1   -1    0    0  501    0  0.00000000000E+00  0.00000000000E+00  0.26001812843E+04  0.26001812843E+04  0.50400001928E-02 0.  1.
       -1   -1    0    0    0  501  0.00000000000E+00  0.00000000000E+00 -0.86551664767E+03  0.86551664768E+03  0.50400001928E-02 0. -1.
    10030    2    1    2    0    0  0.00000000000E+00  0.00000000000E+00  0.17346646366E+04  0.34656979319E+04  0.30003334405E+04 0.  0.
        4    1    3    3  502    0  0.43620971969E+03 -0.14176321214E+04  0.60765515825E+03  0.16028743417E+04  0.12699999809E+01 0. -1.
       -4    1    3    3    0  502 -0.43620971969E+03  0.14176321214E+04  0.11270094783E+04  0.18628235902E+04  0.12699999809E+01 0.  1.
</event>
<event>
 5   0  0.1813720E-07  0.2993180E+04  0.7818609E-02  0.8245681E-01
       -2   -1    0    0    0  501  0.00000000000E+00  0.00000000000E+00  0.12092720893E+04  0.12092720893E+04  0.25500000920E-02 0. -1.
        2   -1    0    0  501    0  0.00000000000E+00  0.00000000000E+00 -0.18521739762E+04  0.18521739762E+04  0.25500000920E-02 0.  1.
    10030    2    1    2    0    0  0.00000000000E+00  0.00000000000E+00 -0.64290188689E+03  0.30614460654E+04  0.29931804448E+04 0.  0.
        3    1    3    3  502    0  0.51937897261E+03  0.79317602507E+03 -0.15058330502E+04  0.17794425839E+04  0.10100000352E+00 0. -1.
       -3    1    3    3    0  502 -0.51937897261E+03 -0.79317602507E+03  0.86293116331E+03  0.12820034816E+04  0.10100000352E+00 0.  1.
</event>
<event>
 5   0  0.1821305E-07  0.3000366E+04  0.7818609E-02  0.8243626E-01
       -2   -1    0    0    0  501  0.00000000000E+00  0.00000000000E+00  0.10569253165E+04  0.10569253165E+04  0.25500000920E-02 0.  1.
        2   -1    0    0  501    0  0.00000000000E+00  0.00000000000E+00 -0.21293358046E+04  0.21293358046E+04  0.25500000920E-02 0. -1.
    10030    2    1    2    0    0  0.00000000000E+00  0.00000000000E+00 -0.10724104881E+04  0.31862611211E+04  0.30003659238E+04 0.  0.
        2    1    3    3  502    0 -0.34906894890E+03 -0.12102360739E+04 -0.14015725394E+04  0.18843901053E+04  0.25500000920E-02 0. -1.
       -2    1    3    3    0  502  0.34906894890E+03  0.12102360739E+04  0.32916205130E+03  0.13018710158E+04  0.25500000920E-02 0.  1.
</event>
<event>
 5   0  0.6374748E-08  0.2999719E+04  0.7818609E-02  0.8243811E-01
        1   -1    0    0  501    0  0.00000000000E+00  0.00000000000E+00  0.29499025789E+04  0.29499025789E+04  0.50400001928E-02 0.  1.
       -1   -1    0    0    0  501  0.00000000000E+00  0.00000000000E+00 -0.76259403968E+03  0.76259403970E+03  0.50400001928E-02 0. -1.
    10030    2    1    2    0    0  0.00000000000E+00  0.00000000000E+00  0.21873085392E+04  0.37124966186E+04  0.29997187364E+04 0.  0.
        1    1    3    3  502    0  0.87778362085E+03 -0.12138601996E+04  0.11864131159E+04  0.19108994612E+04  0.50400001928E-02 0.  1.
       -1    1    3    3    0  502 -0.87778362085E+03  0.12138601996E+04  0.10008954233E+04  0.18015971574E+04  0.50400001928E-02 0. -1.
</event>
<event>
 5   0  0.1817566E-07  0.3000654E+04  0.7818609E-02  0.8243544E-01
       -2   -1    0    0    0  501  0.00000000000E+00  0.00000000000E+00  0.16863454494E+04  0.16863454494E+04  0.25500000920E-02 0.  1.
        2   -1    0    0  501    0  0.00000000000E+00  0.00000000000E+00 -0.13348283127E+04  0.13348283127E+04  0.25500000920E-02 0. -1.
    10030    2    1    2    0    0  0.00000000000E+00  0.00000000000E+00  0.35151713671E+03  0.30211737622E+04  0.30006543626E+04 0.  0.
        1    1    3    3  502    0 -0.45487725908E+03 -0.64319016405E+03 -0.11098342885E+04  0.13610066333E+04  0.50400001928E-02 0. -1.
       -1    1    3    3    0  502  0.45487725908E+03  0.64319016405E+03  0.14613514252E+04  0.16601671289E+04  0.50400001928E-02 0.  1.
</event>
<event>
 5   0  0.6636007E-08  0.2999484E+04  0.7818609E-02  0.8243878E-01
        1   -1    0    0  501    0  0.00000000000E+00  0.00000000000E+00  0.29466890502E+04  0.29466890502E+04  0.50400001928E-02 0.  1.
       -1   -1    0    0    0  501  0.00000000000E+00  0.00000000000E+00 -0.76330602380E+03  0.76330602382E+03  0.50400001928E-02 0. -1.
    10030    2    1    2    0    0  0.00000000000E+00  0.00000000000E+00  0.21833830264E+04  0.37099950740E+04  0.29994836238E+04 0.  0.
        2    1    3    3  502    0 -0.98570067225E+03 -0.58177731909E+03 -0.10696689966E+03  0.11495706076E+04  0.25500000920E-02 0.  1.
       -2    1    3    3    0  502  0.98570067225E+03  0.58177731909E+03  0.22903499260E+04  0.25604244663E+04  0.25500000920E-02 0. -1.
</event>
<event>
 5   0  0.1914439E-07  0.3000128E+04  0.7818609E-02  0.8243694E-01
        2   -1    0    0  501    0  0.00000000000E+00  0.00000000000E+00  0.12758961935E+04  0.12758961935E+04  0.25500000920E-02 0.  1.
       -2   -1    0    0    0  501  0.00000000000E+00  0.00000000000E+00 -0.17636171951E+04  0.17636171951E+04  0.25500000920E-02 0. -1.
    10030    2    1    2    0    0  0.00000000000E+00  0.00000000000E+00 -0.48772100156E+03  0.30395133885E+04  0.30001283079E+04 0.  0.
        5    1    3    3  502    0  0.34822018135E+03  0.65121832208E+03  0.10789708788E+04  0.13074948738E+04  0.46999998093E+01 0.  1.
       -5    1    3    3    0  502 -0.34822018135E+03 -0.65121832208E+03 -0.15666918803E+04  0.17320185148E+04  0.46999998093E+01 0. -1.
</event>
<event>
 5   0  0.6636007E-08  0.2999745E+04  0.7818609E-02  0.8243804E-01
       -1   -1    0    0    0  501  0.00000000000E+00  0.00000000000E+00  0.11446057796E+04  0.11446057796E+04  0.50400001928E-02 0. -1.
        1   -1    0    0  501    0  0.00000000000E+00  0.00000000000E+00 -0.19654077147E+04  0.19654077147E+04  0.50400001928E-02 0.  1.
    10030    2    1    2    0    0  0.00000000000E+00  0.00000000000E+00 -0.82080193513E+03  0.31100134943E+04  0.29997446755E+04 0.  0.
        2    1    3    3  502    0 -0.10454763359E+04 -0.60267436111E+03  0.51306006093E+03  0.13112847824E+04  0.25500000920E-02 0. -1.
       -2    1    3    3    0  502  0.10454763359E+04  0.60267436111E+03 -0.13338619961E+04  0.17987287119E+04  0.25500000920E-02 0.  1.
</event>
<event>
 5   0  0.6679022E-08  0.2999528E+04  0.7818609E-02  0.8243866E-01
       -1   -1    0    0    0  501  0.00000000000E+00  0.00000000000E+00  0.12083842821E+04  0.12083842821E+04  0.50400001928E-02 0.  1.
        1   -1    0    0  501    0  0.00000000000E+00  0.00000000000E+00 -0.18614048927E+04  0.18614048927E+04  0.50400001928E-02 0. -1.
    10030    2    1    2    0    0  0.00000000000E+00  0.00000000000E+00 -0.65302061058E+03  0.30697891748E+04  0.29995282395E+04 0.  0.
        3    1    3    3  502    0 -0.27888284158E+03  0.19934590877E+03  0.11677511042E+04  0.12170279710E+04  0.10100000352E+00 0.  1.
       -3    1    3    3    0  502  0.27888284158E+03 -0.19934590877E+03 -0.18207717148E+04  0.18527612038E+04  0.10100000352E+00 0. -1.
</event>
<event>
 5   0  0.6464436E-08  0.3000566E+04  0.7818609E-02  0.8243569E-01
        1   -1    0    0  501    0  0.00000000000E+00  0.00000000000E+00  0.91663569420E+03  0.91663569422E+03  0.50400001928E-02 0. -1.
       -1   -1    0    0    0  501  0.00000000000E+00  0.00000000000E+00 -0.24555544784E+04  0.24555544784E+04  0.50400001928E-02 0.  1.
    10030    2    1    2    0    0  0.00000000000E+00  0.00000000000E+00 -0.15389187842E+04  0.33721901726E+04  0.30005658693E+04 0.  0.
        5    1    3    3  502    0  0.49936889520E+03 -0.38339483658E+03  0.76098769594E+03  0.98766657207E+03  0.46999998093E+01 0. -1.
       -5    1    3    3    0  502 -0.49936889520E+03  0.38339483658E+03 -0.22999064801E+04  0.23845236006E+04  0.46999998093E+01 0.  1.
</event>
<event>
 5   0  0.1817566E-07  0.2999539E+04  0.7818609E-02  0.8243862E-01
       -2   -1    0    0    0  501  0.00000000000E+00  0.00000000000E+00  0.18433877002E+04  0.18433877002E+04  0.25500000920E-02 0. -1.
        2   -1    0    0  501    0  0.00000000000E+00  0.00000000000E+00 -0.12202038619E+04  0.12202038619E+04  0.25500000920E-02 0.  1.
    10030    2    1    2    0    0  0.00000000000E+00  0.00000000000E+00  0.62318383828E+03  0.30635915621E+04  0.29995391584E+04 0.  0.
        1    1    3    3  502    0  0.44928908558E+02 -0.11090066295E+04  0.13417906657E+04  0.17413547892E+04  0.50400001928E-02 0. -1.
       -1    1    3    3    0  502 -0.44928908558E+02  0.11090066295E+04 -0.71860682745E+03  0.13222367729E+04  0.50400001928E-02 0.  1.
</event>
<event>
 5   0  0.6679022E-08  0.2999614E+04  0.7818609E-02  0.8243841E-01
       -1   -1    0    0    0  501  0.00000000000E+00  0.00000000000E+00  0.11566621322E+04  0.11566621322E+04  0.50400001928E-02 0. -1.
        1   -1    0    0  501    0  0.00000000000E+00  0.00000000000E+00 -0.19447526488E+04  0.19447526488E+04  0.50400001928E-02 0.  1.
    10030    2    1    2    0    0  0.00000000000E+00  0.00000000000E+00 -0.78809051654E+03  0.31014147810E+04  0.29996144721E+04 0.  0.
        3    1    3    3  502    0 -0.10374582350E+04 -0.84099960403E+03  0.31162907603E+03  0.13713907592E+04  0.10100000352E+00 0. -1.
       -3    1    3    3    0  502  0.10374582350E+04  0.84099960403E+03 -0.10997195926E+04  0.17300240217E+04  0.10100000352E+00 0.  1.
</event>
<event>
 5   0  0.1821305E-07  0.2992871E+04  0.7818609E-02  0.8245769E-01
       -2   -1    0    0    0  501  0.00000000000E+00  0.00000000000E+00  0.12174273008E+04  0.12174273009E+04  0.25500000920E-02 0.  1.
        2   -1    0    0  501    0  0.00000000000E+00  0.00000000000E+00 -0.18393865977E+04  0.18393865977E+04  0.25500000920E-02 0. -1.
    10030    2    1    2    0    0  0.00000000000E+00  0.00000000000E+00 -0.62195929686E+03  0.30568138986E+04  0.29928711705E+04 0.  0.
        2    1    3    3  502    0  0.10045831281E+04 -0.10690500020E+04 -0.92630080298E+01  0.14670177134E+04  0.25500000920E-02 0.  1.
       -2    1    3    3    0  502 -0.10045831281E+04  0.10690500020E+04 -0.61269628883E+03  0.15897961852E+04  0.25500000920E-02 0. -1.
</event>
<event>
 5   0  0.6525507E-08  0.2999789E+04  0.7818609E-02  0.8243791E-01
       -1   -1    0    0    0  501  0.00000000000E+00  0.00000000000E+00  0.11661047583E+04  0.11661047583E+04  0.50400001928E-02 0. -1.
        1   -1    0    0  501    0  0.00000000000E+00  0.00000000000E+00 -0.19292288282E+04  0.19292288282E+04  0.50400001928E-02 0.  1.
    10030    2    1    2    0    0  0.00000000000E+00  0.00000000000E+00 -0.76312406989E+03  0.30953335865E+04  0.29997886034E+04 0.  0.
        4    1    3    3  502    0 -0.14555222834E+04 -0.33061448985E+03 -0.22910547538E+03  0.15100801271E+04  0.12699999809E+01 0.  1.
       -4    1    3    3    0  502  0.14555222834E+04  0.33061448985E+03 -0.53401859451E+03  0.15852534594E+04  0.12699999809E+01 0. -1.
</event>
<event>
 5   0  0.6464436E-08  0.2999633E+04  0.7818609E-02  0.8243836E-01
       -1   -1    0    0    0  501  0.00000000000E+00  0.00000000000E+00  0.11997621256E+04  0.11997621256E+04  0.50400001928E-02 0.  1.
        1   -1    0    0  501    0  0.00000000000E+00  0.00000000000E+00 -0.18749131615E+04  0.18749131615E+04  0.50400001928E-02 0. -1.
    10030    2    1    2    0    0  0.00000000000E+00  0.00000000000E+00 -0.67515103588E+03  0.30746752871E+04  0.29996331775E+04 0.  0.
        5    1    3    3  502    0  0.58683917109E+03 -0.13694559083E+04 -0.51403932573E+03  0.15760863605E+04  0.46999998093E+01 0.  1.
       -5    1    3    3    0  502 -0.58683917109E+03  0.13694559083E+04 -0.16111171014E+03  0.14985889265E+04  0.46999998093E+01 0. -1.
</event>
<event>
 5   0  0.1914439E-07  0.2998092E+04  0.7818609E-02  0.8244276E-01
        2   -1    0    0  501    0  0.00000000000E+00  0.00000000000E+00  0.17391595234E+04  0.17391595234E+04  0.25500000920E-02 0.  1.
       -2   -1    0    0    0  501  0.00000000000E+00  0.00000000000E+00 -0.12920830363E+04  0.12920830363E+04  0.25500000920E-02 0. -1.
    10030    2    1    2    0    0  0.00000000000E+00  0.00000000000E+00  0.44707648711E+03  0.30312425596E+04  0.29980917381E+04 0.  0.
        5    1    3    3  502    0 -0.11445192026E+04  0.52194249554E+03 -0.60081036277E+03  0.13940385058E+04  0.46999998093E+01 0. -1.
       -5    1    3    3    0  502  0.11445192026E+04 -0.52194249554E+03  0.10478868499E+04  0.16372040538E+04  0.46999998093E+01 0.  1.
</event>
<event>
 5   0  0.6464436E-08  0.3000178E+04  0.7818609E-02  0.8243680E-01
       -1   -1    0    0    0  501  0.00000000000E+00  0.00000000000E+00  0.16681395379E+04  0.16681395379E+04  0.50400001928E-02 0.  1.
        1   -1    0    0  501    0  0.00000000000E+00  0.00000000000E+00 -0.13489677832E+04  0.13489677832E+04  0.50400001928E-02 0. -1.
    10030    2    1    2    0    0  0.00000000000E+00  0.00000000000E+00  0.31917175473E+03  0.30171073211E+04  0.30001776578E+04 0.  0.
        5    1    3    3  502    0  0.48863151688E+03 -0.40750468053E+03 -0.12065434636E+04  0.13640344730E+04  0.46999998093E+01 0. -1.
       -5    1    3    3    0  502 -0.48863151688E+03  0.40750468053E+03  0.15257152183E+04  0.16530728482E+04  0.46999998093E+01 0.  1.
</event>
<event>
 5   0  0.6636007E-08  0.3000842E+04  0.7818609E-02  0.8243490E-01
        1   -1    0    0  501    0  0.00000000000E+00  0.00000000000E+00  0.16683212417E+04  0.16683212417E+04  0.50400001928E-02 0.  1.
       -1   -1    0    0    0  501  0.00000000000E+00  0.00000000000E+00 -0.13494185705E+04  0.13494185705E+04  0.50400001928E-02 0. -1.
    10030    2    1    2    0    0  0.00000000000E+00  0.00000000000E+00  0.31890267125E+03  0.30177398122E+04  0.30008423252E+04 0.  0.
        2    1    3    3  502    0 -0.41001244775E+03 -0.10131485581E+04 -0.87428806593E+03  0.13996284615E+04  0.25500000920E-02 0. -1.
       -2    1    3    3    0  502  0.41001244775E+03  0.10131485581E+04  0.11931907372E+04  0.16181113507E+04  0.25500000920E-02 0.  1.
</event>
<event>
 5   0  0.1817566E-07  0.2999490E+04  0.7818609E-02  0.8243877E-01
        2   -1    0    0  501    0  0.00000000000E+00  0.00000000000E+00  0.20499761620E+04  0.20499761620E+04  0.25500000920E-02 0. -1.
       -2   -1    0    0    0  501  0.00000000000E+00  0.00000000000E+00 -0.10972005128E+04  0.10972005129E+04  0.25500000920E-02 0.  1.
    10030    2    1    2    0    0  0.00000000000E+00  0.00000000000E+00  0.95277564911E+03  0.31471766748E+04  0.29994898875E+04 0.  0.
        1    1    3    3  502    0 -0.10282690269E+04 -0.10146337618E+04  0.53536035500E+02  0.14455742697E+04  0.50400001928E-02 0. -1.
       -1    1    3    3    0  502  0.10282690269E+04  0.10146337618E+04  0.89923961361E+03  0.17016024051E+04  0.50400001928E-02 0.  1.
</event>
<event>
 5   0  0.6525507E-08  0.3000474E+04  0.7818609E-02  0.8243596E-01
        1   -1    0    0  501    0  0.00000000000E+00  0.00000000000E+00  0.14380613405E+04  0.14380613405E+04  0.50400001928E-02 0. -1.
       -1   -1    0    0    0  501  0.00000000000E+00  0.00000000000E+00 -0.15651005950E+04  0.15651005950E+04  0.50400001928E-02 0.  1.
    10030    2    1    2    0    0  0.00000000000E+00  0.00000000000E+00 -0.12703925447E+03  0.30031619355E+04  0.30004737357E+04 0.  0.
        4    1    3    3  502    0 -0.63411671841E+03  0.11381482160E+04 -0.80797608045E+03  0.15330728403E+04  0.12699999809E+01 0.  1.
       -4    1    3    3    0  502  0.63411671841E+03 -0.11381482160E+04  0.68093682599E+03  0.14700890953E+04  0.12699999809E+01 0. -1.
</event>
<event>
 5   0  0.1817566E-07  0.2996476E+04  0.7818609E-02  0.8244738E-01
       -2   -1    0    0    0  501  0.00000000000E+00  0.00000000000E+00  0.12616803465E+04  0.12616803465E+04  0.25500000920E-02 0. -1.
        2   -1    0    0  501    0  0.00000000000E+00  0.00000000000E+00 -0.17791486714E+04  0.17791486714E+04  0.25500000920E-02 0.  1.
    10030    2    1    2    0    0  0.00000000000E+00  0.00000000000E+00 -0.51746832492E+03  0.30408290179E+04  0.29964758716E+04 0.  0.
        1    1    3    3  502    0  0.50271435737E+03 -0.18832771427E+03 -0.16781976773E+04  0.17619694938E+04  0.50400001928E-02 0.  1.
       -1    1    3    3    0  502 -0.50271435737E+03  0.18832771427E+03  0.11607293523E+04  0.12788595241E+04  0.50400001928E-02 0. -1.
</event>
<event>
 5   0  0.1817566E-07  0.3007163E+04  0.7818609E-02  0.8241688E-01
        2   -1    0    0  501    0  0.00000000000E+00  0.00000000000E+00  0.21983624430E+04  0.21983624430E+04  0.25500000920E-02 0. -1.
       -2   -1    0    0    0  501  0.00000000000E+00  0.00000000000E+00 -0.10283825542E+04  0.10283825542E+04  0.25500000920E-02 0.  1.
    10030    2    1    2    0    0  0.00000000000E+00  0.00000000000E+00  0.11699798888E+04  0.32267449973E+04  0.30071631710E+04 0.  0.
        1    1    3    3  502    0 -0.35822633121E+03 -0.81215812527E+03 -0.71722915145E+03  0.11412031285E+04  0.50400001928E-02 0.  1.
       -1    1    3    3    0  502  0.35822633121E+03  0.81215812527E+03  0.18872090402E+04  0.20855418687E+04  0.50400001928E-02 0. -1.
</event>
<event>
 5   0  0.6525507E-08  0.2998673E+04  0.7818609E-02  0.8244110E-01
       -1   -1    0    0    0  501  0.00000000000E+00  0.00000000000E+00  0.14154661645E+04  0.14154661645E+04  0.50400001928E-02 0. -1.
        1   -1    0    0  501    0  0.00000000000E+00  0.00000000000E+00 -0.15881767394E+04  0.15881767394E+04  0.50400001928E-02 0.  1.
    10030    2    1    2    0    0  0.00000000000E+00  0.00000000000E+00 -0.17271057485E+03  0.30036429039E+04  0.29986733319E+04 0.  0.
        4    1    3    3  502    0  0.25173048269E+03  0.14520539768E+04  0.19010907907E+03  0.14859246489E+04  0.12699999809E+01 0.  1.
       -4    1    3    3    0  502 -0.25173048269E+03 -0.14520539768E+04 -0.36281965392E+03  0.15177182550E+04  0.12699999809E+01 0. -1.
</event>
<event>
 5   0  0.6679022E-08  0.2999118E+04  0.7818609E-02  0.8243983E-01
        1   -1    0    0  501    0  0.00000000000E+00  0.00000000000E+00  0.14031939090E+04  0.14031939091E+04  0.50400001928E-02 0. -1.
       -1   -1    0    0    0  501  0.00000000000E+00  0.00000000000E+00 -0.16025424693E+04  0.16025424693E+04  0.50400001928E-02 0.  1.
    10030    2    1    2    0    0  0.00000000000E+00  0.00000000000E+00 -0.19934856022E+03  0.30057363783E+04  0.29991184250E+04 0.  0.
        3    1    3    3  502    0 -0.78716319355E+03  0.22447373577E+03 -0.13588955548E+04  0.15863831474E+04  0.10100000352E+00 0.  1.
       -3    1    3    3    0  502  0.78716319355E+03 -0.22447373577E+03  0.11595469946E+04  0.14193532309E+04  0.10100000352E+00 0. -1.
</event>
<event>
 5   0  0.1810055E-07  0.2997848E+04  0.7818609E-02  0.8244346E-01
        2   -1    0    0  501    0  0.00000000000E+00  0.00000000000E+00  0.21869898491E+04  0.21869898491E+04  0.25500000920E-02 0. -1.
       -2   -1    0    0    0  501  0.00000000000E+00  0.00000000000E+00 -0.10273357941E+04  0.10273357941E+04  0.25500000920E-02 0.  1.
    10030    2    1    2    0    0  0.00000000000E+00  0.00000000000E+00  0.11596540550E+04  0.32143256432E+04  0.29978478636E+04 0.  0.
        4    1    3    3  502    0  0.10994689325E+03  0.14492691030E+04  0.18689116617E+03  0.14654006868E+04  0.12699999809E+01 0.  1.
       -4    1    3    3    0  502 -0.10994689325E+03 -0.14492691030E+04  0.97276288886E+03  0.17489249564E+04  0.12699999809E+01 0. -1.
</event>
<event>
 5   0  0.6525507E-08  0.3001219E+04  0.7818609E-02  0.8243383E-01
        1   -1    0    0  501    0  0.00000000000E+00  0.00000000000E+00  0.17208712756E+04  0.17208712756E+04  0.50400001928E-02 0. -1.
       -1   -1    0    0    0  501  0.00000000000E+00  0.00000000000E+00 -0.13085403225E+04  0.13085403225E+04  0.50400001928E-02 0.  1.
    10030    2    1    2    0    0  0.00000000000E+00  0.00000000000E+00  0.41233095313E+03  0.30294115981E+04  0.30012193881E+04 0.  0.
        4    1    3    3  502    0  0.11217136003E+04 -0.20444495563E+03 -0.77859545979E+03  0.13806707225E+04  0.12699999809E+01 0.  1.
       -4    1    3    3    0  502 -0.11217136003E+04  0.20444495563E+03  0.11909264129E+04  0.16487408756E+04  0.12699999809E+01 0. -1.
</event>
<event>
 5   0  0.6374748E-08  0.3000828E+04  0.7818609E-02  0.8243495E-01
       -1   -1    0    0    0  501  0.00000000000E+00  0.00000000000E+00  0.10245924681E+04  0.10245924681E+04  0.50400001928E-02 0. -1.
        1   -1    0    0  501    0  0.00000000000E+00  0.00000000000E+00 -0.21972069313E+04  0.21972069313E+04  0.50400001928E-02 0.  1.
    10030    2    1    2    0    0  0.00000000000E+00  0.00000000000E+00 -0.11726144632E+04  0.32217993994E+04  0.30008276675E+04 0.  0.
        1    1    3    3  502    0  0.72982248511E+03  0.12861210922E+04 -0.31365132794E+03  0.15116631500E+04  0.50400001928E-02 0. -1.
       -1    1    3    3    0  502 -0.72982248511E+03 -0.12861210922E+04 -0.85896313527E+03  0.17101362493E+04  0.50400001928E-02 0.  1.
</event>
<event>
 5   0  0.6464436E-08  0.2999072E+04  0.7818609E-02  0.8243996E-01
        1   -1    0    0  501    0  0.00000000000E+00  0.00000000000E+00  0.16726618946E+04  0.16726618946E+04  0.50400001928E-02 0. -1.
       -1   -1    0    0    0  501  0.00000000000E+00  0.00000000000E+00 -0.13443290227E+04  0.13443290227E+04  0.50400001928E-02 0.  1.
    10030    2    1    2    0    0  0.00000000000E+00  0.00000000000E+00  0.32833287183E+03  0.30169909173E+04  0.29990718098E+04 0.  0.
        5    1    3    3  502    0  0.92604999003E+03  0.73303027307E+03  0.10936370786E+04  0.16096478233E+04  0.46999998093E+01 0. -1.
       -5    1    3    3    0  502 -0.92604999003E+03 -0.73303027307E+03 -0.76530420680E+03  0.14073430940E+04  0.46999998093E+01 0.  1.
</event>
<event>
 5   0  0.1810055E-07  0.3002230E+04  0.7818609E-02  0.8243095E-01
       -2   -1    0    0    0  501  0.00000000000E+00  0.00000000000E+00  0.29833893323E+04  0.29833893323E+04  0.25500000920E-02 0.  1.
        2   -1    0    0  501    0  0.00000000000E+00  0.00000000000E+00 -0.75529719588E+03  0.75529719588E+03  0.25500000920E-02 0. -1.
    10030    2    1    2    0    0  0.00000000000E+00  0.00000000000E+00  0.22280921364E+04  0.37386865281E+04  0.30022295694E+04 0.  0.
        4    1    3    3  502    0  0.13368367783E+04  0.46605881563E+03  0.17354519295E+04  0.22396737271E+04  0.12699999809E+01 0.  1.
       -4    1    3    3    0  502 -0.13368367783E+04 -0.46605881563E+03  0.49264020691E+03  0.14990128011E+04  0.12699999809E+01 0. -1.
</event>
<event>
 5   0  0.1821305E-07  0.3000857E+04  0.7818609E-02  0.8243486E-01
       -2   -1    0    0    0  501  0.00000000000E+00  0.00000000000E+00  0.12420021997E+04  0.12420021997E+04  0.25500000920E-02 0.  1.
        2   -1    0    0  501    0  0.00000000000E+00  0.00000000000E+00 -0.18126262425E+04  0.18126262425E+04  0.25500000920E-02 0. -1.
    10030    2    1    2    0    0  0.00000000000E+00  0.00000000000E+00 -0.57062404278E+03  0.30546284422E+04  0.30008570645E+04 0.  0.
        2    1    3    3  502    0 -0.10240270044E+04 -0.15967576524E+03  0.81909836844E+03  0.13210033282E+04  0.25500000920E-02 0.  1.
       -2    1    3    3    0  502  0.10240270044E+04  0.15967576524E+03 -0.13897224112E+04  0.17336251141E+04  0.25500000920E-02 0. -1.
</event>
<event>
 5   0  0.6464436E-08  0.2996611E+04  0.7818609E-02  0.8244699E-01
        1   -1    0    0  501    0  0.00000000000E+00  0.00000000000E+00  0.14498001119E+04  0.14498001119E+04  0.50400001928E-02 0.  1.
       -1   -1    0    0    0  501  0.00000000000E+00  0.00000000000E+00 -0.15484339506E+04  0.15484339506E+04  0.50400001928E-02 0. -1.
    10030    2    1    2    0    0  0.00000000000E+00  0.00000000000E+00 -0.98633838665E+02  0.29982340625E+04  0.29966112293E+04 0.  0.
        5    1    3    3  502    0 -0.13932816148E+03  0.72310458058E+03  0.12562288155E+04  0.14561680871E+04  0.46999998093E+01 0.  1.
       -5    1    3    3    0  502  0.13932816148E+03 -0.72310458058E+03 -0.13548626542E+04  0.15420659755E+04  0.46999998093E+01 0. -1.
</event>
<event>
 5   0  0.6374748E-08  0.2999849E+04  0.7818609E-02  0.8243774E-01
        1   -1    0    0  501    0  0.00000000000E+00  0.00000000000E+00  0.17235526388E+04  0.17235526388E+04  0.50400001928E-02 0. -1.
       -1   -1    0    0    0  501  0.00000000000E+00  0.00000000000E+00 -0.13053117859E+04  0.13053117859E+04  0.50400001928E-02 0.  1.
    10030    2    1    2    0    0  0.00000000000E+00  0.00000000000E+00  0.41824085293E+03  0.30288644247E+04  0.29998490449E+04 0.  0.
        1    1    3    3  502    0 -0.49402015564E+03  0.17392388645E+03  0.16282284256E+04  0.17103897914E+04  0.50400001928E-02 0. -1.
       -1    1    3    3    0  502  0.49402015564E+03 -0.17392388645E+03 -0.12099875727E+04  0.13184746333E+04  0.50400001928E-02 0.  1.
</event>
<event>
 5   0  0.1813720E-07  0.2999887E+04  0.7818609E-02  0.8243763E-01
       -2   -1    0    0    0  501  0.00000000000E+00  0.00000000000E+00  0.11034412678E+04  0.11034412678E+04  0.25500000920E-02 0. -1.
        2   -1    0    0  501    0  0.00000000000E+00  0.00000000000E+00 -0.20389213033E+04  0.20389213033E+04  0.25500000920E-02 0.  1.
    10030    2    1    2    0    0  0.00000000000E+00  0.00000000000E+00 -0.93548003549E+03  0.31423625710E+04  0.29998866030E+04 0.  0.
        3    1    3    3  502    0  0.12728211992E+04 -0.69965841127E+03 -0.75476042457E+02  0.14544044626E+04  0.10100000352E+00 0. -1.
       -3    1    3    3    0  502 -0.12728211992E+04  0.69965841127E+03 -0.86000399303E+03  0.16879581084E+04  0.10100000352E+00 0.  1.
</event>
<event>
 5   0  0.1810055E-07  0.3000209E+04  0.7818609E-02  0.8243671E-01
       -2   -1    0    0    0  501  0.00000000000E+00  0.00000000000E+00  0.12291670333E+04  0.12291670333E+04  0.25500000920E-02 0. -1.
        2   -1    0    0  501    0  0.00000000000E+00  0.00000000000E+00 -0.18307627288E+04  0.18307627288E+04  0.25500000920E-02 0.  1.
    10030    2    1    2    0    0  0.00000000000E+00  0.00000000000E+00 -0.60159569545E+03  0.30599297621E+04  0.30002087874E+04 0.  0.
        4    1    3    3  502    0  0.14797568834E+04 -0.21669460763E+03 -0.18153170644E+03  0.15065166313E+04  0.12699999809E+01 0. -1.
       -4    1    3    3    0  502 -0.14797568834E+04  0.21669460763E+03 -0.42006398901E+03  0.15534131308E+04  0.12699999809E+01 0.  1.
</event>
<event>
 5   0  0.1810055E-07  0.3001524E+04  0.7818609E-02  0.8243296E-01
       -2   -1    0    0    0  501  0.00000000000E+00  0.00000000000E+00  0.81864764288E+03  0.81864764289E+03  0.25500000920E-02 0. -1.
        2   -1    0    0  501    0  0.00000000000E+00  0.00000000000E+00 -0.27512283224E+04  0.27512283224E+04  0.25500000920E-02 0.  1.
    10030    2    1    2    0    0  0.00000000000E+00  0.00000000000E+00 -0.19325806795E+04  0.35698759652E+04  0.30015240003E+04 0.  0.
        4    1    3    3  502    0 -0.10044826818E+04  0.65807945253E+03  0.10428126306E+03  0.12053755508E+04  0.12699999809E+01 0. -1.
       -4    1    3    3    0  502  0.10044826818E+04 -0.65807945253E+03 -0.20368619425E+04  0.23645004144E+04  0.12699999809E+01 0.  1.
</event>
<event>
 5   0  0.6679022E-08  0.3000481E+04  0.7818609E-02  0.8243594E-01
        1   -1    0    0  501    0  0.00000000000E+00  0.00000000000E+00  0.18466059308E+04  0.18466059308E+04  0.50400001928E-02 0.  1.
       -1   -1    0    0    0  501  0.00000000000E+00  0.00000000000E+00 -0.12188422724E+04  0.12188422724E+04  0.50400001928E-02 0. -1.
    10030    2    1    2    0    0  0.00000000000E+00  0.00000000000E+00  0.62776365839E+03  0.30654482033E+04  0.30004808742E+04 0.  0.
        3    1    3    3  502    0 -0.23948784491E+03  0.57940594965E+02  0.18257925634E+04  0.18423436257E+04  0.10100000352E+00 0.  1.
       -3    1    3    3    0  502  0.23948784491E+03 -0.57940594965E+02 -0.11980289050E+04  0.12231045776E+04  0.10100000352E+00 0. -1.
</event>
<event>
 5   0  0.6679022E-08  0.2999218E+04  0.7818609E-02  0.8243954E-01
        1   -1    0    0  501    0  0.00000000000E+00  0.00000000000E+00  0.20365680261E+04  0.20365680261E+04  0.50400001928E-02 0. -1.
       -1   -1    0    0    0  501  0.00000000000E+00  0.00000000000E+00 -0.11042241791E+04  0.11042241791E+04  0.50400001928E-02 0.  1.
    10030    2    1    2    0    0  0.00000000000E+00  0.00000000000E+00  0.93234384699E+03  0.31407922052E+04  0.29992183361E+04 0.  0.
        3    1    3    3  502    0  0.18351573171E+03 -0.14621224863E+04  0.75741401702E+03  0.16568512885E+04  0.10100000352E+00 0. -1.
       -3    1    3    3    0  502 -0.18351573171E+03  0.14621224863E+04  0.17492982998E+03  0.14839409168E+04  0.10100000352E+00 0.  1.
</event>
<event>
 5   0  0.6374748E-08  0.3005451E+04  0.7818609E-02  0.8242176E-01
       -1   -1    0    0    0  501  0.00000000000E+00  0.00000000000E+00  0.13214032797E+04  0.13214032798E+04  0.50400001928E-02 0. -1.
        1   -1    0    0  501    0  0.00000000000E+00  0.00000000000E+00 -0.17089285170E+04  0.17089285171E+04  0.50400001928E-02 0.  1.
    10030    2    1    2    0    0  0.00000000000E+00  0.00000000000E+00 -0.38752523730E+03  0.30303317968E+04  0.30054508795E+04 0.  0.
        1    1    3    3  502    0  0.75781657572E+03  0.14699820548E+03  0.11062089522E+04  0.13489227854E+04  0.50400001928E-02 0. -1.
       -1    1    3    3    0  502 -0.75781657572E+03 -0.14699820548E+03 -0.14937341895E+04  0.16814090115E+04  0.50400001928E-02 0.  1.
</event>
<event>
 5   0  0.6636007E-08  0.2999311E+04  0.7818609E-02  0.8243928E-01
       -1   -1    0    0    0  501  0.00000000000E+00  0.00000000000E+00  0.14119182445E+04  0.14119182445E+04  0.50400001928E-02 0. -1.
        1   -1    0    0  501    0  0.00000000000E+00  0.00000000000E+00 -0.15928448440E+04  0.15928448440E+04  0.50400001928E-02 0.  1.
    10030    2    1    2    0    0  0.00000000000E+00  0.00000000000E+00 -0.18092659949E+03  0.30047630884E+04  0.29993110514E+04 0.  0.
        2    1    3    3  502    0 -0.45588815072E+03 -0.79980275455E+03  0.10955164118E+04  0.14309698322E+04  0.25500000920E-02 0. -1.
       -2    1    3    3    0  502  0.45588815072E+03  0.79980275455E+03 -0.12764430113E+04  0.15737932562E+04  0.25500000920E-02 0.  1.
</event>
<event>
 5   0  0.1813720E-07  0.2999578E+04  0.7818609E-02  0.8243851E-01
       -2   -1    0    0    0  501  0.00000000000E+00  0.00000000000E+00  0.12878833886E+04  0.12878833886E+04  0.25500000920E-02 0.  1.
        2   -1    0    0  501    0  0.00000000000E+00  0.00000000000E+00 -0.17465613511E+04  0.17465613511E+04  0.25500000920E-02 0. -1.
    10030    2    1    2    0    0  0.00000000000E+00  0.00000000000E+00 -0.45867796247E+03  0.30344447397E+04  0.29995782045E+04 0.  0.
        3    1    3    3  502    0  0.99492000457E+03  0.98990279720E+02 -0.13602341645E+04  0.16881652417E+04  0.10100000352E+00 0. -1.
       -3    1    3    3    0  502 -0.99492000457E+03 -0.98990279720E+02  0.90155620202E+03  0.13462794979E+04  0.10100000352E+00 0.  1.
</event>
<event>
 5   0  0.1813720E-07  0.2999853E+04  0.7818609E-02  0.8243773E-01
       -2   -1    0    0    0  501  0.00000000000E+00  0.00000000000E+00  0.95725899144E+03  0.95725899145E+03  0.25500000920E-02 0.  1.
        2   -1    0    0  501    0  0.00000000000E+00  0.00000000000E+00 -0.23502312658E+04  0.23502312658E+04  0.25500000920E-02 0. -1.
    10030    2    1    2    0    0  0.00000000000E+00  0.00000000000E+00 -0.13929722744E+04  0.33074902573E+04  0.29998533372E+04 0.  0.
        3    1    3    3  502    0 -0.14408594079E+04  0.14537070394E+03 -0.11271468908E+04  0.18351208676E+04  0.10100000352E+00 0. -1.
       -3    1    3    3    0  502  0.14408594079E+04 -0.14537070394E+03 -0.26582538359E+03  0.14723693897E+04  0.10100000352E+00 0.  1.
</event>
<event>
 5   0  0.6679022E-08  0.2999039E+04  0.7818609E-02  0.8244005E-01
        1   -1    0    0  501    0  0.00000000000E+00  0.00000000000E+00  0.24172283355E+04  0.24172283355E+04  0.50400001928E-02 0. -1.
       -1   -1    0    0    0  501  0.00000000000E+00  0.00000000000E+00 -0.93022160888E+03  0.93022160890E+03  0.50400001928E-02 0.  1.
    10030    2    1    2    0    0  0.00000000000E+00  0.00000000000E+00  0.14870067266E+04  0.33474499444E+04  0.29990385335E+04 0.  0.
        3    1    3    3  502    0  0.37959031689E+03 -0.69400213901E+03  0.21654018502E+04  0.23053617852E+04  0.10100000352E+00 0. -1.
       -3    1    3    3    0  502 -0.37959031689E+03  0.69400213901E+03 -0.67839512359E+03  0.10420881592E+04  0.10100000352E+00 0.  1.
</event>
<event>
 5   0  0.1821305E-07  0.3000957E+04  0.7818609E-02  0.8243458E-01
       -2   -1    0    0    0  501  0.00000000000E+00  0.00000000000E+00  0.83282125467E+03  0.83282125467E+03  0.25500000920E-02 0. -1.
        2   -1    0    0  501    0  0.00000000000E+00  0.00000000000E+00 -0.27033836024E+04  0.27033836024E+04  0.25500000920E-02 0.  1.
    10030    2    1    2    0    0  0.00000000000E+00  0.00000000000E+00 -0.18705623478E+04  0.35362048571E+04  0.30009567299E+04 0.  0.
        2    1    3    3  502    0 -0.40190525939E+03  0.95484664637E+03 -0.22143168318E+04  0.24446797310E+04  0.25500000920E-02 0.  1.
       -2    1    3    3    0  502  0.40190525939E+03 -0.95484664637E+03  0.34375448403E+03  0.10915251261E+04  0.25500000920E-02 0. -1.
</event>
<event>
 5   0  0.1817566E-07  0.2999125E+04  0.7818609E-02  0.8243981E-01
       -2   -1    0    0    0  501  0.00000000000E+00  0.00000000000E+00  0.18075061280E+04  0.18075061280E+04  0.25500000920E-02 0. -1.
        2   -1    0    0  501    0  0.00000000000E+00  0.00000000000E+00 -0.12440830882E+04  0.12440830882E+04  0.25500000920E-02 0.  1.
    10030    2    1    2    0    0  0.00000000000E+00  0.00000000000E+00  0.56342303976E+03  0.30515892162E+04  0.29991250762E+04 0.  0.
        1    1    3    3  502    0  0.26566686302E+03 -0.20288307626E+03  0.17691136793E+04  0.18004176280E+04  0.50400001928E-02 0. -1.
       -1    1    3    3    0  502 -0.26566686302E+03  0.20288307626E+03 -0.12056906396E+04  0.12511715882E+04  0.50400001928E-02 0.  1.
</event>
<event>
 5   0  0.1810055E-07  0.3003194E+04  0.7818609E-02  0.8242819E-01
        2   -1    0    0  501    0  0.00000000000E+00  0.00000000000E+00  0.16537206273E+04  0.16537206273E+04  0.25500000920E-02 0. -1.
       -2   -1    0    0    0  501  0.00000000000E+00  0.00000000000E+00 -0.13634670781E+04  0.13634670781E+04  0.25500000920E-02 0.  1.
    10030    2    1    2    0    0  0.00000000000E+00  0.00000000000E+00  0.29025354921E+03  0.30171877053E+04  0.30031940541E+04 0.  0.
        4    1    3    3  502    0 -0.97860698474E+03  0.94660483059E+03  0.78137038947E+03  0.15698005078E+04  0.12699999809E+01 0. -1.
       -4    1    3    3    0  502  0.97860698474E+03 -0.94660483059E+03 -0.49111684026E+03  0.14473871975E+04  0.12699999809E+01 0.  1.
</event>
<event>
 5   0  0.6464436E-08  0.3000410E+04  0.7818609E-02  0.8243614E-01
        1   -1    0    0  501    0  0.00000000000E+00  0.00000000000E+00  0.13119673481E+04  0.13119673482E+04  0.50400001928E-02 0.  1.
       -1   -1    0    0    0  501  0.00000000000E+00  0.00000000000E+00 -0.17154509752E+04  0.17154509752E+04  0.50400001928E-02 0. -1.
    10030    2    1    2    0    0  0.00000000000E+00  0.00000000000E+00 -0.40348362701E+03  0.30274183233E+04  0.30004104164E+04 0.  0.
        5    1    3    3  502    0  0.28649226163E+03  0.89931095594E+03 -0.13783237948E+04  0.16705198547E+04  0.46999998093E+01 0. -1.
       -5    1    3    3    0  502 -0.28649226163E+03 -0.89931095594E+03  0.97484016782E+03  0.13568984687E+04  0.46999998093E+01 0.  1.
</event>
<event>
 5   0  0.1817566E-07  0.2999095E+04  0.7818609E-02  0.8243989E-01
        2   -1    0    0  501    0  0.00000000000E+00  0.00000000000E+00  0.24894693639E+04  0.24894693639E+04  0.25500000920E-02 0.  1.
       -2   -1    0    0    0  501  0.00000000000E+00  0.00000000000E+00 -0.90326200343E+03  0.90326200343E+03  0.25500000920E-02 0. -1.
    10030    2    1    2    0    0  0.00000000000E+00  0.00000000000E+00  0.15862073605E+04  0.33927313674E+04  0.29990952537E+04 0.  0.
        1    1    3    3  502    0 -0.22937432305E+03  0.78763216922E+03 -0.62690600411E+03  0.10324670223E+04  0.50400001928E-02 0. -1.
       -1    1    3    3    0  502  0.22937432305E+03 -0.78763216922E+03  0.22131133646E+04  0.23602643451E+04  0.50400001928E-02 0.  1.
</event>
<event>
 5   0  0.1813720E-07  0.2997869E+04  0.7818609E-02  0.8244340E-01
       -2   -1    0    0    0  501  0.00000000000E+00  0.00000000000E+00  0.11740513020E+04  0.11740513020E+04  0.25500000920E-02 0. -1.
        2   -1    0    0  501    0  0.00000000000E+00  0.00000000000E+00 -0.19137187064E+04  0.19137187064E+04  0.25500000920E-02 0.  1.
    10030    2    1    2    0    0  0.00000000000E+00  0.00000000000E+00 -0.73966740436E+03  0.30877700084E+04  0.29978685354E+04 0.  0.
        3    1    3    3  502    0  0.76661632183E+03 -0.11047414378E+04  0.31233419661E+03  0.13804734296E+04  0.10100000352E+00 0. -1.
       -3    1    3    3    0  502 -0.76661632183E+03  0.11047414378E+04 -0.10520016010E+04  0.17072965788E+04  0.10100000352E+00 0.  1.
</event>
<event>
 5   0  0.6525507E-08  0.2999905E+04  0.7818609E-02  0.8243758E-01
        1   -1    0    0  501    0  0.00000000000E+00  0.00000000000E+00  0.18012807069E+04  0.18012807069E+04  0.50400001928E-02 0.  1.
       -1   -1    0    0    0  501  0.00000000000E+00  0.00000000000E+00 -0.12490319958E+04  0.12490319958E+04  0.50400001928E-02 0. -1.
    10030    2    1    2    0    0  0.00000000000E+00  0.00000000000E+00  0.55224871115E+03  0.30503127027E+04  0.29999048227E+04 0.  0.
        4    1    3    3  502    0 -0.46013100376E+03  0.25032401461E+02 -0.11752739029E+04  0.12623856469E+04  0.12699999809E+01 0. -1.
       -4    1    3    3    0  502  0.46013100376E+03 -0.25032401461E+02  0.17275226141E+04  0.17879270558E+04  0.12699999809E+01 0.  1.
</event>
<event>
 5   0  0.1914439E-07  0.3001221E+04  0.7818609E-02  0.8243382E-01
       -2   -1    0    0    0  501  0.00000000000E+00  0.00000000000E+00  0.13551579435E+04  0.13551579435E+04  0.25500000920E-02 0. -1.
        2   -1    0    0  501    0  0.00000000000E+00  0.00000000000E+00 -0.16616752048E+04  0.16616752048E+04  0.25500000920E-02 0.  1.
    10030    2    1    2    0    0  0.00000000000E+00  0.00000000000E+00 -0.30651726134E+03  0.30168331483E+04  0.30012213203E+04 0.  0.
        5    1    3    3  502    0 -0.16794311762E+03 -0.14337412377E+04 -0.56525827348E+03  0.15502766957E+04  0.46999998093E+01 0. -1.
       -5    1    3    3    0  502  0.16794311762E+03  0.14337412377E+04  0.25874101214E+03  0.14665564526E+04  0.46999998093E+01 0.  1.
</event>
<event>
 5   0  0.1821305E-07  0.3013502E+04  0.7818609E-02  0.8239886E-01
        2   -1    0    0  501    0  0.00000000000E+00  0.00000000000E+00  0.13184848455E+04  0.13184848455E+04  0.25500000920E-02 0.  1.
       -2   -1    0    0    0  501  0.00000000000E+00  0.00000000000E+00 -0.17218991013E+04  0.17218991013E+04  0.25500000920E-02 0. -1.
    10030    2    1    2    0    0  0.00000000000E+00  0.00000000000E+00 -0.40341425581E+03  0.30403839469E+04  0.30135015319E+04 0.  0.
        2    1    3    3  502    0  0.65514237011E+02  0.53786069162E+03  0.12167906936E+04  0.13319781646E+04  0.25500000920E-02 0.  1.
       -2    1    3    3    0  502 -0.65514237011E+02 -0.53786069162E+03 -0.16202049494E+04  0.17084057823E+04  0.25500000920E-02 0. -1.
</event>
<event>
 5   0  0.1821305E-07  0.3000006E+04  0.7818609E-02  0.8243729E-01
       -2   -1    0    0    0  501  0.00000000000E+00  0.00000000000E+00  0.14384822546E+04  0.14384822546E+04  0.25500000920E-02 0. -1.
        2   -1    0    0  501    0  0.00000000000E+00  0.00000000000E+00 -0.15641543883E+04  0.15641543883E+04  0.25500000920E-02 0.  1.
    10030    2    1    2    0    0  0.00000000000E+00  0.00000000000E+00 -0.12567213365E+03  0.30026366429E+04  0.30000055540E+04 0.  0.
        2    1    3    3  502    0 -0.62249306909E+03 -0.98467511454E+03 -0.10086122334E+04  0.15409027677E+04  0.25500000920E-02 0.  1.
       -2    1    3    3    0  502  0.62249306909E+03  0.98467511454E+03  0.88294009970E+03  0.14617338752E+04  0.25500000920E-02 0. -1.
</event>
<event>
 5   0  0.6679022E-08  0.2999714E+04  0.7818609E-02  0.8243812E-01
        1   -1    0    0  501    0  0.00000000000E+00  0.00000000000E+00  0.10232845016E+04  0.10232845017E+04  0.50400001928E-02 0. -1.
       -1   -1    0    0    0  501  0.00000000000E+00  0.00000000000E+00 -0.21983832040E+04  0.21983832040E+04  0.50400001928E-02 0.  1.
    10030    2    1    2    0    0  0.00000000000E+00  0.00000000000E+00 -0.11750987024E+04  0.32216677057E+04  0.29997142940E+04 0.  0.
        3    1    3    3  502    0  0.11093245579E+04 -0.52250151567E+03  0.34004776662E+03  0.12724941266E+04  0.10100000352E+00 0. -1.
       -3    1    3    3    0  502 -0.11093245579E+04  0.52250151567E+03 -0.15151464690E+04  0.19491735791E+04  0.10100000352E+00 0.  1.
</event>
<event>
 5   0  0.6636007E-08  0.2998767E+04  0.7818609E-02  0.8244083E-01
       -1   -1    0    0    0  501  0.00000000000E+00  0.00000000000E+00  0.16289919586E+04  0.16289919586E+04  0.50400001928E-02 0. -1.
        1   -1    0    0  501    0  0.00000000000E+00  0.00000000000E+00 -0.13800875546E+04  0.13800875546E+04  0.50400001928E-02 0.  1.
    10030    2    1    2    0    0  0.00000000000E+00  0.00000000000E+00  0.24890440399E+03  0.30090795131E+04  0.29987674325E+04 0.  0.
        2    1    3    3  502    0 -0.12350617739E+04 -0.63830360923E+03 -0.43903245323E+03  0.14579295518E+04  0.25500000920E-02 0. -1.
       -2    1    3    3    0  502  0.12350617739E+04  0.63830360923E+03  0.68793685723E+03  0.15511499613E+04  0.25500000920E-02 0.  1.
</event>
<event>
 5   0  0.1817566E-07  0.2999234E+04  0.7818609E-02  0.8243950E-01
       -2   -1    0    0    0  501  0.00000000000E+00  0.00000000000E+00  0.15015537673E+04  0.15015537673E+04  0.25500000920E-02 0.  1.
        2   -1    0    0  501    0  0.00000000000E+00  0.00000000000E+00 -0.14976829209E+04  0.14976829209E+04  0.25500000920E-02 0. -1.
    10030    2    1    2    0    0  0.00000000000E+00  0.00000000000E+00  0.38708463423E+01  0.29992366882E+04  0.29992341903E+04 0.  0.
        1    1    3    3  502    0 -0.52101463748E+00 -0.14370699179E+04 -0.42664539471E+03  0.14990652132E+04  0.50400001928E-02 0. -1.
       -1    1    3    3    0  502  0.52101463748E+00  0.14370699179E+04  0.43051624105E+03  0.15001714750E+04  0.50400001928E-02 0.  1.
</event>
<event>
 5   0  0.6636007E-08  0.2998160E+04  0.7818609E-02  0.8244257E-01
        1   -1    0    0  501    0  0.00000000000E+00  0.00000000000E+00  0.16749063513E+04  0.16749063513E+04  0.50400001928E-02 0. -1.
       -1   -1    0    0    0  501  0.00000000000E+00  0.00000000000E+00 -0.13417109808E+04  0.13417109808E+04  0.50400001928E-02 0.  1.
    10030    2    1    2    0    0  0.00000000000E+00  0.00000000000E+00  0.33319537043E+03  0.30166173321E+04  0.29981595977E+04 0.  0.
        2    1    3    3  502    0  0.82650315341E+03 -0.10753073159E+04 -0.47596290799E+03  0.14373357214E+04  0.25500000920E-02 0.  1.
       -2    1    3    3    0  502 -0.82650315341E+03  0.10753073159E+04  0.80915827842E+03  0.15792816107E+04  0.25500000920E-02 0. -1.
</event>
<event>
 5   0  0.6464436E-08  0.3001504E+04  0.7818609E-02  0.8243302E-01
        1   -1    0    0  501    0  0.00000000000E+00  0.00000000000E+00  0.16453724874E+04  0.16453724874E+04  0.50400001928E-02 0.  1.
       -1   -1    0    0    0  501  0.00000000000E+00  0.00000000000E+00 -0.13688426928E+04  0.13688426928E+04  0.50400001928E-02 0. -1.
    10030    2    1    2    0    0  0.00000000000E+00  0.00000000000E+00  0.27652979467E+03  0.30142151802E+04  0.30015036940E+04 0.  0.
        5    1    3    3  502    0 -0.12316983195E+04  0.85703060813E+03  0.11262634709E+03  0.15047554611E+04  0.46999998093E+01 0. -1.
       -5    1    3    3    0  502  0.12316983195E+04 -0.85703060813E+03  0.16390344758E+03  0.15094597191E+04  0.46999998093E+01 0.  1.
</event>
<event>
 5   0  0.1914439E-07  0.2998566E+04  0.7818609E-02  0.8244141E-01
       -2   -1    0    0    0  501  0.00000000000E+00  0.00000000000E+00  0.82436869091E+03  0.82436869091E+03  0.25500000920E-02 0.  1.
        2   -1    0    0  501    0  0.00000000000E+00  0.00000000000E+00 -0.27267523684E+04  0.27267523684E+04  0.25500000920E-02 0. -1.
    10030    2    1    2    0    0  0.00000000000E+00  0.00000000000E+00 -0.19023836774E+04  0.35511210593E+04  0.29985658441E+04 0.  0.
        5    1    3    3  502    0  0.70064740727E+03 -0.36022568654E+02  0.61796910933E+03  0.93493974396E+03  0.46999998093E+01 0.  1.
       -5    1    3    3    0  502 -0.70064740727E+03  0.36022568654E+02 -0.25203527868E+04  0.26161813153E+04  0.46999998093E+01 0. -1.
</event>
<event>
 5   0  0.6636007E-08  0.3000156E+04  0.7818609E-02  0.8243686E-01
        1   -1    0    0  501    0  0.00000000000E+00  0.00000000000E+00  0.12042910251E+04  0.12042910251E+04  0.50400001928E-02 0.  1.
       -1   -1    0    0    0  501  0.00000000000E+00  0.00000000000E+00 -0.18685132046E+04  0.18685132046E+04  0.50400001928E-02 0. -1.
    10030    2    1    2    0    0  0.00000000000E+00  0.00000000000E+00 -0.66422217948E+03  0.30728042296E+04  0.30001557843E+04 0.  0.
        2    1    3    3  502    0  0.83279490812E+01 -0.14999654195E+04 -0.34888033464E+03  0.15400269811E+04  0.25500000920E-02 0. -1.
       -2    1    3    3    0  502 -0.83279490812E+01  0.14999654195E+04 -0.31534184484E+03  0.15327772486E+04  0.25500000920E-02 0.  1.
</event>
<event>
 5   0  0.6679022E-08  0.3004203E+04  0.7818609E-02  0.8242532E-01
       -1   -1    0    0    0  501  0.00000000000E+00  0.00000000000E+00  0.68841565231E+03  0.68841565233E+03  0.50400001928E-02 0. -1.
        1   -1    0    0  501    0  0.00000000000E+00  0.00000000000E+00 -0.32775393672E+04  0.32775393673E+04  0.50400001928E-02 0.  1.
    10030    2    1    2    0    0  0.00000000000E+00  0.00000000000E+00 -0.25891237149E+04  0.39659550196E+04  0.30042033230E+04 0.  0.
        3    1    3    3  502    0  0.11423637778E+03  0.60031109700E+03 -0.31060290733E+04  0.31655710350E+04  0.10100000352E+00 0.  1.
       -3    1    3    3    0  502 -0.11423637778E+03 -0.60031109700E+03  0.51690535832E+03  0.80038398463E+03  0.10100000352E+00 0. -1.
</event>
<event>
 5   0  0.6464436E-08  0.3000021E+04  0.7818609E-02  0.8243725E-01
       -1   -1    0    0    0  501  0.00000000000E+00  0.00000000000E+00  0.13282759944E+04  0.13282759944E+04  0.50400001928E-02 0. -1.
        1   -1    0    0  501    0  0.00000000000E+00  0.00000000000E+00 -0.16939486986E+04  0.16939486986E+04  0.50400001928E-02 0.  1.
    10030    2    1    2    0    0  0.00000000000E+00  0.00000000000E+00 -0.36567270423E+03  0.30222246930E+04  0.30000209280E+04 0.  0.
        5    1    3    3  502    0 -0.10107238380E+04 -0.10691875985E+04  0.11136016762E+03  0.14755161722E+04  0.46999998093E+01 0. -1.
       -5    1    3    3    0  502  0.10107238380E+04  0.10691875985E+04 -0.47703287185E+03  0.15467085208E+04  0.46999998093E+01 0.  1.
</event>
<event>
 5   0  0.1821305E-07  0.3002986E+04  0.7818609E-02  0.8242879E-01
       -2   -1    0    0    0  501  0.00000000000E+00  0.00000000000E+00  0.14999049715E+04  0.14999049715E+04  0.25500000920E-02 0.  1.
        2   -1    0    0  501    0  0.00000000000E+00  0.00000000000E+00 -0.15030827946E+04  0.15030827946E+04  0.25500000920E-02 0. -1.
    10030    2    1    2    0    0  0.00000000000E+00  0.00000000000E+00 -0.31778230858E+01  0.30029877661E+04  0.30029860847E+04 0.  0.
        2    1    3    3  502    0 -0.68645340043E+03 -0.12258192361E+04  0.52815687632E+03  0.15009332952E+04  0.25500000920E-02 0. -1.
       -2    1    3    3    0  502  0.68645340043E+03  0.12258192361E+04 -0.53133469941E+03  0.15020544709E+04  0.25500000920E-02 0.  1.
</event>
<event>
 5   0  0.1817566E-07  0.3000776E+04  0.7818609E-02  0.8243509E-01
        2   -1    0    0  501    0  0.00000000000E+00  0.00000000000E+00  0.35898426574E+04  0.35898426574E+04  0.25500000920E-02 0.  1.
       -2   -1    0    0    0  501  0.00000000000E+00  0.00000000000E+00 -0.62709274314E+03  0.62709274314E+03  0.25500000920E-02 0. -1.
    10030    2    1    2    0    0  0.00000000000E+00  0.00000000000E+00  0.29627499142E+04  0.42169354005E+04  0.30007760859E+04 0.  0.
        1    1    3    3  502    0  0.64686671758E+03  0.13262590852E+04  0.18630442847E+04  0.23766223340E+04  0.50400001928E-02 0. -1.
       -1    1    3    3    0  502 -0.64686671758E+03 -0.13262590852E+04  0.10997056295E+04  0.18403130665E+04  0.50400001928E-02 0.  1.
</event>
<event>
 5   0  0.6679022E-08  0.3003337E+04  0.7818609E-02  0.8242779E-01
        1   -1    0    0  501    0  0.00000000000E+00  0.00000000000E+00  0.23174111512E+04  0.23174111512E+04  0.50400001928E-02 0.  1.
       -1   -1    0    0    0  501  0.00000000000E+00  0.00000000000E+00 -0.97307189292E+03  0.97307189293E+03  0.50400001928E-02 0. -1.
    10030    2    1    2    0    0  0.00000000000E+00  0.00000000000E+00  0.13443392583E+04  0.32904830442E+04  0.30033365816E+04 0.  0.
        3    1    3    3  502    0 -0.75732514335E+03  0.47767924675E+03 -0.64861381369E+03  0.11056304650E+04  0.10100000352E+00 0. -1.
       -3    1    3    3    0  502  0.75732514335E+03 -0.47767924675E+03  0.19929530720E+04  0.21848525792E+04  0.10100000352E+00 0.  1.
</event>
<event>
 5   0  0.1817566E-07  0.3001194E+04  0.7818609E-02  0.8243390E-01
       -2   -1    0    0    0  501  0.00000000000E+00  0.00000000000E+00  0.14625164945E+04  0.14625164945E+04  0.25500000920E-02 0. -1.
        2   -1    0    0  501    0  0.00000000000E+00  0.00000000000E+00 -0.15396689807E+04  0.15396689807E+04  0.25500000920E-02 0.  1.
    10030    2    1    2    0    0  0.00000000000E+00  0.00000000000E+00 -0.77152486147E+02  0.30021854752E+04  0.30011939493E+04 0.  0.
        1    1    3    3  502    0 -0.24548914944E+03  0.45411939262E+03 -0.14480491760E+04  0.15373144640E+04  0.50400001928E-02 0.  1.
       -1    1    3    3    0  502  0.24548914944E+03 -0.45411939262E+03  0.13708966898E+04  0.14648710112E+04  0.50400001928E-02 0. -1.
</event>
<event>
 5   0  0.1817566E-07  0.2995279E+04  0.7818609E-02  0.8245080E-01
       -2   -1    0    0    0  501  0.00000000000E+00  0.00000000000E+00  0.13197446178E+04  0.13197446178E+04  0.25500000920E-02 0.  1.
        2   -1    0    0  501    0  0.00000000000E+00  0.00000000000E+00 -0.16995138261E+04  0.16995138261E+04  0.25500000920E-02 0. -1.
    10030    2    1    2    0    0  0.00000000000E+00  0.00000000000E+00 -0.37976920824E+03  0.30192584439E+04  0.29952791021E+04 0.  0.
        1    1    3    3  502    0 -0.14362122277E+04 -0.87600752599E+02  0.22882593560E+03  0.14569628560E+04  0.50400001928E-02 0. -1.
       -1    1    3    3    0  502  0.14362122277E+04  0.87600752599E+02 -0.60859514384E+03  0.15622955879E+04  0.50400001928E-02 0.  1.
</event>
<event>
 5   0  0.1914439E-07  0.2999509E+04  0.7818609E-02  0.8243871E-01
       -2   -1    0    0    0  501  0.00000000000E+00  0.00000000000E+00  0.81788980213E+03  0.81788980213E+03  0.25500000920E-02 0. -1.
        2   -1    0    0  501    0  0.00000000000E+00  0.00000000000E+00 -0.27500807872E+04  0.27500807872E+04  0.25500000920E-02 0.  1.
    10030    2    1    2    0    0  0.00000000000E+00  0.00000000000E+00 -0.19321909851E+04  0.35679705893E+04  0.29995086470E+04 0.  0.
        5    1    3    3  502    0 -0.11375635218E+04 -0.26451319725E+03 -0.20852691472E+04  0.23900601465E+04  0.46999998093E+01 0.  1.
       -5    1    3    3    0  502  0.11375635218E+04  0.26451319725E+03  0.15307816212E+03  0.11779104428E+04  0.46999998093E+01 0. -1.
</event>
<event>
 5   0  0.1813720E-07  0.2999952E+04  0.7818609E-02  0.8243745E-01
        2   -1    0    0  501    0  0.00000000000E+00  0.00000000000E+00  0.11900486001E+04  0.11900486001E+04  0.25500000920E-02 0.  1.
       -2   -1    0    0    0  501  0.00000000000E+00  0.00000000000E+00 -0.18906188380E+04  0.18906188380E+04  0.25500000920E-02 0. -1.
    10030    2    1    2    0    0  0.00000000000E+00  0.00000000000E+00 -0.70057023790E+03  0.30806674381E+04  0.29999522006E+04 0.  0.
        3    1    3    3  502    0  0.12091166184E+04 -0.88736035482E+03 -0.37451867540E+03  0.15458446380E+04  0.10100000352E+00 0. -1.
       -3    1    3    3    0  502 -0.12091166184E+04  0.88736035482E+03 -0.32605156250E+03  0.15348228002E+04  0.10100000352E+00 0.  1.
</event>
<event>
 5   0  0.6374748E-08  0.3005391E+04  0.7818609E-02  0.8242193E-01
        1   -1    0    0  501    0  0.00000000000E+00  0.00000000000E+00  0.13546380357E+04  0.13546380357E+04  0.50400001928E-02 0. -1.
       -1   -1    0    0    0  501  0.00000000000E+00  0.00000000000E+00 -0.16669355199E+04  0.16669355199E+04  0.50400001928E-02 0.  1.
    10030    2    1    2    0    0  0.00000000000E+00  0.00000000000E+00 -0.31229748417E+03  0.30215735556E+04  0.30053913278E+04 0.  0.
        1    1    3    3  502    0  0.63032620286E+03 -0.26631730424E+02 -0.15273374877E+04  0.16525072383E+04  0.50400001928E-02 0.  1.
       -1    1    3    3    0  502 -0.63032620286E+03  0.26631730424E+02  0.12150400036E+04  0.13690663174E+04  0.50400001928E-02 0. -1.
</event>
<event>
 5   0  0.6374748E-08  0.3000828E+04  0.7818609E-02  0.8243495E-01
        1   -1    0    0  501    0  0.00000000000E+00  0.00000000000E+00  0.15034269716E+04  0.15034269716E+04  0.50400001928E-02 0. -1.
       -1   -1    0    0    0  501  0.00000000000E+00  0.00000000000E+00 -0.14974066242E+04  0.14974066242E+04  0.50400001928E-02 0.  1.
    10030    2    1    2    0    0  0.00000000000E+00  0.00000000000E+00  0.60203474228E+01  0.30008335958E+04  0.30008275567E+04 0.  0.
        1    1    3    3  502    0 -0.10701919489E+04 -0.59267166154E+03 -0.86570959577E+03  0.14986739506E+04  0.50400001928E-02 0.  1.
       -1    1    3    3    0  502  0.10701919489E+04  0.59267166154E+03  0.87172994320E+03  0.15021596452E+04  0.50400001928E-02 0. -1.
</event>
<event>
 5   0  0.6374748E-08  0.3000691E+04  0.7818609E-02  0.8243534E-01
        1   -1    0    0  501    0  0.00000000000E+00  0.00000000000E+00  0.13106254385E+04  0.13106254385E+04  0.50400001928E-02 0.  1.
       -1   -1    0    0    0  501  0.00000000000E+00  0.00000000000E+00 -0.17175285819E+04  0.17175285819E+04  0.50400001928E-02 0. -1.
    10030    2    1    2    0    0  0.00000000000E+00  0.00000000000E+00 -0.40690314342E+03  0.30281540205E+04  0.30006910210E+04 0.  0.
        1    1    3    3  502    0  0.38092913259E+03  0.76235037229E+03  0.10426579794E+04  0.13466331187E+04  0.50400001928E-02 0.  1.
       -1    1    3    3    0  502 -0.38092913259E+03 -0.76235037229E+03 -0.14495611229E+04  0.16815209018E+04  0.50400001928E-02 0. -1.
</event>
<event>
 5   0  0.1914439E-07  0.2999767E+04  0.7818609E-02  0.8243797E-01
        2   -1    0    0  501    0  0.00000000000E+00  0.00000000000E+00  0.19343903394E+04  0.19343903394E+04  0.25500000920E-02 0.  1.
       -2   -1    0    0    0  501  0.00000000000E+00  0.00000000000E+00 -0.11629764645E+04  0.11629764645E+04  0.25500000920E-02 0. -1.
    10030    2    1    2    0    0  0.00000000000E+00  0.00000000000E+00  0.77141387494E+03  0.30973668039E+04  0.29997669495E+04 0.  0.
        5    1    3    3  502    0 -0.31715229156E+03  0.10540920246E+03 -0.11240326191E+04  0.11726756137E+04  0.46999998093E+01 0. -1.
       -5    1    3    3    0  502  0.31715229156E+03 -0.10540920246E+03  0.18954464941E+04  0.19246911903E+04  0.46999998093E+01 0.  1.
</event>
<event>
 5   0  0.1817566E-07  0.3000146E+04  0.7818609E-02  0.8243689E-01
       -2   -1    0    0    0  501  0.00000000000E+00  0.00000000000E+00  0.17663963438E+04  0.17663963438E+04  0.25500000920E-02 0. -1.
        2   -1    0    0  501    0  0.00000000000E+00  0.00000000000E+00 -0.12739037912E+04  0.12739037912E+04  0.25500000920E-02 0.  1.
    10030    2    1    2    0    0  0.00000000000E+00  0.00000000000E+00  0.49249255264E+03  0.30403001351E+04  0.30001459959E+04 0.  0.
        1    1    3    3  502    0  0.89089959940E+03  0.11596868318E+04  0.58484904838E+03  0.15749996995E+04  0.50400001928E-02 0. -1.
       -1    1    3    3    0  502 -0.89089959940E+03 -0.11596868318E+04 -0.92356495736E+02  0.14653004355E+04  0.50400001928E-02 0.  1.
</event>
<event>
 5   0  0.6464436E-08  0.2982281E+04  0.7818609E-02  0.8248809E-01
        1   -1    0    0  501    0  0.00000000000E+00  0.00000000000E+00  0.14776271657E+04  0.14776271657E+04  0.50400001928E-02 0.  1.
       -1   -1    0    0    0  501  0.00000000000E+00  0.00000000000E+00 -0.15047772410E+04  0.15047772410E+04  0.50400001928E-02 0. -1.
    10030    2    1    2    0    0  0.00000000000E+00  0.00000000000E+00 -0.27150075351E+02  0.29824044067E+04  0.29822808249E+04 0.  0.
        5    1    3    3  502    0  0.49563784957E+03  0.11365793182E+04  0.81471541322E+03  0.14836619288E+04  0.46999998093E+01 0.  1.
       -5    1    3    3    0  502 -0.49563784957E+03 -0.11365793182E+04 -0.84186548857E+03  0.14987424780E+04  0.46999998093E+01 0. -1.
</event>
<event>
 5   0  0.6679022E-08  0.2994276E+04  0.7818609E-02  0.8245367E-01
       -1   -1    0    0    0  501  0.00000000000E+00  0.00000000000E+00  0.14429131449E+04  0.14429131449E+04  0.50400001928E-02 0.  1.
        1   -1    0    0  501    0  0.00000000000E+00  0.00000000000E+00 -0.15534007602E+04  0.15534007602E+04  0.50400001928E-02 0. -1.
    10030    2    1    2    0    0  0.00000000000E+00  0.00000000000E+00 -0.11048761532E+03  0.29963139051E+04  0.29942761237E+04 0.  0.
        3    1    3    3  502    0  0.11664640287E+04  0.62092116748E+03 -0.75945631123E+03  0.15241244455E+04  0.10100000352E+00 0. -1.
       -3    1    3    3    0  502 -0.11664640287E+04 -0.62092116748E+03  0.64896869591E+03  0.14721894596E+04  0.10100000352E+00 0.  1.
</event>
<event>
 5   0  0.1817566E-07  0.3001991E+04  0.7818609E-02  0.8243163E-01
        2   -1    0    0  501    0  0.00000000000E+00  0.00000000000E+00  0.17514046329E+04  0.17514046329E+04  0.25500000920E-02 0.  1.
       -2   -1    0    0    0  501  0.00000000000E+00  0.00000000000E+00 -0.12863887900E+04  0.12863887900E+04  0.25500000920E-02 0. -1.
    10030    2    1    2    0    0  0.00000000000E+00  0.00000000000E+00  0.46501584282E+03  0.30377934229E+04  0.30019908638E+04 0.  0.
        1    1    3    3  502    0 -0.11972166028E+04 -0.18483007907E+03 -0.66434511815E+03  0.13816092748E+04  0.50400001928E-02 0. -1.
       -1    1    3    3    0  502  0.11972166028E+04  0.18483007907E+03  0.11293609610E+04  0.16561841481E+04  0.50400001928E-02 0.  1.
</event>
<event>
 5   0  0.6374748E-08  0.3000880E+04  0.7818609E-02  0.8243480E-01
       -1   -1    0    0    0  501  0.00000000000E+00  0.00000000000E+00  0.12215437011E+04  0.12215437011E+04  0.50400001928E-02 0.  1.
        1   -1    0    0  501    0  0.00000000000E+00  0.00000000000E+00 -0.18430125905E+04  0.18430125905E+04  0.50400001928E-02 0. -1.
    10030    2    1    2    0    0  0.00000000000E+00  0.00000000000E+00 -0.62146888936E+03  0.30645562916E+04  0.30008801515E+04 0.  0.
        1    1    3    3  502    0 -0.22503627580E+03  0.14657816106E+04 -0.54397375832E+03  0.15795773185E+04  0.50400001928E-02 0. -1.
       -1    1    3    3    0  502  0.22503627580E+03 -0.14657816106E+04 -0.77495131040E+02  0.14849789731E+04  0.50400001928E-02 0.  1.
</event>
<event>
 5   0  0.6636007E-08  0.2999647E+04  0.7818609E-02  0.8243832E-01
        1   -1    0    0  501    0  0.00000000000E+00  0.00000000000E+00  0.16873511548E+04  0.16873511548E+04  0.50400001928E-02 0.  1.
       -1   -1    0    0    0  501  0.00000000000E+00  0.00000000000E+00 -0.13331369508E+04  0.13331369509E+04  0.50400001928E-02 0. -1.
    10030    2    1    2    0    0  0.00000000000E+00  0.00000000000E+00  0.35421420397E+03  0.30204881057E+04  0.29996467616E+04 0.  0.
        2    1    3    3  502    0  0.40288962125E+03  0.14422057610E+04  0.26250596166E+03  0.15202588213E+04  0.25500000920E-02 0.  1.
       -2    1    3    3    0  502 -0.40288962125E+03 -0.14422057610E+04  0.91708242314E+02  0.15002292843E+04  0.25500000920E-02 0. -1.
</event>
<event>
 5   0  0.6525507E-08  0.3002966E+04  0.7818609E-02  0.8242885E-01
       -1   -1    0    0    0  501  0.00000000000E+00  0.00000000000E+00  0.17836884838E+04  0.17836884838E+04  0.50400001928E-02 0. -1.
        1   -1    0    0  501    0  0.00000000000E+00  0.00000000000E+00 -0.12639261286E+04  0.12639261286E+04  0.50400001928E-02 0.  1.
    10030    2    1    2    0    0  0.00000000000E+00  0.00000000000E+00  0.51976235525E+03  0.30476146124E+04  0.30029655209E+04 0.  0.
        4    1    3    3  502    0  0.10796416478E+04 -0.10428937615E+04  0.22479282464E+03  0.15178230834E+04  0.12699999809E+01 0. -1.
       -4    1    3    3    0  502 -0.10796416478E+04  0.10428937615E+04  0.29496953061E+03  0.15297915291E+04  0.12699999809E+01 0.  1.
</event>
<event>
 5   0  0.6525507E-08  0.2998939E+04  0.7818609E-02  0.8244034E-01
        1   -1    0    0  501    0  0.00000000000E+00  0.00000000000E+00  0.19908891999E+04  0.19908891999E+04  0.50400001928E-02 0.  1.
       -1   -1    0    0    0  501  0.00000000000E+00  0.00000000000E+00 -0.11293492192E+04  0.11293492192E+04  0.50400001928E-02 0. -1.
    10030    2    1    2    0    0  0.00000000000E+00  0.00000000000E+00  0.86153998066E+03  0.31202384191E+04  0.29989392548E+04 0.  0.
        4    1    3    3  502    0 -0.24190820464E+03 -0.21965170170E+03  0.19533967478E+04  0.19805370274E+04  0.12699999809E+01 0.  1.
       -4    1    3    3    0  502  0.24190820464E+03  0.21965170170E+03 -0.10918567671E+04  0.11397013918E+04  0.12699999809E+01 0. -1.
</event>
<event>
 5   0  0.6374748E-08  0.2999296E+04  0.7818609E-02  0.8243932E-01
       -1   -1    0    0    0  501  0.00000000000E+00  0.00000000000E+00  0.12553959804E+04  0.12553959804E+04  0.50400001928E-02 0. -1.
        1   -1    0    0  501    0  0.00000000000E+00  0.00000000000E+00 -0.17914220278E+04  0.17914220278E+04  0.50400001928E-02 0.  1.
    10030    2    1    2    0    0  0.00000000000E+00  0.00000000000E+00 -0.53602604746E+03  0.30468180082E+04  0.29992959260E+04 0.  0.
        1    1    3    3  502    0 -0.59587342516E+03 -0.13761826743E+04 -0.26836636149E+03  0.15234711667E+04  0.50400001928E-02 0.  1.
       -1    1    3    3    0  502  0.59587342516E+03  0.13761826743E+04 -0.26765968597E+03  0.15233468415E+04  0.50400001928E-02 0. -1.
</event>
<event>
 5   0  0.6679022E-08  0.2997698E+04  0.7818609E-02  0.8244388E-01
        1   -1    0    0  501    0  0.00000000000E+00  0.00000000000E+00  0.69860833709E+03  0.69860833711E+03  0.50400001928E-02 0. -1.
       -1   -1    0    0    0  501  0.00000000000E+00  0.00000000000E+00 -0.32157483023E+04  0.32157483023E+04  0.50400001928E-02 0.  1.
    10030    2    1    2    0    0  0.00000000000E+00  0.00000000000E+00 -0.25171399652E+04  0.39143566394E+04  0.29976981663E+04 0.  0.
        3    1    3    3  502    0 -0.67497284291E+03  0.21381680186E+03  0.46647487315E+03  0.84788252777E+03  0.10100000352E+00 0. -1.
       -3    1    3    3    0  502  0.67497284291E+03 -0.21381680186E+03 -0.29836148384E+04  0.30664741117E+04  0.10100000352E+00 0.  1.
</event>
<event>
 5   0  0.6525507E-08  0.2999919E+04  0.7818609E-02  0.8243754E-01
       -1   -1    0    0    0  501  0.00000000000E+00  0.00000000000E+00  0.97597842622E+03  0.97597842623E+03  0.50400001928E-02 0.  1.
        1   -1    0    0  501    0  0.00000000000E+00  0.00000000000E+00 -0.23052546909E+04  0.23052546909E+04  0.50400001928E-02 0. -1.
    10030    2    1    2    0    0  0.00000000000E+00  0.00000000000E+00 -0.13292762647E+04  0.32812331171E+04  0.29999192291E+04 0.  0.
        4    1    3    3  502    0  0.44518079236E+02 -0.14941465347E+04 -0.80046663575E+03  0.16956427025E+04  0.12699999809E+01 0. -1.
       -4    1    3    3    0  502 -0.44518079236E+02  0.14941465347E+04 -0.52880962892E+03  0.15855904147E+04  0.12699999809E+01 0.  1.
</event>
<event>
 5   0  0.1813720E-07  0.2989884E+04  0.7818609E-02  0.8246626E-01
       -2   -1    0    0    0  501  0.00000000000E+00  0.00000000000E+00  0.94820291341E+03  0.94820291341E+03  0.25500000920E-02 0.  1.
        2   -1    0    0  501    0  0.00000000000E+00  0.00000000000E+00 -0.23569332622E+04  0.23569332622E+04  0.25500000920E-02 0. -1.
    10030    2    1    2    0    0  0.00000000000E+00  0.00000000000E+00 -0.14087303488E+04  0.33051361756E+04  0.29898836004E+04 0.  0.
        3    1    3    3  502    0 -0.42904704363E+03 -0.79129358641E+03 -0.20237917142E+04  0.22149401387E+04  0.10100000352E+00 0. -1.
       -3    1    3    3    0  502  0.42904704363E+03  0.79129358641E+03  0.61506136537E+03  0.10901960369E+04  0.10100000352E+00 0.  1.
</event>
<event>
 5   0  0.6636007E-08  0.3000692E+04  0.7818609E-02  0.8243533E-01
       -1   -1    0    0    0  501  0.00000000000E+00  0.00000000000E+00  0.14079659520E+04  0.14079659520E+04  0.50400001928E-02 0.  1.
        1   -1    0    0  501    0  0.00000000000E+00  0.00000000000E+00 -0.15987872044E+04  0.15987872044E+04  0.50400001928E-02 0. -1.
    10030    2    1    2    0    0  0.00000000000E+00  0.00000000000E+00 -0.19082125244E+03  0.30067531564E+04  0.30006918857E+04 0.  0.
        2    1    3    3  502    0 -0.60218385235E+03 -0.11952740370E+04  0.58399476744E+03  0.14602586429E+04  0.25500000920E-02 0.  1.
       -2    1    3    3    0  502  0.60218385235E+03  0.11952740370E+04 -0.77481601989E+03  0.15464945135E+04  0.25500000920E-02 0. -1.
</event>
<event>
 5   0  0.6679022E-08  0.3003747E+04  0.7818609E-02  0.8242662E-01
       -1   -1    0    0    0  501  0.00000000000E+00  0.00000000000E+00  0.13754458470E+04  0.13754458470E+04  0.50400001928E-02 0. -1.
        1   -1    0    0  501    0  0.00000000000E+00  0.00000000000E+00 -0.16399216734E+04  0.16399216734E+04  0.50400001928E-02 0.  1.
    10030    2    1    2    0    0  0.00000000000E+00  0.00000000000E+00 -0.26447582646E+03  0.30153675204E+04  0.30037466305E+04 0.  0.
        3    1    3    3  502    0  0.97183548241E+03  0.60565011858E+03 -0.11077727850E+04  0.15932472578E+04  0.10100000352E+00 0.  1.
       -3    1    3    3    0  502 -0.97183548241E+03 -0.60565011858E+03  0.84329695853E+03  0.14221202627E+04  0.10100000352E+00 0. -1.
</event>
<event>
 5   0  0.6636007E-08  0.2999886E+04  0.7818609E-02  0.8243763E-01
       -1   -1    0    0    0  501  0.00000000000E+00  0.00000000000E+00  0.18303369986E+04  0.18303369986E+04  0.50400001928E-02 0. -1.
        1   -1    0    0  501    0  0.00000000000E+00  0.00000000000E+00 -0.12291883970E+04  0.12291883970E+04  0.50400001928E-02 0.  1.
    10030    2    1    2    0    0  0.00000000000E+00  0.00000000000E+00  0.60114860164E+03  0.30595253956E+04  0.29998859987E+04 0.  0.
        2    1    3    3  502    0 -0.39541754762E+03 -0.55939995172E+03 -0.10603246171E+04  0.12623674728E+04  0.25500000920E-02 0.  1.
       -2    1    3    3    0  502  0.39541754762E+03  0.55939995172E+03  0.16614732187E+04  0.17971579228E+04  0.25500000920E-02 0. -1.
</event>
<event>
 5   0  0.1817566E-07  0.2998151E+04  0.7818609E-02  0.8244259E-01
       -2   -1    0    0    0  501  0.00000000000E+00  0.00000000000E+00  0.22360117252E+04  0.22360117252E+04  0.25500000920E-02 0. -1.
        2   -1    0    0  501    0  0.00000000000E+00  0.00000000000E+00 -0.10050156668E+04  0.10050156668E+04  0.25500000920E-02 0.  1.
    10030    2    1    2    0    0  0.00000000000E+00  0.00000000000E+00  0.12309960584E+04  0.32410273920E+04  0.29981506400E+04 0.  0.
        1    1    3    3  502    0 -0.12881085042E+04  0.40373560515E+03 -0.89234234792E+02  0.13528446719E+04  0.50400001928E-02 0. -1.
       -1    1    3    3    0  502  0.12881085042E+04 -0.40373560515E+03  0.13202302932E+04  0.18881827201E+04  0.50400001928E-02 0.  1.
</event>
<event>
 5   0  0.6374748E-08  0.2999396E+04  0.7818609E-02  0.8243903E-01
        1   -1    0    0  501    0  0.00000000000E+00  0.00000000000E+00  0.13623071451E+04  0.13623071451E+04  0.50400001928E-02 0.  1.
       -1   -1    0    0    0  501  0.00000000000E+00  0.00000000000E+00 -0.16509453289E+04  0.16509453289E+04  0.50400001928E-02 0. -1.
    10030    2    1    2    0    0  0.00000000000E+00  0.00000000000E+00 -0.28863818381E+03  0.30132524740E+04  0.29993963511E+04 0.  0.
        1    1    3    3  502    0 -0.67280131159E+03 -0.12079593946E+02  0.12021287609E+04  0.13776505650E+04  0.50400001928E-02 0.  1.
       -1    1    3    3    0  502  0.67280131159E+03  0.12079593946E+02 -0.14907669447E+04  0.16356019090E+04  0.50400001928E-02 0. -1.
</event>
<event>
 5   0  0.1821305E-07  0.2998834E+04  0.7818609E-02  0.8244064E-01
        2   -1    0    0  501    0  0.00000000000E+00  0.00000000000E+00  0.78046223519E+03  0.78046223519E+03  0.25500000920E-02 0. -1.
       -2   -1    0    0    0  501  0.00000000000E+00  0.00000000000E+00 -0.28806672510E+04  0.28806672510E+04  0.25500000920E-02 0.  1.
    10030    2    1    2    0    0  0.00000000000E+00  0.00000000000E+00 -0.21002050158E+04  0.36611294862E+04  0.29988344413E+04 0.  0.
        2    1    3    3  502    0  0.97514388163E+03  0.18532306733E+03 -0.24221355776E+04  0.26176307963E+04  0.25500000920E-02 0.  1.
       -2    1    3    3    0  502 -0.97514388163E+03 -0.18532306733E+03  0.32193056184E+03  0.10434986899E+04  0.25500000920E-02 0. -1.
</event>
<event>
 5   0  0.6464436E-08  0.3000197E+04  0.7818609E-02  0.8243675E-01
       -1   -1    0    0    0  501  0.00000000000E+00  0.00000000000E+00  0.11236678237E+04  0.11236678237E+04  0.50400001928E-02 0. -1.
        1   -1    0    0  501    0  0.00000000000E+00  0.00000000000E+00 -0.20026342225E+04  0.20026342225E+04  0.50400001928E-02 0.  1.
    10030    2    1    2    0    0  0.00000000000E+00  0.00000000000E+00 -0.87896639884E+03  0.31263020462E+04  0.30001970858E+04 0.  0.
        5    1    3    3  502    0 -0.98137368551E+03  0.10680800121E+04 -0.40799537957E+02  0.14510602727E+04  0.46999998093E+01 0. -1.
       -5    1    3    3    0  502  0.98137368551E+03 -0.10680800121E+04 -0.83816686088E+03  0.16752417734E+04  0.46999998093E+01 0.  1.
</event>
<event>
 5   0  0.6374748E-08  0.3000193E+04  0.7818609E-02  0.8243676E-01
       -1   -1    0    0    0  501  0.00000000000E+00  0.00000000000E+00  0.14851824582E+04  0.14851824582E+04  0.50400001928E-02 0. -1.
        1   -1    0    0  501    0  0.00000000000E+00  0.00000000000E+00 -0.15151604442E+04  0.15151604442E+04  0.50400001928E-02 0.  1.
    10030    2    1    2    0    0  0.00000000000E+00  0.00000000000E+00 -0.29977986019E+02  0.30003429024E+04  0.30001931358E+04 0.  0.
        1    1    3    3  502    0  0.52283198363E+03 -0.13853834223E+04 -0.25510346358E+03  0.15025705597E+04  0.50400001928E-02 0.  1.
       -1    1    3    3    0  502 -0.52283198363E+03  0.13853834223E+04  0.22512547757E+03  0.14977723427E+04  0.50400001928E-02 0. -1.
</event>
<event>
 5   0  0.6679022E-08  0.3001176E+04  0.7818609E-02  0.8243395E-01
        1   -1    0    0  501    0  0.00000000000E+00  0.00000000000E+00  0.13645792371E+04  0.13645792371E+04  0.50400001928E-02 0.  1.
       -1   -1    0    0    0  501  0.00000000000E+00  0.00000000000E+00 -0.16501524647E+04  0.16501524647E+04  0.50400001928E-02 0. -1.
    10030    2    1    2    0    0  0.00000000000E+00  0.00000000000E+00 -0.28557322756E+03  0.30147317018E+04  0.30011756305E+04 0.  0.
        3    1    3    3  502    0 -0.12760411454E+04  0.47609076311E+03  0.48999555241E+03  0.14474249794E+04  0.10100000352E+00 0. -1.
       -3    1    3    3    0  502  0.12760411454E+04 -0.47609076311E+03 -0.77556877998E+03  0.15673067224E+04  0.10100000352E+00 0.  1.
</event>
<event>
 5   0  0.1813720E-07  0.2996257E+04  0.7818609E-02  0.8244800E-01
        2   -1    0    0  501    0  0.00000000000E+00  0.00000000000E+00  0.17421035110E+04  0.17421035110E+04  0.25500000920E-02 0.  1.
       -2   -1    0    0    0  501  0.00000000000E+00  0.00000000000E+00 -0.12883215820E+04  0.12883215820E+04  0.25500000920E-02 0. -1.
    10030    2    1    2    0    0  0.00000000000E+00  0.00000000000E+00  0.45378192892E+03  0.30304250930E+04  0.29962573663E+04 0.  0.
        3    1    3    3  502    0 -0.12748861369E+04  0.26872884576E+03 -0.52102783821E+03  0.14032176855E+04  0.10100000352E+00 0. -1.
       -3    1    3    3    0  502  0.12748861369E+04 -0.26872884576E+03  0.97480976713E+03  0.16272074075E+04  0.10100000352E+00 0.  1.
</event>
<event>
 5   0  0.1810055E-07  0.2999733E+04  0.7818609E-02  0.8243807E-01
       -2   -1    0    0    0  501  0.00000000000E+00  0.00000000000E+00  0.95423157863E+03  0.95423157864E+03  0.25500000920E-02 0. -1.
        2   -1    0    0  501    0  0.00000000000E+00  0.00000000000E+00 -0.23574984666E+04  0.23574984666E+04  0.25500000920E-02 0.  1.
    10030    2    1    2    0    0  0.00000000000E+00  0.00000000000E+00 -0.14032668880E+04  0.33117300453E+04  0.29997329771E+04 0.  0.
        4    1    3    3  502    0  0.11682021822E+04  0.63489295841E+03 -0.14679555357E+04  0.19805757938E+04  0.12699999809E+01 0. -1.
       -4    1    3    3    0  502 -0.11682021822E+04 -0.63489295841E+03  0.64688647676E+02  0.13311542515E+04  0.12699999809E+01 0.  1.
</event>
<event>
 5   0  0.6374748E-08  0.3001058E+04  0.7818609E-02  0.8243429E-01
       -1   -1    0    0    0  501  0.00000000000E+00  0.00000000000E+00  0.12814677342E+04  0.12814677342E+04  0.50400001928E-02 0.  1.
        1   -1    0    0  501    0  0.00000000000E+00  0.00000000000E+00 -0.17570383896E+04  0.17570383896E+04  0.50400001928E-02 0. -1.
    10030    2    1    2    0    0  0.00000000000E+00  0.00000000000E+00 -0.47557065544E+03  0.30385061238E+04  0.30010584826E+04 0.  0.
        1    1    3    3  502    0  0.40771705747E+03 -0.13618981735E+04 -0.72397325279E+03  0.15953485841E+04  0.50400001928E-02 0. -1.
       -1    1    3    3    0  502 -0.40771705747E+03  0.13618981735E+04  0.24840259736E+03  0.14431575397E+04  0.50400001928E-02 0.  1.
</event>
<event>
 5   0  0.6464436E-08  0.2998373E+04  0.7818609E-02  0.8244196E-01
       -1   -1    0    0    0  501  0.00000000000E+00  0.00000000000E+00  0.10468518171E+04  0.10468518171E+04  0.50400001928E-02 0. -1.
        1   -1    0    0  501    0  0.00000000000E+00  0.00000000000E+00 -0.21469702458E+04  0.21469702458E+04  0.50400001928E-02 0.  1.
    10030    2    1    2    0    0  0.00000000000E+00  0.00000000000E+00 -0.11001184287E+04  0.31938220630E+04  0.29983726941E+04 0.  0.
        5    1    3    3  502    0  0.14245692215E+04  0.45832837464E+03 -0.45433914159E+03  0.15639400600E+04  0.46999998093E+01 0.  1.
       -5    1    3    3    0  502 -0.14245692215E+04 -0.45832837464E+03 -0.64577928711E+03  0.16298820029E+04  0.46999998093E+01 0. -1.
</event>
<event>
 5   0  0.1813720E-07  0.2988619E+04  0.7818609E-02  0.8246988E-01
        2   -1    0    0  501    0  0.00000000000E+00  0.00000000000E+00  0.25309794505E+04  0.25309794505E+04  0.25500000920E-02 0. -1.
       -2   -1    0    0    0  501  0.00000000000E+00  0.00000000000E+00 -0.88225151868E+03  0.88225151868E+03  0.25500000920E-02 0.  1.
    10030    2    1    2    0    0  0.00000000000E+00  0.00000000000E+00  0.16487279318E+04  0.34132309692E+04  0.29886187204E+04 0.  0.
        3    1    3    3  502    0 -0.10143790380E+04  0.34966069893E+03 -0.36346854483E+03  0.11328445747E+04  0.10100000352E+00 0.  1.
       -3    1    3    3    0  502  0.10143790380E+04 -0.34966069893E+03  0.20121964767E+04  0.22803863945E+04  0.10100000352E+00 0. -1.
</event>
<event>
 5   0  0.6525507E-08  0.2999647E+04  0.7818609E-02  0.8243832E-01
        1   -1    0    0  501    0  0.00000000000E+00  0.00000000000E+00  0.23463968642E+04  0.23463968642E+04  0.50400001928E-02 0. -1.
       -1   -1    0    0    0  501  0.00000000000E+00  0.00000000000E+00 -0.95869135289E+03  0.95869135291E+03  0.50400001928E-02 0.  1.
    10030    2    1    2    0    0  0.00000000000E+00  0.00000000000E+00  0.13877055113E+04  0.33050882171E+04  0.29996469020E+04 0.  0.
        4    1    3    3  502    0 -0.21870412154E+03  0.83317358801E+02  0.23261530409E+04  0.23378971016E+04  0.12699999809E+01 0. -1.
       -4    1    3    3    0  502  0.21870412154E+03 -0.83317358801E+02 -0.93844752964E+03  0.96719111547E+03  0.12699999809E+01 0.  1.
</event>
<event>
 5   0  0.1813720E-07  0.2999975E+04  0.7818609E-02  0.8243738E-01
        2   -1    0    0  501    0  0.00000000000E+00  0.00000000000E+00  0.12388178649E+04  0.12388178649E+04  0.25500000920E-02 0. -1.
       -2   -1    0    0    0  501  0.00000000000E+00  0.00000000000E+00 -0.18162178531E+04  0.18162178531E+04  0.25500000920E-02 0.  1.
    10030    2    1    2    0    0  0.00000000000E+00  0.00000000000E+00 -0.57739998817E+03  0.30550357180E+04  0.29999754152E+04 0.  0.
        3    1    3    3  502    0  0.60782291362E+03  0.27680849624E+03  0.10790407975E+04  0.12690156385E+04  0.10100000352E+00 0. -1.
       -3    1    3    3    0  502 -0.60782291362E+03 -0.27680849624E+03 -0.16564407856E+04  0.17860200795E+04  0.10100000352E+00 0.  1.
</event>
<event>
 5   0  0.6464436E-08  0.3000513E+04  0.7818609E-02  0.8243584E-01
        1   -1    0    0  501    0  0.00000000000E+00  0.00000000000E+00  0.15421293555E+04  0.15421293555E+04  0.50400001928E-02 0. -1.
       -1   -1    0    0    0  501  0.00000000000E+00  0.00000000000E+00 -0.14595207264E+04  0.14595207264E+04  0.50400001928E-02 0.  1.
    10030    2    1    2    0    0  0.00000000000E+00  0.00000000000E+00  0.82608629122E+02  0.30016500819E+04  0.30005131276E+04 0.  0.
        5    1    3    3  502    0 -0.40191676837E+03 -0.13336526457E+04 -0.51620498100E+03  0.14854817873E+04  0.46999998093E+01 0. -1.
       -5    1    3    3    0  502  0.40191676837E+03  0.13336526457E+04  0.59881361012E+03  0.15161682946E+04  0.46999998093E+01 0.  1.
</event>
<event>
 5   0  0.6636007E-08  0.2999611E+04  0.7818609E-02  0.8243842E-01
        1   -1    0    0  501    0  0.00000000000E+00  0.00000000000E+00  0.26051366166E+04  0.26051366166E+04  0.50400001928E-02 0. -1.
       -1   -1    0    0    0  501  0.00000000000E+00  0.00000000000E+00 -0.86345410153E+03  0.86345410154E+03  0.50400001928E-02 0.  1.
    10030    2    1    2    0    0  0.00000000000E+00  0.00000000000E+00  0.17416825150E+04  0.34685907181E+04  0.29996105725E+04 0.  0.
        2    1    3    3  502    0  0.59053227219E+03  0.27490624145E+03  0.24330288745E+04  0.25187162028E+04  0.25500000920E-02 0. -1.
       -2    1    3    3    0  502 -0.59053227219E+03 -0.27490624145E+03 -0.69134635946E+03  0.94987451531E+03  0.25500000920E-02 0.  1.
</event>
<event>
 5   0  0.1914439E-07  0.2995185E+04  0.7818609E-02  0.8245107E-01
       -2   -1    0    0    0  501  0.00000000000E+00  0.00000000000E+00  0.13767330045E+04  0.13767330045E+04  0.25500000920E-02 0.  1.
        2   -1    0    0  501    0  0.00000000000E+00  0.00000000000E+00 -0.16290613879E+04  0.16290613879E+04  0.25500000920E-02 0. -1.
    10030    2    1    2    0    0  0.00000000000E+00  0.00000000000E+00 -0.25232838341E+03  0.30057943924E+04  0.29951845212E+04 0.  0.
        5    1    3    3  502    0  0.12487428587E+03 -0.69334470220E+03 -0.14523748849E+04  0.16142290295E+04  0.46999998093E+01 0. -1.
       -5    1    3    3    0  502 -0.12487428587E+03  0.69334470220E+03  0.12000465015E+04  0.13915653629E+04  0.46999998093E+01 0.  1.
</event>
<event>
 5   0  0.6374748E-08  0.2998539E+04  0.7818609E-02  0.8244148E-01
        1   -1    0    0  501    0  0.00000000000E+00  0.00000000000E+00  0.12189881019E+04  0.12189881019E+04  0.50400001928E-02 0.  1.
       -1   -1    0    0    0  501  0.00000000000E+00  0.00000000000E+00 -0.18439956946E+04  0.18439956946E+04  0.50400001928E-02 0. -1.
    10030    2    1    2    0    0  0.00000000000E+00  0.00000000000E+00 -0.62500759272E+03  0.30629837966E+04  0.29985388520E+04 0.  0.
        1    1    3    3  502    0 -0.99515061748E+03 -0.15930865345E+03 -0.14463622597E+04  0.17628578459E+04  0.50400001928E-02 0. -1.
       -1    1    3    3    0  502  0.99515061748E+03  0.15930865345E+03  0.82135466700E+03  0.13001259507E+04  0.50400001928E-02 0.  1.
</event>
<event>
 5   0  0.6374748E-08  0.3002000E+04  0.7818609E-02  0.8243160E-01
       -1   -1    0    0    0  501  0.00000000000E+00  0.00000000000E+00  0.14949159120E+04  0.14949159120E+04  0.50400001928E-02 0.  1.
        1   -1    0    0  501    0  0.00000000000E+00  0.00000000000E+00 -0.15071090773E+04  0.15071090773E+04  0.50400001928E-02 0. -1.
    10030    2    1    2    0    0  0.00000000000E+00  0.00000000000E+00 -0.12193165277E+02  0.30020249893E+04  0.30020002271E+04 0.  0.
        1    1    3    3  502    0  0.89281382777E+03 -0.80842293726E+03  0.88964355858E+03  0.14973743146E+04  0.50400001928E-02 0.  1.
       -1    1    3    3    0  502 -0.89281382777E+03  0.80842293726E+03 -0.90183672385E+03  0.15046506748E+04  0.50400001928E-02 0. -1.
</event>
<event>
 5   0  0.1813720E-07  0.3000458E+04  0.7818609E-02  0.8243600E-01
       -2   -1    0    0    0  501  0.00000000000E+00  0.00000000000E+00  0.76140370988E+03  0.76140370988E+03  0.25500000920E-02 0. -1.
        2   -1    0    0  501    0  0.00000000000E+00  0.00000000000E+00 -0.29559697607E+04  0.29559697607E+04  0.25500000920E-02 0.  1.
    10030    2    1    2    0    0  0.00000000000E+00  0.00000000000E+00 -0.21945660508E+04  0.37173734706E+04  0.30004575265E+04 0.  0.
        3    1    3    3  502    0  0.12347055243E+04  0.47780271213E+02 -0.43163898454E+02  0.12363833623E+04  0.10100000352E+00 0. -1.
       -3    1    3    3    0  502 -0.12347055243E+04 -0.47780271213E+02 -0.21514021523E+04  0.24809901083E+04  0.10100000352E+00 0.  1.
</event>
<event>
 5   0  0.6525507E-08  0.2999821E+04  0.7818609E-02  0.8243782E-01
       -1   -1    0    0    0  501  0.00000000000E+00  0.00000000000E+00  0.13953686713E+04  0.13953686713E+04  0.50400001928E-02 0. -1.
        1   -1    0    0  501    0  0.00000000000E+00  0.00000000000E+00 -0.16122844250E+04  0.16122844250E+04  0.50400001928E-02 0.  1.
    10030    2    1    2    0    0  0.00000000000E+00  0.00000000000E+00 -0.21691575373E+03  0.30076530963E+04  0.29998207785E+04 0.  0.
        4    1    3    3  502    0  0.11752559124E+04  0.93175316049E+03 -0.89993734589E+02  0.15024948908E+04  0.12699999809E+01 0. -1.
       -4    1    3    3    0  502 -0.11752559124E+04 -0.93175316049E+03 -0.12692201914E+03  0.15051582055E+04  0.12699999809E+01 0.  1.
</event>
<event>
 5   0  0.6374748E-08  0.2990617E+04  0.7818609E-02  0.8246415E-01
       -1   -1    0    0    0  501  0.00000000000E+00  0.00000000000E+00  0.13576577382E+04  0.13576577382E+04  0.50400001928E-02 0. -1.
        1   -1    0    0  501    0  0.00000000000E+00  0.00000000000E+00 -0.16469152939E+04  0.16469152939E+04  0.50400001928E-02 0.  1.
    10030    2    1    2    0    0  0.00000000000E+00  0.00000000000E+00 -0.28925755571E+03  0.30045730321E+04  0.29906168547E+04 0.  0.
        1    1    3    3  502    0  0.40905289874E+03 -0.66638455189E+03  0.11358994332E+04  0.13790069497E+04  0.50400001928E-02 0. -1.
       -1    1    3    3    0  502 -0.40905289874E+03  0.66638455189E+03 -0.14251569889E+04  0.16255660823E+04  0.50400001928E-02 0.  1.
</event>
<event>
 5   0  0.1914439E-07  0.2999587E+04  0.7818609E-02  0.8243849E-01
        2   -1    0    0  501    0  0.00000000000E+00  0.00000000000E+00  0.13767021311E+04  0.13767021311E+04  0.25500000920E-02 0.  1.
       -2   -1    0    0    0  501  0.00000000000E+00  0.00000000000E+00 -0.16338909900E+04  0.16338909900E+04  0.25500000920E-02 0. -1.
    10030    2    1    2    0    0  0.00000000000E+00  0.00000000000E+00 -0.25718885890E+03  0.30105931211E+04  0.29995874436E+04 0.  0.
        5    1    3    3  502    0  0.27568246462E+03  0.14554387834E+04  0.10690715261E+03  0.14851781385E+04  0.46999998093E+01 0. -1.
       -5    1    3    3    0  502 -0.27568246462E+03 -0.14554387834E+04 -0.36409601151E+03  0.15254149826E+04  0.46999998093E+01 0.  1.
</event>
<event>
 5   0  0.6464436E-08  0.3000916E+04  0.7818609E-02  0.8243469E-01
       -1   -1    0    0    0  501  0.00000000000E+00  0.00000000000E+00  0.91409124349E+03  0.91409124350E+03  0.50400001928E-02 0. -1.
        1   -1    0    0  501    0  0.00000000000E+00  0.00000000000E+00 -0.24629650268E+04  0.24629650268E+04  0.50400001928E-02 0.  1.
    10030    2    1    2    0    0  0.00000000000E+00  0.00000000000E+00 -0.15488737833E+04  0.33770562703E+04  0.30009163694E+04 0.  0.
        5    1    3    3  502    0 -0.44385287315E+03  0.10790792028E+04  0.28716978163E+03  0.12016263447E+04  0.46999998093E+01 0. -1.
       -5    1    3    3    0  502  0.44385287315E+03 -0.10790792028E+04 -0.18360435650E+04  0.21754299256E+04  0.46999998093E+01 0.  1.
</event>
<event>
 5   0  0.1813720E-07  0.2999792E+04  0.7818609E-02  0.8243790E-01
       -2   -1    0    0    0  501  0.00000000000E+00  0.00000000000E+00  0.11764820270E+04  0.11764820270E+04  0.25500000920E-02 0.  1.
        2   -1    0    0  501    0  0.00000000000E+00  0.00000000000E+00 -0.19122158773E+04  0.19122158773E+04  0.25500000920E-02 0. -1.
    10030    2    1    2    0    0  0.00000000000E+00  0.00000000000E+00 -0.73573385030E+03  0.30886979044E+04  0.29997917338E+04 0.  0.
        3    1    3    3  502    0  0.95770587349E+02 -0.84643780796E+03  0.90324902128E+03  0.12415666606E+04  0.10100000352E+00 0.  1.
       -3    1    3    3    0  502 -0.95770587349E+02  0.84643780796E+03 -0.16389828716E+04  0.18471312438E+04  0.10100000352E+00 0. -1.
</event>
<event>
 5   0  0.6636007E-08  0.2999991E+04  0.7818609E-02  0.8243733E-01
       -1   -1    0    0    0  501  0.00000000000E+00  0.00000000000E+00  0.11102495114E+04  0.11102495114E+04  0.50400001928E-02 0.  1.
        1   -1    0    0  501    0  0.00000000000E+00  0.00000000000E+00 -0.20265592059E+04  0.20265592059E+04  0.50400001928E-02 0. -1.
    10030    2    1    2    0    0  0.00000000000E+00  0.00000000000E+00 -0.91630969442E+03  0.31368087173E+04  0.29999909121E+04 0.  0.
        2    1    3    3  502    0 -0.12180346869E+04  0.75564332671E+03  0.40231829893E+01  0.14333951031E+04  0.25500000920E-02 0.  1.
       -2    1    3    3    0  502  0.12180346869E+04 -0.75564332671E+03 -0.92033287741E+03  0.17034136142E+04  0.25500000920E-02 0. -1.
</event>
<event>
 5   0  0.6525507E-08  0.2999501E+04  0.7818609E-02  0.8243873E-01
        1   -1    0    0  501    0  0.00000000000E+00  0.00000000000E+00  0.13124198048E+04  0.13124198048E+04  0.50400001928E-02 0.  1.
       -1   -1    0    0    0  501  0.00000000000E+00  0.00000000000E+00 -0.17138207316E+04  0.17138207316E+04  0.50400001928E-02 0. -1.
    10030    2    1    2    0    0  0.00000000000E+00  0.00000000000E+00 -0.40140092681E+03  0.30262405364E+04  0.29995014719E+04 0.  0.
        4    1    3    3  502    0  0.16350639278E+03  0.58907411224E+02 -0.17036262651E+04  0.17124685363E+04  0.12699999809E+01 0. -1.
       -4    1    3    3    0  502 -0.16350639278E+03 -0.58907411224E+02  0.13022253383E+04  0.13137720001E+04  0.12699999809E+01 0.  1.
</event>
<event>
 5   0  0.6374748E-08  0.2999983E+04  0.7818609E-02  0.8243736E-01
       -1   -1    0    0    0  501  0.00000000000E+00  0.00000000000E+00  0.13366158906E+04  0.13366158906E+04  0.50400001928E-02 0.  1.
        1   -1    0    0  501    0  0.00000000000E+00  0.00000000000E+00 -0.16833362124E+04  0.16833362124E+04  0.50400001928E-02 0. -1.
    10030    2    1    2    0    0  0.00000000000E+00  0.00000000000E+00 -0.34672032174E+03  0.30199521030E+04  0.29999826204E+04 0.  0.
        1    1    3    3  502    0 -0.69450748232E+03 -0.57481534006E+03 -0.13801816502E+04  0.16485310751E+04  0.50400001928E-02 0. -1.
       -1    1    3    3    0  502  0.69450748232E+03  0.57481534006E+03  0.10334613285E+04  0.13714210278E+04  0.50400001928E-02 0.  1.
</event>
<event>
 5   0  0.6525507E-08  0.2999787E+04  0.7818609E-02  0.8243792E-01
       -1   -1    0    0    0  501  0.00000000000E+00  0.00000000000E+00  0.74327701827E+03  0.74327701829E+03  0.50400001928E-02 0. -1.
        1   -1    0    0  501    0  0.00000000000E+00  0.00000000000E+00 -0.30267046725E+04  0.30267046725E+04  0.50400001928E-02 0.  1.
    10030    2    1    2    0    0  0.00000000000E+00  0.00000000000E+00 -0.22834276542E+04  0.37699816907E+04  0.29997866752E+04 0.  0.
        4    1    3    3  502    0 -0.21186307348E+03 -0.13138984182E+04 -0.20110209309E+04  0.24115185698E+04  0.12699999809E+01 0.  1.
       -4    1    3    3    0  502  0.21186307348E+03  0.13138984182E+04 -0.27240672326E+03  0.13584631209E+04  0.12699999809E+01 0. -1.
</event>
<event>
 5   0  0.1821305E-07  0.3000779E+04  0.7818609E-02  0.8243508E-01
       -2   -1    0    0    0  501  0.00000000000E+00  0.00000000000E+00  0.18566320837E+04  0.18566320837E+04  0.25500000920E-02 0. -1.
        2   -1    0    0  501    0  0.00000000000E+00  0.00000000000E+00 -0.12125013478E+04  0.12125013478E+04  0.25500000920E-02 0.  1.
    10030    2    1    2    0    0  0.00000000000E+00  0.00000000000E+00  0.64413073598E+03  0.30691334315E+04  0.30007791680E+04 0.  0.
        2    1    3    3  502    0  0.13348961936E+04 -0.40851486286E+03 -0.24031110189E+03  0.14165386217E+04  0.25500000920E-02 0.  1.
       -2    1    3    3    0  502 -0.13348961936E+04  0.40851486286E+03  0.88444183787E+03  0.16525948098E+04  0.25500000920E-02 0. -1.
</event>
<event>
 5   0  0.1817566E-07  0.2996361E+04  0.7818609E-02  0.8244771E-01
       -2   -1    0    0    0  501  0.00000000000E+00  0.00000000000E+00  0.15507846214E+04  0.15507846214E+04  0.25500000920E-02 0.  1.
        2   -1    0    0  501    0  0.00000000000E+00  0.00000000000E+00 -0.14473605562E+04  0.14473605563E+04  0.25500000920E-02 0. -1.
    10030    2    1    2    0    0  0.00000000000E+00  0.00000000000E+00  0.10342406511E+03  0.29981451776E+04  0.29963607875E+04 0.  0.
        1    1    3    3  502    0 -0.52960237741E+02 -0.14854197305E+04 -0.13619738057E+03  0.14925904626E+04  0.50400001928E-02 0. -1.
       -1    1    3    3    0  502  0.52960237741E+02  0.14854197305E+04  0.23962144569E+03  0.15055547150E+04  0.50400001928E-02 0.  1.
</event>
<event>
 5   0  0.1813720E-07  0.3002967E+04  0.7818609E-02  0.8242884E-01
        2   -1    0    0  501    0  0.00000000000E+00  0.00000000000E+00  0.26285708360E+04  0.26285708360E+04  0.25500000920E-02 0. -1.
       -2   -1    0    0    0  501  0.00000000000E+00  0.00000000000E+00 -0.85767261937E+03  0.85767261937E+03  0.25500000920E-02 0.  1.
    10030    2    1    2    0    0  0.00000000000E+00  0.00000000000E+00  0.17708982166E+04  0.34862434553E+04  0.30029673552E+04 0.  0.
        3    1    3    3  502    0  0.15167156529E+03  0.14748103863E+04  0.60978369072E+03  0.16030926670E+04  0.10100000352E+00 0. -1.
       -3    1    3    3    0  502 -0.15167156529E+03 -0.14748103863E+04  0.11611145259E+04  0.18831507883E+04  0.10100000352E+00 0.  1.
</event>
<event>
 5   0  0.1817566E-07  0.2999339E+04  0.7818609E-02  0.8243920E-01
        2   -1    0    0  501    0  0.00000000000E+00  0.00000000000E+00  0.12320469677E+04  0.12320469677E+04  0.25500000920E-02 0. -1.
       -2   -1    0    0    0  501  0.00000000000E+00  0.00000000000E+00 -0.18254245503E+04  0.18254245503E+04  0.25500000920E-02 0.  1.
    10030    2    1    2    0    0  0.00000000000E+00  0.00000000000E+00 -0.59337758261E+03  0.30574715181E+04  0.29993391153E+04 0.  0.
        1    1    3    3  502    0  0.11041413726E+04 -0.41597046595E+03 -0.12402912030E+04  0.17118650260E+04  0.50400001928E-02 0.  1.
       -1    1    3    3    0  502 -0.11041413726E+04  0.41597046595E+03  0.64691362036E+03  0.13456064920E+04  0.50400001928E-02 0. -1.
</event>
<event>
 5   0  0.1810055E-07  0.3001556E+04  0.7818609E-02  0.8243287E-01
       -2   -1    0    0    0  501  0.00000000000E+00  0.00000000000E+00  0.75780768799E+03  0.75780768800E+03  0.25500000920E-02 0.  1.
        2   -1    0    0  501    0  0.00000000000E+00  0.00000000000E+00 -0.29721721740E+04  0.29721721740E+04  0.25500000920E-02 0. -1.
    10030    2    1    2    0    0  0.00000000000E+00  0.00000000000E+00 -0.22143644860E+04  0.37299798620E+04  0.30015562120E+04 0.  0.
        4    1    3    3  502    0 -0.32362783520E+03  0.46966558253E+03  0.61787011221E+03  0.84088395370E+03  0.12699999809E+01 0.  1.
       -4    1    3    3    0  502  0.32362783520E+03 -0.46966558253E+03 -0.28322345982E+04  0.28890959083E+04  0.12699999809E+01 0. -1.
</event>
<event>
 5   0  0.6679022E-08  0.2999480E+04  0.7818609E-02  0.8243879E-01
        1   -1    0    0  501    0  0.00000000000E+00  0.00000000000E+00  0.21429729222E+04  0.21429729222E+04  0.50400001928E-02 0.  1.
       -1   -1    0    0    0  501  0.00000000000E+00  0.00000000000E+00 -0.10495796687E+04  0.10495796687E+04  0.50400001928E-02 0. -1.
    10030    2    1    2    0    0  0.00000000000E+00  0.00000000000E+00  0.10933932535E+04  0.31925525910E+04  0.29994804949E+04 0.  0.
        3    1    3    3  502    0 -0.36409172906E+03  0.12780750355E+04 -0.19315986472E+03  0.13428884269E+04  0.10100000352E+00 0. -1.
       -3    1    3    3    0  502  0.36409172906E+03 -0.12780750355E+04  0.12865531182E+04  0.18496641640E+04  0.10100000352E+00 0.  1.
</event>
<event>
 5   0  0.6374748E-08  0.2998654E+04  0.7818609E-02  0.8244115E-01
        1   -1    0    0  501    0  0.00000000000E+00  0.00000000000E+00  0.17888167131E+04  0.17888167131E+04  0.50400001928E-02 0. -1.
       -1   -1    0    0    0  501  0.00000000000E+00  0.00000000000E+00 -0.12566861123E+04  0.12566861123E+04  0.50400001928E-02 0.  1.
    10030    2    1    2    0    0  0.00000000000E+00  0.00000000000E+00  0.53213060084E+03  0.30455028255E+04  0.29986537785E+04 0.  0.
        1    1    3    3  502    0  0.12742474147E+04 -0.74558026653E+03  0.53165559216E+03  0.15691571229E+04  0.50400001928E-02 0. -1.
       -1    1    3    3    0  502 -0.12742474147E+04  0.74558026653E+03  0.47500867980E+00  0.14763457025E+04  0.50400001928E-02 0.  1.
</event>
<event>
 5   0  0.6464436E-08  0.2999598E+04  0.7818609E-02  0.8243846E-01
        1   -1    0    0  501    0  0.00000000000E+00  0.00000000000E+00  0.11934711211E+04  0.11934711211E+04  0.50400001928E-02 0. -1.
       -1   -1    0    0    0  501  0.00000000000E+00  0.00000000000E+00 -0.18847515408E+04  0.18847515408E+04  0.50400001928E-02 0.  1.
    10030    2    1    2    0    0  0.00000000000E+00  0.00000000000E+00 -0.69128041966E+03  0.30782226619E+04  0.29995976626E+04 0.  0.
        5    1    3    3  502    0 -0.53537908441E+03 -0.24010369966E+03  0.10707901182E+04  0.12210217516E+04  0.46999998093E+01 0. -1.
       -5    1    3    3    0  502  0.53537908441E+03  0.24010369966E+03 -0.17620705379E+04  0.18572009103E+04  0.46999998093E+01 0.  1.
</event>
<event>
 5   0  0.6374748E-08  0.2999815E+04  0.7818609E-02  0.8243784E-01
        1   -1    0    0  501    0  0.00000000000E+00  0.00000000000E+00  0.25912437972E+04  0.25912437972E+04  0.50400001928E-02 0.  1.
       -1   -1    0    0    0  501  0.00000000000E+00  0.00000000000E+00 -0.86820206313E+03  0.86820206315E+03  0.50400001928E-02 0. -1.
    10030    2    1    2    0    0  0.00000000000E+00  0.00000000000E+00  0.17230417340E+04  0.34594458603E+04  0.29998154682E+04 0.  0.
        1    1    3    3  502    0  0.14917152757E+03  0.13441766142E+04  0.11356192302E+03  0.13571879844E+04  0.50400001928E-02 0.  1.
       -1    1    3    3    0  502 -0.14917152757E+03 -0.13441766142E+04  0.16094798110E+04  0.21022578759E+04  0.50400001928E-02 0. -1.
</event>
<event>
 5   0  0.6525507E-08  0.3000119E+04  0.7818609E-02  0.8243697E-01
        1   -1    0    0  501    0  0.00000000000E+00  0.00000000000E+00  0.21661659275E+04  0.21661659275E+04  0.50400001928E-02 0.  1.
       -1   -1    0    0    0  501  0.00000000000E+00  0.00000000000E+00 -0.10387839824E+04  0.10387839824E+04  0.50400001928E-02 0. -1.
    10030    2    1    2    0    0  0.00000000000E+00  0.00000000000E+00  0.11273819451E+04  0.32049499099E+04  0.30001189768E+04 0.  0.
        4    1    3    3  502    0 -0.97526366231E+03  0.11382876144E+04  0.50196217137E+03  0.15807610631E+04  0.12699999809E+01 0.  1.
       -4    1    3    3    0  502  0.97526366231E+03 -0.11382876144E+04  0.62541977368E+03  0.16241888469E+04  0.12699999809E+01 0. -1.
</event>
<event>
 5   0  0.6679022E-08  0.3000025E+04  0.7818609E-02  0.8243724E-01
       -1   -1    0    0    0  501  0.00000000000E+00  0.00000000000E+00  0.12611723225E+04  0.12611723225E+04  0.50400001928E-02 0.  1.
        1   -1    0    0  501    0  0.00000000000E+00  0.00000000000E+00 -0.17840845806E+04  0.17840845806E+04  0.50400001928E-02 0. -1.
    10030    2    1    2    0    0  0.00000000000E+00  0.00000000000E+00 -0.52291225809E+03  0.30452569030E+04  0.30000253959E+04 0.  0.
        3    1    3    3  502    0  0.11601244173E+04  0.40846023252E+03  0.61015740817E+03  0.13729604867E+04  0.10100000352E+00 0.  1.
       -3    1    3    3    0  502 -0.11601244173E+04 -0.40846023252E+03 -0.11330696663E+04  0.16722964163E+04  0.10100000352E+00 0. -1.
</event>
<event>
 5   0  0.1810055E-07  0.3000504E+04  0.7818609E-02  0.8243587E-01
       -2   -1    0    0    0  501  0.00000000000E+00  0.00000000000E+00  0.12694588014E+04  0.12694588014E+04  0.25500000920E-02 0. -1.
        2   -1    0    0  501    0  0.00000000000E+00  0.00000000000E+00 -0.17730041429E+04  0.17730041429E+04  0.25500000920E-02 0.  1.
    10030    2    1    2    0    0  0.00000000000E+00  0.00000000000E+00 -0.50354534145E+03  0.30424629443E+04  0.30005037672E+04 0.  0.
        4    1    3    3  502    0  0.10355703863E+04  0.10638200063E+04 -0.47074409354E+03  0.15574725183E+04  0.12699999809E+01 0. -1.
       -4    1    3    3    0  502 -0.10355703863E+04 -0.10638200063E+04 -0.32801247910E+02  0.14849904261E+04  0.12699999809E+01 0.  1.
</event>
<event>
 5   0  0.6636007E-08  0.3000568E+04  0.7818609E-02  0.8243569E-01
        1   -1    0    0  501    0  0.00000000000E+00  0.00000000000E+00  0.23257781454E+04  0.23257781454E+04  0.50400001928E-02 0.  1.
       -1   -1    0    0    0  501  0.00000000000E+00  0.00000000000E+00 -0.96778446844E+03  0.96778446845E+03  0.50400001928E-02 0. -1.
    10030    2    1    2    0    0  0.00000000000E+00  0.00000000000E+00  0.13579936769E+04  0.32935626139E+04  0.30005679237E+04 0.  0.
        2    1    3    3  502    0 -0.71103297376E+03 -0.37912825609E+03 -0.71009880416E+03  0.10740327909E+04  0.25500000920E-02 0. -1.
       -2    1    3    3    0  502  0.71103297376E+03  0.37912825609E+03  0.20680924811E+04  0.22195298229E+04  0.25500000920E-02 0.  1.
</event>
<event>
 5   0  0.6679022E-08  0.3000061E+04  0.7818609E-02  0.8243713E-01
        1   -1    0    0  501    0  0.00000000000E+00  0.00000000000E+00  0.23311353202E+04  0.23311353202E+04  0.50400001928E-02 0. -1.
       -1   -1    0    0    0  501  0.00000000000E+00  0.00000000000E+00 -0.96523443381E+03  0.96523443383E+03  0.50400001928E-02 0.  1.
    10030    2    1    2    0    0  0.00000000000E+00  0.00000000000E+00  0.13659008863E+04  0.32963697540E+04  0.30000613867E+04 0.  0.
        3    1    3    3  502    0 -0.13320522786E+04 -0.68267695686E+03  0.79106028333E+03  0.16929818317E+04  0.10100000352E+00 0.  1.
       -3    1    3    3    0  502  0.13320522786E+04  0.68267695686E+03  0.57484060301E+03  0.16033879223E+04  0.10100000352E+00 0. -1.
</event>
<event>
 5   0  0.1914439E-07  0.2999648E+04  0.7818609E-02  0.8243831E-01
        2   -1    0    0  501    0  0.00000000000E+00  0.00000000000E+00  0.21877120603E+04  0.21877120603E+04  0.25500000920E-02 0. -1.
       -2   -1    0    0    0  501  0.00000000000E+00  0.00000000000E+00 -0.10282306253E+04  0.10282306253E+04  0.25500000920E-02 0.  1.
    10030    2    1    2    0    0  0.00000000000E+00  0.00000000000E+00  0.11594814351E+04  0.32159426856E+04  0.29996483392E+04 0.  0.
        5    1    3    3  502    0 -0.14705299391E+04 -0.29466603425E+03  0.59347356898E+03  0.16129226084E+04  0.46999998093E+01 0.  1.
       -5    1    3    3    0  502  0.14705299391E+04  0.29466603425E+03  0.56600786609E+03  0.16030200772E+04  0.46999998093E+01 0. -1.
</event>
<event>
 5   0  0.6636007E-08  0.3005718E+04  0.7818609E-02  0.8242100E-01
        1   -1    0    0  501    0  0.00000000000E+00  0.00000000000E+00  0.12648876200E+04  0.12648876200E+04  0.50400001928E-02 0. -1.
       -1   -1    0    0    0  501  0.00000000000E+00  0.00000000000E+00 -0.17856015419E+04  0.17856015419E+04  0.50400001928E-02 0.  1.
    10030    2    1    2    0    0  0.00000000000E+00  0.00000000000E+00 -0.52071392194E+03  0.30504891619E+04  0.30057180737E+04 0.  0.
        2    1    3    3  502    0  0.12270658862E+04 -0.57883808220E+03  0.39567773101E+03  0.14132604436E+04  0.25500000920E-02 0. -1.
       -2    1    3    3    0  502 -0.12270658862E+04  0.57883808220E+03 -0.91639165295E+03  0.16372287183E+04  0.25500000920E-02 0.  1.
</event>
<event>
 5   0  0.6464436E-08  0.2999853E+04  0.7818609E-02  0.8243773E-01
       -1   -1    0    0    0  501  0.00000000000E+00  0.00000000000E+00  0.98331421220E+03  0.98331421221E+03  0.50400001928E-02 0. -1.
        1   -1    0    0  501    0  0.00000000000E+00  0.00000000000E+00 -0.22879557447E+04  0.22879557447E+04  0.50400001928E-02 0.  1.
    10030    2    1    2    0    0  0.00000000000E+00  0.00000000000E+00 -0.13046415325E+04  0.32712699569E+04  0.29998529302E+04 0.  0.
        5    1    3    3  502    0 -0.45186201623E+03  0.14156177369E+04 -0.87474716157E+03  0.17243426416E+04  0.46999998093E+01 0.  1.
       -5    1    3    3    0  502  0.45186201623E+03 -0.14156177369E+04 -0.42989437096E+03  0.15469273154E+04  0.46999998093E+01 0. -1.
</event>
<event>
 5   0  0.6464436E-08  0.2998477E+04  0.7818609E-02  0.8244166E-01
       -1   -1    0    0    0  501  0.00000000000E+00  0.00000000000E+00  0.10063332654E+04  0.10063332654E+04  0.50400001928E-02 0.  1.
        1   -1    0    0  501    0  0.00000000000E+00  0.00000000000E+00 -0.22335700694E+04  0.22335700694E+04  0.50400001928E-02 0. -1.
    10030    2    1    2    0    0  0.00000000000E+00  0.00000000000E+00 -0.12272368040E+04  0.32399033348E+04  0.29984768543E+04 0.  0.
        5    1    3    3  502    0  0.11336522222E+04 -0.22198956270E+03 -0.16462026361E+04  0.20110822798E+04  0.46999998093E+01 0. -1.
       -5    1    3    3    0  502 -0.11336522222E+04  0.22198956270E+03  0.41896583210E+03  0.12288210551E+04  0.46999998093E+01 0.  1.
</event>
<event>
 5   0  0.1821305E-07  0.3001755E+04  0.7818609E-02  0.8243230E-01
        2   -1    0    0  501    0  0.00000000000E+00  0.00000000000E+00  0.14257561866E+04  0.14257561866E+04  0.25500000920E-02 0.  1.
       -2   -1    0    0    0  501  0.00000000000E+00  0.00000000000E+00 -0.15799563979E+04  0.15799563979E+04  0.25500000920E-02 0. -1.
    10030    2    1    2    0    0  0.00000000000E+00  0.00000000000E+00 -0.15420021123E+03  0.30057125845E+04  0.30017545595E+04 0.  0.
        2    1    3    3  502    0  0.11647469852E+04 -0.66974448297E+03 -0.74689121898E+03  0.15372181709E+04  0.25500000920E-02 0. -1.
       -2    1    3    3    0  502 -0.11647469852E+04  0.66974448297E+03  0.59269100775E+03  0.14684944136E+04  0.25500000920E-02 0.  1.
</event>
<event>
 5   0  0.1821305E-07  0.3002507E+04  0.7818609E-02  0.8243015E-01
        2   -1    0    0  501    0  0.00000000000E+00  0.00000000000E+00  0.12031121028E+04  0.12031121028E+04  0.25500000920E-02 0. -1.
       -2   -1    0    0    0  501  0.00000000000E+00  0.00000000000E+00 -0.18732765534E+04  0.18732765534E+04  0.25500000920E-02 0.  1.
    10030    2    1    2    0    0  0.00000000000E+00  0.00000000000E+00 -0.67016445062E+03  0.30763886562E+04  0.30025067483E+04 0.  0.
        2    1    3    3  502    0 -0.12009876176E+04  0.59901079216E+02 -0.12559764531E+04  0.17388031078E+04  0.25500000920E-02 0.  1.
       -2    1    3    3    0  502  0.12009876176E+04 -0.59901079216E+02  0.58581200249E+03  0.13375855484E+04  0.25500000920E-02 0. -1.
</event>
<event>
 5   0  0.1813720E-07  0.2999883E+04  0.7818609E-02  0.8243764E-01
        2   -1    0    0  501    0  0.00000000000E+00  0.00000000000E+00  0.18261610180E+04  0.18261610180E+04  0.25500000920E-02 0. -1.
       -2   -1    0    0    0  501  0.00000000000E+00  0.00000000000E+00 -0.12319967533E+04  0.12319967533E+04  0.25500000920E-02 0.  1.
    10030    2    1    2    0    0  0.00000000000E+00  0.00000000000E+00  0.59416426465E+03  0.30581577713E+04  0.29998829612E+04 0.  0.
        3    1    3    3  502    0  0.19316157123E+03 -0.40024723918E+03 -0.11633373084E+04  0.12453364800E+04  0.10100000352E+00 0.  1.
       -3    1    3    3    0  502 -0.19316157123E+03  0.40024723918E+03  0.17575015730E+04  0.18128212914E+04  0.10100000352E+00 0. -1.
</event>
<event>
 5   0  0.1810055E-07  0.3002383E+04  0.7818609E-02  0.8243051E-01
       -2   -1    0    0    0  501  0.00000000000E+00  0.00000000000E+00  0.11931899565E+04  0.11931899565E+04  0.25500000920E-02 0. -1.
        2   -1    0    0  501    0  0.00000000000E+00  0.00000000000E+00 -0.18886982203E+04  0.18886982203E+04  0.25500000920E-02 0.  1.
    10030    2    1    2    0    0  0.00000000000E+00  0.00000000000E+00 -0.69550826385E+03  0.30818881768E+04  0.30023828851E+04 0.  0.
        4    1    3    3  502    0 -0.13512098126E+04 -0.65404933345E+03 -0.35295242606E+03  0.15421172187E+04  0.12699999809E+01 0.  1.
       -4    1    3    3    0  502  0.13512098126E+04  0.65404933345E+03 -0.34255583780E+03  0.15397709580E+04  0.12699999809E+01 0. -1.
</event>
<event>
 5   0  0.6374748E-08  0.2996101E+04  0.7818609E-02  0.8244845E-01
        1   -1    0    0  501    0  0.00000000000E+00  0.00000000000E+00  0.14659520016E+04  0.14659520016E+04  0.50400001928E-02 0. -1.
       -1   -1    0    0    0  501  0.00000000000E+00  0.00000000000E+00 -0.15308517617E+04  0.15308517617E+04  0.50400001928E-02 0.  1.
    10030    2    1    2    0    0  0.00000000000E+00  0.00000000000E+00 -0.64899760125E+02  0.29968037633E+04  0.29961009357E+04 0.  0.
        1    1    3    3  502    0  0.12829768502E+04 -0.11866687160E+03  0.73195696366E+03  0.14818476376E+04  0.50400001928E-02 0. -1.
       -1    1    3    3    0  502 -0.12829768502E+04  0.11866687160E+03 -0.79685672379E+03  0.15149561257E+04  0.50400001928E-02 0.  1.
</event>
<event>
 5   0  0.1810055E-07  0.2999640E+04  0.7818609E-02  0.8243834E-01
        2   -1    0    0  501    0  0.00000000000E+00  0.00000000000E+00  0.83531869559E+03  0.83531869559E+03  0.25500000920E-02 0. -1.
       -2   -1    0    0    0  501  0.00000000000E+00  0.00000000000E+00 -0.26929356896E+04  0.26929356896E+04  0.25500000920E-02 0.  1.
    10030    2    1    2    0    0  0.00000000000E+00  0.00000000000E+00 -0.18576169940E+04  0.35282543851E+04  0.29996396634E+04 0.  0.
        4    1    3    3  502    0  0.45883715417E+03 -0.53185471404E+02 -0.26071877702E+04  0.26477896273E+04  0.12699999809E+01 0.  1.
       -4    1    3    3    0  502 -0.45883715417E+03  0.53185471404E+02  0.74957077621E+03  0.88046475788E+03  0.12699999809E+01 0. -1.
</event>
<event>
 5   0  0.6525507E-08  0.3000432E+04  0.7818609E-02  0.8243608E-01
       -1   -1    0    0    0  501  0.00000000000E+00  0.00000000000E+00  0.11783405188E+04  0.11783405188E+04  0.50400001928E-02 0.  1.
        1   -1    0    0  501    0  0.00000000000E+00  0.00000000000E+00 -0.19100148151E+04  0.19100148151E+04  0.50400001928E-02 0. -1.
    10030    2    1    2    0    0  0.00000000000E+00  0.00000000000E+00 -0.73167429624E+03  0.30883553339E+04  0.30004318677E+04 0.  0.
        4    1    3    3  502    0 -0.29343584164E+03 -0.51792041589E+03  0.10515778554E+04  0.12083723554E+04  0.12699999809E+01 0.  1.
       -4    1    3    3    0  502  0.29343584164E+03  0.51792041589E+03 -0.17832521516E+04  0.18799829785E+04  0.12699999809E+01 0. -1.
</event>
<event>
 5   0  0.1817566E-07  0.2998558E+04  0.7818609E-02  0.8244143E-01
        2   -1    0    0  501    0  0.00000000000E+00  0.00000000000E+00  0.13330841397E+04  0.13330841397E+04  0.25500000920E-02 0.  1.
       -2   -1    0    0    0  501  0.00000000000E+00  0.00000000000E+00 -0.16861928174E+04  0.16861928175E+04  0.25500000920E-02 0. -1.
    10030    2    1    2    0    0  0.00000000000E+00  0.00000000000E+00 -0.35310867774E+03  0.30192769572E+04  0.29985575875E+04 0.  0.
        1    1    3    3  502    0  0.83946996185E+02 -0.62898556991E+03 -0.15443095965E+04  0.16695993756E+04  0.50400001928E-02 0. -1.
       -1    1    3    3    0  502 -0.83946996185E+02  0.62898556991E+03  0.11912009187E+04  0.13496775815E+04  0.50400001928E-02 0.  1.
</event>
<event>
 5   0  0.6679022E-08  0.3000700E+04  0.7818609E-02  0.8243531E-01
        1   -1    0    0  501    0  0.00000000000E+00  0.00000000000E+00  0.12697127694E+04  0.12697127694E+04  0.50400001928E-02 0.  1.
       -1   -1    0    0    0  501  0.00000000000E+00  0.00000000000E+00 -0.17728812758E+04  0.17728812758E+04  0.50400001928E-02 0. -1.
    10030    2    1    2    0    0  0.00000000000E+00  0.00000000000E+00 -0.50316850637E+03  0.30425940453E+04  0.30006999148E+04 0.  0.
        3    1    3    3  502    0 -0.14118474991E+04  0.49127184066E+03 -0.12177896026E+03  0.14998304930E+04  0.10100000352E+00 0.  1.
       -3    1    3    3    0  502  0.14118474991E+04 -0.49127184066E+03 -0.38138954611E+03  0.15427635523E+04  0.10100000352E+00 0. -1.
</event>
<event>
 5   0  0.1813720E-07  0.3000460E+04  0.7818609E-02  0.8243599E-01
       -2   -1    0    0    0  501  0.00000000000E+00  0.00000000000E+00  0.17353888735E+04  0.17353888735E+04  0.25500000920E-02 0. -1.
        2   -1    0    0  501    0  0.00000000000E+00  0.00000000000E+00 -0.12969372667E+04  0.12969372667E+04  0.25500000920E-02 0.  1.
    10030    2    1    2    0    0  0.00000000000E+00  0.00000000000E+00  0.43845160681E+03  0.30323261401E+04  0.30004602995E+04 0.  0.
        3    1    3    3  502    0  0.76051426683E+03  0.74958675214E+03 -0.84573414425E+03  0.13621778526E+04  0.10100000352E+00 0.  1.
       -3    1    3    3    0  502 -0.76051426683E+03 -0.74958675214E+03  0.12841857511E+04  0.16701482876E+04  0.10100000352E+00 0. -1.
</event>
<event>
 5   0  0.6464436E-08  0.3005807E+04  0.7818609E-02  0.8242075E-01
       -1   -1    0    0    0  501  0.00000000000E+00  0.00000000000E+00  0.17111735748E+04  0.17111735748E+04  0.50400001928E-02 0.  1.
        1   -1    0    0  501    0  0.00000000000E+00  0.00000000000E+00 -0.13199822110E+04  0.13199822110E+04  0.50400001928E-02 0. -1.
    10030    2    1    2    0    0  0.00000000000E+00  0.00000000000E+00  0.39119136378E+03  0.30311557858E+04  0.30058068326E+04 0.  0.
        5    1    3    3  502    0 -0.39455483410E+03  0.97707552727E+03 -0.88505084731E+03  0.13761130751E+04  0.46999998093E+01 0. -1.
       -5    1    3    3    0  502  0.39455483410E+03 -0.97707552727E+03  0.12762422111E+04  0.16550427108E+04  0.46999998093E+01 0.  1.
</event>
<event>
 5   0  0.1817566E-07  0.3000750E+04  0.7818609E-02  0.8243517E-01
        2   -1    0    0  501    0  0.00000000000E+00  0.00000000000E+00  0.68440574184E+03  0.68440574184E+03  0.25500000920E-02 0.  1.
       -2   -1    0    0    0  501  0.00000000000E+00  0.00000000000E+00 -0.32891681906E+04  0.32891681906E+04  0.25500000920E-02 0. -1.
    10030    2    1    2    0    0  0.00000000000E+00  0.00000000000E+00 -0.26047624487E+04  0.39735739324E+04  0.30007503032E+04 0.  0.
        1    1    3    3  502    0 -0.11528099520E+04 -0.29545028388E+02 -0.25733875413E+04  0.28199587110E+04  0.50400001928E-02 0. -1.
       -1    1    3    3    0  502  0.11528099520E+04  0.29545028388E+02 -0.31374907389E+02  0.11536152214E+04  0.50400001928E-02 0.  1.
</event>
<event>
 5   0  0.1813720E-07  0.3001367E+04  0.7818609E-02  0.8243341E-01
       -2   -1    0    0    0  501  0.00000000000E+00  0.00000000000E+00  0.22675454002E+04  0.22675454002E+04  0.25500000920E-02 0.  1.
        2   -1    0    0  501    0  0.00000000000E+00  0.00000000000E+00 -0.99316688230E+03  0.99316688231E+03  0.25500000920E-02 0. -1.
    10030    2    1    2    0    0  0.00000000000E+00  0.00000000000E+00  0.12743785179E+04  0.32607122825E+04  0.30013670190E+04 0.  0.
        3    1    3    3  502    0  0.36304927658E+03  0.85761978710E+03 -0.64123979261E+03  0.11307099355E+04  0.10100000352E+00 0. -1.
       -3    1    3    3    0  502 -0.36304927658E+03 -0.85761978710E+03  0.19156183105E+04  0.21300023470E+04  0.10100000352E+00 0.  1.
</event>
<event>
 5   0  0.6464436E-08  0.2999991E+04  0.7818609E-02  0.8243734E-01
        1   -1    0    0  501    0  0.00000000000E+00  0.00000000000E+00  0.23447057713E+04  0.23447057713E+04  0.50400001928E-02 0. -1.
       -1   -1    0    0    0  501  0.00000000000E+00  0.00000000000E+00 -0.95960278849E+03  0.95960278850E+03  0.50400001928E-02 0.  1.
    10030    2    1    2    0    0  0.00000000000E+00  0.00000000000E+00  0.13851029828E+04  0.33043085598E+04  0.29999907976E+04 0.  0.
        5    1    3    3  502    0 -0.58770427226E+03  0.13794194108E+04  0.73888904083E+03  0.16715780948E+04  0.46999998093E+01 0. -1.
       -5    1    3    3    0  502  0.58770427226E+03 -0.13794194108E+04  0.64621394201E+03  0.16327304650E+04  0.46999998093E+01 0.  1.
</event>
<event>
 5   0  0.6525507E-08  0.2999750E+04  0.7818609E-02  0.8243802E-01
        1   -1    0    0  501    0  0.00000000000E+00  0.00000000000E+00  0.19715717483E+04  0.19715717483E+04  0.50400001928E-02 0.  1.
       -1   -1    0    0    0  501  0.00000000000E+00  0.00000000000E+00 -0.11410316258E+04  0.11410316258E+04  0.50400001928E-02 0. -1.
    10030    2    1    2    0    0  0.00000000000E+00  0.00000000000E+00  0.83054012246E+03  0.31126033741E+04  0.29997504679E+04 0.  0.
        4    1    3    3  502    0 -0.89013906342E+03  0.34260389849E+03 -0.78581759937E+03  0.12358138597E+04  0.12699999809E+01 0. -1.
       -4    1    3    3    0  502  0.89013906342E+03 -0.34260389849E+03  0.16163577218E+04  0.18767895144E+04  0.12699999809E+01 0.  1.
</event>
<event>
 5   0  0.6636007E-08  0.3001391E+04  0.7818609E-02  0.8243334E-01
       -1   -1    0    0    0  501  0.00000000000E+00  0.00000000000E+00  0.14817641221E+04  0.14817641221E+04  0.50400001928E-02 0.  1.
        1   -1    0    0  501    0  0.00000000000E+00  0.00000000000E+00 -0.15198690463E+04  0.15198690463E+04  0.50400001928E-02 0. -1.
    10030    2    1    2    0    0  0.00000000000E+00  0.00000000000E+00 -0.38104924192E+02  0.30016331684E+04  0.30013912927E+04 0.  0.
        2    1    3    3  502    0  0.13996930915E+04  0.69233194312E+02 -0.55589497398E+03  0.15076316552E+04  0.25500000920E-02 0. -1.
       -2    1    3    3    0  502 -0.13996930915E+04 -0.69233194312E+02  0.51779004979E+03  0.14940015132E+04  0.25500000920E-02 0.  1.
</event>
<event>
 5   0  0.1810055E-07  0.3001259E+04  0.7818609E-02  0.8243371E-01
        2   -1    0    0  501    0  0.00000000000E+00  0.00000000000E+00  0.13949589042E+04  0.13949589042E+04  0.25500000920E-02 0. -1.
       -2   -1    0    0    0  501  0.00000000000E+00  0.00000000000E+00 -0.16143050112E+04  0.16143050112E+04  0.25500000920E-02 0.  1.
    10030    2    1    2    0    0  0.00000000000E+00  0.00000000000E+00 -0.21934610700E+03  0.30092639153E+04  0.30012591687E+04 0.  0.
        4    1    3    3  502    0  0.13544194561E+04 -0.17367722162E+03  0.51429830676E+03  0.14591505069E+04  0.12699999809E+01 0. -1.
       -4    1    3    3    0  502 -0.13544194561E+04  0.17367722162E+03 -0.73364441376E+03  0.15501134085E+04  0.12699999809E+01 0.  1.
</event>
<event>
 5   0  0.1817566E-07  0.2997492E+04  0.7818609E-02  0.8244447E-01
        2   -1    0    0  501    0  0.00000000000E+00  0.00000000000E+00  0.21006547024E+04  0.21006547024E+04  0.25500000920E-02 0. -1.
       -2   -1    0    0    0  501  0.00000000000E+00  0.00000000000E+00 -0.10693046951E+04  0.10693046951E+04  0.25500000920E-02 0.  1.
    10030    2    1    2    0    0  0.00000000000E+00  0.00000000000E+00  0.10313500073E+04  0.31699593975E+04  0.29974922426E+04 0.  0.
        1    1    3    3  502    0 -0.91619183981E+03  0.35776132773E+03 -0.68024909038E+03  0.11958843924E+04  0.50400001928E-02 0.  1.
       -1    1    3    3    0  502  0.91619183981E+03 -0.35776132773E+03  0.17115990976E+04  0.19740750052E+04  0.50400001928E-02 0. -1.
</event>
<event>
 5   0  0.6374748E-08  0.2999177E+04  0.7818609E-02  0.8243966E-01
        1   -1    0    0  501    0  0.00000000000E+00  0.00000000000E+00  0.17717640165E+04  0.17717640165E+04  0.50400001928E-02 0.  1.
       -1   -1    0    0    0  501  0.00000000000E+00  0.00000000000E+00 -0.12692239755E+04  0.12692239755E+04  0.50400001928E-02 0. -1.
    10030    2    1    2    0    0  0.00000000000E+00  0.00000000000E+00  0.50254004101E+03  0.30409879920E+04  0.29991767995E+04 0.  0.
        1    1    3    3  502    0 -0.97693972405E+02  0.14492033357E+04  0.62933667965E+03  0.15829715970E+04  0.50400001928E-02 0.  1.
       -1    1    3    3    0  502  0.97693972405E+02 -0.14492033357E+04 -0.12679663864E+03  0.14580163950E+04  0.50400001928E-02 0. -1.
</event>
<event>
 5   0  0.1914439E-07  0.3002786E+04  0.7818609E-02  0.8242936E-01
       -2   -1    0    0    0  501  0.00000000000E+00  0.00000000000E+00  0.13117231615E+04  0.13117231615E+04  0.25500000920E-02 0.  1.
        2   -1    0    0  501    0  0.00000000000E+00  0.00000000000E+00 -0.17184883943E+04  0.17184883943E+04  0.25500000920E-02 0. -1.
    10030    2    1    2    0    0  0.00000000000E+00  0.00000000000E+00 -0.40676523272E+03  0.30302115558E+04  0.30027860594E+04 0.  0.
        5    1    3    3  502    0 -0.78035460876E+03 -0.66689520492E+03  0.90227778674E+03  0.13666857079E+04  0.46999998093E+01 0.  1.
       -5    1    3    3    0  502  0.78035460876E+03  0.66689520492E+03 -0.13090430195E+04  0.16635258479E+04  0.46999998093E+01 0. -1.
</event>
<event>
 5   0  0.6525507E-08  0.2998980E+04  0.7818609E-02  0.8244022E-01
       -1   -1    0    0    0  501  0.00000000000E+00  0.00000000000E+00  0.11206085219E+04  0.11206085220E+04  0.50400001928E-02 0. -1.
        1   -1    0    0  501    0  0.00000000000E+00  0.00000000000E+00 -0.20064726643E+04  0.20064726644E+04  0.50400001928E-02 0.  1.
    10030    2    1    2    0    0  0.00000000000E+00  0.00000000000E+00 -0.88586414240E+03  0.31270811863E+04  0.29989800711E+04 0.  0.
        4    1    3    3  502    0 -0.88193944142E+01 -0.77839596482E+03  0.89340813679E+03  0.11849716332E+04  0.12699999809E+01 0. -1.
       -4    1    3    3    0  502  0.88193944142E+01  0.77839596482E+03 -0.17792722792E+04  0.19421095531E+04  0.12699999809E+01 0.  1.
</event>
<event>
 5   0  0.6679022E-08  0.2999623E+04  0.7818609E-02  0.8243839E-01
        1   -1    0    0  501    0  0.00000000000E+00  0.00000000000E+00  0.27580069836E+04  0.27580069836E+04  0.50400001928E-02 0. -1.
       -1   -1    0    0    0  501  0.00000000000E+00  0.00000000000E+00 -0.81560139834E+03  0.81560139836E+03  0.50400001928E-02 0.  1.
    10030    2    1    2    0    0  0.00000000000E+00  0.00000000000E+00  0.19424055853E+04  0.35736083820E+04  0.29996228780E+04 0.  0.
        3    1    3    3  502    0  0.53372621390E+03  0.11766961101E+04  0.63929401377E+02  0.12936631654E+04  0.10100000352E+00 0.  1.
       -3    1    3    3    0  502 -0.53372621390E+03 -0.11766961101E+04  0.18784761839E+04  0.22799452166E+04  0.10100000352E+00 0. -1.
</event>
<event>
 5   0  0.6636007E-08  0.2998372E+04  0.7818609E-02  0.8244196E-01
        1   -1    0    0  501    0  0.00000000000E+00  0.00000000000E+00  0.13941663482E+04  0.13941663482E+04  0.50400001928E-02 0.  1.
       -1   -1    0    0    0  501  0.00000000000E+00  0.00000000000E+00 -0.16121164298E+04  0.16121164298E+04  0.50400001928E-02 0. -1.
    10030    2    1    2    0    0  0.00000000000E+00  0.00000000000E+00 -0.21795008158E+03  0.30062827780E+04  0.29983718754E+04 0.  0.
        2    1    3    3  502    0  0.54030863332E+03  0.77299588735E+03  0.10594761999E+04  0.14184307806E+04  0.25500000920E-02 0.  1.
       -2    1    3    3    0  502 -0.54030863332E+03 -0.77299588735E+03 -0.12774262815E+04  0.15878519974E+04  0.25500000920E-02 0. -1.
</event>
<event>
 5   0  0.1810055E-07  0.2997522E+04  0.7818609E-02  0.8244439E-01
       -2   -1    0    0    0  501  0.00000000000E+00  0.00000000000E+00  0.22740623063E+04  0.22740623063E+04  0.25500000920E-02 0.  1.
        2   -1    0    0  501    0  0.00000000000E+00  0.00000000000E+00 -0.98778513352E+03  0.98778513353E+03  0.25500000920E-02 0. -1.
    10030    2    1    2    0    0  0.00000000000E+00  0.00000000000E+00  0.12862771728E+04  0.32618474399E+04  0.29975222694E+04 0.  0.
        4    1    3    3  502    0 -0.10970146652E+04 -0.65176046039E+03  0.14986251462E+04  0.19682763564E+04  0.12699999809E+01 0.  1.
       -4    1    3    3    0  502  0.10970146652E+04  0.65176046039E+03 -0.21234797342E+03  0.12935710835E+04  0.12699999809E+01 0. -1.
</event>
<event>
 5   0  0.6374748E-08  0.3000886E+04  0.7818609E-02  0.8243478E-01
        1   -1    0    0  501    0  0.00000000000E+00  0.00000000000E+00  0.19008477023E+04  0.19008477023E+04  0.50400001928E-02 0.  1.
       -1   -1    0    0    0  501  0.00000000000E+00  0.00000000000E+00 -0.11843814819E+04  0.11843814819E+04  0.50400001928E-02 0. -1.
    10030    2    1    2    0    0  0.00000000000E+00  0.00000000000E+00  0.71646622043E+03  0.30852291842E+04  0.30008857482E+04 0.  0.
        1    1    3    3  502    0 -0.61380789625E+03  0.13629961341E+04  0.49153144118E+03  0.15735697483E+04  0.50400001928E-02 0. -1.
       -1    1    3    3    0  502  0.61380789625E+03 -0.13629961341E+04  0.22493477925E+03  0.15116594359E+04  0.50400001928E-02 0.  1.
</event>
<event>
 5   0  0.6679022E-08  0.2999493E+04  0.7818609E-02  0.8243876E-01
       -1   -1    0    0    0  501  0.00000000000E+00  0.00000000000E+00  0.16705836666E+04  0.16705836666E+04  0.50400001928E-02 0.  1.
        1   -1    0    0  501    0  0.00000000000E+00  0.00000000000E+00 -0.13463798625E+04  0.13463798625E+04  0.50400001928E-02 0. -1.
    10030    2    1    2    0    0  0.00000000000E+00  0.00000000000E+00  0.32420380411E+03  0.30169635292E+04  0.29994934288E+04 0.  0.
        3    1    3    3  502    0 -0.58983692764E+03  0.38597115426E+03 -0.11693751023E+04  0.13654008471E+04  0.10100000352E+00 0. -1.
       -3    1    3    3    0  502  0.58983692764E+03 -0.38597115426E+03  0.14935789064E+04  0.16515626821E+04  0.10100000352E+00 0.  1.
</event>
<event>
 5   0  0.1821305E-07  0.2997293E+04  0.7818609E-02  0.8244504E-01
       -2   -1    0    0    0  501  0.00000000000E+00  0.00000000000E+00  0.11772996223E+04  0.11772996223E+04  0.25500000920E-02 0. -1.
        2   -1    0    0  501    0  0.00000000000E+00  0.00000000000E+00 -0.19077058041E+04  0.19077058041E+04  0.25500000920E-02 0.  1.
    10030    2    1    2    0    0  0.00000000000E+00  0.00000000000E+00 -0.73040618183E+03  0.30850054265E+04  0.29972929938E+04 0.  0.
        2    1    3    3  502    0  0.18861924361E+03 -0.10812589760E+03 -0.18913876133E+04  0.19038423077E+04  0.25500000920E-02 0.  1.
       -2    1    3    3    0  502 -0.18861924361E+03  0.10812589760E+03  0.11609814315E+04  0.11811631187E+04  0.25500000920E-02 0. -1.
</event>
<event>
 5   0  0.1810055E-07  0.2999809E+04  0.7818609E-02  0.8243785E-01
        2   -1    0    0  501    0  0.00000000000E+00  0.00000000000E+00  0.16249257640E+04  0.16249257640E+04  0.25500000920E-02 0.  1.
       -2   -1    0    0    0  501  0.00000000000E+00  0.00000000000E+00 -0.13845026709E+04  0.13845026709E+04  0.25500000920E-02 0. -1.
    10030    2    1    2    0    0  0.00000000000E+00  0.00000000000E+00  0.24042309309E+03  0.30094284350E+04  0.29998093675E+04 0.  0.
        4    1    3    3  502    0  0.41956673710E+03  0.10643836328E+04 -0.85282832184E+03  0.14269781092E+04  0.12699999809E+01 0. -1.
       -4    1    3    3    0  502 -0.41956673710E+03 -0.10643836328E+04  0.10932514149E+04  0.15824503258E+04  0.12699999809E+01 0.  1.
</event>
<event>
 5   0  0.6464436E-08  0.2999909E+04  0.7818609E-02  0.8243757E-01
       -1   -1    0    0    0  501  0.00000000000E+00  0.00000000000E+00  0.94368270384E+03  0.94368270385E+03  0.50400001928E-02 0. -1.
        1   -1    0    0  501    0  0.00000000000E+00  0.00000000000E+00 -0.23841318566E+04  0.23841318566E+04  0.50400001928E-02 0.  1.
    10030    2    1    2    0    0  0.00000000000E+00  0.00000000000E+00 -0.14404491528E+04  0.33278145605E+04  0.29999093298E+04 0.  0.
        5    1    3    3  502    0 -0.13733366760E+04  0.59297736943E+03 -0.84258107682E+03  0.17168694613E+04  0.46999998093E+01 0.  1.
       -5    1    3    3    0  502  0.13733366760E+04 -0.59297736943E+03 -0.59786807594E+03  0.16109450991E+04  0.46999998093E+01 0. -1.
</event>
<event>
 5   0  0.1810055E-07  0.2998084E+04  0.7818609E-02  0.8244278E-01
        2   -1    0    0  501    0  0.00000000000E+00  0.00000000000E+00  0.22284156363E+04  0.22284156363E+04  0.25500000920E-02 0.  1.
       -2   -1    0    0    0  501  0.00000000000E+00  0.00000000000E+00 -0.10083967245E+04  0.10083967245E+04  0.25500000920E-02 0. -1.
    10030    2    1    2    0    0  0.00000000000E+00  0.00000000000E+00  0.12200189118E+04  0.32368123608E+04  0.29980840738E+04 0.  0.
        4    1    3    3  502    0 -0.92762755561E+02 -0.14198206500E+04  0.11194170006E+04  0.18104120087E+04  0.12699999809E+01 0.  1.
       -4    1    3    3    0  502  0.92762755561E+02  0.14198206500E+04  0.10060191115E+03  0.14264003521E+04  0.12699999809E+01 0. -1.
</event>
<event>
 5   0  0.6636007E-08  0.2995582E+04  0.7818609E-02  0.8244994E-01
       -1   -1    0    0    0  501  0.00000000000E+00  0.00000000000E+00  0.17789928080E+04  0.17789928080E+04  0.50400001928E-02 0.  1.
        1   -1    0    0  501    0  0.00000000000E+00  0.00000000000E+00 -0.12610383970E+04  0.12610383970E+04  0.50400001928E-02 0. -1.
    10030    2    1    2    0    0  0.00000000000E+00  0.00000000000E+00  0.51795441105E+03  0.30400312050E+04  0.29955822398E+04 0.  0.
        2    1    3    3  502    0  0.35132709332E+03  0.11213589345E+04  0.12014672302E+04  0.16805951600E+04  0.25500000920E-02 0.  1.
       -2    1    3    3    0  502 -0.35132709332E+03 -0.11213589345E+04 -0.68351281917E+03  0.13594360450E+04  0.25500000920E-02 0. -1.
</event>
<event>
 5   0  0.1914439E-07  0.3000289E+04  0.7818609E-02  0.8243648E-01
        2   -1    0    0  501    0  0.00000000000E+00  0.00000000000E+00  0.20357807444E+04  0.20357807444E+04  0.25500000920E-02 0.  1.
       -2   -1    0    0    0  501  0.00000000000E+00  0.00000000000E+00 -0.11054402903E+04  0.11054402904E+04  0.25500000920E-02 0. -1.
    10030    2    1    2    0    0  0.00000000000E+00  0.00000000000E+00  0.93034045409E+03  0.31412210348E+04  0.30002893575E+04 0.  0.
        5    1    3    3  502    0 -0.92969475621E+03 -0.64523247782E+03  0.14961883444E+04  0.18759688010E+04  0.46999998093E+01 0.  1.
       -5    1    3    3    0  502  0.92969475621E+03  0.64523247782E+03 -0.56584789036E+03  0.12652522338E+04  0.46999998093E+01 0. -1.
</event>
<event>
 5   0  0.6525507E-08  0.2999694E+04  0.7818609E-02  0.8243818E-01
       -1   -1    0    0    0  501  0.00000000000E+00  0.00000000000E+00  0.96105629309E+03  0.96105629311E+03  0.50400001928E-02 0. -1.
        1   -1    0    0  501    0  0.00000000000E+00  0.00000000000E+00 -0.23406959421E+04  0.23406959421E+04  0.50400001928E-02 0.  1.
    10030    2    1    2    0    0  0.00000000000E+00  0.00000000000E+00 -0.13796396490E+04  0.33017522352E+04  0.29996936946E+04 0.  0.
        4    1    3    3  502    0  0.55466572691E+03 -0.88656619355E+03  0.49356210895E+03  0.11563990887E+04  0.12699999809E+01 0. -1.
       -4    1    3    3    0  502 -0.55466572691E+03  0.88656619355E+03 -0.18732017580E+04  0.21453531465E+04  0.12699999809E+01 0.  1.
</event>
<event>
 5   0  0.1813720E-07  0.3001237E+04  0.7818609E-02  0.8243378E-01
        2   -1    0    0  501    0  0.00000000000E+00  0.00000000000E+00  0.86807186418E+03  0.86807186418E+03  0.25500000920E-02 0. -1.
       -2   -1    0    0    0  501  0.00000000000E+00  0.00000000000E+00 -0.25940897619E+04  0.25940897619E+04  0.25500000920E-02 0.  1.
    10030    2    1    2    0    0  0.00000000000E+00  0.00000000000E+00 -0.17260178977E+04  0.34621616261E+04  0.30012373018E+04 0.  0.
        3    1    3    3  502    0 -0.46939079003E+02 -0.91436064877E+03  0.50853557485E+03  0.10473142385E+04  0.10100000352E+00 0. -1.
       -3    1    3    3    0  502  0.46939079003E+02  0.91436064877E+03 -0.22345534726E+04  0.24148473875E+04  0.10100000352E+00 0.  1.
</event>
<event>
 5   0  0.6636007E-08  0.2998726E+04  0.7818609E-02  0.8244095E-01
        1   -1    0    0  501    0  0.00000000000E+00  0.00000000000E+00  0.11655668411E+04  0.11655668411E+04  0.50400001928E-02 0.  1.
       -1   -1    0    0    0  501  0.00000000000E+00  0.00000000000E+00 -0.19287514466E+04  0.19287514466E+04  0.50400001928E-02 0. -1.
    10030    2    1    2    0    0  0.00000000000E+00  0.00000000000E+00 -0.76318460547E+03  0.30943182877E+04  0.29987255499E+04 0.  0.
        2    1    3    3  502    0 -0.34792562652E+03 -0.34750225452E+03  0.10799920748E+04  0.11866730552E+04  0.25500000920E-02 0.  1.
       -2    1    3    3    0  502  0.34792562652E+03  0.34750225452E+03 -0.18431766802E+04  0.19076452325E+04  0.25500000920E-02 0. -1.
</event>
<event>
 5   0  0.1821305E-07  0.3001472E+04  0.7818609E-02  0.8243311E-01
       -2   -1    0    0    0  501  0.00000000000E+00  0.00000000000E+00  0.92874012276E+03  0.92874012277E+03  0.25500000920E-02 0.  1.
        2   -1    0    0  501    0  0.00000000000E+00  0.00000000000E+00 -0.24250140502E+04  0.24250140502E+04  0.25500000920E-02 0. -1.
    10030    2    1    2    0    0  0.00000000000E+00  0.00000000000E+00 -0.14962739275E+04  0.33537541730E+04  0.30014715369E+04 0.  0.
        2    1    3    3  502    0  0.52466595684E+03 -0.10542743997E+04 -0.17876147684E+04  0.21406390252E+04  0.25500000920E-02 0. -1.
       -2    1    3    3    0  502 -0.52466595684E+03  0.10542743997E+04  0.29134084090E+03  0.12131151478E+04  0.25500000920E-02 0.  1.
</event>
<event>
 5   0  0.6017625E-08  0.3010468E+04  0.7818609E-02  0.8240748E-01
       -3   -1    0    0    0  501  0.00000000000E+00  0.00000000000E+00  0.17171761918E+04  0.17171761948E+04  0.10100000352E+00 0. -1.
        3   -1    0    0  501    0  0.00000000000E+00  0.00000000000E+00 -0.13194504073E+04  0.13194504111E+04  0.10100000352E+00 0.  1.
    10030    2    1    2    0    0  0.00000000000E+00  0.00000000000E+00  0.39772578455E+03  0.30366266059E+04  0.30104676288E+04 0.  0.
        1    1    3    3  502    0  0.92893335831E+03  0.22082373610E+03  0.13726100298E+04  0.16720462315E+04  0.50400001928E-02 0. -1.
       -1    1    3    3    0  502 -0.92893335831E+03 -0.22082373610E+03 -0.97488424520E+03  0.13645803744E+04  0.50400001928E-02 0.  1.
</event>
<event>
 5   0  0.1810055E-07  0.3001618E+04  0.7818609E-02  0.8243269E-01
        2   -1    0    0  501    0  0.00000000000E+00  0.00000000000E+00  0.11389240065E+04  0.11389240065E+04  0.25500000920E-02 0. -1.
       -2   -1    0    0    0  501  0.00000000000E+00  0.00000000000E+00 -0.19776804910E+04  0.19776804910E+04  0.25500000920E-02 0.  1.
    10030    2    1    2    0    0  0.00000000000E+00  0.00000000000E+00 -0.83875648449E+03  0.31166044975E+04  0.30016180892E+04 0.  0.
        4    1    3    3  502    0  0.85620346480E+03 -0.11426365635E+04  0.60634077490E+02  0.14291188871E+04  0.12699999809E+01 0.  1.
       -4    1    3    3    0  502 -0.85620346480E+03  0.11426365635E+04 -0.89939056198E+03  0.16874856104E+04  0.12699999809E+01 0. -1.
</event>
<event>
 5   0  0.1914439E-07  0.3000384E+04  0.7818609E-02  0.8243621E-01
       -2   -1    0    0    0  501  0.00000000000E+00  0.00000000000E+00  0.21850407812E+04  0.21850407812E+04  0.25500000920E-02 0.  1.
        2   -1    0    0  501    0  0.00000000000E+00  0.00000000000E+00 -0.10299923919E+04  0.10299923919E+04  0.25500000920E-02 0. -1.
    10030    2    1    2    0    0  0.00000000000E+00  0.00000000000E+00  0.11550483893E+04  0.32150331731E+04  0.30003835625E+04 0.  0.
        5    1    3    3  502    0  0.82878897993E+03  0.11843258271E+04  0.10075238243E+04  0.17620003361E+04  0.46999998093E+01 0.  1.
       -5    1    3    3    0  502 -0.82878897993E+03 -0.11843258271E+04  0.14752456498E+03  0.14530328369E+04  0.46999998093E+01 0. -1.
</event>
<event>
 5   0  0.6525507E-08  0.3006362E+04  0.7818609E-02  0.8241916E-01
        1   -1    0    0  501    0  0.00000000000E+00  0.00000000000E+00  0.21148271305E+04  0.21148271305E+04  0.50400001928E-02 0. -1.
       -1   -1    0    0    0  501  0.00000000000E+00  0.00000000000E+00 -0.10684341703E+04  0.10684341703E+04  0.50400001928E-02 0.  1.
    10030    2    1    2    0    0  0.00000000000E+00  0.00000000000E+00  0.10463929602E+04  0.31832613008E+04  0.30063623005E+04 0.  0.
        4    1    3    3  502    0  0.53547459559E+03  0.38818473890E+03 -0.90609509425E+03  0.11217978279E+04  0.12699999809E+01 0.  1.
       -4    1    3    3    0  502 -0.53547459559E+03 -0.38818473890E+03  0.19524880545E+04  0.20614634728E+04  0.12699999809E+01 0. -1.
</event>
<event>
 5   0  0.6636007E-08  0.3000455E+04  0.7818609E-02  0.8243601E-01
        1   -1    0    0  501    0  0.00000000000E+00  0.00000000000E+00  0.21478975026E+04  0.21478975026E+04  0.50400001928E-02 0. -1.
       -1   -1    0    0    0  501  0.00000000000E+00  0.00000000000E+00 -0.10478539880E+04  0.10478539880E+04  0.50400001928E-02 0.  1.
    10030    2    1    2    0    0  0.00000000000E+00  0.00000000000E+00  0.11000435146E+04  0.31957514906E+04  0.30004552747E+04 0.  0.
        2    1    3    3  502    0 -0.83849418508E+03 -0.68040555764E+03  0.16592793325E+04  0.19797050600E+04  0.25500000920E-02 0. -1.
       -2    1    3    3    0  502  0.83849418508E+03  0.68040555764E+03 -0.55923581792E+03  0.12160464306E+04  0.25500000920E-02 0.  1.
</event>
<event>
 5   0  0.1914439E-07  0.2996778E+04  0.7818609E-02  0.8244652E-01
        2   -1    0    0  501    0  0.00000000000E+00  0.00000000000E+00  0.30093557444E+04  0.30093557444E+04  0.25500000920E-02 0.  1.
       -2   -1    0    0    0  501  0.00000000000E+00  0.00000000000E+00 -0.74606311636E+03  0.74606311636E+03  0.25500000920E-02 0. -1.
    10030    2    1    2    0    0  0.00000000000E+00  0.00000000000E+00  0.22632926280E+04  0.37554188607E+04  0.29967778195E+04 0.  0.
        5    1    3    3  502    0 -0.89618126314E+02  0.77471868801E+03 -0.47166724164E+03  0.91143432619E+03  0.46999998093E+01 0. -1.
       -5    1    3    3    0  502  0.89618126314E+02 -0.77471868801E+03  0.27349598696E+04  0.28439845345E+04  0.46999998093E+01 0.  1.
</event>
<event>
 5   0  0.6679022E-08  0.2994141E+04  0.7818609E-02  0.8245406E-01
        1   -1    0    0  501    0  0.00000000000E+00  0.00000000000E+00  0.13832865801E+04  0.13832865801E+04  0.50400001928E-02 0. -1.
       -1   -1    0    0    0  501  0.00000000000E+00  0.00000000000E+00 -0.16202138394E+04  0.16202138394E+04  0.50400001928E-02 0.  1.
    10030    2    1    2    0    0  0.00000000000E+00  0.00000000000E+00 -0.23692725932E+03  0.30035004195E+04  0.29941409860E+04 0.  0.
        3    1    3    3  502    0 -0.11565064260E+04 -0.79219458589E+03  0.40866990090E+03  0.14601679606E+04  0.10100000352E+00 0. -1.
       -3    1    3    3    0  502  0.11565064260E+04  0.79219458589E+03 -0.64559716022E+03  0.15433324589E+04  0.10100000352E+00 0.  1.
</event>
<event>
 5   0  0.1817566E-07  0.2998613E+04  0.7818609E-02  0.8244127E-01
       -2   -1    0    0    0  501  0.00000000000E+00  0.00000000000E+00  0.18548625147E+04  0.18548625147E+04  0.25500000920E-02 0. -1.
        2   -1    0    0  501    0  0.00000000000E+00  0.00000000000E+00 -0.12119064157E+04  0.12119064157E+04  0.25500000920E-02 0.  1.
    10030    2    1    2    0    0  0.00000000000E+00  0.00000000000E+00  0.64295609897E+03  0.30667689303E+04  0.29986128671E+04 0.  0.
        1    1    3    3  502    0 -0.11476215953E+04  0.94084939712E+03  0.10287493430E+03  0.14875537523E+04  0.50400001928E-02 0.  1.
       -1    1    3    3    0  502  0.11476215953E+04 -0.94084939712E+03  0.54008116467E+03  0.15792151780E+04  0.50400001928E-02 0. -1.
</event>
<event>
 5   0  0.6374748E-08  0.2998721E+04  0.7818609E-02  0.8244096E-01
       -1   -1    0    0    0  501  0.00000000000E+00  0.00000000000E+00  0.14330381699E+04  0.14330381699E+04  0.50400001928E-02 0.  1.
        1   -1    0    0  501    0  0.00000000000E+00  0.00000000000E+00 -0.15687522432E+04  0.15687522432E+04  0.50400001928E-02 0. -1.
    10030    2    1    2    0    0  0.00000000000E+00  0.00000000000E+00 -0.13571407329E+03  0.30017904130E+04  0.29987209564E+04 0.  0.
        1    1    3    3  502    0 -0.10460233706E+04 -0.84384561349E+03  0.59753497048E+03  0.14708121404E+04  0.50400001928E-02 0.  1.
       -1    1    3    3    0  502  0.10460233706E+04  0.84384561349E+03 -0.73324904377E+03  0.15309782727E+04  0.50400001928E-02 0. -1.
</event>
<event>
 5   0  0.1817566E-07  0.3000604E+04  0.7818609E-02  0.8243558E-01
        2   -1    0    0  501    0  0.00000000000E+00  0.00000000000E+00  0.20847836737E+04  0.20847836737E+04  0.25500000920E-02 0.  1.
       -2   -1    0    0    0  501  0.00000000000E+00  0.00000000000E+00 -0.10796832741E+04  0.10796832741E+04  0.25500000920E-02 0. -1.
    10030    2    1    2    0    0  0.00000000000E+00  0.00000000000E+00  0.10051003996E+04  0.31644669479E+04  0.30006039810E+04 0.  0.
        1    1    3    3  502    0 -0.79048209486E+03 -0.11566349818E+04  0.10687487273E+04  0.17620698810E+04  0.50400001928E-02 0.  1.
       -1    1    3    3    0  502  0.79048209486E+03  0.11566349818E+04 -0.63648327752E+02  0.14023970668E+04  0.50400001928E-02 0. -1.
</event>
<event>
 5   0  0.1817566E-07  0.2995418E+04  0.7818609E-02  0.8245040E-01
       -2   -1    0    0    0  501  0.00000000000E+00  0.00000000000E+00  0.23071679865E+04  0.23071679865E+04  0.25500000920E-02 0.  1.
        2   -1    0    0  501    0  0.00000000000E+00  0.00000000000E+00 -0.97224503328E+03  0.97224503329E+03  0.25500000920E-02 0. -1.
    10030    2    1    2    0    0  0.00000000000E+00  0.00000000000E+00  0.13349229532E+04  0.32794130198E+04  0.29954182451E+04 0.  0.
        1    1    3    3  502    0 -0.76742316122E+03 -0.61225640580E+03 -0.57085321162E+03  0.11356362111E+04  0.50400001928E-02 0. -1.
       -1    1    3    3    0  502  0.76742316122E+03  0.61225640580E+03  0.19057761648E+04  0.21437768086E+04  0.50400001928E-02 0.  1.
</event>
<event>
 5   0  0.1914439E-07  0.2995361E+04  0.7818609E-02  0.8245057E-01
        2   -1    0    0  501    0  0.00000000000E+00  0.00000000000E+00  0.16710772783E+04  0.16710772783E+04  0.25500000920E-02 0.  1.
       -2   -1    0    0    0  501  0.00000000000E+00  0.00000000000E+00 -0.13422763516E+04  0.13422763516E+04  0.25500000920E-02 0. -1.
    10030    2    1    2    0    0  0.00000000000E+00  0.00000000000E+00  0.32880092669E+03  0.30133536299E+04  0.29953614222E+04 0.  0.
        5    1    3    3  502    0  0.10154065368E+04 -0.47525946930E+03 -0.83459174812E+03  0.13976721626E+04  0.46999998093E+01 0. -1.
       -5    1    3    3    0  502 -0.10154065368E+04  0.47525946930E+03  0.11633926748E+04  0.16156814673E+04  0.46999998093E+01 0.  1.
</event>
<event>
 5   0  0.1813720E-07  0.3000099E+04  0.7818609E-02  0.8243703E-01
        2   -1    0    0  501    0  0.00000000000E+00  0.00000000000E+00  0.11658406550E+04  0.11658406550E+04  0.25500000920E-02 0. -1.
       -2   -1    0    0    0  501  0.00000000000E+00  0.00000000000E+00 -0.19300648760E+04  0.19300648760E+04  0.25500000920E-02 0.  1.
    10030    2    1    2    0    0  0.00000000000E+00  0.00000000000E+00 -0.76422422097E+03  0.30959055311E+04  0.30000987313E+04 0.  0.
        3    1    3    3  502    0 -0.21087312936E+03  0.99200389264E+03  0.75844817410E+03  0.12664054812E+04  0.10100000352E+00 0. -1.
       -3    1    3    3    0  502  0.21087312936E+03 -0.99200389264E+03 -0.15226723951E+04  0.18295000499E+04  0.10100000352E+00 0.  1.
</event>
<event>
 5   0  0.6636007E-08  0.2997703E+04  0.7818609E-02  0.8244387E-01
        1   -1    0    0  501    0  0.00000000000E+00  0.00000000000E+00  0.16221325480E+04  0.16221325480E+04  0.50400001928E-02 0. -1.
       -1   -1    0    0    0  501  0.00000000000E+00  0.00000000000E+00 -0.13849394068E+04  0.13849394068E+04  0.50400001928E-02 0.  1.
    10030    2    1    2    0    0  0.00000000000E+00  0.00000000000E+00  0.23719314119E+03  0.30070719547E+04  0.29977026462E+04 0.  0.
        2    1    3    3  502    0  0.71402192985E+03 -0.12890402013E+04  0.39350298347E+03  0.15252201660E+04  0.25500000920E-02 0. -1.
       -2    1    3    3    0  502 -0.71402192985E+03  0.12890402013E+04 -0.15630984228E+03  0.14818517887E+04  0.25500000920E-02 0.  1.
</event>
<event>
 5   0  0.6679022E-08  0.3001836E+04  0.7818609E-02  0.8243207E-01
        1   -1    0    0  501    0  0.00000000000E+00  0.00000000000E+00  0.14781604228E+04  0.14781604229E+04  0.50400001928E-02 0.  1.
       -1   -1    0    0    0  501  0.00000000000E+00  0.00000000000E+00 -0.15240264048E+04  0.15240264048E+04  0.50400001928E-02 0. -1.
    10030    2    1    2    0    0  0.00000000000E+00  0.00000000000E+00 -0.45865981926E+02  0.30021868276E+04  0.30018364479E+04 0.  0.
        3    1    3    3  502    0 -0.25204242551E+03 -0.85302865847E+03  0.11861631355E+04  0.14826214185E+04  0.10100000352E+00 0.  1.
       -3    1    3    3    0  502  0.25204242551E+03  0.85302865847E+03 -0.12320291174E+04  0.15195654092E+04  0.10100000352E+00 0. -1.
</event>
<event>
 5   0  0.6017625E-08  0.3001408E+04  0.7818609E-02  0.8243329E-01
        3   -1    0    0  501    0  0.00000000000E+00  0.00000000000E+00  0.21384305480E+04  0.21384305504E+04  0.10100000352E+00 0. -1.
       -3   -1    0    0    0  501  0.00000000000E+00  0.00000000000E+00 -0.10531615299E+04  0.10531615347E+04  0.10100000352E+00 0.  1.
    10030    2    1    2    0    0  0.00000000000E+00  0.00000000000E+00  0.10852690181E+04  0.31915920851E+04  0.30014082022E+04 0.  0.
        5    1    3    3  502    0  0.11240742090E+04 -0.15205504962E+03 -0.50218690949E+03  0.12405149525E+04  0.46999998093E+01 0.  1.
       -5    1    3    3    0  502 -0.11240742090E+04  0.15205504962E+03  0.15874559276E+04  0.19510771326E+04  0.46999998093E+01 0. -1.
</event>
<event>
 5   0  0.6636007E-08  0.3003434E+04  0.7818609E-02  0.8242751E-01
       -1   -1    0    0    0  501  0.00000000000E+00  0.00000000000E+00  0.22852279832E+04  0.22852279832E+04  0.50400001928E-02 0.  1.
        1   -1    0    0  501    0  0.00000000000E+00  0.00000000000E+00 -0.98684008212E+03  0.98684008214E+03  0.50400001928E-02 0. -1.
    10030    2    1    2    0    0  0.00000000000E+00  0.00000000000E+00  0.12983879011E+04  0.32720680654E+04  0.30034344146E+04 0.  0.
        2    1    3    3  502    0  0.19972895133E+03  0.95890175461E+03  0.18893267504E+04  0.21281305878E+04  0.25500000920E-02 0. -1.
       -2    1    3    3    0  502 -0.19972895133E+03 -0.95890175461E+03 -0.59093884928E+03  0.11439374776E+04  0.25500000920E-02 0.  1.
</event>
<event>
 5   0  0.6374748E-08  0.2999023E+04  0.7818609E-02  0.8244010E-01
       -1   -1    0    0    0  501  0.00000000000E+00  0.00000000000E+00  0.12383063259E+04  0.12383063259E+04  0.50400001928E-02 0.  1.
        1   -1    0    0  501    0  0.00000000000E+00  0.00000000000E+00 -0.18158151790E+04  0.18158151790E+04  0.50400001928E-02 0. -1.
    10030    2    1    2    0    0  0.00000000000E+00  0.00000000000E+00 -0.57750885314E+03  0.30541215050E+04  0.29990234563E+04 0.  0.
        1    1    3    3  502    0  0.10665731307E+04 -0.97836948756E+03 -0.68806836556E+03  0.16025676813E+04  0.50400001928E-02 0. -1.
       -1    1    3    3    0  502 -0.10665731307E+04  0.97836948756E+03  0.11055951242E+03  0.14515538237E+04  0.50400001928E-02 0.  1.
</event>
<event>
 5   0  0.1810055E-07  0.2998905E+04  0.7818609E-02  0.8244044E-01
        2   -1    0    0  501    0  0.00000000000E+00  0.00000000000E+00  0.18931363989E+04  0.18931363989E+04  0.25500000920E-02 0.  1.
       -2   -1    0    0    0  501  0.00000000000E+00  0.00000000000E+00 -0.11876362812E+04  0.11876362812E+04  0.25500000920E-02 0. -1.
    10030    2    1    2    0    0  0.00000000000E+00  0.00000000000E+00  0.70550011769E+03  0.30807726801E+04  0.29989047818E+04 0.  0.
        4    1    3    3  502    0 -0.16316695939E+03  0.14876833408E+04  0.25786696877E+03  0.15186580147E+04  0.12699999809E+01 0.  1.
       -4    1    3    3    0  502  0.16316695939E+03 -0.14876833408E+04  0.44763314892E+03  0.15621146654E+04  0.12699999809E+01 0. -1.
</event>
<event>
 5   0  0.6679022E-08  0.3012895E+04  0.7818609E-02  0.8240058E-01
       -1   -1    0    0    0  501  0.00000000000E+00  0.00000000000E+00  0.10659242694E+04  0.10659242694E+04  0.50400001928E-02 0. -1.
        1   -1    0    0  501    0  0.00000000000E+00  0.00000000000E+00 -0.21290291863E+04  0.21290291863E+04  0.50400001928E-02 0.  1.
    10030    2    1    2    0    0  0.00000000000E+00  0.00000000000E+00 -0.10631049169E+04  0.31949534557E+04  0.30128948737E+04 0.  0.
        3    1    3    3  502    0  0.88133107058E+03 -0.74027515646E+02  0.76162852280E+03  0.11671771699E+04  0.10100000352E+00 0. -1.
       -3    1    3    3    0  502 -0.88133107058E+03  0.74027515646E+02 -0.18247334397E+04  0.20277762858E+04  0.10100000352E+00 0.  1.
</event>
<event>
 5   0  0.1821305E-07  0.3001094E+04  0.7818609E-02  0.8243419E-01
       -2   -1    0    0    0  501  0.00000000000E+00  0.00000000000E+00  0.69486345583E+03  0.69486345583E+03  0.25500000920E-02 0. -1.
        2   -1    0    0  501    0  0.00000000000E+00  0.00000000000E+00 -0.32404074505E+04  0.32404074505E+04  0.25500000920E-02 0.  1.
    10030    2    1    2    0    0  0.00000000000E+00  0.00000000000E+00 -0.25455439946E+04  0.39352709063E+04  0.30010936136E+04 0.  0.
        2    1    3    3  502    0 -0.71199781416E+03 -0.11278303188E+03  0.45293279799E+03  0.85135716309E+03  0.25500000920E-02 0. -1.
       -2    1    3    3    0  502  0.71199781416E+03  0.11278303188E+03 -0.29984767926E+04  0.30839137432E+04  0.25500000920E-02 0.  1.
</event>
<event>
 5   0  0.6464436E-08  0.3000234E+04  0.7818609E-02  0.8243664E-01
       -1   -1    0    0    0  501  0.00000000000E+00  0.00000000000E+00  0.99993488274E+03  0.99993488276E+03  0.50400001928E-02 0.  1.
        1   -1    0    0  501    0  0.00000000000E+00  0.00000000000E+00 -0.22504969258E+04  0.22504969259E+04  0.50400001928E-02 0. -1.
    10030    2    1    2    0    0  0.00000000000E+00  0.00000000000E+00 -0.12505620431E+04  0.32504318086E+04  0.30002335774E+04 0.  0.
        5    1    3    3  502    0 -0.11865700879E+04 -0.85659571375E+03 -0.26821552431E+03  0.14878395235E+04  0.46999998093E+01 0.  1.
       -5    1    3    3    0  502  0.11865700879E+04  0.85659571375E+03 -0.98234651880E+03  0.17625922851E+04  0.46999998093E+01 0. -1.
</event>
<event>
 5   0  0.1810055E-07  0.2998741E+04  0.7818609E-02  0.8244090E-01
       -2   -1    0    0    0  501  0.00000000000E+00  0.00000000000E+00  0.11844745708E+04  0.11844745708E+04  0.25500000920E-02 0.  1.
        2   -1    0    0  501    0  0.00000000000E+00  0.00000000000E+00 -0.18979826837E+04  0.18979826837E+04  0.25500000920E-02 0. -1.
    10030    2    1    2    0    0  0.00000000000E+00  0.00000000000E+00 -0.71350811287E+03  0.30824572545E+04  0.29987412190E+04 0.  0.
        4    1    3    3  502    0 -0.10996737420E+04 -0.65413222825E+03 -0.11602008193E+04  0.17272055074E+04  0.12699999809E+01 0. -1.
       -4    1    3    3    0  502  0.10996737420E+04  0.65413222825E+03  0.44669270641E+03  0.13552517470E+04  0.12699999809E+01 0.  1.
</event>
<event>
 5   0  0.1817566E-07  0.2999413E+04  0.7818609E-02  0.8243898E-01
       -2   -1    0    0    0  501  0.00000000000E+00  0.00000000000E+00  0.11475692468E+04  0.11475692468E+04  0.25500000920E-02 0.  1.
        2   -1    0    0  501    0  0.00000000000E+00  0.00000000000E+00 -0.19598990644E+04  0.19598990644E+04  0.25500000920E-02 0. -1.
    10030    2    1    2    0    0  0.00000000000E+00  0.00000000000E+00 -0.81232981768E+03  0.31074683112E+04  0.29994132047E+04 0.  0.
        1    1    3    3  502    0  0.64341341387E+01 -0.13946865444E+04  0.16499237710E+03  0.14044267299E+04  0.50400001928E-02 0.  1.
       -1    1    3    3    0  502 -0.64341341387E+01  0.13946865444E+04 -0.97732219478E+03  0.17030415813E+04  0.50400001928E-02 0. -1.
</event>
<event>
 5   0  0.1817566E-07  0.3000043E+04  0.7818609E-02  0.8243719E-01
       -2   -1    0    0    0  501  0.00000000000E+00  0.00000000000E+00  0.95974051900E+03  0.95974051901E+03  0.25500000920E-02 0. -1.
        2   -1    0    0  501    0  0.00000000000E+00  0.00000000000E+00 -0.23444514433E+04  0.23444514433E+04  0.25500000920E-02 0.  1.
    10030    2    1    2    0    0  0.00000000000E+00  0.00000000000E+00 -0.13847109243E+04  0.33041919623E+04  0.30000433630E+04 0.  0.
        1    1    3    3  502    0  0.84522843312E+03  0.25126886835E+03  0.64414166388E+03  0.10920007470E+04  0.50400001928E-02 0. -1.
       -1    1    3    3    0  502 -0.84522843312E+03 -0.25126886835E+03 -0.20288525882E+04  0.22121912153E+04  0.50400001928E-02 0.  1.
</event>
<event>
 5   0  0.6525507E-08  0.3002489E+04  0.7818609E-02  0.8243020E-01
        1   -1    0    0  501    0  0.00000000000E+00  0.00000000000E+00  0.10798549538E+04  0.10798549539E+04  0.50400001928E-02 0.  1.
       -1   -1    0    0    0  501  0.00000000000E+00  0.00000000000E+00 -0.20870723686E+04  0.20870723686E+04  0.50400001928E-02 0. -1.
    10030    2    1    2    0    0  0.00000000000E+00  0.00000000000E+00 -0.10072174147E+04  0.31669273224E+04  0.30024892581E+04 0.  0.
        4    1    3    3  502    0 -0.11548489367E+04  0.54700019699E+03 -0.13347014064E+04  0.18477864430E+04  0.12699999809E+01 0. -1.
       -4    1    3    3    0  502  0.11548489367E+04 -0.54700019699E+03  0.32748399163E+03  0.13191408794E+04  0.12699999809E+01 0.  1.
</event>
<event>
 5   0  0.1810055E-07  0.2998454E+04  0.7818609E-02  0.8244172E-01
        2   -1    0    0  501    0  0.00000000000E+00  0.00000000000E+00  0.25799872165E+04  0.25799872165E+04  0.25500000920E-02 0. -1.
       -2   -1    0    0    0  501  0.00000000000E+00  0.00000000000E+00 -0.87119879039E+03  0.87119879039E+03  0.25500000920E-02 0.  1.
    10030    2    1    2    0    0  0.00000000000E+00  0.00000000000E+00  0.17087884262E+04  0.34511860069E+04  0.29984540965E+04 0.  0.
        4    1    3    3  502    0 -0.13737525920E+04 -0.29514731080E+03  0.25260003001E+03  0.14276261790E+04  0.12699999809E+01 0.  1.
       -4    1    3    3    0  502  0.13737525920E+04  0.29514731080E+03  0.14561883961E+04  0.20235598279E+04  0.12699999809E+01 0. -1.
</event>
<event>
 5   0  0.1810055E-07  0.3000483E+04  0.7818609E-02  0.8243593E-01
       -2   -1    0    0    0  501  0.00000000000E+00  0.00000000000E+00  0.12913483142E+04  0.12913483142E+04  0.25500000920E-02 0. -1.
        2   -1    0    0  501    0  0.00000000000E+00  0.00000000000E+00 -0.17429264892E+04  0.17429264892E+04  0.25500000920E-02 0.  1.
    10030    2    1    2    0    0  0.00000000000E+00  0.00000000000E+00 -0.45157817496E+03  0.30342748034E+04  0.30004834168E+04 0.  0.
        4    1    3    3  502    0 -0.14698309275E+04  0.29639776907E+03 -0.27603749073E+03  0.15246156572E+04  0.12699999809E+01 0.  1.
       -4    1    3    3    0  502  0.14698309275E+04 -0.29639776907E+03 -0.17554068423E+03  0.15096591462E+04  0.12699999809E+01 0. -1.
</event>
<event>
 5   0  0.6636007E-08  0.2999673E+04  0.7818609E-02  0.8243824E-01
        1   -1    0    0  501    0  0.00000000000E+00  0.00000000000E+00  0.15241299171E+04  0.15241299171E+04  0.50400001928E-02 0.  1.
       -1   -1    0    0    0  501  0.00000000000E+00  0.00000000000E+00 -0.14759306280E+04  0.14759306280E+04  0.50400001928E-02 0. -1.
    10030    2    1    2    0    0  0.00000000000E+00  0.00000000000E+00  0.48199289108E+02  0.30000605452E+04  0.29996733328E+04 0.  0.
        2    1    3    3  502    0 -0.54005475679E+01  0.12252711822E+04  0.88919187249E+03  0.15139289356E+04  0.25500000920E-02 0.  1.
       -2    1    3    3    0  502  0.54005475679E+01 -0.12252711822E+04 -0.84099258338E+03  0.14861316096E+04  0.25500000920E-02 0. -1.
</event>
<event>
 5   0  0.1817566E-07  0.3000565E+04  0.7818609E-02  0.8243569E-01
        2   -1    0    0  501    0  0.00000000000E+00  0.00000000000E+00  0.20033633027E+04  0.20033633027E+04  0.25500000920E-02 0.  1.
       -2   -1    0    0    0  501  0.00000000000E+00  0.00000000000E+00 -0.11235346538E+04  0.11235346538E+04  0.25500000920E-02 0. -1.
    10030    2    1    2    0    0  0.00000000000E+00  0.00000000000E+00  0.87982864893E+03  0.31268979565E+04  0.30005653432E+04 0.  0.
        1    1    3    3  502    0  0.23939714255E+03 -0.14661290465E+04  0.22131420708E+03  0.15019405285E+04  0.50400001928E-02 0. -1.
       -1    1    3    3    0  502 -0.23939714255E+03  0.14661290465E+04  0.65851444186E+03  0.16249574280E+04  0.50400001928E-02 0.  1.
</event>
<event>
 5   0  0.6464436E-08  0.3000603E+04  0.7818609E-02  0.8243559E-01
        1   -1    0    0  501    0  0.00000000000E+00  0.00000000000E+00  0.23984143408E+04  0.23984143408E+04  0.50400001928E-02 0. -1.
       -1   -1    0    0    0  501  0.00000000000E+00  0.00000000000E+00 -0.93849692758E+03  0.93849692760E+03  0.50400001928E-02 0.  1.
    10030    2    1    2    0    0  0.00000000000E+00  0.00000000000E+00  0.14599174132E+04  0.33369112684E+04  0.30006029327E+04 0.  0.
        5    1    3    3  502    0 -0.13488640456E+04 -0.51019135395E+02  0.16987630190E+01  0.13498378205E+04  0.46999998093E+01 0. -1.
       -5    1    3    3    0  502  0.13488640456E+04  0.51019135395E+02  0.14582186502E+04  0.19870734479E+04  0.46999998093E+01 0.  1.
</event>
<event>
 5   0  0.6464436E-08  0.2995651E+04  0.7818609E-02  0.8244974E-01
        1   -1    0    0  501    0  0.00000000000E+00  0.00000000000E+00  0.22034898593E+04  0.22034898593E+04  0.50400001928E-02 0. -1.
       -1   -1    0    0    0  501  0.00000000000E+00  0.00000000000E+00 -0.10181490297E+04  0.10181490297E+04  0.50400001928E-02 0.  1.
    10030    2    1    2    0    0  0.00000000000E+00  0.00000000000E+00  0.11853408296E+04  0.32216388890E+04  0.29956508890E+04 0.  0.
        5    1    3    3  502    0  0.14710618700E+04 -0.20382463627E+03  0.80201240831E+03  0.16878428543E+04  0.46999998093E+01 0. -1.
       -5    1    3    3    0  502 -0.14710618700E+04  0.20382463627E+03  0.38332842133E+03  0.15337960348E+04  0.46999998093E+01 0.  1.
</event>
<event>
 5   0  0.6464436E-08  0.3000518E+04  0.7818609E-02  0.8243583E-01
        1   -1    0    0  501    0  0.00000000000E+00  0.00000000000E+00  0.22179203140E+04  0.22179203140E+04  0.50400001928E-02 0.  1.
       -1   -1    0    0    0  501  0.00000000000E+00  0.00000000000E+00 -0.10148140571E+04  0.10148140571E+04  0.50400001928E-02 0. -1.
    10030    2    1    2    0    0  0.00000000000E+00  0.00000000000E+00  0.12031062569E+04  0.32327343712E+04  0.30005177635E+04 0.  0.
        5    1    3    3  502    0 -0.69805629478E+03  0.12940139058E+04  0.92297019083E+03  0.17359869361E+04  0.46999998093E+01 0.  1.
       -5    1    3    3    0  502  0.69805629478E+03 -0.12940139058E+04  0.28013606608E+03  0.14967474351E+04  0.46999998093E+01 0. -1.
</event>
<event>
 5   0  0.6636007E-08  0.3000310E+04  0.7818609E-02  0.8243642E-01
       -1   -1    0    0    0  501  0.00000000000E+00  0.00000000000E+00  0.11868467454E+04  0.11868467454E+04  0.50400001928E-02 0.  1.
        1   -1    0    0  501    0  0.00000000000E+00  0.00000000000E+00 -0.18961712063E+04  0.18961712063E+04  0.50400001928E-02 0. -1.
    10030    2    1    2    0    0  0.00000000000E+00  0.00000000000E+00 -0.70932446089E+03  0.30830179518E+04  0.30003097340E+04 0.  0.
        2    1    3    3  502    0  0.41777283593E+03  0.64485702544E+03 -0.16786249799E+04  0.18461193214E+04  0.25500000920E-02 0. -1.
       -2    1    3    3    0  502 -0.41777283593E+03 -0.64485702544E+03  0.96930051899E+03  0.12368986304E+04  0.25500000920E-02 0.  1.
</event>
<event>
 5   0  0.1813720E-07  0.3000382E+04  0.7818609E-02  0.8243622E-01
        2   -1    0    0  501    0  0.00000000000E+00  0.00000000000E+00  0.18551443763E+04  0.18551443763E+04  0.25500000920E-02 0. -1.
       -2   -1    0    0    0  501  0.00000000000E+00  0.00000000000E+00 -0.12131524764E+04  0.12131524764E+04  0.25500000920E-02 0.  1.
    10030    2    1    2    0    0  0.00000000000E+00  0.00000000000E+00  0.64199189985E+03  0.30682968527E+04  0.30003819718E+04 0.  0.
        3    1    3    3  502    0  0.86502826382E+03  0.97751411895E+03  0.10771691364E+04  0.16923655364E+04  0.10100000352E+00 0. -1.
       -3    1    3    3    0  502 -0.86502826382E+03 -0.97751411895E+03 -0.43517723658E+03  0.13759313164E+04  0.10100000352E+00 0.  1.
</event>
<event>
 5   0  0.1914439E-07  0.3000412E+04  0.7818609E-02  0.8243613E-01
       -2   -1    0    0    0  501  0.00000000000E+00  0.00000000000E+00  0.12360545413E+04  0.12360545413E+04  0.25500000920E-02 0. -1.
        2   -1    0    0  501    0  0.00000000000E+00  0.00000000000E+00 -0.18208077500E+04  0.18208077500E+04  0.25500000920E-02 0.  1.
    10030    2    1    2    0    0  0.00000000000E+00  0.00000000000E+00 -0.58475320871E+03  0.30568622913E+04  0.30004117639E+04 0.  0.
        5    1    3    3  502    0 -0.52705367453E+03  0.13188278101E+04 -0.78468978247E+03  0.16226067032E+04  0.46999998093E+01 0.  1.
       -5    1    3    3    0  502  0.52705367453E+03 -0.13188278101E+04  0.19993657376E+03  0.14342555881E+04  0.46999998093E+01 0. -1.
</event>
<event>
 5   0  0.1821305E-07  0.2998600E+04  0.7818609E-02  0.8244131E-01
       -2   -1    0    0    0  501  0.00000000000E+00  0.00000000000E+00  0.10979045905E+04  0.10979045905E+04  0.25500000920E-02 0. -1.
        2   -1    0    0  501    0  0.00000000000E+00  0.00000000000E+00 -0.20474460553E+04  0.20474460553E+04  0.25500000920E-02 0.  1.
    10030    2    1    2    0    0  0.00000000000E+00  0.00000000000E+00 -0.94954146478E+03  0.31453506457E+04  0.29985999552E+04 0.  0.
        2    1    3    3  502    0 -0.58318719213E+03 -0.99758845451E+01  0.97401729879E+03  0.11353045925E+04  0.25500000920E-02 0. -1.
       -2    1    3    3    0  502  0.58318719213E+03  0.99758845451E+01 -0.19235587636E+04  0.20100460533E+04  0.25500000920E-02 0.  1.
</event>
<event>
 5   0  0.6525507E-08  0.3000729E+04  0.7818609E-02  0.8243523E-01
       -1   -1    0    0    0  501  0.00000000000E+00  0.00000000000E+00  0.10222705221E+04  0.10222705221E+04  0.50400001928E-02 0.  1.
        1   -1    0    0  501    0  0.00000000000E+00  0.00000000000E+00 -0.22020522299E+04  0.22020522299E+04  0.50400001928E-02 0. -1.
    10030    2    1    2    0    0  0.00000000000E+00  0.00000000000E+00 -0.11797817078E+04  0.32243227520E+04  0.30007286333E+04 0.  0.
        4    1    3    3  502    0  0.73426237856E+03 -0.54061134659E+03  0.69039953731E+03  0.11437023226E+04  0.12699999809E+01 0.  1.
       -4    1    3    3    0  502 -0.73426237856E+03  0.54061134659E+03 -0.18701812451E+04  0.20806204294E+04  0.12699999809E+01 0. -1.
</event>
<event>
 5   0  0.1817566E-07  0.3000752E+04  0.7818609E-02  0.8243516E-01
        2   -1    0    0  501    0  0.00000000000E+00  0.00000000000E+00  0.28164581828E+04  0.28164581828E+04  0.25500000920E-02 0. -1.
       -2   -1    0    0    0  501  0.00000000000E+00  0.00000000000E+00 -0.79927609460E+03  0.79927609460E+03  0.25500000920E-02 0.  1.
    10030    2    1    2    0    0  0.00000000000E+00  0.00000000000E+00  0.20171820882E+04  0.36157342774E+04  0.30007517038E+04 0.  0.
        1    1    3    3  502    0  0.72027909458E+03  0.49337639947E+03  0.24788708931E+04  0.26281216012E+04  0.50400001928E-02 0. -1.
       -1    1    3    3    0  502 -0.72027909458E+03 -0.49337639947E+03 -0.46168880493E+03  0.98761267624E+03  0.50400001928E-02 0.  1.
</event>
<event>
 5   0  0.6636007E-08  0.2998895E+04  0.7818609E-02  0.8244047E-01
       -1   -1    0    0    0  501  0.00000000000E+00  0.00000000000E+00  0.13640355436E+04  0.13640355436E+04  0.50400001928E-02 0. -1.
        1   -1    0    0  501    0  0.00000000000E+00  0.00000000000E+00 -0.16483019487E+04  0.16483019487E+04  0.50400001928E-02 0.  1.
    10030    2    1    2    0    0  0.00000000000E+00  0.00000000000E+00 -0.28426640510E+03  0.30123374923E+04  0.29988947595E+04 0.  0.
        2    1    3    3  502    0  0.14641892480E+04  0.25472940606E+03 -0.34203588335E+03  0.15250330390E+04  0.25500000920E-02 0.  1.
       -2    1    3    3    0  502 -0.14641892480E+04 -0.25472940606E+03  0.57769478251E+02  0.14873044534E+04  0.25500000920E-02 0. -1.
</event>
<event>
 5   0  0.6374748E-08  0.3000098E+04  0.7818609E-02  0.8243703E-01
        1   -1    0    0  501    0  0.00000000000E+00  0.00000000000E+00  0.19621612608E+04  0.19621612608E+04  0.50400001928E-02 0. -1.
       -1   -1    0    0    0  501  0.00000000000E+00  0.00000000000E+00 -0.11467699113E+04  0.11467699113E+04  0.50400001928E-02 0.  1.
    10030    2    1    2    0    0  0.00000000000E+00  0.00000000000E+00  0.81539134953E+03  0.31089311721E+04  0.30000983284E+04 0.  0.
        1    1    3    3  502    0  0.13627519160E+04 -0.21862894326E+03 -0.20120477651E+03  0.13947669201E+04  0.50400001928E-02 0.  1.
       -1    1    3    3    0  502 -0.13627519160E+04  0.21862894326E+03  0.10165961260E+04  0.17141642520E+04  0.50400001928E-02 0. -1.
</event>
<event>
 5   0  0.6679022E-08  0.3011238E+04  0.7818609E-02  0.8240529E-01
       -1   -1    0    0    0  501  0.00000000000E+00  0.00000000000E+00  0.15070310707E+04  0.15070310707E+04  0.50400001928E-02 0.  1.
        1   -1    0    0  501    0  0.00000000000E+00  0.00000000000E+00 -0.15042084313E+04  0.15042084313E+04  0.50400001928E-02 0. -1.
    10030    2    1    2    0    0  0.00000000000E+00  0.00000000000E+00  0.28226393302E+01  0.30112395020E+04  0.30112381791E+04 0.  0.
        3    1    3    3  502    0  0.76741607439E+03  0.88125413479E+03 -0.94798498495E+03  0.15047298173E+04  0.10100000352E+00 0. -1.
       -3    1    3    3    0  502 -0.76741607439E+03 -0.88125413479E+03  0.95080762428E+03  0.15065096846E+04  0.10100000352E+00 0.  1.
</event>
<event>
 5   0  0.6636007E-08  0.2998315E+04  0.7818609E-02  0.8244212E-01
        1   -1    0    0  501    0  0.00000000000E+00  0.00000000000E+00  0.25953575680E+04  0.25953575680E+04  0.50400001928E-02 0. -1.
       -1   -1    0    0    0  501  0.00000000000E+00  0.00000000000E+00 -0.86595879028E+03  0.86595879030E+03  0.50400001928E-02 0.  1.
    10030    2    1    2    0    0  0.00000000000E+00  0.00000000000E+00  0.17293987777E+04  0.34613163583E+04  0.29983146599E+04 0.  0.
        2    1    3    3  502    0 -0.61424660685E+03 -0.82315293772E+03  0.21253949485E+04  0.23605472543E+04  0.25500000920E-02 0. -1.
       -2    1    3    3    0  502  0.61424660685E+03  0.82315293772E+03 -0.39599617079E+03  0.11007691039E+04  0.25500000920E-02 0.  1.
</event>
<event>
 5   0  0.6679022E-08  0.3003456E+04  0.7818609E-02  0.8242745E-01
        1   -1    0    0  501    0  0.00000000000E+00  0.00000000000E+00  0.27674151670E+04  0.27674151670E+04  0.50400001928E-02 0.  1.
       -1   -1    0    0    0  501  0.00000000000E+00  0.00000000000E+00 -0.81490722551E+03  0.81490722553E+03  0.50400001928E-02 0. -1.
    10030    2    1    2    0    0  0.00000000000E+00  0.00000000000E+00  0.19525079415E+04  0.35823223926E+04  0.30034557534E+04 0.  0.
        3    1    3    3  502    0 -0.13401579671E+04  0.57789646356E+02  0.17815245380E+04  0.22300656290E+04  0.10100000352E+00 0.  1.
       -3    1    3    3    0  502  0.13401579671E+04 -0.57789646356E+02  0.17098340351E+03  0.13522567635E+04  0.10100000352E+00 0. -1.
</event>
<event>
 5   0  0.6374748E-08  0.2999725E+04  0.7818609E-02  0.8243810E-01
       -1   -1    0    0    0  501  0.00000000000E+00  0.00000000000E+00  0.12783120911E+04  0.12783120911E+04  0.50400001928E-02 0. -1.
        1   -1    0    0  501    0  0.00000000000E+00  0.00000000000E+00 -0.17598104088E+04  0.17598104088E+04  0.50400001928E-02 0.  1.
    10030    2    1    2    0    0  0.00000000000E+00  0.00000000000E+00 -0.48149831766E+03  0.30381224999E+04  0.29997246031E+04 0.  0.
        1    1    3    3  502    0  0.19136963034E+03 -0.14866817342E+04 -0.29378364431E+03  0.15274664461E+04  0.50400001928E-02 0. -1.
       -1    1    3    3    0  502 -0.19136963034E+03  0.14866817342E+04 -0.18771467335E+03  0.15106560538E+04  0.50400001928E-02 0.  1.
</event>
<event>
 5   0  0.6636007E-08  0.3001097E+04  0.7818609E-02  0.8243418E-01
        1   -1    0    0  501    0  0.00000000000E+00  0.00000000000E+00  0.15664689995E+04  0.15664689995E+04  0.50400001928E-02 0. -1.
       -1   -1    0    0    0  501  0.00000000000E+00  0.00000000000E+00 -0.14374025445E+04  0.14374025445E+04  0.50400001928E-02 0.  1.
    10030    2    1    2    0    0  0.00000000000E+00  0.00000000000E+00  0.12906645495E+03  0.30038715440E+04  0.30010974831E+04 0.  0.
        2    1    3    3  502    0  0.18634396346E+03 -0.14863296028E+02  0.15547685916E+04  0.15659662716E+04  0.25500000920E-02 0. -1.
       -2    1    3    3    0  502 -0.18634396346E+03  0.14863296028E+02 -0.14257021366E+04  0.14379052725E+04  0.25500000920E-02 0.  1.
</event>
<event>
 5   0  0.1821305E-07  0.3002048E+04  0.7818609E-02  0.8243146E-01
        2   -1    0    0  501    0  0.00000000000E+00  0.00000000000E+00  0.10842881381E+04  0.10842881381E+04  0.25500000920E-02 0. -1.
       -2   -1    0    0    0  501  0.00000000000E+00  0.00000000000E+00 -0.20779287611E+04  0.20779287611E+04  0.25500000920E-02 0.  1.
    10030    2    1    2    0    0  0.00000000000E+00  0.00000000000E+00 -0.99364062303E+03  0.31622168992E+04  0.30020483057E+04 0.  0.
        2    1    3    3  502    0  0.10279759769E+04  0.45598020776E+03  0.55041662053E+03  0.12520427369E+04  0.25500000920E-02 0. -1.
       -2    1    3    3    0  502 -0.10279759769E+04 -0.45598020776E+03 -0.15440572436E+04  0.19101741623E+04  0.25500000920E-02 0.  1.
</event>
<event>
 5   0  0.6636007E-08  0.2999564E+04  0.7818609E-02  0.8243855E-01
       -1   -1    0    0    0  501  0.00000000000E+00  0.00000000000E+00  0.13366256725E+04  0.13366256725E+04  0.50400001928E-02 0. -1.
        1   -1    0    0  501    0  0.00000000000E+00  0.00000000000E+00 -0.16828540459E+04  0.16828540459E+04  0.50400001928E-02 0.  1.
    10030    2    1    2    0    0  0.00000000000E+00  0.00000000000E+00 -0.34622837334E+03  0.30194797184E+04  0.29995639155E+04 0.  0.
        2    1    3    3  502    0 -0.10062873029E+04 -0.10914201286E+04  0.41689317829E+02  0.14851094345E+04  0.25500000920E-02 0.  1.
       -2    1    3    3    0  502  0.10062873029E+04  0.10914201286E+04 -0.38791769117E+03  0.15343702839E+04  0.25500000920E-02 0. -1.
</event>
<event>
 5   0  0.6464436E-08  0.3000096E+04  0.7818609E-02  0.8243703E-01
        1   -1    0    0  501    0  0.00000000000E+00  0.00000000000E+00  0.13976692299E+04  0.13976692299E+04  0.50400001928E-02 0.  1.
       -1   -1    0    0    0  501  0.00000000000E+00  0.00000000000E+00 -0.16099260444E+04  0.16099260444E+04  0.50400001928E-02 0. -1.
    10030    2    1    2    0    0  0.00000000000E+00  0.00000000000E+00 -0.21225681450E+03  0.30075952744E+04  0.30000960617E+04 0.  0.
        5    1    3    3  502    0  0.61997145735E+03 -0.13525134622E+04  0.85306328154E+02  0.14902873995E+04  0.46999998093E+01 0. -1.
       -5    1    3    3    0  502 -0.61997145735E+03  0.13525134622E+04 -0.29756314266E+03  0.15173078749E+04  0.46999998093E+01 0.  1.
</event>
<event>
 5   0  0.6017625E-08  0.2999294E+04  0.7818609E-02  0.8243932E-01
        3   -1    0    0  501    0  0.00000000000E+00  0.00000000000E+00  0.13454941416E+04  0.13454941454E+04  0.10100000352E+00 0. -1.
       -3   -1    0    0    0  501  0.00000000000E+00  0.00000000000E+00 -0.16714612115E+04  0.16714612145E+04  0.10100000352E+00 0.  1.
    10030    2    1    2    0    0  0.00000000000E+00  0.00000000000E+00 -0.32596706987E+03  0.30169553599E+04  0.29992941024E+04 0.  0.
        3    1    3    3  502    0  0.11459992365E+04 -0.42616094259E+02 -0.11350127026E+04  0.16135006126E+04  0.10100000352E+00 0.  1.
       -3    1    3    3    0  502 -0.11459992365E+04  0.42616094259E+02  0.80904563275E+03  0.14034547473E+04  0.10100000352E+00 0. -1.
</event>
<event>
 5   0  0.1813720E-07  0.2999947E+04  0.7818609E-02  0.8243746E-01
        2   -1    0    0  501    0  0.00000000000E+00  0.00000000000E+00  0.23781462675E+04  0.23781462675E+04  0.25500000920E-02 0. -1.
       -2   -1    0    0    0  501  0.00000000000E+00  0.00000000000E+00 -0.94608142366E+03  0.94608142366E+03  0.25500000920E-02 0.  1.
    10030    2    1    2    0    0  0.00000000000E+00  0.00000000000E+00  0.14320648438E+04  0.33242276912E+04  0.29999466705E+04 0.  0.
        3    1    3    3  502    0 -0.64140973462E+03 -0.11288361720E+04 -0.11632547647E+03  0.13035371792E+04  0.10100000352E+00 0.  1.
       -3    1    3    3    0  502  0.64140973462E+03  0.11288361720E+04  0.15483903203E+04  0.20206905120E+04  0.10100000352E+00 0. -1.
</event>
<event>
 5   0  0.1813720E-07  0.2998040E+04  0.7818609E-02  0.8244291E-01
        2   -1    0    0  501    0  0.00000000000E+00  0.00000000000E+00  0.12025256577E+04  0.12025256577E+04  0.25500000920E-02 0. -1.
       -2   -1    0    0    0  501  0.00000000000E+00  0.00000000000E+00 -0.18686173868E+04  0.18686173868E+04  0.25500000920E-02 0.  1.
    10030    2    1    2    0    0  0.00000000000E+00  0.00000000000E+00 -0.66609172912E+03  0.30711430445E+04  0.29980395941E+04 0.  0.
        3    1    3    3  502    0 -0.64220028957E+03 -0.82990048739E+03 -0.14296171201E+04  0.17734038319E+04  0.10100000352E+00 0.  1.
       -3    1    3    3    0  502  0.64220028957E+03  0.82990048739E+03  0.76352539097E+03  0.12977392125E+04  0.10100000352E+00 0. -1.
</event>
<event>
 5   0  0.1810055E-07  0.2999954E+04  0.7818609E-02  0.8243744E-01
        2   -1    0    0  501    0  0.00000000000E+00  0.00000000000E+00  0.16614703645E+04  0.16614703645E+04  0.25500000920E-02 0. -1.
       -2   -1    0    0    0  501  0.00000000000E+00  0.00000000000E+00 -0.13541809044E+04  0.13541809044E+04  0.25500000920E-02 0.  1.
    10030    2    1    2    0    0  0.00000000000E+00  0.00000000000E+00  0.30728946003E+03  0.30156512689E+04  0.29999542935E+04 0.  0.
        4    1    3    3  502    0 -0.70900876253E+03  0.13194826938E+04  0.74481014118E+02  0.14997589937E+04  0.12699999809E+01 0. -1.
       -4    1    3    3    0  502  0.70900876253E+03 -0.13194826938E+04  0.23280844591E+03  0.15158922752E+04  0.12699999809E+01 0.  1.
</event>
<event>
 5   0  0.1813720E-07  0.2999196E+04  0.7818609E-02  0.8243960E-01
       -2   -1    0    0    0  501  0.00000000000E+00  0.00000000000E+00  0.78284349992E+03  0.78284349993E+03  0.25500000920E-02 0.  1.
        2   -1    0    0  501    0  0.00000000000E+00  0.00000000000E+00 -0.28725977073E+04  0.28725977073E+04  0.25500000920E-02 0. -1.
    10030    2    1    2    0    0  0.00000000000E+00  0.00000000000E+00 -0.20897542073E+04  0.36554412072E+04  0.29991961877E+04 0.  0.
        3    1    3    3  502    0  0.36436924374E+03 -0.11817173874E+04 -0.20787627583E+04  0.24187756293E+04  0.10100000352E+00 0. -1.
       -3    1    3    3    0  502 -0.36436924374E+03  0.11817173874E+04 -0.10991449071E+02  0.12366655779E+04  0.10100000352E+00 0.  1.
</event>
<event>
 5   0  0.1817566E-07  0.2998956E+04  0.7818609E-02  0.8244029E-01
       -2   -1    0    0    0  501  0.00000000000E+00  0.00000000000E+00  0.67348977868E+03  0.67348977868E+03  0.25500000920E-02 0.  1.
        2   -1    0    0  501    0  0.00000000000E+00  0.00000000000E+00 -0.33384833974E+04  0.33384833974E+04  0.25500000920E-02 0. -1.
    10030    2    1    2    0    0  0.00000000000E+00  0.00000000000E+00 -0.26649936187E+04  0.40119731761E+04  0.29989561147E+04 0.  0.
        1    1    3    3  502    0 -0.29357675408E+03 -0.79235104611E+03  0.32465013159E+03  0.90521003020E+03  0.50400001928E-02 0.  1.
       -1    1    3    3    0  502  0.29357675408E+03  0.79235104611E+03 -0.29896437503E+04  0.31067631459E+04  0.50400001928E-02 0. -1.
</event>
<event>
 5   0  0.1813720E-07  0.3002517E+04  0.7818609E-02  0.8243012E-01
        2   -1    0    0  501    0  0.00000000000E+00  0.00000000000E+00  0.25506629193E+04  0.25506629193E+04  0.25500000920E-02 0.  1.
       -2   -1    0    0    0  501  0.00000000000E+00  0.00000000000E+00 -0.88360465875E+03  0.88360465876E+03  0.25500000920E-02 0. -1.
    10030    2    1    2    0    0  0.00000000000E+00  0.00000000000E+00  0.16670582606E+04  0.34342675781E+04  0.30025173694E+04 0.  0.
        3    1    3    3  502    0  0.52297557876E+03  0.12451835827E+04  0.83673297415E+02  0.13531396238E+04  0.10100000352E+00 0. -1.
       -3    1    3    3    0  502 -0.52297557876E+03 -0.12451835827E+04  0.15833849631E+04  0.20811279543E+04  0.10100000352E+00 0.  1.
</event>
<event>
 5   0  0.1914439E-07  0.3000265E+04  0.7818609E-02  0.8243655E-01
        2   -1    0    0  501    0  0.00000000000E+00  0.00000000000E+00  0.15026979858E+04  0.15026979858E+04  0.25500000920E-02 0. -1.
       -2   -1    0    0    0  501  0.00000000000E+00  0.00000000000E+00 -0.14975715576E+04  0.14975715576E+04  0.25500000920E-02 0.  1.
    10030    2    1    2    0    0  0.00000000000E+00  0.00000000000E+00  0.51264281996E+01  0.30002695434E+04  0.30002651637E+04 0.  0.
        5    1    3    3  502    0  0.61934486367E+02  0.41173234001E+01  0.15014059006E+04  0.15026957781E+04  0.46999998093E+01 0. -1.
       -5    1    3    3    0  502 -0.61934486367E+02 -0.41173234001E+01 -0.14962794724E+04  0.14975737653E+04  0.46999998093E+01 0.  1.
</event>
<event>
 5   0  0.6679022E-08  0.3000681E+04  0.7818609E-02  0.8243537E-01
       -1   -1    0    0    0  501  0.00000000000E+00  0.00000000000E+00  0.17770532209E+04  0.17770532210E+04  0.50400001928E-02 0.  1.
        1   -1    0    0  501    0  0.00000000000E+00  0.00000000000E+00 -0.12667156933E+04  0.12667156933E+04  0.50400001928E-02 0. -1.
    10030    2    1    2    0    0  0.00000000000E+00  0.00000000000E+00  0.51033752765E+03  0.30437689143E+04  0.30006807246E+04 0.  0.
        3    1    3    3  502    0 -0.12498433500E+04  0.72172589181E+03 -0.16062525112E+03  0.14521698055E+04  0.10100000352E+00 0. -1.
       -3    1    3    3    0  502  0.12498433500E+04 -0.72172589181E+03  0.67096277878E+03  0.15915991088E+04  0.10100000352E+00 0.  1.
</event>
<event>
 5   0  0.6374748E-08  0.3000945E+04  0.7818609E-02  0.8243461E-01
       -1   -1    0    0    0  501  0.00000000000E+00  0.00000000000E+00  0.91797630253E+03  0.91797630254E+03  0.50400001928E-02 0. -1.
        1   -1    0    0  501    0  0.00000000000E+00  0.00000000000E+00 -0.24525879159E+04  0.24525879159E+04  0.50400001928E-02 0.  1.
    10030    2    1    2    0    0  0.00000000000E+00  0.00000000000E+00 -0.15346116134E+04  0.33705642185E+04  0.30009449090E+04 0.  0.
        1    1    3    3  502    0  0.14662462065E+04 -0.29161976001E+03 -0.91156865338E+03  0.17509647147E+04  0.50400001928E-02 0. -1.
       -1    1    3    3    0  502 -0.14662462065E+04  0.29161976001E+03 -0.62304296000E+03  0.16195995037E+04  0.50400001928E-02 0.  1.
</event>
<event>
 5   0  0.6679022E-08  0.3003250E+04  0.7818609E-02  0.8242803E-01
        1   -1    0    0  501    0  0.00000000000E+00  0.00000000000E+00  0.29151566834E+04  0.29151566834E+04  0.50400001928E-02 0.  1.
       -1   -1    0    0    0  501  0.00000000000E+00  0.00000000000E+00 -0.77350158405E+03  0.77350158407E+03  0.50400001928E-02 0. -1.
    10030    2    1    2    0    0  0.00000000000E+00  0.00000000000E+00  0.21416550994E+04  0.36886582675E+04  0.30032504474E+04 0.  0.
        3    1    3    3  502    0  0.10571972956E+04 -0.74043356075E+03  0.20134191769E+04  0.23916029712E+04  0.10100000352E+00 0. -1.
       -3    1    3    3    0  502 -0.10571972956E+04  0.74043356075E+03  0.12823592251E+03  0.12970552963E+04  0.10100000352E+00 0.  1.
</event>
<event>
 5   0  0.6374748E-08  0.3000005E+04  0.7818609E-02  0.8243729E-01
       -1   -1    0    0    0  501  0.00000000000E+00  0.00000000000E+00  0.11571676532E+04  0.11571676532E+04  0.50400001928E-02 0.  1.
        1   -1    0    0  501    0  0.00000000000E+00  0.00000000000E+00 -0.19444097696E+04  0.19444097696E+04  0.50400001928E-02 0. -1.
    10030    2    1    2    0    0  0.00000000000E+00  0.00000000000E+00 -0.78724211636E+03  0.31015774228E+04  0.30000053933E+04 0.  0.
        1    1    3    3  502    0 -0.57595660271E+03 -0.17941841175E+03  0.10262271765E+04  0.11904029538E+04  0.50400001928E-02 0.  1.
       -1    1    3    3    0  502  0.57595660271E+03  0.17941841175E+03 -0.18134692929E+04  0.19111744690E+04  0.50400001928E-02 0. -1.
</event>
<event>
 5   0  0.6525507E-08  0.3000331E+04  0.7818609E-02  0.8243636E-01
       -1   -1    0    0    0  501  0.00000000000E+00  0.00000000000E+00  0.14912519878E+04  0.14912519878E+04  0.50400001928E-02 0.  1.
        1   -1    0    0  501    0  0.00000000000E+00  0.00000000000E+00 -0.15091325839E+04  0.15091325839E+04  0.50400001928E-02 0. -1.
    10030    2    1    2    0    0  0.00000000000E+00  0.00000000000E+00 -0.17880596130E+02  0.30003845717E+04  0.30003312921E+04 0.  0.
        4    1    3    3  502    0  0.16021508880E+02 -0.69429805786E+03  0.13208159465E+04  0.14922676902E+04  0.12699999809E+01 0.  1.
       -4    1    3    3    0  502 -0.16021508880E+02  0.69429805786E+03 -0.13386965426E+04  0.15081168814E+04  0.12699999809E+01 0. -1.
</event>
<event>
 5   0  0.1810055E-07  0.2995612E+04  0.7818609E-02  0.8244985E-01
        2   -1    0    0  501    0  0.00000000000E+00  0.00000000000E+00  0.17911035197E+04  0.17911035197E+04  0.25500000920E-02 0. -1.
       -2   -1    0    0    0  501  0.00000000000E+00  0.00000000000E+00 -0.12525367960E+04  0.12525367960E+04  0.25500000920E-02 0.  1.
    10030    2    1    2    0    0  0.00000000000E+00  0.00000000000E+00  0.53856672375E+03  0.30436403157E+04  0.29956121671E+04 0.  0.
        4    1    3    3  502    0 -0.12960386805E+03 -0.12144808844E+04 -0.61160038679E+03  0.13659493501E+04  0.12699999809E+01 0.  1.
       -4    1    3    3    0  502  0.12960386805E+03  0.12144808844E+04  0.11501671105E+04  0.16776909656E+04  0.12699999809E+01 0. -1.
</event>
<event>
 5   0  0.1914439E-07  0.3000735E+04  0.7818609E-02  0.8243521E-01
        2   -1    0    0  501    0  0.00000000000E+00  0.00000000000E+00  0.12319145860E+04  0.12319145860E+04  0.25500000920E-02 0. -1.
       -2   -1    0    0    0  501  0.00000000000E+00  0.00000000000E+00 -0.18273207726E+04  0.18273207726E+04  0.25500000920E-02 0.  1.
    10030    2    1    2    0    0  0.00000000000E+00  0.00000000000E+00 -0.59540618656E+03  0.30592353586E+04  0.30007353186E+04 0.  0.
        5    1    3    3  502    0  0.11688654856E+04 -0.39450705545E+02  0.66044787271E+03  0.13431367630E+04  0.46999998093E+01 0. -1.
       -5    1    3    3    0  502 -0.11688654856E+04  0.39450705545E+02 -0.12558540593E+04  0.17160985956E+04  0.46999998093E+01 0.  1.
</event>
<event>
 5   0  0.6374748E-08  0.2999785E+04  0.7818609E-02  0.8243792E-01
       -1   -1    0    0    0  501  0.00000000000E+00  0.00000000000E+00  0.10405538657E+04  0.10405538657E+04  0.50400001928E-02 0. -1.
        1   -1    0    0  501    0  0.00000000000E+00  0.00000000000E+00 -0.21620004124E+04  0.21620004124E+04  0.50400001928E-02 0.  1.
    10030    2    1    2    0    0  0.00000000000E+00  0.00000000000E+00 -0.11214465467E+04  0.32025542781E+04  0.29997852502E+04 0.  0.
        1    1    3    3  502    0  0.96681816049E+03 -0.69780593777E+03 -0.15321799646E+04  0.19414545903E+04  0.50400001928E-02 0.  1.
       -1    1    3    3    0  502 -0.96681816049E+03  0.69780593777E+03  0.41073341781E+03  0.12610996879E+04  0.50400001928E-02 0. -1.
</event>
<event>
 5   0  0.1813720E-07  0.2999843E+04  0.7818609E-02  0.8243776E-01
       -2   -1    0    0    0  501  0.00000000000E+00  0.00000000000E+00  0.14492332823E+04  0.14492332823E+04  0.25500000920E-02 0. -1.
        2   -1    0    0  501    0  0.00000000000E+00  0.00000000000E+00 -0.15523823688E+04  0.15523823688E+04  0.25500000920E-02 0.  1.
    10030    2    1    2    0    0  0.00000000000E+00  0.00000000000E+00 -0.10314908656E+03  0.30016156511E+04  0.29998427931E+04 0.  0.
        3    1    3    3  502    0  0.11004460845E+03 -0.27952088597E+03 -0.15219743812E+04  0.15513374129E+04  0.10100000352E+00 0.  1.
       -3    1    3    3    0  502 -0.11004460845E+03  0.27952088597E+03  0.14188252946E+04  0.14502782382E+04  0.10100000352E+00 0. -1.
</event>
<event>
 5   0  0.1817566E-07  0.3014272E+04  0.7818609E-02  0.8239667E-01
        2   -1    0    0  501    0  0.00000000000E+00  0.00000000000E+00  0.14586205098E+04  0.14586205098E+04  0.25500000920E-02 0.  1.
       -2   -1    0    0    0  501  0.00000000000E+00  0.00000000000E+00 -0.15572647161E+04  0.15572647161E+04  0.25500000920E-02 0. -1.
    10030    2    1    2    0    0  0.00000000000E+00  0.00000000000E+00 -0.98644206282E+02  0.30158852259E+04  0.30142715565E+04 0.  0.
        1    1    3    3  502    0 -0.14390005709E+04 -0.32536134108E+03 -0.35750584380E+03  0.15180227514E+04  0.50400001928E-02 0. -1.
       -1    1    3    3    0  502  0.14390005709E+04  0.32536134108E+03  0.25886163751E+03  0.14978624746E+04  0.50400001928E-02 0.  1.
</event>
<event>
 5   0  0.1821305E-07  0.3003821E+04  0.7818609E-02  0.8242641E-01
        2   -1    0    0  501    0  0.00000000000E+00  0.00000000000E+00  0.18958016105E+04  0.18958016105E+04  0.25500000920E-02 0. -1.
       -2   -1    0    0    0  501  0.00000000000E+00  0.00000000000E+00 -0.11898578640E+04  0.11898578640E+04  0.25500000920E-02 0.  1.
    10030    2    1    2    0    0  0.00000000000E+00  0.00000000000E+00  0.70594374656E+03  0.30856594745E+04  0.30038205372E+04 0.  0.
        2    1    3    3  502    0  0.12098429245E+04 -0.21238475905E+03  0.12407559617E+04  0.17459388719E+04  0.25500000920E-02 0.  1.
       -2    1    3    3    0  502 -0.12098429245E+04  0.21238475905E+03 -0.53481221516E+03  0.13397206027E+04  0.25500000920E-02 0. -1.
</event>
<event>
 5   0  0.6636007E-08  0.3005097E+04  0.7818609E-02  0.8242277E-01
        1   -1    0    0  501    0  0.00000000000E+00  0.00000000000E+00  0.29468563948E+04  0.29468563948E+04  0.50400001928E-02 0. -1.
       -1   -1    0    0    0  501  0.00000000000E+00  0.00000000000E+00 -0.76612204000E+03  0.76612204002E+03  0.50400001928E-02 0.  1.
    10030    2    1    2    0    0  0.00000000000E+00  0.00000000000E+00  0.21807343548E+04  0.37129784348E+04  0.30050967590E+04 0.  0.
        2    1    3    3  502    0 -0.24191190177E+03  0.14563713932E+04  0.74504490025E+03  0.16536719465E+04  0.25500000920E-02 0.  1.
       -2    1    3    3    0  502  0.24191190177E+03 -0.14563713932E+04  0.14356894545E+04  0.20593064883E+04  0.25500000920E-02 0. -1.
</event>
<event>
 5   0  0.6525507E-08  0.3004096E+04  0.7818609E-02  0.8242562E-01
       -1   -1    0    0    0  501  0.00000000000E+00  0.00000000000E+00  0.13418322335E+04  0.13418322335E+04  0.50400001928E-02 0. -1.
        1   -1    0    0  501    0  0.00000000000E+00  0.00000000000E+00 -0.16813931648E+04  0.16813931648E+04  0.50400001928E-02 0.  1.
    10030    2    1    2    0    0  0.00000000000E+00  0.00000000000E+00 -0.33956093132E+03  0.30232253984E+04  0.30040955683E+04 0.  0.
        4    1    3    3  502    0 -0.12011050280E+04  0.78407651233E+03  0.27883467870E+03  0.14612253955E+04  0.12699999809E+01 0. -1.
       -4    1    3    3    0  502  0.12011050280E+04 -0.78407651233E+03 -0.61839561002E+03  0.15620000029E+04  0.12699999809E+01 0.  1.
</event>
<event>
 5   0  0.1914439E-07  0.2999925E+04  0.7818609E-02  0.8243752E-01
        2   -1    0    0  501    0  0.00000000000E+00  0.00000000000E+00  0.26318868701E+04  0.26318868701E+04  0.25500000920E-02 0. -1.
       -2   -1    0    0    0  501  0.00000000000E+00  0.00000000000E+00 -0.85485724540E+03  0.85485724541E+03  0.25500000920E-02 0.  1.
    10030    2    1    2    0    0  0.00000000000E+00  0.00000000000E+00  0.17770296247E+04  0.34867441155E+04  0.29999250391E+04 0.  0.
        5    1    3    3  502    0  0.54942357534E+03 -0.10508264508E+04 -0.17911306650E+03  0.11992522985E+04  0.46999998093E+01 0.  1.
       -5    1    3    3    0  502 -0.54942357534E+03  0.10508264508E+04  0.19561426912E+04  0.22874918171E+04  0.46999998093E+01 0. -1.
</event>
<event>
 5   0  0.6636007E-08  0.3000242E+04  0.7818609E-02  0.8243662E-01
       -1   -1    0    0    0  501  0.00000000000E+00  0.00000000000E+00  0.16890417070E+04  0.16890417070E+04  0.50400001928E-02 0. -1.
        1   -1    0    0  501    0  0.00000000000E+00  0.00000000000E+00 -0.13323316387E+04  0.13323316387E+04  0.50400001928E-02 0.  1.
    10030    2    1    2    0    0  0.00000000000E+00  0.00000000000E+00  0.35671006825E+03  0.30213733457E+04  0.30002424604E+04 0.  0.
        2    1    3    3  502    0  0.82179102668E+03  0.40783660619E+03  0.13735978562E+04  0.16517997032E+04  0.25500000920E-02 0. -1.
       -2    1    3    3    0  502 -0.82179102668E+03 -0.40783660619E+03 -0.10168877880E+04  0.13695736425E+04  0.25500000920E-02 0.  1.
</event>
<event>
 5   0  0.6464436E-08  0.3009269E+04  0.7818609E-02  0.8241089E-01
        1   -1    0    0  501    0  0.00000000000E+00  0.00000000000E+00  0.23902164870E+04  0.23902164870E+04  0.50400001928E-02 0.  1.
       -1   -1    0    0    0  501  0.00000000000E+00  0.00000000000E+00 -0.94716310918E+03  0.94716310919E+03  0.50400001928E-02 0. -1.
    10030    2    1    2    0    0  0.00000000000E+00  0.00000000000E+00  0.14430533778E+04  0.33373795962E+04  0.30092689341E+04 0.  0.
        5    1    3    3  502    0  0.88424022693E+03 -0.19539195697E+03  0.20541418196E+04  0.22449007775E+04  0.46999998093E+01 0.  1.
       -5    1    3    3    0  502 -0.88424022693E+03  0.19539195697E+03 -0.61108844175E+03  0.10924788187E+04  0.46999998093E+01 0. -1.
</event>
<event>
 5   0  0.6525507E-08  0.3003335E+04  0.7818609E-02  0.8242779E-01
        1   -1    0    0  501    0  0.00000000000E+00  0.00000000000E+00  0.13496115018E+04  0.13496115018E+04  0.50400001928E-02 0. -1.
       -1   -1    0    0    0  501  0.00000000000E+00  0.00000000000E+00 -0.16708553344E+04  0.16708553345E+04  0.50400001928E-02 0.  1.
    10030    2    1    2    0    0  0.00000000000E+00  0.00000000000E+00 -0.32124383269E+03  0.30204668362E+04  0.30033351975E+04 0.  0.
        4    1    3    3  502    0  0.53826571845E+03  0.20488376537E+02 -0.15703502591E+04  0.16601660479E+04  0.12699999809E+01 0.  1.
       -4    1    3    3    0  502 -0.53826571845E+03 -0.20488376537E+02  0.12491064265E+04  0.13603007883E+04  0.12699999809E+01 0. -1.
</event>
<event>
 5   0  0.6679022E-08  0.2999712E+04  0.7818609E-02  0.8243813E-01
       -1   -1    0    0    0  501  0.00000000000E+00  0.00000000000E+00  0.88450132769E+03  0.88450132771E+03  0.50400001928E-02 0. -1.
        1   -1    0    0  501    0  0.00000000000E+00  0.00000000000E+00 -0.25433178627E+04  0.25433178627E+04  0.50400001928E-02 0.  1.
    10030    2    1    2    0    0  0.00000000000E+00  0.00000000000E+00 -0.16588165350E+04  0.34278191904E+04  0.29997120037E+04 0.  0.
        3    1    3    3  502    0 -0.99472877088E+03  0.64332294050E+03 -0.18805942160E+04  0.22226075562E+04  0.10100000352E+00 0.  1.
       -3    1    3    3    0  502  0.99472877088E+03 -0.64332294050E+03  0.22177768094E+03  0.12052116343E+04  0.10100000352E+00 0. -1.
</event>
<event>
 5   0  0.6464436E-08  0.2999166E+04  0.7818609E-02  0.8243969E-01
       -1   -1    0    0    0  501  0.00000000000E+00  0.00000000000E+00  0.17063897040E+04  0.17063897040E+04  0.50400001928E-02 0.  1.
        1   -1    0    0  501    0  0.00000000000E+00  0.00000000000E+00 -0.13178406813E+04  0.13178406813E+04  0.50400001928E-02 0. -1.
    10030    2    1    2    0    0  0.00000000000E+00  0.00000000000E+00  0.38854902271E+03  0.30242303853E+04  0.29991663975E+04 0.  0.
        5    1    3    3  502    0  0.52438024521E+03  0.71586898677E+03 -0.10246637782E+04  0.13555076526E+04  0.46999998093E+01 0. -1.
       -5    1    3    3    0  502 -0.52438024521E+03 -0.71586898677E+03  0.14132128010E+04  0.16687227327E+04  0.46999998093E+01 0.  1.
</event>
<event>
 5   0  0.6374748E-08  0.3000887E+04  0.7818609E-02  0.8243478E-01
       -1   -1    0    0    0  501  0.00000000000E+00  0.00000000000E+00  0.12241921393E+04  0.12241921393E+04  0.50400001928E-02 0.  1.
        1   -1    0    0  501    0  0.00000000000E+00  0.00000000000E+00 -0.18390333309E+04  0.18390333309E+04  0.50400001928E-02 0. -1.
    10030    2    1    2    0    0  0.00000000000E+00  0.00000000000E+00 -0.61484119164E+03  0.30632254702E+04  0.30008866340E+04 0.  0.
        1    1    3    3  502    0 -0.12383957321E+04 -0.31588507444E+03 -0.11098308640E+04  0.16926700553E+04  0.50400001928E-02 0. -1.
       -1    1    3    3    0  502  0.12383957321E+04  0.31588507444E+03  0.49498967233E+03  0.13705554149E+04  0.50400001928E-02 0.  1.
</event>
<event>
 5   0  0.6017625E-08  0.2999974E+04  0.7818609E-02  0.8243738E-01
       -3   -1    0    0    0  501  0.00000000000E+00  0.00000000000E+00  0.14462927750E+04  0.14462927785E+04  0.10100000352E+00 0.  1.
        3   -1    0    0  501    0  0.00000000000E+00  0.00000000000E+00 -0.15556743366E+04  0.15556743399E+04  0.10100000352E+00 0. -1.
    10030    2    1    2    0    0  0.00000000000E+00  0.00000000000E+00 -0.10938156161E+03  0.30019671184E+04  0.29999737089E+04 0.  0.
        3    1    3    3  502    0  0.11999671041E+04  0.85658468441E+03 -0.33110282166E+03  0.15110550821E+04  0.10100000352E+00 0.  1.
       -3    1    3    3    0  502 -0.11999671041E+04 -0.85658468441E+03  0.22172126005E+03  0.14909120363E+04  0.10100000352E+00 0. -1.
</event>
<event>
 5   0  0.1817566E-07  0.2999653E+04  0.7818609E-02  0.8243830E-01
       -2   -1    0    0    0  501  0.00000000000E+00  0.00000000000E+00  0.13611397225E+04  0.13611397225E+04  0.25500000920E-02 0.  1.
        2   -1    0    0  501    0  0.00000000000E+00  0.00000000000E+00 -0.16526440474E+04  0.16526440474E+04  0.25500000920E-02 0. -1.
    10030    2    1    2    0    0  0.00000000000E+00  0.00000000000E+00 -0.29150432491E+03  0.30137837699E+04  0.29996529533E+04 0.  0.
        1    1    3    3  502    0 -0.47951886212E+03  0.45634625420E+03  0.12064293038E+04  0.13761038870E+04  0.50400001928E-02 0.  1.
       -1    1    3    3    0  502  0.47951886212E+03 -0.45634625420E+03 -0.14979336287E+04  0.16376798829E+04  0.50400001928E-02 0. -1.
</event>
<event>
 5   0  0.6374748E-08  0.3000311E+04  0.7818609E-02  0.8243642E-01
        1   -1    0    0  501    0  0.00000000000E+00  0.00000000000E+00  0.15914198019E+04  0.15914198019E+04  0.50400001928E-02 0.  1.
       -1   -1    0    0    0  501  0.00000000000E+00  0.00000000000E+00 -0.14141249594E+04  0.14141249594E+04  0.50400001928E-02 0. -1.
    10030    2    1    2    0    0  0.00000000000E+00  0.00000000000E+00  0.17729484251E+03  0.30055447613E+04  0.30003109591E+04 0.  0.
        1    1    3    3  502    0  0.11099615390E+04  0.15356275374E+03 -0.91052438382E+03  0.14438319815E+04  0.50400001928E-02 0. -1.
       -1    1    3    3    0  502 -0.11099615390E+04 -0.15356275374E+03  0.10878192263E+04  0.15617127798E+04  0.50400001928E-02 0.  1.
</event>
<event>
 5   0  0.1810055E-07  0.3003094E+04  0.7818609E-02  0.8242848E-01
        2   -1    0    0  501    0  0.00000000000E+00  0.00000000000E+00  0.15264253219E+04  0.15264253219E+04  0.25500000920E-02 0.  1.
       -2   -1    0    0    0  501  0.00000000000E+00  0.00000000000E+00 -0.14770743666E+04  0.14770743666E+04  0.25500000920E-02 0. -1.
    10030    2    1    2    0    0  0.00000000000E+00  0.00000000000E+00  0.49350955223E+02  0.30034996885E+04  0.30030942147E+04 0.  0.
        4    1    3    3  502    0  0.15506726084E+03  0.79253514336E+03  0.12907390833E+04  0.15225527258E+04  0.12699999809E+01 0.  1.
       -4    1    3    3    0  502 -0.15506726084E+03 -0.79253514336E+03 -0.12413881281E+04  0.14809469627E+04  0.12699999809E+01 0. -1.
</event>
<event>
 5   0  0.1914439E-07  0.3000620E+04  0.7818609E-02  0.8243554E-01
       -2   -1    0    0    0  501  0.00000000000E+00  0.00000000000E+00  0.11923700143E+04  0.11923700143E+04  0.25500000920E-02 0.  1.
        2   -1    0    0  501    0  0.00000000000E+00  0.00000000000E+00 -0.18877787789E+04  0.18877787789E+04  0.25500000920E-02 0. -1.
    10030    2    1    2    0    0  0.00000000000E+00  0.00000000000E+00 -0.69540876463E+03  0.30801487932E+04  0.30006204756E+04 0.  0.
        5    1    3    3  502    0  0.13791026719E+04 -0.19529239605E+03  0.22460763392E+03  0.14108628491E+04  0.46999998093E+01 0.  1.
       -5    1    3    3    0  502 -0.13791026719E+04  0.19529239605E+03 -0.92001639855E+03  0.16692859441E+04  0.46999998093E+01 0. -1.
</event>
<event>
 5   0  0.6636007E-08  0.3007908E+04  0.7818609E-02  0.8241476E-01
        1   -1    0    0  501    0  0.00000000000E+00  0.00000000000E+00  0.16342757086E+04  0.16342757086E+04  0.50400001928E-02 0.  1.
       -1   -1    0    0    0  501  0.00000000000E+00  0.00000000000E+00 -0.13840243945E+04  0.13840243945E+04  0.50400001928E-02 0. -1.
    10030    2    1    2    0    0  0.00000000000E+00  0.00000000000E+00  0.25025131411E+03  0.30183001031E+04  0.30079078763E+04 0.  0.
        2    1    3    3  502    0  0.76637503914E+03  0.37313264260E+02 -0.11728480837E+04  0.14015333060E+04  0.25500000920E-02 0. -1.
       -2    1    3    3    0  502 -0.76637503914E+03 -0.37313264260E+02  0.14230993978E+04  0.16167667972E+04  0.25500000920E-02 0.  1.
</event>
<event>
 5   0  0.6374748E-08  0.3004116E+04  0.7818609E-02  0.8242557E-01
        1   -1    0    0  501    0  0.00000000000E+00  0.00000000000E+00  0.21421341072E+04  0.21421341073E+04  0.50400001928E-02 0.  1.
       -1   -1    0    0    0  501  0.00000000000E+00  0.00000000000E+00 -0.10532384866E+04  0.10532384866E+04  0.50400001928E-02 0. -1.
    10030    2    1    2    0    0  0.00000000000E+00  0.00000000000E+00  0.10888956207E+04  0.31953725939E+04  0.30041159000E+04 0.  0.
        1    1    3    3  502    0  0.86015243377E+02 -0.57174709091E+03  0.20190283219E+04  0.21001830212E+04  0.50400001928E-02 0.  1.
       -1    1    3    3    0  502 -0.86015243377E+02  0.57174709091E+03 -0.93013270123E+03  0.10951895726E+04  0.50400001928E-02 0. -1.
</event>
<event>
 5   0  0.1821305E-07  0.3000279E+04  0.7818609E-02  0.8243651E-01
        2   -1    0    0  501    0  0.00000000000E+00  0.00000000000E+00  0.17069877508E+04  0.17069877508E+04  0.25500000920E-02 0. -1.
       -2   -1    0    0    0  501  0.00000000000E+00  0.00000000000E+00 -0.13183563815E+04  0.13183563815E+04  0.25500000920E-02 0.  1.
    10030    2    1    2    0    0  0.00000000000E+00  0.00000000000E+00  0.38863136930E+03  0.30253441324E+04  0.30002787834E+04 0.  0.
        2    1    3    3  502    0  0.14014334863E+04  0.26593321830E+03  0.66261122685E+03  0.15728286401E+04  0.25500000920E-02 0.  1.
       -2    1    3    3    0  502 -0.14014334863E+04 -0.26593321830E+03 -0.27397985755E+03  0.14525154923E+04  0.25500000920E-02 0. -1.
</event>
<event>
 5   0  0.6679022E-08  0.3000422E+04  0.7818609E-02  0.8243610E-01
       -1   -1    0    0    0  501  0.00000000000E+00  0.00000000000E+00  0.13495369897E+04  0.13495369897E+04  0.50400001928E-02 0.  1.
        1   -1    0    0  501    0  0.00000000000E+00  0.00000000000E+00 -0.16677077798E+04  0.16677077798E+04  0.50400001928E-02 0. -1.
    10030    2    1    2    0    0  0.00000000000E+00  0.00000000000E+00 -0.31817079015E+03  0.30172447695E+04  0.30004221949E+04 0.  0.
        3    1    3    3  502    0 -0.27678476754E+03 -0.92717072234E+01  0.13236092062E+04  0.13522710945E+04  0.10100000352E+00 0.  1.
       -3    1    3    3    0  502  0.27678476754E+03  0.92717072234E+01 -0.16417799963E+04  0.16649736751E+04  0.10100000352E+00 0. -1.
</event>
<event>
 5   0  0.6679022E-08  0.3000739E+04  0.7818609E-02  0.8243520E-01
        1   -1    0    0  501    0  0.00000000000E+00  0.00000000000E+00  0.15826392343E+04  0.15826392344E+04  0.50400001928E-02 0.  1.
       -1   -1    0    0    0  501  0.00000000000E+00  0.00000000000E+00 -0.14223761753E+04  0.14223761753E+04  0.50400001928E-02 0. -1.
    10030    2    1    2    0    0  0.00000000000E+00  0.00000000000E+00  0.16026305907E+03  0.30050154096E+04  0.30007388030E+04 0.  0.
        3    1    3    3  502    0  0.12587863777E+04 -0.37544754234E+03 -0.64588745308E+03  0.14637877626E+04  0.10100000352E+00 0. -1.
       -3    1    3    3    0  502 -0.12587863777E+04  0.37544754234E+03  0.80615051215E+03  0.15412276471E+04  0.10100000352E+00 0.  1.
</event>
<event>
 5   0  0.1821305E-07  0.3000165E+04  0.7818609E-02  0.8243684E-01
        2   -1    0    0  501    0  0.00000000000E+00  0.00000000000E+00  0.13748882902E+04  0.13748882902E+04  0.25500000920E-02 0. -1.
       -2   -1    0    0    0  501  0.00000000000E+00  0.00000000000E+00 -0.16366768407E+04  0.16366768407E+04  0.25500000920E-02 0.  1.
    10030    2    1    2    0    0  0.00000000000E+00  0.00000000000E+00 -0.26178855051E+03  0.30115651309E+04  0.30001652108E+04 0.  0.
        2    1    3    3  502    0  0.13663752136E+04  0.58760273679E+03 -0.32654415159E+03  0.15227899670E+04  0.25500000920E-02 0. -1.
       -2    1    3    3    0  502 -0.13663752136E+04 -0.58760273679E+03  0.64755601078E+02  0.14887751639E+04  0.25500000920E-02 0.  1.
</event>
<event>
 5   0  0.6464436E-08  0.2999000E+04  0.7818609E-02  0.8244016E-01
       -1   -1    0    0    0  501  0.00000000000E+00  0.00000000000E+00  0.11671724982E+04  0.11671724982E+04  0.50400001928E-02 0.  1.
        1   -1    0    0  501    0  0.00000000000E+00  0.00000000000E+00 -0.19264509539E+04  0.19264509539E+04  0.50400001928E-02 0. -1.
    10030    2    1    2    0    0  0.00000000000E+00  0.00000000000E+00 -0.75927845567E+03  0.30936234521E+04  0.29990002151E+04 0.  0.
        5    1    3    3  502    0 -0.12571785260E+04  0.73185732227E+02 -0.12193402740E+04  0.17529023908E+04  0.46999998093E+01 0. -1.
       -5    1    3    3    0  502  0.12571785260E+04 -0.73185732227E+02  0.46006181835E+03  0.13407210614E+04  0.46999998093E+01 0.  1.
</event>
<event>
 5   0  0.1813720E-07  0.3015731E+04  0.7818609E-02  0.8239253E-01
        2   -1    0    0  501    0  0.00000000000E+00  0.00000000000E+00  0.16527611034E+04  0.16527611034E+04  0.25500000920E-02 0. -1.
       -2   -1    0    0    0  501  0.00000000000E+00  0.00000000000E+00 -0.13756724363E+04  0.13756724363E+04  0.25500000920E-02 0.  1.
    10030    2    1    2    0    0  0.00000000000E+00  0.00000000000E+00  0.27708866711E+03  0.30284335398E+04  0.30157306868E+04 0.  0.
        3    1    3    3  502    0  0.79483706568E+03  0.62511293600E+03 -0.98470448808E+03  0.14114443251E+04  0.10100000352E+00 0.  1.
       -3    1    3    3    0  502 -0.79483706568E+03 -0.62511293600E+03  0.12617931552E+04  0.16169892147E+04  0.10100000352E+00 0. -1.
</event>
<event>
 5   0  0.1813720E-07  0.3000178E+04  0.7818609E-02  0.8243680E-01
        2   -1    0    0  501    0  0.00000000000E+00  0.00000000000E+00  0.25141909126E+04  0.25141909126E+04  0.25500000920E-02 0. -1.
       -2   -1    0    0    0  501  0.00000000000E+00  0.00000000000E+00 -0.89502654663E+03  0.89502654663E+03  0.25500000920E-02 0.  1.
    10030    2    1    2    0    0  0.00000000000E+00  0.00000000000E+00  0.16191643659E+04  0.34092174592E+04  0.30001784014E+04 0.  0.
        3    1    3    3  502    0  0.12658842282E+04  0.73783746939E+03  0.44418168820E+03  0.15310664233E+04  0.10100000352E+00 0. -1.
       -3    1    3    3    0  502 -0.12658842282E+04 -0.73783746939E+03  0.11749826777E+04  0.18781510359E+04  0.10100000352E+00 0.  1.
</event>
<event>
 5   0  0.1821305E-07  0.2996435E+04  0.7818609E-02  0.8244750E-01
       -2   -1    0    0    0  501  0.00000000000E+00  0.00000000000E+00  0.14036982150E+04  0.14036982150E+04  0.25500000920E-02 0.  1.
        2   -1    0    0  501    0  0.00000000000E+00  0.00000000000E+00 -0.15991013394E+04  0.15991013394E+04  0.25500000920E-02 0. -1.
    10030    2    1    2    0    0  0.00000000000E+00  0.00000000000E+00 -0.19540312435E+03  0.30027995544E+04  0.29964350123E+04 0.  0.
        2    1    3    3  502    0 -0.11685413572E+04 -0.28714736593E+03  0.79678224161E+03  0.14431924521E+04  0.25500000920E-02 0.  1.
       -2    1    3    3    0  502  0.11685413572E+04  0.28714736593E+03 -0.99218536596E+03  0.15596071023E+04  0.25500000920E-02 0. -1.
</event>
<event>
 5   0  0.6525507E-08  0.2999750E+04  0.7818609E-02  0.8243802E-01
       -1   -1    0    0    0  501  0.00000000000E+00  0.00000000000E+00  0.95211521107E+03  0.95211521108E+03  0.50400001928E-02 0. -1.
        1   -1    0    0  501    0  0.00000000000E+00  0.00000000000E+00 -0.23627649191E+04  0.23627649191E+04  0.50400001928E-02 0.  1.
    10030    2    1    2    0    0  0.00000000000E+00  0.00000000000E+00 -0.14106497081E+04  0.33148801302E+04  0.29997496027E+04 0.  0.
        4    1    3    3  502    0 -0.83352235735E+03 -0.24882840039E+03  0.64489696894E+03  0.10828521628E+04  0.12699999809E+01 0. -1.
       -4    1    3    3    0  502  0.83352235735E+03  0.24882840039E+03 -0.20555466770E+04  0.22320279674E+04  0.12699999809E+01 0.  1.
</event>
<event>
 5   0  0.1817566E-07  0.3001071E+04  0.7818609E-02  0.8243425E-01
        2   -1    0    0  501    0  0.00000000000E+00  0.00000000000E+00  0.16972202756E+04  0.16972202756E+04  0.25500000920E-02 0. -1.
       -2   -1    0    0    0  501  0.00000000000E+00  0.00000000000E+00 -0.13266436049E+04  0.13266436049E+04  0.25500000920E-02 0.  1.
    10030    2    1    2    0    0  0.00000000000E+00  0.00000000000E+00  0.37057667072E+03  0.30238638805E+04  0.30010707587E+04 0.  0.
        1    1    3    3  502    0 -0.79846639797E+03  0.61731462431E+03 -0.93354166902E+03  0.13748185269E+04  0.50400001928E-02 0.  1.
       -1    1    3    3    0  502  0.79846639797E+03 -0.61731462431E+03  0.13041183397E+04  0.16490453536E+04  0.50400001928E-02 0. -1.
</event>
<event>
 5   0  0.1821305E-07  0.3000065E+04  0.7818609E-02  0.8243712E-01
        2   -1    0    0  501    0  0.00000000000E+00  0.00000000000E+00  0.21717551251E+04  0.21717551251E+04  0.25500000920E-02 0. -1.
       -2   -1    0    0    0  501  0.00000000000E+00  0.00000000000E+00 -0.10360732100E+04  0.10360732100E+04  0.25500000920E-02 0.  1.
    10030    2    1    2    0    0  0.00000000000E+00  0.00000000000E+00  0.11356819151E+04  0.32078283351E+04  0.30000648685E+04 0.  0.
        2    1    3    3  502    0  0.11427950122E+04 -0.81405268800E+03  0.59737310707E+00  0.14030903662E+04  0.25500000920E-02 0. -1.
       -2    1    3    3    0  502 -0.11427950122E+04  0.81405268800E+03  0.11350845420E+04  0.18047379689E+04  0.25500000920E-02 0.  1.
</event>
<event>
 5   0  0.1817566E-07  0.3001090E+04  0.7818609E-02  0.8243420E-01
       -2   -1    0    0    0  501  0.00000000000E+00  0.00000000000E+00  0.11503159397E+04  0.11503159397E+04  0.25500000920E-02 0. -1.
        2   -1    0    0  501    0  0.00000000000E+00  0.00000000000E+00 -0.19574064905E+04  0.19574064905E+04  0.25500000920E-02 0.  1.
    10030    2    1    2    0    0  0.00000000000E+00  0.00000000000E+00 -0.80709055082E+03  0.31077224303E+04  0.30010903929E+04 0.  0.
        1    1    3    3  502    0 -0.63752207358E+03 -0.13309379638E+04 -0.68486999079E+03  0.16269226048E+04  0.50400001928E-02 0.  1.
       -1    1    3    3    0  502  0.63752207358E+03  0.13309379638E+04 -0.12222056003E+03  0.14807998255E+04  0.50400001928E-02 0. -1.
</event>
<event>
 5   0  0.1813720E-07  0.3000911E+04  0.7818609E-02  0.8243471E-01
       -2   -1    0    0    0  501  0.00000000000E+00  0.00000000000E+00  0.10308095002E+04  0.10308095002E+04  0.25500000920E-02 0.  1.
        2   -1    0    0  501    0  0.00000000000E+00  0.00000000000E+00 -0.21840767639E+04  0.21840767639E+04  0.25500000920E-02 0. -1.
    10030    2    1    2    0    0  0.00000000000E+00  0.00000000000E+00 -0.11532672637E+04  0.32148862641E+04  0.30009112465E+04 0.  0.
        3    1    3    3  502    0 -0.53634213675E+03  0.98113171184E+02  0.92092352836E+03  0.10702285911E+04  0.10100000352E+00 0.  1.
       -3    1    3    3    0  502  0.53634213675E+03 -0.98113171184E+02 -0.20741907921E+04  0.21446576729E+04  0.10100000352E+00 0. -1.
</event>
<event>
 5   0  0.6636007E-08  0.2997956E+04  0.7818609E-02  0.8244315E-01
        1   -1    0    0  501    0  0.00000000000E+00  0.00000000000E+00  0.16203521293E+04  0.16203521293E+04  0.50400001928E-02 0.  1.
       -1   -1    0    0    0  501  0.00000000000E+00  0.00000000000E+00 -0.13866955716E+04  0.13866955717E+04  0.50400001928E-02 0. -1.
    10030    2    1    2    0    0  0.00000000000E+00  0.00000000000E+00  0.23365655769E+03  0.30070477010E+04  0.29979560519E+04 0.  0.
        2    1    3    3  502    0 -0.21239240729E+03  0.10171201940E+04 -0.96686066397E+03  0.14193179937E+04  0.25500000920E-02 0. -1.
       -2    1    3    3    0  502  0.21239240729E+03 -0.10171201940E+04  0.12005172217E+04  0.15877297073E+04  0.25500000920E-02 0.  1.
</event>
<event>
 5   0  0.1817566E-07  0.3001166E+04  0.7818609E-02  0.8243398E-01
       -2   -1    0    0    0  501  0.00000000000E+00  0.00000000000E+00  0.14792292753E+04  0.14792292753E+04  0.25500000920E-02 0.  1.
        2   -1    0    0  501    0  0.00000000000E+00  0.00000000000E+00 -0.15222452200E+04  0.15222452200E+04  0.25500000920E-02 0. -1.
    10030    2    1    2    0    0  0.00000000000E+00  0.00000000000E+00 -0.43015944650E+02  0.30014744953E+04  0.30011662357E+04 0.  0.
        1    1    3    3  502    0  0.14084724796E+04 -0.50145022212E+03 -0.14998377822E+03  0.15025785120E+04  0.50400001928E-02 0. -1.
       -1    1    3    3    0  502 -0.14084724796E+04  0.50145022212E+03  0.10696783357E+03  0.14988959832E+04  0.50400001928E-02 0.  1.
</event>
<event>
 5   0  0.1810055E-07  0.3001140E+04  0.7818609E-02  0.8243405E-01
        2   -1    0    0  501    0  0.00000000000E+00  0.00000000000E+00  0.14767722281E+04  0.14767722281E+04  0.25500000920E-02 0. -1.
       -2   -1    0    0    0  501  0.00000000000E+00  0.00000000000E+00 -0.15247512935E+04  0.15247512935E+04  0.25500000920E-02 0.  1.
    10030    2    1    2    0    0  0.00000000000E+00  0.00000000000E+00 -0.47979065415E+02  0.30015235217E+04  0.30011400268E+04 0.  0.
        4    1    3    3  502    0  0.63036692693E+03  0.88358467101E+03 -0.10602804274E+04  0.15173267713E+04  0.12699999809E+01 0. -1.
       -4    1    3    3    0  502 -0.63036692693E+03 -0.88358467101E+03  0.10123013619E+04  0.14841967503E+04  0.12699999809E+01 0.  1.
</event>
<event>
 5   0  0.6374748E-08  0.2999354E+04  0.7818609E-02  0.8243915E-01
        1   -1    0    0  501    0  0.00000000000E+00  0.00000000000E+00  0.17170384941E+04  0.17170384941E+04  0.50400001928E-02 0.  1.
       -1   -1    0    0    0  501  0.00000000000E+00  0.00000000000E+00 -0.13098313689E+04  0.13098313689E+04  0.50400001928E-02 0. -1.
    10030    2    1    2    0    0  0.00000000000E+00  0.00000000000E+00  0.40720712513E+03  0.30268698630E+04  0.29993538512E+04 0.  0.
        1    1    3    3  502    0  0.19022929276E+03 -0.51395019836E+01 -0.12975973567E+04  0.13114772200E+04  0.50400001928E-02 0. -1.
       -1    1    3    3    0  502 -0.19022929276E+03  0.51395019836E+01  0.17048044819E+04  0.17153926430E+04  0.50400001928E-02 0.  1.
</event>
<event>
 5   0  0.6636007E-08  0.2999781E+04  0.7818609E-02  0.8243793E-01
       -1   -1    0    0    0  501  0.00000000000E+00  0.00000000000E+00  0.10542045220E+04  0.10542045220E+04  0.50400001928E-02 0. -1.
        1   -1    0    0  501    0  0.00000000000E+00  0.00000000000E+00 -0.21339992693E+04  0.21339992693E+04  0.50400001928E-02 0.  1.
    10030    2    1    2    0    0  0.00000000000E+00  0.00000000000E+00 -0.10797947473E+04  0.31882037913E+04  0.29997811118E+04 0.  0.
        2    1    3    3  502    0  0.38023706460E+03  0.10924174901E+03 -0.20775473359E+04  0.21148798826E+04  0.25500000920E-02 0.  1.
       -2    1    3    3    0  502 -0.38023706460E+03 -0.10924174901E+03  0.99775258856E+03  0.10733239087E+04  0.25500000920E-02 0. -1.
</event>
<event>
 5   0  0.6464436E-08  0.2997482E+04  0.7818609E-02  0.8244450E-01
       -1   -1    0    0    0  501  0.00000000000E+00  0.00000000000E+00  0.87390041364E+03  0.87390041365E+03  0.50400001928E-02 0.  1.
        1   -1    0    0  501    0  0.00000000000E+00  0.00000000000E+00 -0.25703444792E+04  0.25703444792E+04  0.50400001928E-02 0. -1.
    10030    2    1    2    0    0  0.00000000000E+00  0.00000000000E+00 -0.16964440655E+04  0.34442448928E+04  0.29974823460E+04 0.  0.
        5    1    3    3  502    0  0.66589670826E+03  0.32807730607E+03 -0.23442559487E+04  0.24589858047E+04  0.46999998093E+01 0. -1.
       -5    1    3    3    0  502 -0.66589670826E+03 -0.32807730607E+03  0.64781188313E+03  0.98525908814E+03  0.46999998093E+01 0.  1.
</event>
<event>
 5   0  0.6017625E-08  0.3006107E+04  0.7818609E-02  0.8241989E-01
        3   -1    0    0  501    0  0.00000000000E+00  0.00000000000E+00  0.12132112147E+04  0.12132112190E+04  0.10100000352E+00 0. -1.
       -3   -1    0    0    0  501  0.00000000000E+00  0.00000000000E+00 -0.18621408170E+04  0.18621408197E+04  0.10100000352E+00 0.  1.
    10030    2    1    2    0    0  0.00000000000E+00  0.00000000000E+00 -0.64892960222E+03  0.30753520387E+04  0.30061072058E+04 0.  0.
        1    1    3    3  502    0  0.86528407834E+03 -0.82990375934E+03  0.60289986176E+03  0.13419929319E+04  0.50400001928E-02 0. -1.
       -1    1    3    3    0  502 -0.86528407834E+03  0.82990375934E+03 -0.12518294640E+04  0.17333591067E+04  0.50400001928E-02 0.  1.
</event>
<event>
 5   0  0.6679022E-08  0.3001054E+04  0.7818609E-02  0.8243430E-01
        1   -1    0    0  501    0  0.00000000000E+00  0.00000000000E+00  0.15526898860E+04  0.15526898860E+04  0.50400001928E-02 0.  1.
       -1   -1    0    0    0  501  0.00000000000E+00  0.00000000000E+00 -0.14501166599E+04  0.14501166599E+04  0.50400001928E-02 0. -1.
    10030    2    1    2    0    0  0.00000000000E+00  0.00000000000E+00  0.10257322610E+03  0.30028065459E+04  0.30010541290E+04 0.  0.
        3    1    3    3  502    0  0.44575748892E+03 -0.12165725686E+04 -0.70601259852E+03  0.14755345991E+04  0.10100000352E+00 0. -1.
       -3    1    3    3    0  502 -0.44575748892E+03  0.12165725686E+04  0.80858582462E+03  0.15272719468E+04  0.10100000352E+00 0.  1.
</event>
<event>
 5   0  0.1810055E-07  0.2998899E+04  0.7818609E-02  0.8244045E-01
       -2   -1    0    0    0  501  0.00000000000E+00  0.00000000000E+00  0.12310452154E+04  0.12310452154E+04  0.25500000920E-02 0.  1.
        2   -1    0    0  501    0  0.00000000000E+00  0.00000000000E+00 -0.18263742561E+04  0.18263742561E+04  0.25500000920E-02 0. -1.
    10030    2    1    2    0    0  0.00000000000E+00  0.00000000000E+00 -0.59532904072E+03  0.30574194715E+04  0.29988993245E+04 0.  0.
        4    1    3    3  502    0  0.22508054380E+03 -0.81536285579E+03 -0.15599156855E+04  0.17744904611E+04  0.12699999809E+01 0. -1.
       -4    1    3    3    0  502 -0.22508054380E+03  0.81536285579E+03  0.96458664474E+03  0.12829290105E+04  0.12699999809E+01 0.  1.
</event>
<event>
 5   0  0.6374748E-08  0.2999714E+04  0.7818609E-02  0.8243813E-01
       -1   -1    0    0    0  501  0.00000000000E+00  0.00000000000E+00  0.14368340214E+04  0.14368340215E+04  0.50400001928E-02 0.  1.
        1   -1    0    0  501    0  0.00000000000E+00  0.00000000000E+00 -0.15656438535E+04  0.15656438535E+04  0.50400001928E-02 0. -1.
    10030    2    1    2    0    0  0.00000000000E+00  0.00000000000E+00 -0.12880983204E+03  0.30024778749E+04  0.29997135558E+04 0.  0.
        1    1    3    3  502    0 -0.49177731773E+03 -0.10519796494E+04  0.88571387529E+03  0.14604777239E+04  0.50400001928E-02 0. -1.
       -1    1    3    3    0  502  0.49177731773E+03  0.10519796494E+04 -0.10145237073E+04  0.15420001510E+04  0.50400001928E-02 0.  1.
</event>
<event>
 5   0  0.1914439E-07  0.3001944E+04  0.7818609E-02  0.8243176E-01
        2   -1    0    0  501    0  0.00000000000E+00  0.00000000000E+00  0.11868906704E+04  0.11868906704E+04  0.25500000920E-02 0.  1.
       -2   -1    0    0    0  501  0.00000000000E+00  0.00000000000E+00 -0.18981667716E+04  0.18981667716E+04  0.25500000920E-02 0. -1.
    10030    2    1    2    0    0  0.00000000000E+00  0.00000000000E+00 -0.71127610116E+03  0.30850574420E+04  0.30019436584E+04 0.  0.
        5    1    3    3  502    0 -0.11217600542E+03 -0.11499508425E+04 -0.13402476542E+04  0.17695356060E+04  0.46999998093E+01 0. -1.
       -5    1    3    3    0  502  0.11217600542E+03  0.11499508425E+04  0.62897155306E+03  0.13155218360E+04  0.46999998093E+01 0.  1.
</event>
<event>
 5   0  0.1914439E-07  0.2998704E+04  0.7818609E-02  0.8244101E-01
        2   -1    0    0  501    0  0.00000000000E+00  0.00000000000E+00  0.28048458442E+04  0.28048458442E+04  0.25500000920E-02 0.  1.
       -2   -1    0    0    0  501  0.00000000000E+00  0.00000000000E+00 -0.80149003867E+03  0.80149003867E+03  0.25500000920E-02 0. -1.
    10030    2    1    2    0    0  0.00000000000E+00  0.00000000000E+00  0.20033558055E+04  0.36063358829E+04  0.29987037227E+04 0.  0.
        5    1    3    3  502    0 -0.10201943771E+04 -0.11431648537E+03 -0.31253439508E+03  0.10731098098E+04  0.46999998093E+01 0. -1.
       -5    1    3    3    0  502  0.10201943771E+04  0.11431648537E+03  0.23158902006E+04  0.25332260730E+04  0.46999998093E+01 0.  1.
</event>
<event>
 5   0  0.1914439E-07  0.3011651E+04  0.7818609E-02  0.8240412E-01
        2   -1    0    0  501    0  0.00000000000E+00  0.00000000000E+00  0.22543213198E+04  0.22543213198E+04  0.25500000920E-02 0.  1.
       -2   -1    0    0    0  501  0.00000000000E+00  0.00000000000E+00 -0.10058505917E+04  0.10058505917E+04  0.25500000920E-02 0. -1.
    10030    2    1    2    0    0  0.00000000000E+00  0.00000000000E+00  0.12484707281E+04  0.32601719115E+04  0.30116509980E+04 0.  0.
        5    1    3    3  502    0  0.38032804085E+01  0.26453564981E+03  0.22289572790E+04  0.22446082545E+04  0.46999998093E+01 0.  1.
       -5    1    3    3    0  502 -0.38032804085E+01 -0.26453564981E+03 -0.98048655084E+03  0.10155636570E+04  0.46999998093E+01 0. -1.
</event>
<event>
 5   0  0.1821305E-07  0.2998713E+04  0.7818609E-02  0.8244099E-01
       -2   -1    0    0    0  501  0.00000000000E+00  0.00000000000E+00  0.11275940851E+04  0.11275940851E+04  0.25500000920E-02 0.  1.
        2   -1    0    0  501    0  0.00000000000E+00  0.00000000000E+00 -0.19936865536E+04  0.19936865536E+04  0.25500000920E-02 0. -1.
    10030    2    1    2    0    0  0.00000000000E+00  0.00000000000E+00 -0.86609246845E+03  0.31212806387E+04  0.29987125007E+04 0.  0.
        2    1    3    3  502    0 -0.11128839563E+03  0.10254171061E+04 -0.15657366262E+04  0.18749390740E+04  0.25500000920E-02 0. -1.
       -2    1    3    3    0  502  0.11128839563E+03 -0.10254171061E+04  0.69964415777E+03  0.12463415647E+04  0.25500000920E-02 0.  1.
</event>
<event>
 5   0  0.6525507E-08  0.2991862E+04  0.7818609E-02  0.8246059E-01
       -1   -1    0    0    0  501  0.00000000000E+00  0.00000000000E+00  0.12491000012E+04  0.12491000012E+04  0.50400001928E-02 0.  1.
        1   -1    0    0  501    0  0.00000000000E+00  0.00000000000E+00 -0.17915369995E+04  0.17915369995E+04  0.50400001928E-02 0. -1.
    10030    2    1    2    0    0  0.00000000000E+00  0.00000000000E+00 -0.54243699828E+03  0.30406370007E+04  0.29918615397E+04 0.  0.
        4    1    3    3  502    0 -0.74588635046E+03  0.25085752895E+03  0.10217371777E+04  0.12896605836E+04  0.12699999809E+01 0.  1.
       -4    1    3    3    0  502  0.74588635046E+03 -0.25085752895E+03 -0.15641741760E+04  0.17509764171E+04  0.12699999809E+01 0. -1.
</event>
<event>
 5   0  0.1817566E-07  0.3001585E+04  0.7818609E-02  0.8243278E-01
       -2   -1    0    0    0  501  0.00000000000E+00  0.00000000000E+00  0.67551338298E+03  0.67551338298E+03  0.25500000920E-02 0.  1.
        2   -1    0    0  501    0  0.00000000000E+00  0.00000000000E+00 -0.33343203973E+04  0.33343203973E+04  0.25500000920E-02 0. -1.
    10030    2    1    2    0    0  0.00000000000E+00  0.00000000000E+00 -0.26588070143E+04  0.40098337803E+04  0.30015849490E+04 0.  0.
        1    1    3    3  502    0  0.50887758667E+03  0.13367584609E+04 -0.19364670481E+04  0.24074435008E+04  0.50400001928E-02 0. -1.
       -1    1    3    3    0  502 -0.50887758667E+03 -0.13367584609E+04 -0.72233996619E+03  0.16023902795E+04  0.50400001928E-02 0.  1.
</event>
<event>
 5   0  0.1914439E-07  0.2999983E+04  0.7818609E-02  0.8243736E-01
       -2   -1    0    0    0  501  0.00000000000E+00  0.00000000000E+00  0.14306940890E+04  0.14306940890E+04  0.25500000920E-02 0.  1.
        2   -1    0    0  501    0  0.00000000000E+00  0.00000000000E+00 -0.15726459051E+04  0.15726459051E+04  0.25500000920E-02 0. -1.
    10030    2    1    2    0    0  0.00000000000E+00  0.00000000000E+00 -0.14195181612E+03  0.30033399941E+04  0.29999834669E+04 0.  0.
        5    1    3    3  502    0 -0.72540238157E+03 -0.79124008639E+03 -0.11198521060E+04  0.15512447643E+04  0.46999998093E+01 0. -1.
       -5    1    3    3    0  502  0.72540238157E+03  0.79124008639E+03  0.97790028985E+03  0.14520952298E+04  0.46999998093E+01 0.  1.
</event>
<event>
 5   0  0.1810055E-07  0.3000254E+04  0.7818609E-02  0.8243658E-01
       -2   -1    0    0    0  501  0.00000000000E+00  0.00000000000E+00  0.14094350067E+04  0.14094350067E+04  0.25500000920E-02 0. -1.
        2   -1    0    0  501    0  0.00000000000E+00  0.00000000000E+00 -0.15966545548E+04  0.15966545548E+04  0.25500000920E-02 0.  1.
    10030    2    1    2    0    0  0.00000000000E+00  0.00000000000E+00 -0.18721954816E+03  0.30060895615E+04  0.30002538714E+04 0.  0.
        4    1    3    3  502    0  0.92451341433E+03 -0.27261524494E+03 -0.12453390177E+04  0.15747745893E+04  0.12699999809E+01 0.  1.
       -4    1    3    3    0  502 -0.92451341433E+03  0.27261524494E+03  0.10581194696E+04  0.14313149723E+04  0.12699999809E+01 0. -1.
</event>
<event>
 5   0  0.1813720E-07  0.2992354E+04  0.7818609E-02  0.8245918E-01
        2   -1    0    0  501    0  0.00000000000E+00  0.00000000000E+00  0.24483661267E+04  0.24483661267E+04  0.25500000920E-02 0.  1.
       -2   -1    0    0    0  501  0.00000000000E+00  0.00000000000E+00 -0.91430197374E+03  0.91430197375E+03  0.25500000920E-02 0. -1.
    10030    2    1    2    0    0  0.00000000000E+00  0.00000000000E+00  0.15340641530E+04  0.33626681005E+04  0.29923542452E+04 0.  0.
        3    1    3    3  502    0  0.12348480259E+04 -0.38556803740E+03  0.16117430591E+04  0.20666949599E+04  0.10100000352E+00 0.  1.
       -3    1    3    3    0  502 -0.12348480259E+04  0.38556803740E+03 -0.77678906101E+02  0.12959731406E+04  0.10100000352E+00 0. -1.
</event>
<event>
 5   0  0.1914439E-07  0.2999640E+04  0.7818609E-02  0.8243834E-01
       -2   -1    0    0    0  501  0.00000000000E+00  0.00000000000E+00  0.88211784988E+03  0.88211784988E+03  0.25500000920E-02 0.  1.
        2   -1    0    0  501    0  0.00000000000E+00  0.00000000000E+00 -0.25500680932E+04  0.25500680932E+04  0.25500000920E-02 0. -1.
    10030    2    1    2    0    0  0.00000000000E+00  0.00000000000E+00 -0.16679502434E+04  0.34321859431E+04  0.29996403674E+04 0.  0.
        5    1    3    3  502    0 -0.14576300469E+04 -0.29975875425E+03 -0.10477225134E+04  0.18199684667E+04  0.46999998093E+01 0. -1.
       -5    1    3    3    0  502  0.14576300469E+04  0.29975875425E+03 -0.62022772993E+03  0.16122174765E+04  0.46999998093E+01 0.  1.
</event>
<event>
 5   0  0.6525507E-08  0.3000647E+04  0.7818609E-02  0.8243546E-01
       -1   -1    0    0    0  501  0.00000000000E+00  0.00000000000E+00  0.98004386266E+03  0.98004386267E+03  0.50400001928E-02 0. -1.
        1   -1    0    0  501    0  0.00000000000E+00  0.00000000000E+00 -0.22968066616E+04  0.22968066616E+04  0.50400001928E-02 0.  1.
    10030    2    1    2    0    0  0.00000000000E+00  0.00000000000E+00 -0.13167627989E+04  0.32768505243E+04  0.30006474451E+04 0.  0.
        4    1    3    3  502    0  0.50330087375E+03  0.29418898434E+03 -0.21680602985E+04  0.22450714909E+04  0.12699999809E+01 0.  1.
       -4    1    3    3    0  502 -0.50330087375E+03 -0.29418898434E+03  0.85129749962E+03  0.10317790334E+04  0.12699999809E+01 0. -1.
</event>
<event>
 5   0  0.6679022E-08  0.3000410E+04  0.7818609E-02  0.8243614E-01
        1   -1    0    0  501    0  0.00000000000E+00  0.00000000000E+00  0.28818177330E+04  0.28818177330E+04  0.50400001928E-02 0.  1.
       -1   -1    0    0    0  501  0.00000000000E+00  0.00000000000E+00 -0.78097082292E+03  0.78097082293E+03  0.50400001928E-02 0. -1.
    10030    2    1    2    0    0  0.00000000000E+00  0.00000000000E+00  0.21008469101E+04  0.36627885560E+04  0.30004103496E+04 0.  0.
        3    1    3    3  502    0  0.37023428393E+03 -0.10550545059E+04 -0.17058450615E+03  0.11310669827E+04  0.10100000352E+00 0. -1.
       -3    1    3    3    0  502 -0.37023428393E+03  0.10550545059E+04  0.22714314163E+04  0.25317215732E+04  0.10100000352E+00 0.  1.
</event>
<event>
 5   0  0.6464436E-08  0.3000718E+04  0.7818609E-02  0.8243526E-01
        1   -1    0    0  501    0  0.00000000000E+00  0.00000000000E+00  0.18846593893E+04  0.18846593893E+04  0.50400001928E-02 0. -1.
       -1   -1    0    0    0  501  0.00000000000E+00  0.00000000000E+00 -0.11944208296E+04  0.11944208296E+04  0.50400001928E-02 0.  1.
    10030    2    1    2    0    0  0.00000000000E+00  0.00000000000E+00  0.69023855969E+03  0.30790802190E+04  0.30007175351E+04 0.  0.
        5    1    3    3  502    0 -0.27427406466E+03 -0.12369499386E+04 -0.47947281598E+03  0.13546909922E+04  0.46999998093E+01 0.  1.
       -5    1    3    3    0  502  0.27427406466E+03  0.12369499386E+04  0.11697113757E+04  0.17243892268E+04  0.46999998093E+01 0. -1.
</event>
<event>
 5   0  0.1817566E-07  0.3000257E+04  0.7818609E-02  0.8243657E-01
        2   -1    0    0  501    0  0.00000000000E+00  0.00000000000E+00  0.25459607329E+04  0.25459607329E+04  0.25500000920E-02 0.  1.
       -2   -1    0    0    0  501  0.00000000000E+00  0.00000000000E+00 -0.88390451201E+03  0.88390451202E+03  0.25500000920E-02 0. -1.
    10030    2    1    2    0    0  0.00000000000E+00  0.00000000000E+00  0.16620562209E+04  0.34298652449E+04  0.30002574418E+04 0.  0.
        1    1    3    3  502    0  0.68605657359E+03 -0.44509392458E+03  0.22687252447E+04  0.24116169803E+04  0.50400001928E-02 0.  1.
       -1    1    3    3    0  502 -0.68605657359E+03  0.44509392458E+03 -0.60666902381E+03  0.10182482646E+04  0.50400001928E-02 0. -1.
</event>
<event>
 5   0  0.1914439E-07  0.3001010E+04  0.7818609E-02  0.8243442E-01
       -2   -1    0    0    0  501  0.00000000000E+00  0.00000000000E+00  0.83085990892E+03  0.83085990892E+03  0.25500000920E-02 0. -1.
        2   -1    0    0  501    0  0.00000000000E+00  0.00000000000E+00 -0.27098619026E+04  0.27098619026E+04  0.25500000920E-02 0.  1.
    10030    2    1    2    0    0  0.00000000000E+00  0.00000000000E+00 -0.18790019936E+04  0.35407218115E+04  0.30010102389E+04 0.  0.
        5    1    3    3  502    0  0.13875996589E+04  0.53261057392E+03 -0.69659453683E+03  0.16414545000E+04  0.46999998093E+01 0. -1.
       -5    1    3    3    0  502 -0.13875996589E+04 -0.53261057392E+03 -0.11824074568E+04  0.18992673115E+04  0.46999998093E+01 0.  1.
</event>
<event>
 5   0  0.6464436E-08  0.2999298E+04  0.7818609E-02  0.8243931E-01
       -1   -1    0    0    0  501  0.00000000000E+00  0.00000000000E+00  0.13530561463E+04  0.13530561463E+04  0.50400001928E-02 0.  1.
        1   -1    0    0  501    0  0.00000000000E+00  0.00000000000E+00 -0.16621239118E+04  0.16621239118E+04  0.50400001928E-02 0. -1.
    10030    2    1    2    0    0  0.00000000000E+00  0.00000000000E+00 -0.30906776555E+03  0.30151800581E+04  0.29992979010E+04 0.  0.
        5    1    3    3  502    0  0.67064977086E+03  0.10042815110E+04  0.73931577289E+03  0.14159669384E+04  0.46999998093E+01 0. -1.
       -5    1    3    3    0  502 -0.67064977086E+03 -0.10042815110E+04 -0.10483835384E+04  0.15992131197E+04  0.46999998093E+01 0.  1.
</event>
<event>
 5   0  0.6374748E-08  0.3001196E+04  0.7818609E-02  0.8243390E-01
        1   -1    0    0  501    0  0.00000000000E+00  0.00000000000E+00  0.10988333913E+04  0.10988333913E+04  0.50400001928E-02 0. -1.
       -1   -1    0    0    0  501  0.00000000000E+00  0.00000000000E+00 -0.20492588212E+04  0.20492588212E+04  0.50400001928E-02 0.  1.
    10030    2    1    2    0    0  0.00000000000E+00  0.00000000000E+00 -0.95042542986E+03  0.31480922125E+04  0.30011957751E+04 0.  0.
        1    1    3    3  502    0  0.33741173366E+03 -0.54976498366E+03 -0.18964109492E+04  0.20031132528E+04  0.50400001928E-02 0.  1.
       -1    1    3    3    0  502 -0.33741173366E+03  0.54976498366E+03  0.94598551933E+03  0.11449789597E+04  0.50400001928E-02 0. -1.
</event>
<event>
 5   0  0.1810055E-07  0.2999763E+04  0.7818609E-02  0.8243799E-01
        2   -1    0    0  501    0  0.00000000000E+00  0.00000000000E+00  0.26199576315E+04  0.26199576315E+04  0.25500000920E-02 0. -1.
       -2   -1    0    0    0  501  0.00000000000E+00  0.00000000000E+00 -0.85865666023E+03  0.85865666023E+03  0.25500000920E-02 0.  1.
    10030    2    1    2    0    0  0.00000000000E+00  0.00000000000E+00  0.17613009713E+04  0.34786142917E+04  0.29997627038E+04 0.  0.
        4    1    3    3  502    0  0.96657885268E+03  0.42180175247E+03  0.21174113542E+04  0.23655071026E+04  0.12699999809E+01 0. -1.
       -4    1    3    3    0  502 -0.96657885268E+03 -0.42180175247E+03 -0.35611038287E+03  0.11131071891E+04  0.12699999809E+01 0.  1.
</event>
<event>
 5   0  0.6374748E-08  0.3000069E+04  0.7818609E-02  0.8243711E-01
       -1   -1    0    0    0  501  0.00000000000E+00  0.00000000000E+00  0.11443377076E+04  0.11443377076E+04  0.50400001928E-02 0. -1.
        1   -1    0    0  501    0  0.00000000000E+00  0.00000000000E+00 -0.19662929328E+04  0.19662929328E+04  0.50400001928E-02 0.  1.
    10030    2    1    2    0    0  0.00000000000E+00  0.00000000000E+00 -0.82195522518E+03  0.31106306405E+04  0.30000687641E+04 0.  0.
        1    1    3    3  502    0 -0.13983140294E+04 -0.17070015195E+02 -0.97368386078E+03  0.17040052145E+04  0.50400001928E-02 0.  1.
       -1    1    3    3    0  502  0.13983140294E+04  0.17070015195E+02  0.15172863560E+03  0.14066254260E+04  0.50400001928E-02 0. -1.
</event>
<event>
 5   0  0.1810055E-07  0.2999629E+04  0.7818609E-02  0.8243837E-01
       -2   -1    0    0    0  501  0.00000000000E+00  0.00000000000E+00  0.10203541760E+04  0.10203541760E+04  0.25500000920E-02 0.  1.
        2   -1    0    0  501    0  0.00000000000E+00  0.00000000000E+00 -0.22045714090E+04  0.22045714090E+04  0.25500000920E-02 0. -1.
    10030    2    1    2    0    0  0.00000000000E+00  0.00000000000E+00 -0.11842172330E+04  0.32249255850E+04  0.29996290728E+04 0.  0.
        4    1    3    3  502    0  0.14323842784E+04 -0.65572846571E+02 -0.11928404335E+03  0.14388380087E+04  0.12699999809E+01 0.  1.
       -4    1    3    3    0  502 -0.14323842784E+04  0.65572846571E+02 -0.10649331896E+04  0.17860875764E+04  0.12699999809E+01 0. -1.
</event>
<event>
 5   0  0.1817566E-07  0.3000340E+04  0.7818609E-02  0.8243634E-01
       -2   -1    0    0    0  501  0.00000000000E+00  0.00000000000E+00  0.10101810768E+04  0.10101810768E+04  0.25500000920E-02 0. -1.
        2   -1    0    0  501    0  0.00000000000E+00  0.00000000000E+00 -0.22278282129E+04  0.22278282129E+04  0.25500000920E-02 0.  1.
    10030    2    1    2    0    0  0.00000000000E+00  0.00000000000E+00 -0.12176471361E+04  0.32380092897E+04  0.30003399161E+04 0.  0.
        1    1    3    3  502    0  0.29751208498E+03  0.40007854062E+03  0.91815333323E+03  0.10447879319E+04  0.50400001928E-02 0. -1.
       -1    1    3    3    0  502 -0.29751208498E+03 -0.40007854062E+03 -0.21358004693E+04  0.21932213578E+04  0.50400001928E-02 0.  1.
</event>
<event>
 5   0  0.6017625E-08  0.2998245E+04  0.7818609E-02  0.8244232E-01
       -4   -1    0    0    0  501  0.00000000000E+00  0.00000000000E+00  0.14107518035E+04  0.14107523751E+04  0.12699999809E+01 0. -1.
        4   -1    0    0  501    0  0.00000000000E+00  0.00000000000E+00 -0.15930280147E+04  0.15930285209E+04  0.12699999809E+01 0.  1.
    10030    2    1    2    0    0  0.00000000000E+00  0.00000000000E+00 -0.18227621123E+03  0.30037808961E+04  0.29982453293E+04 0.  0.
        5    1    3    3  502    0 -0.84815603784E+03 -0.11956644955E+04 -0.40534818346E+03  0.15209574255E+04  0.46999998093E+01 0. -1.
       -5    1    3    3    0  502  0.84815603784E+03  0.11956644955E+04  0.22307197223E+03  0.14828234706E+04  0.46999998093E+01 0.  1.
</event>
<event>
 5   0  0.6374748E-08  0.3001285E+04  0.7818609E-02  0.8243364E-01
       -1   -1    0    0    0  501  0.00000000000E+00  0.00000000000E+00  0.10713708223E+04  0.10713708223E+04  0.50400001928E-02 0. -1.
        1   -1    0    0  501    0  0.00000000000E+00  0.00000000000E+00 -0.21019131524E+04  0.21019131524E+04  0.50400001928E-02 0.  1.
    10030    2    1    2    0    0  0.00000000000E+00  0.00000000000E+00 -0.10305423301E+04  0.31732839747E+04  0.30012853396E+04 0.  0.
        1    1    3    3  502    0 -0.91772515294E+03 -0.86771868768E+03  0.34158786514E+03  0.13083720598E+04  0.50400001928E-02 0. -1.
       -1    1    3    3    0  502  0.91772515294E+03  0.86771868768E+03 -0.13721301953E+04  0.18649119148E+04  0.50400001928E-02 0.  1.
</event>
<event>
 5   0  0.6017625E-08  0.2999742E+04  0.7818609E-02  0.8243804E-01
       -3   -1    0    0    0  501  0.00000000000E+00  0.00000000000E+00  0.10401850818E+04  0.10401850867E+04  0.10100000352E+00 0. -1.
        3   -1    0    0  501    0  0.00000000000E+00  0.00000000000E+00 -0.21627049859E+04  0.21627049882E+04  0.10100000352E+00 0.  1.
    10030    2    1    2    0    0  0.00000000000E+00  0.00000000000E+00 -0.11225199041E+04  0.32028900749E+04  0.29997423050E+04 0.  0.
        4    1    3    3  502    0  0.66028344851E+03 -0.10638234656E+04 -0.14429662200E+04  0.19104574644E+04  0.12699999809E+01 0.  1.
       -4    1    3    3    0  502 -0.66028344851E+03  0.10638234656E+04  0.32044631590E+03  0.12924326105E+04  0.12699999809E+01 0. -1.
</event>
<event>
 5   0  0.1810055E-07  0.2999704E+04  0.7818609E-02  0.8243816E-01
        2   -1    0    0  501    0  0.00000000000E+00  0.00000000000E+00  0.14333067256E+04  0.14333067256E+04  0.25500000920E-02 0.  1.
       -2   -1    0    0    0  501  0.00000000000E+00  0.00000000000E+00 -0.15694864434E+04  0.15694864434E+04  0.25500000920E-02 0. -1.
    10030    2    1    2    0    0  0.00000000000E+00  0.00000000000E+00 -0.13617971788E+03  0.30027931690E+04  0.29997036354E+04 0.  0.
        4    1    3    3  502    0 -0.14443440233E+04  0.12845290699E+03  0.31561166433E+03  0.14839953310E+04  0.12699999809E+01 0.  1.
       -4    1    3    3    0  502  0.14443440233E+04 -0.12845290699E+03 -0.45179138220E+03  0.15187978380E+04  0.12699999809E+01 0. -1.
</event>
<event>
 5   0  0.6525507E-08  0.3000239E+04  0.7818609E-02  0.8243663E-01
       -1   -1    0    0    0  501  0.00000000000E+00  0.00000000000E+00  0.12462402073E+04  0.12462402073E+04  0.50400001928E-02 0.  1.
        1   -1    0    0  501    0  0.00000000000E+00  0.00000000000E+00 -0.18057180493E+04  0.18057180493E+04  0.50400001928E-02 0. -1.
    10030    2    1    2    0    0  0.00000000000E+00  0.00000000000E+00 -0.55947784196E+03  0.30519582566E+04  0.30002389479E+04 0.  0.
        4    1    3    3  502    0  0.16675357250E+03 -0.14427549867E+04 -0.66172259545E+03  0.15960034811E+04  0.12699999809E+01 0. -1.
       -4    1    3    3    0  502 -0.16675357250E+03  0.14427549867E+04  0.10224475350E+03  0.14559547754E+04  0.12699999809E+01 0.  1.
</event>
<event>
 5   0  0.1810055E-07  0.2998975E+04  0.7818609E-02  0.8244024E-01
        2   -1    0    0  501    0  0.00000000000E+00  0.00000000000E+00  0.14510680895E+04  0.14510680895E+04  0.25500000920E-02 0. -1.
       -2   -1    0    0    0  501  0.00000000000E+00  0.00000000000E+00 -0.15495225360E+04  0.15495225360E+04  0.25500000920E-02 0.  1.
    10030    2    1    2    0    0  0.00000000000E+00  0.00000000000E+00 -0.98454446468E+02  0.30005906256E+04  0.29989749622E+04 0.  0.
        4    1    3    3  502    0  0.32626850960E+03  0.51587088560E+03 -0.14195954044E+04  0.15452594074E+04  0.12699999809E+01 0.  1.
       -4    1    3    3    0  502 -0.32626850960E+03 -0.51587088560E+03  0.13211409579E+04  0.14553312182E+04  0.12699999809E+01 0. -1.
</event>
<event>
 5   0  0.6636007E-08  0.3000293E+04  0.7818609E-02  0.8243647E-01
       -1   -1    0    0    0  501  0.00000000000E+00  0.00000000000E+00  0.85651296910E+03  0.85651296911E+03  0.50400001928E-02 0.  1.
        1   -1    0    0  501    0  0.00000000000E+00  0.00000000000E+00 -0.26274444006E+04  0.26274444006E+04  0.50400001928E-02 0. -1.
    10030    2    1    2    0    0  0.00000000000E+00  0.00000000000E+00 -0.17709314315E+04  0.34839573698E+04  0.30002934555E+04 0.  0.
        2    1    3    3  502    0 -0.85616545210E+03 -0.25612145881E+03  0.51368948822E+03  0.10307736771E+04  0.25500000920E-02 0.  1.
       -2    1    3    3    0  502  0.85616545210E+03  0.25612145881E+03 -0.22846209198E+04  0.24531836927E+04  0.25500000920E-02 0. -1.
</event>
<event>
 5   0  0.1817566E-07  0.2998923E+04  0.7818609E-02  0.8244039E-01
       -2   -1    0    0    0  501  0.00000000000E+00  0.00000000000E+00  0.98191514280E+03  0.98191514281E+03  0.25500000920E-02 0. -1.
        2   -1    0    0  501    0  0.00000000000E+00  0.00000000000E+00 -0.22897952261E+04  0.22897952261E+04  0.25500000920E-02 0.  1.
    10030    2    1    2    0    0  0.00000000000E+00  0.00000000000E+00 -0.13078800833E+04  0.32717103690E+04  0.29989228776E+04 0.  0.
        1    1    3    3  502    0  0.11922345137E+03  0.36145810580E+03 -0.22362177589E+04  0.22683774066E+04  0.50400001928E-02 0.  1.
       -1    1    3    3    0  502 -0.11922345137E+03 -0.36145810580E+03  0.92833767551E+03  0.10033329624E+04  0.50400001928E-02 0. -1.
</event>
<event>
 5   0  0.6679022E-08  0.3002822E+04  0.7818609E-02  0.8242926E-01
        1   -1    0    0  501    0  0.00000000000E+00  0.00000000000E+00  0.21266557586E+04  0.21266557586E+04  0.50400001928E-02 0.  1.
       -1   -1    0    0    0  501  0.00000000000E+00  0.00000000000E+00 -0.10599902842E+04  0.10599902842E+04  0.50400001928E-02 0. -1.
    10030    2    1    2    0    0  0.00000000000E+00  0.00000000000E+00  0.10666654745E+04  0.31866460428E+04  0.30028216344E+04 0.  0.
        3    1    3    3  502    0 -0.47542052858E+03 -0.93179087126E+03 -0.60962113576E+03  0.12107422707E+04  0.10100000352E+00 0. -1.
       -3    1    3    3    0  502  0.47542052858E+03  0.93179087126E+03  0.16762866102E+04  0.19759037721E+04  0.10100000352E+00 0.  1.
</event>
<event>
 5   0  0.6374748E-08  0.2998002E+04  0.7818609E-02  0.8244302E-01
       -1   -1    0    0    0  501  0.00000000000E+00  0.00000000000E+00  0.10502625685E+04  0.10502625685E+04  0.50400001928E-02 0. -1.
        1   -1    0    0  501    0  0.00000000000E+00  0.00000000000E+00 -0.21394694344E+04  0.21394694344E+04  0.50400001928E-02 0.  1.
    10030    2    1    2    0    0  0.00000000000E+00  0.00000000000E+00 -0.10892068659E+04  0.31897320030E+04  0.29980024440E+04 0.  0.
        1    1    3    3  502    0  0.13019280138E+04  0.20444021915E+03 -0.13045606892E+04  0.18543707688E+04  0.50400001928E-02 0.  1.
       -1    1    3    3    0  502 -0.13019280138E+04 -0.20444021915E+03  0.21535382330E+03  0.13353612342E+04  0.50400001928E-02 0. -1.
</event>
<event>
 5   0  0.6679022E-08  0.2995831E+04  0.7818609E-02  0.8244922E-01
       -1   -1    0    0    0  501  0.00000000000E+00  0.00000000000E+00  0.15369887334E+04  0.15369887334E+04  0.50400001928E-02 0.  1.
        1   -1    0    0  501    0  0.00000000000E+00  0.00000000000E+00 -0.14598351929E+04  0.14598351929E+04  0.50400001928E-02 0. -1.
    10030    2    1    2    0    0  0.00000000000E+00  0.00000000000E+00  0.77153540553E+02  0.29968239263E+04  0.29958305988E+04 0.  0.
        3    1    3    3  502    0 -0.10002982495E+03  0.12080252958E+04 -0.84172589716E+03  0.14757484804E+04  0.10100000352E+00 0. -1.
       -3    1    3    3    0  502  0.10002982495E+03 -0.12080252958E+04  0.91887943771E+03  0.15210754460E+04  0.10100000352E+00 0.  1.
</event>
<event>
 5   0  0.1813720E-07  0.3001004E+04  0.7818609E-02  0.8243444E-01
       -2   -1    0    0    0  501  0.00000000000E+00  0.00000000000E+00  0.89888496157E+03  0.89888496157E+03  0.25500000920E-02 0.  1.
        2   -1    0    0  501    0  0.00000000000E+00  0.00000000000E+00 -0.25047773760E+04  0.25047773760E+04  0.25500000920E-02 0. -1.
    10030    2    1    2    0    0  0.00000000000E+00  0.00000000000E+00 -0.16058924144E+04  0.34036623376E+04  0.30010043088E+04 0.  0.
        3    1    3    3  502    0  0.24545306685E+03 -0.85930550176E+03 -0.21700162605E+04  0.23468327027E+04  0.10100000352E+00 0. -1.
       -3    1    3    3    0  502 -0.24545306685E+03  0.85930550176E+03  0.56412384603E+03  0.10568296349E+04  0.10100000352E+00 0.  1.
</event>
<event>
 5   0  0.1821305E-07  0.3000303E+04  0.7818609E-02  0.8243644E-01
       -2   -1    0    0    0  501  0.00000000000E+00  0.00000000000E+00  0.13882051692E+04  0.13882051693E+04  0.25500000920E-02 0.  1.
        2   -1    0    0  501    0  0.00000000000E+00  0.00000000000E+00 -0.16211252582E+04  0.16211252582E+04  0.25500000920E-02 0. -1.
    10030    2    1    2    0    0  0.00000000000E+00  0.00000000000E+00 -0.23292008896E+03  0.30093304275E+04  0.30003029603E+04 0.  0.
        2    1    3    3  502    0 -0.90875180688E+03 -0.30921320496E+03  0.10398363889E+04  0.14151686714E+04  0.25500000920E-02 0.  1.
       -2    1    3    3    0  502  0.90875180688E+03  0.30921320496E+03 -0.12727564779E+04  0.15941617561E+04  0.25500000920E-02 0. -1.
</event>
<event>
 5   0  0.6525507E-08  0.2999904E+04  0.7818609E-02  0.8243758E-01
        1   -1    0    0  501    0  0.00000000000E+00  0.00000000000E+00  0.15539776439E+04  0.15539776439E+04  0.50400001928E-02 0.  1.
       -1   -1    0    0    0  501  0.00000000000E+00  0.00000000000E+00 -0.14478049989E+04  0.14478049989E+04  0.50400001928E-02 0. -1.
    10030    2    1    2    0    0  0.00000000000E+00  0.00000000000E+00  0.10617264504E+03  0.30017826428E+04  0.29999043992E+04 0.  0.
        4    1    3    3  502    0  0.14033043508E+04 -0.18986404936E+03 -0.44173672049E+03  0.14833894975E+04  0.12699999809E+01 0.  1.
       -4    1    3    3    0  502 -0.14033043508E+04  0.18986404936E+03  0.54790936553E+03  0.15183931454E+04  0.12699999809E+01 0. -1.
</event>
<event>
 5   0  0.1817566E-07  0.2999842E+04  0.7818609E-02  0.8243776E-01
       -2   -1    0    0    0  501  0.00000000000E+00  0.00000000000E+00  0.14401398642E+04  0.14401398642E+04  0.25500000920E-02 0.  1.
        2   -1    0    0  501    0  0.00000000000E+00  0.00000000000E+00 -0.15621837854E+04  0.15621837854E+04  0.25500000920E-02 0. -1.
    10030    2    1    2    0    0  0.00000000000E+00  0.00000000000E+00 -0.12204392123E+03  0.30023236496E+04  0.29998420922E+04 0.  0.
        1    1    3    3  502    0 -0.34802683124E+03 -0.14563750509E+04 -0.14834194509E+03  0.15047113666E+04  0.50400001928E-02 0.  1.
       -1    1    3    3    0  502  0.34802683124E+03  0.14563750509E+04  0.26298023864E+02  0.14976122830E+04  0.50400001928E-02 0. -1.
</event>
<event>
 5   0  0.1914439E-07  0.3001420E+04  0.7818609E-02  0.8243325E-01
        2   -1    0    0  501    0  0.00000000000E+00  0.00000000000E+00  0.95255622600E+03  0.95255622600E+03  0.25500000920E-02 0.  1.
       -2   -1    0    0    0  501  0.00000000000E+00  0.00000000000E+00 -0.23643023255E+04  0.23643023255E+04  0.25500000920E-02 0. -1.
    10030    2    1    2    0    0  0.00000000000E+00  0.00000000000E+00 -0.14117460995E+04  0.33168585515E+04  0.30014202640E+04 0.  0.
        5    1    3    3  502    0  0.83769803320E+03  0.78842472763E+03 -0.17708770837E+04  0.21117242437E+04  0.46999998093E+01 0. -1.
       -5    1    3    3    0  502 -0.83769803320E+03 -0.78842472763E+03  0.35913098421E+03  0.12051343078E+04  0.46999998093E+01 0.  1.
</event>
<event>
 5   0  0.6525507E-08  0.2988885E+04  0.7818609E-02  0.8246912E-01
        1   -1    0    0  501    0  0.00000000000E+00  0.00000000000E+00  0.17283858445E+04  0.17283858445E+04  0.50400001928E-02 0. -1.
       -1   -1    0    0    0  501  0.00000000000E+00  0.00000000000E+00 -0.12921644922E+04  0.12921644922E+04  0.50400001928E-02 0.  1.
    10030    2    1    2    0    0  0.00000000000E+00  0.00000000000E+00  0.43622135233E+03  0.30205503368E+04  0.29888852886E+04 0.  0.
        4    1    3    3  502    0  0.10487519397E+04  0.18197989277E+03  0.12782042603E+04  0.16633715930E+04  0.12699999809E+01 0. -1.
       -4    1    3    3    0  502 -0.10487519397E+04 -0.18197989277E+03 -0.84198290798E+03  0.13571787438E+04  0.12699999809E+01 0.  1.
</event>
<event>
 5   0  0.1817566E-07  0.2999988E+04  0.7818609E-02  0.8243734E-01
       -2   -1    0    0    0  501  0.00000000000E+00  0.00000000000E+00  0.13687064289E+04  0.13687064289E+04  0.25500000920E-02 0.  1.
        2   -1    0    0  501    0  0.00000000000E+00  0.00000000000E+00 -0.16438742608E+04  0.16438742608E+04  0.25500000920E-02 0. -1.
    10030    2    1    2    0    0  0.00000000000E+00  0.00000000000E+00 -0.27516783194E+03  0.30125806897E+04  0.29999875127E+04 0.  0.
        1    1    3    3  502    0  0.14472912060E+04 -0.38872878086E+03 -0.20281325762E+03  0.15122483650E+04  0.50400001928E-02 0. -1.
       -1    1    3    3    0  502 -0.14472912060E+04  0.38872878086E+03 -0.72354574320E+02  0.15003323247E+04  0.50400001928E-02 0.  1.
</event>
<event>
 5   0  0.6374748E-08  0.3000433E+04  0.7818609E-02  0.8243607E-01
        1   -1    0    0  501    0  0.00000000000E+00  0.00000000000E+00  0.13074245770E+04  0.13074245770E+04  0.50400001928E-02 0. -1.
       -1   -1    0    0    0  501  0.00000000000E+00  0.00000000000E+00 -0.17214372035E+04  0.17214372035E+04  0.50400001928E-02 0.  1.
    10030    2    1    2    0    0  0.00000000000E+00  0.00000000000E+00 -0.41401262646E+03  0.30288617805E+04  0.30004328405E+04 0.  0.
        1    1    3    3  502    0  0.43364636170E+03 -0.94360704600E+03 -0.12999492638E+04  0.16638243635E+04  0.50400001928E-02 0.  1.
       -1    1    3    3    0  502 -0.43364636170E+03  0.94360704600E+03  0.88593663732E+03  0.13650374169E+04  0.50400001928E-02 0. -1.
</event>
<event>
 5   0  0.1817566E-07  0.2998574E+04  0.7818609E-02  0.8244138E-01
        2   -1    0    0  501    0  0.00000000000E+00  0.00000000000E+00  0.11678291722E+04  0.11678291722E+04  0.25500000920E-02 0.  1.
       -2   -1    0    0    0  501  0.00000000000E+00  0.00000000000E+00 -0.19248207870E+04  0.19248207870E+04  0.25500000920E-02 0. -1.
    10030    2    1    2    0    0  0.00000000000E+00  0.00000000000E+00 -0.75699161479E+03  0.30926499592E+04  0.29985742387E+04 0.  0.
        1    1    3    3  502    0  0.47344368705E+03 -0.43593469689E+03  0.10181201864E+04  0.12044736190E+04  0.50400001928E-02 0.  1.
       -1    1    3    3    0  502 -0.47344368705E+03  0.43593469689E+03 -0.17751118012E+04  0.18881763402E+04  0.50400001928E-02 0. -1.
</event>
<event>
 5   0  0.6525507E-08  0.2999978E+04  0.7818609E-02  0.8243737E-01
       -1   -1    0    0    0  501  0.00000000000E+00  0.00000000000E+00  0.18562304767E+04  0.18562304767E+04  0.50400001928E-02 0.  1.
        1   -1    0    0  501    0  0.00000000000E+00  0.00000000000E+00 -0.12121157904E+04  0.12121157904E+04  0.50400001928E-02 0. -1.
    10030    2    1    2    0    0  0.00000000000E+00  0.00000000000E+00  0.64411468636E+03  0.30683462671E+04  0.29999775142E+04 0.  0.
        4    1    3    3  502    0 -0.44397248616E+03  0.12724898963E+04  0.99556463286E+03  0.16755574164E+04  0.12699999809E+01 0.  1.
       -4    1    3    3    0  502  0.44397248616E+03 -0.12724898963E+04 -0.35144994650E+03  0.13927888507E+04  0.12699999809E+01 0. -1.
</event>
<event>
 5   0  0.1821305E-07  0.2999331E+04  0.7818609E-02  0.8243922E-01
        2   -1    0    0  501    0  0.00000000000E+00  0.00000000000E+00  0.13848600472E+04  0.13848600472E+04  0.25500000920E-02 0. -1.
       -2   -1    0    0    0  501  0.00000000000E+00  0.00000000000E+00 -0.16239884037E+04  0.16239884037E+04  0.25500000920E-02 0.  1.
    10030    2    1    2    0    0  0.00000000000E+00  0.00000000000E+00 -0.23912835649E+03  0.30088484508E+04  0.29993310303E+04 0.  0.
        2    1    3    3  502    0 -0.98700534640E+03 -0.99263944605E+03 -0.65930867240E+03  0.15473204417E+04  0.25500000920E-02 0.  1.
       -2    1    3    3    0  502  0.98700534640E+03  0.99263944605E+03  0.42018031591E+03  0.14615280092E+04  0.25500000920E-02 0. -1.
</event>
<event>
 5   0  0.1821305E-07  0.2998505E+04  0.7818609E-02  0.8244158E-01
       -2   -1    0    0    0  501  0.00000000000E+00  0.00000000000E+00  0.11429977718E+04  0.11429977718E+04  0.25500000920E-02 0. -1.
        2   -1    0    0  501    0  0.00000000000E+00  0.00000000000E+00 -0.19665460905E+04  0.19665460905E+04  0.25500000920E-02 0.  1.
    10030    2    1    2    0    0  0.00000000000E+00  0.00000000000E+00 -0.82354831863E+03  0.31095438623E+04  0.29985048272E+04 0.  0.
        2    1    3    3  502    0  0.13900644916E+04 -0.41195627889E+03 -0.80771181356E+03  0.16596341887E+04  0.25500000920E-02 0. -1.
       -2    1    3    3    0  502 -0.13900644916E+04  0.41195627889E+03 -0.15836505072E+02  0.14499096736E+04  0.25500000920E-02 0.  1.
</event>
<event>
 5   0  0.6525507E-08  0.2998454E+04  0.7818609E-02  0.8244173E-01
       -1   -1    0    0    0  501  0.00000000000E+00  0.00000000000E+00  0.91998598390E+03  0.91998598391E+03  0.50400001928E-02 0.  1.
        1   -1    0    0  501    0  0.00000000000E+00  0.00000000000E+00 -0.24431691192E+04  0.24431691192E+04  0.50400001928E-02 0. -1.
    10030    2    1    2    0    0  0.00000000000E+00  0.00000000000E+00 -0.15231831353E+04  0.33631551031E+04  0.29984538322E+04 0.  0.
        4    1    3    3  502    0 -0.34221395305E+03 -0.59114201076E+03  0.73532011360E+03  0.10036217160E+04  0.12699999809E+01 0.  1.
       -4    1    3    3    0  502  0.34221395305E+03  0.59114201076E+03 -0.22585032489E+04  0.23595333870E+04  0.12699999809E+01 0. -1.
</event>
<event>
 5   0  0.6464436E-08  0.3000721E+04  0.7818609E-02  0.8243525E-01
        1   -1    0    0  501    0  0.00000000000E+00  0.00000000000E+00  0.22020113945E+04  0.22020113945E+04  0.50400001928E-02 0.  1.
       -1   -1    0    0    0  501  0.00000000000E+00  0.00000000000E+00 -0.10222843596E+04  0.10222843596E+04  0.50400001928E-02 0. -1.
    10030    2    1    2    0    0  0.00000000000E+00  0.00000000000E+00  0.11797270349E+04  0.32242957541E+04  0.30007211188E+04 0.  0.
        5    1    3    3  502    0  0.67743911406E+03  0.18524114232E+03 -0.83474863704E+03  0.10909011922E+04  0.46999998093E+01 0. -1.
       -5    1    3    3    0  502 -0.67743911406E+03 -0.18524114232E+03  0.20144756719E+04  0.21333945619E+04  0.46999998093E+01 0.  1.
</event>
<event>
 5   0  0.6636007E-08  0.2998871E+04  0.7818609E-02  0.8244053E-01
        1   -1    0    0  501    0  0.00000000000E+00  0.00000000000E+00  0.24037707549E+04  0.24037707549E+04  0.50400001928E-02 0.  1.
       -1   -1    0    0    0  501  0.00000000000E+00  0.00000000000E+00 -0.93532468958E+03  0.93532468959E+03  0.50400001928E-02 0. -1.
    10030    2    1    2    0    0  0.00000000000E+00  0.00000000000E+00  0.14684460653E+04  0.33390954445E+04  0.29988705441E+04 0.  0.
        2    1    3    3  502    0 -0.32306079580E+03  0.57917663553E+03 -0.76314805948E+03  0.10110434282E+04  0.25500000920E-02 0. -1.
       -2    1    3    3    0  502  0.32306079580E+03 -0.57917663553E+03  0.22315941248E+04  0.23280520163E+04  0.25500000920E-02 0.  1.
</event>
<event>
 5   0  0.1813720E-07  0.3000479E+04  0.7818609E-02  0.8243594E-01
       -2   -1    0    0    0  501  0.00000000000E+00  0.00000000000E+00  0.15855018611E+04  0.15855018611E+04  0.25500000920E-02 0.  1.
        2   -1    0    0  501    0  0.00000000000E+00  0.00000000000E+00 -0.14195619723E+04  0.14195619723E+04  0.25500000920E-02 0. -1.
    10030    2    1    2    0    0  0.00000000000E+00  0.00000000000E+00  0.16593988877E+03  0.30050638334E+04  0.30004787279E+04 0.  0.
        3    1    3    3  502    0 -0.52492098764E+02  0.10387075225E+04 -0.99990818241E+03  0.14427352915E+04  0.10100000352E+00 0. -1.
       -3    1    3    3    0  502  0.52492098764E+02 -0.10387075225E+04  0.11658480712E+04  0.15623285420E+04  0.10100000352E+00 0.  1.
</event>
<event>
 5   0  0.6636007E-08  0.2998111E+04  0.7818609E-02  0.8244271E-01
       -1   -1    0    0    0  501  0.00000000000E+00  0.00000000000E+00  0.99540332735E+03  0.99540332736E+03  0.50400001928E-02 0. -1.
        1   -1    0    0  501    0  0.00000000000E+00  0.00000000000E+00 -0.22575444052E+04  0.22575444052E+04  0.50400001928E-02 0.  1.
    10030    2    1    2    0    0  0.00000000000E+00  0.00000000000E+00 -0.12621410778E+04  0.32529477325E+04  0.29981108802E+04 0.  0.
        2    1    3    3  502    0  0.97632634795E+03  0.94643185735E+03  0.53615342774E+02  0.13608163004E+04  0.25500000920E-02 0. -1.
       -2    1    3    3    0  502 -0.97632634795E+03 -0.94643185735E+03 -0.13157564206E+04  0.18921314322E+04  0.25500000920E-02 0.  1.
</event>
<event>
 5   0  0.6374748E-08  0.2998978E+04  0.7818609E-02  0.8244023E-01
        1   -1    0    0  501    0  0.00000000000E+00  0.00000000000E+00  0.17789745815E+04  0.17789745816E+04  0.50400001928E-02 0.  1.
       -1   -1    0    0    0  501  0.00000000000E+00  0.00000000000E+00 -0.12639120487E+04  0.12639120488E+04  0.50400001928E-02 0. -1.
    10030    2    1    2    0    0  0.00000000000E+00  0.00000000000E+00  0.51506253280E+03  0.30428866303E+04  0.29989780980E+04 0.  0.
        1    1    3    3  502    0  0.66743016838E+03 -0.64097262323E+03  0.14547039966E+04  0.17240860336E+04  0.50400001928E-02 0.  1.
       -1    1    3    3    0  502 -0.66743016838E+03  0.64097262323E+03 -0.93964146382E+03  0.13188005967E+04  0.50400001928E-02 0. -1.
</event>
<event>
 5   0  0.1817566E-07  0.3000128E+04  0.7818609E-02  0.8243694E-01
        2   -1    0    0  501    0  0.00000000000E+00  0.00000000000E+00  0.13977889311E+04  0.13977889311E+04  0.25500000920E-02 0.  1.
       -2   -1    0    0    0  501  0.00000000000E+00  0.00000000000E+00 -0.16098225219E+04  0.16098225219E+04  0.25500000920E-02 0. -1.
    10030    2    1    2    0    0  0.00000000000E+00  0.00000000000E+00 -0.21203359088E+03  0.30076114530E+04  0.30001280654E+04 0.  0.
        1    1    3    3  502    0  0.44378393532E+03  0.20329962314E+03 -0.15279755071E+04  0.16040523895E+04  0.50400001928E-02 0. -1.
       -1    1    3    3    0  502 -0.44378393532E+03 -0.20329962314E+03  0.13159419162E+04  0.14035590635E+04  0.50400001928E-02 0.  1.
</event>
<event>
 5   0  0.6464436E-08  0.3002508E+04  0.7818609E-02  0.8243015E-01
        1   -1    0    0  501    0  0.00000000000E+00  0.00000000000E+00  0.15959944030E+04  0.15959944030E+04  0.50400001928E-02 0. -1.
       -1   -1    0    0    0  501  0.00000000000E+00  0.00000000000E+00 -0.14121374500E+04  0.14121374500E+04  0.50400001928E-02 0.  1.
    10030    2    1    2    0    0  0.00000000000E+00  0.00000000000E+00  0.18385695293E+03  0.30081318530E+04  0.30025079294E+04 0.  0.
        5    1    3    3  502    0 -0.95955849270E+03  0.11545208682E+04  0.83519874555E+02  0.15035519929E+04  0.46999998093E+01 0. -1.
       -5    1    3    3    0  502  0.95955849270E+03 -0.11545208682E+04  0.10033707838E+03  0.15045798601E+04  0.46999998093E+01 0.  1.
</event>
<event>
 5   0  0.6464436E-08  0.2998499E+04  0.7818609E-02  0.8244160E-01
       -1   -1    0    0    0  501  0.00000000000E+00  0.00000000000E+00  0.77694382239E+03  0.77694382241E+03  0.50400001928E-02 0.  1.
        1   -1    0    0  501    0  0.00000000000E+00  0.00000000000E+00 -0.28930655353E+04  0.28930655353E+04  0.50400001928E-02 0. -1.
    10030    2    1    2    0    0  0.00000000000E+00  0.00000000000E+00 -0.21161217129E+04  0.36700093577E+04  0.29984992216E+04 0.  0.
        5    1    3    3  502    0  0.42346985249E+03 -0.11921858480E+04 -0.20426311942E+04  0.24027064111E+04  0.46999998093E+01 0. -1.
       -5    1    3    3    0  502 -0.42346985249E+03  0.11921858480E+04 -0.73490518672E+02  0.12673029466E+04  0.46999998093E+01 0.  1.
</event>
<event>
 5   0  0.1821305E-07  0.3000238E+04  0.7818609E-02  0.8243663E-01
       -2   -1    0    0    0  501  0.00000000000E+00  0.00000000000E+00  0.20839758042E+04  0.20839758042E+04  0.25500000920E-02 0. -1.
        2   -1    0    0  501    0  0.00000000000E+00  0.00000000000E+00 -0.10798385219E+04  0.10798385219E+04  0.25500000920E-02 0.  1.
    10030    2    1    2    0    0  0.00000000000E+00  0.00000000000E+00  0.10041372823E+04  0.31638143260E+04  0.30002382252E+04 0.  0.
        2    1    3    3  502    0 -0.82376104969E+03  0.11605598426E+04  0.10021339658E+04  0.17406188270E+04  0.25500000920E-02 0. -1.
       -2    1    3    3    0  502  0.82376104969E+03 -0.11605598426E+04  0.20033164779E+01  0.14231954991E+04  0.25500000920E-02 0.  1.
</event>
<event>
 5   0  0.1821305E-07  0.2999986E+04  0.7818609E-02  0.8243735E-01
       -2   -1    0    0    0  501  0.00000000000E+00  0.00000000000E+00  0.77625268833E+03  0.77625268833E+03  0.25500000920E-02 0.  1.
        2   -1    0    0  501    0  0.00000000000E+00  0.00000000000E+00 -0.28985139920E+04  0.28985139920E+04  0.25500000920E-02 0. -1.
    10030    2    1    2    0    0  0.00000000000E+00  0.00000000000E+00 -0.21222613037E+04  0.36747666804E+04  0.29999861856E+04 0.  0.
        2    1    3    3  502    0 -0.88418273170E+03 -0.11639619592E+04 -0.64865043287E+03  0.15991666360E+04  0.25500000920E-02 0. -1.
       -2    1    3    3    0  502  0.88418273170E+03  0.11639619592E+04 -0.14736108708E+04  0.20756000444E+04  0.25500000920E-02 0.  1.
</event>
<event>
 5   0  0.6679022E-08  0.3000550E+04  0.7818609E-02  0.8243574E-01
        1   -1    0    0  501    0  0.00000000000E+00  0.00000000000E+00  0.28257314771E+04  0.28257314771E+04  0.50400001928E-02 0.  1.
       -1   -1    0    0    0  501  0.00000000000E+00  0.00000000000E+00 -0.79654577122E+03  0.79654577123E+03  0.50400001928E-02 0. -1.
    10030    2    1    2    0    0  0.00000000000E+00  0.00000000000E+00  0.20291857059E+04  0.36222772483E+04  0.30005495888E+04 0.  0.
        3    1    3    3  502    0 -0.11264467810E+04  0.56663507861E+03  0.19959742972E+04  0.23609047139E+04  0.10100000352E+00 0.  1.
       -3    1    3    3    0  502  0.11264467810E+04 -0.56663507861E+03  0.33211408652E+02  0.12613725344E+04  0.10100000352E+00 0. -1.
</event>
<event>
 5   0  0.1914439E-07  0.2999150E+04  0.7818609E-02  0.8243974E-01
       -2   -1    0    0    0  501  0.00000000000E+00  0.00000000000E+00  0.18484849329E+04  0.18484849329E+04  0.25500000920E-02 0.  1.
        2   -1    0    0  501    0  0.00000000000E+00  0.00000000000E+00 -0.12165237894E+04  0.12165237894E+04  0.25500000920E-02 0. -1.
    10030    2    1    2    0    0  0.00000000000E+00  0.00000000000E+00  0.63196114343E+03  0.30650087223E+04  0.29991504765E+04 0.  0.
        5    1    3    3  502    0  0.95177659419E+03  0.12847657738E+02 -0.86819607833E+03  0.12883440022E+04  0.46999998093E+01 0. -1.
       -5    1    3    3    0  502 -0.95177659419E+03 -0.12847657738E+02  0.15001572218E+04  0.17766647201E+04  0.46999998093E+01 0.  1.
</event>
<event>
 5   0  0.6525507E-08  0.2998892E+04  0.7818609E-02  0.8244047E-01
       -1   -1    0    0    0  501  0.00000000000E+00  0.00000000000E+00  0.87608310438E+03  0.87608310440E+03  0.50400001928E-02 0.  1.
        1   -1    0    0  501    0  0.00000000000E+00  0.00000000000E+00 -0.25663529264E+04  0.25663529264E+04  0.50400001928E-02 0. -1.
    10030    2    1    2    0    0  0.00000000000E+00  0.00000000000E+00 -0.16902698220E+04  0.34424360308E+04  0.29988920879E+04 0.  0.
        4    1    3    3  502    0  0.91505051469E+03 -0.11224846923E+04 -0.12912652997E+04  0.19402724077E+04  0.12699999809E+01 0. -1.
       -4    1    3    3    0  502 -0.91505051469E+03  0.11224846923E+04 -0.39900452223E+03  0.15021636231E+04  0.12699999809E+01 0.  1.
</event>
<event>
 5   0  0.1821305E-07  0.3000098E+04  0.7818609E-02  0.8243703E-01
        2   -1    0    0  501    0  0.00000000000E+00  0.00000000000E+00  0.21237062121E+04  0.21237062121E+04  0.25500000920E-02 0.  1.
       -2   -1    0    0    0  501  0.00000000000E+00  0.00000000000E+00 -0.10595380037E+04  0.10595380037E+04  0.25500000920E-02 0. -1.
    10030    2    1    2    0    0  0.00000000000E+00  0.00000000000E+00  0.10641682084E+04  0.31832442158E+04  0.30000982920E+04 0.  0.
        2    1    3    3  502    0 -0.43523745471E+03  0.32584615922E+03 -0.95131073946E+03  0.10957187068E+04  0.25500000920E-02 0. -1.
       -2    1    3    3    0  502  0.43523745471E+03 -0.32584615922E+03  0.20154789478E+04  0.20875255090E+04  0.25500000920E-02 0.  1.
</event>
<event>
 5   0  0.6464436E-08  0.3002071E+04  0.7818609E-02  0.8243140E-01
       -1   -1    0    0    0  501  0.00000000000E+00  0.00000000000E+00  0.14100095175E+04  0.14100095175E+04  0.50400001928E-02 0.  1.
        1   -1    0    0  501    0  0.00000000000E+00  0.00000000000E+00 -0.15979383321E+04  0.15979383321E+04  0.50400001928E-02 0. -1.
    10030    2    1    2    0    0  0.00000000000E+00  0.00000000000E+00 -0.18792881459E+03  0.30079478497E+04  0.30020714560E+04 0.  0.
        5    1    3    3  502    0 -0.87733683704E+03  0.93892542485E+03 -0.87123110427E+03  0.15525355410E+04  0.46999998093E+01 0. -1.
       -5    1    3    3    0  502  0.87733683704E+03 -0.93892542485E+03  0.68330228968E+03  0.14554123086E+04  0.46999998093E+01 0.  1.
</event>
<event>
 5   0  0.6464436E-08  0.3000728E+04  0.7818609E-02  0.8243523E-01
        1   -1    0    0  501    0  0.00000000000E+00  0.00000000000E+00  0.17838507841E+04  0.17838507841E+04  0.50400001928E-02 0.  1.
       -1   -1    0    0    0  501  0.00000000000E+00  0.00000000000E+00 -0.12619285660E+04  0.12619285660E+04  0.50400001928E-02 0. -1.
    10030    2    1    2    0    0  0.00000000000E+00  0.00000000000E+00  0.52192221812E+03  0.30457793500E+04  0.30007280862E+04 0.  0.
        5    1    3    3  502    0  0.13973272078E+04 -0.41214770208E+03 -0.10314604091E+03  0.14604965764E+04  0.46999998093E+01 0.  1.
       -5    1    3    3    0  502 -0.13973272078E+04  0.41214770208E+03  0.62506825903E+03  0.15852827736E+04  0.46999998093E+01 0. -1.
</event>
<event>
 5   0  0.6636007E-08  0.2999238E+04  0.7818609E-02  0.8243949E-01
       -1   -1    0    0    0  501  0.00000000000E+00  0.00000000000E+00  0.18665772743E+04  0.18665772743E+04  0.50400001928E-02 0.  1.
        1   -1    0    0  501    0  0.00000000000E+00  0.00000000000E+00 -0.12048023498E+04  0.12048023498E+04  0.50400001928E-02 0. -1.
    10030    2    1    2    0    0  0.00000000000E+00  0.00000000000E+00  0.66177492457E+03  0.30713796241E+04  0.29992376939E+04 0.  0.
        2    1    3    3  502    0 -0.70982110544E+03  0.10327748996E+04  0.11743412110E+04  0.17174246053E+04  0.25500000920E-02 0.  1.
       -2    1    3    3    0  502  0.70982110544E+03 -0.10327748996E+04 -0.51256628639E+03  0.13539550188E+04  0.25500000920E-02 0. -1.
</event>
<event>
 5   0  0.6464436E-08  0.2999416E+04  0.7818609E-02  0.8243898E-01
       -1   -1    0    0    0  501  0.00000000000E+00  0.00000000000E+00  0.14395032164E+04  0.14395032164E+04  0.50400001928E-02 0. -1.
        1   -1    0    0  501    0  0.00000000000E+00  0.00000000000E+00 -0.15624310557E+04  0.15624310557E+04  0.50400001928E-02 0.  1.
    10030    2    1    2    0    0  0.00000000000E+00  0.00000000000E+00 -0.12292783927E+03  0.30019342721E+04  0.29994162966E+04 0.  0.
        5    1    3    3  502    0 -0.14631691604E+04 -0.29098461111E+03  0.92178484465E+02  0.14946755497E+04  0.46999998093E+01 0. -1.
       -5    1    3    3    0  502  0.14631691604E+04  0.29098461111E+03 -0.21510632374E+03  0.15072587224E+04  0.46999998093E+01 0.  1.
</event>
<event>
 5   0  0.1821305E-07  0.3000718E+04  0.7818609E-02  0.8243526E-01
        2   -1    0    0  501    0  0.00000000000E+00  0.00000000000E+00  0.10760421282E+04  0.10760421282E+04  0.25500000920E-02 0.  1.
       -2   -1    0    0    0  501  0.00000000000E+00  0.00000000000E+00 -0.20919977545E+04  0.20919977545E+04  0.25500000920E-02 0. -1.
    10030    2    1    2    0    0  0.00000000000E+00  0.00000000000E+00 -0.10159556262E+04  0.31680398827E+04  0.30007183913E+04 0.  0.
        2    1    3    3  502    0  0.14100354576E+04 -0.40109052131E+03 -0.17078814951E+03  0.14758869164E+04  0.25500000920E-02 0.  1.
       -2    1    3    3    0  502 -0.14100354576E+04  0.40109052131E+03 -0.84516747673E+03  0.16921529664E+04  0.25500000920E-02 0. -1.
</event>
<event>
 5   0  0.1821305E-07  0.2999532E+04  0.7818609E-02  0.8243865E-01
       -2   -1    0    0    0  501  0.00000000000E+00  0.00000000000E+00  0.15017136966E+04  0.15017136966E+04  0.25500000920E-02 0. -1.
        2   -1    0    0  501    0  0.00000000000E+00  0.00000000000E+00 -0.14978208149E+04  0.14978208149E+04  0.25500000920E-02 0.  1.
    10030    2    1    2    0    0  0.00000000000E+00  0.00000000000E+00  0.38928816501E+01  0.29995345115E+04  0.29995319853E+04 0.  0.
        2    1    3    3  502    0 -0.74924318087E+03  0.97382191427E+03  0.86194923947E+03  0.15008833920E+04  0.25500000920E-02 0. -1.
       -2    1    3    3    0  502  0.74924318087E+03 -0.97382191427E+03 -0.85805635782E+03  0.14986511195E+04  0.25500000920E-02 0.  1.
</event>
<event>
 5   0  0.6525507E-08  0.3000319E+04  0.7818609E-02  0.8243640E-01
        1   -1    0    0  501    0  0.00000000000E+00  0.00000000000E+00  0.17445145106E+04  0.17445145106E+04  0.50400001928E-02 0.  1.
       -1   -1    0    0    0  501  0.00000000000E+00  0.00000000000E+00 -0.12900311198E+04  0.12900311198E+04  0.50400001928E-02 0. -1.
    10030    2    1    2    0    0  0.00000000000E+00  0.00000000000E+00  0.45448339078E+03  0.30345456304E+04  0.30003186548E+04 0.  0.
        4    1    3    3  502    0  0.68278507934E+03  0.46159034702E+03 -0.10405390083E+04  0.13273975116E+04  0.12699999809E+01 0. -1.
       -4    1    3    3    0  502 -0.68278507934E+03 -0.46159034702E+03  0.14950223991E+04  0.17071481188E+04  0.12699999809E+01 0.  1.
</event>
<event>
 5   0  0.1810055E-07  0.3000584E+04  0.7818609E-02  0.8243564E-01
        2   -1    0    0  501    0  0.00000000000E+00  0.00000000000E+00  0.17966926955E+04  0.17966926955E+04  0.25500000920E-02 0. -1.
       -2   -1    0    0    0  501  0.00000000000E+00  0.00000000000E+00 -0.12527881920E+04  0.12527881920E+04  0.25500000920E-02 0.  1.
    10030    2    1    2    0    0  0.00000000000E+00  0.00000000000E+00  0.54390450347E+03  0.30494808875E+04  0.30005835389E+04 0.  0.
        4    1    3    3  502    0 -0.54266444221E+02  0.53500480724E+03 -0.11514785373E+04  0.12708577519E+04  0.12699999809E+01 0.  1.
       -4    1    3    3    0  502  0.54266444221E+02 -0.53500480724E+03  0.16953830407E+04  0.17786231356E+04  0.12699999809E+01 0. -1.
</event>
<event>
 5   0  0.6017625E-08  0.2999931E+04  0.7818609E-02  0.8243751E-01
        3   -1    0    0  501    0  0.00000000000E+00  0.00000000000E+00  0.12538916802E+04  0.12538916842E+04  0.10100000352E+00 0.  1.
       -3   -1    0    0    0  501  0.00000000000E+00  0.00000000000E+00 -0.17943303951E+04  0.17943303980E+04  0.10100000352E+00 0. -1.
    10030    2    1    2    0    0  0.00000000000E+00  0.00000000000E+00 -0.54043871495E+03  0.30482220822E+04  0.29999306422E+04 0.  0.
        4    1    3    3  502    0  0.12885606716E+04  0.76632433416E+03 -0.22199204727E+03  0.15155605140E+04  0.12699999809E+01 0. -1.
       -4    1    3    3    0  502 -0.12885606716E+04 -0.76632433416E+03 -0.31844666768E+03  0.15326615682E+04  0.12699999809E+01 0.  1.
</event>
<event>
 5   0  0.6464436E-08  0.2998944E+04  0.7818609E-02  0.8244033E-01
        1   -1    0    0  501    0  0.00000000000E+00  0.00000000000E+00  0.20604592039E+04  0.20604592039E+04  0.50400001928E-02 0.  1.
       -1   -1    0    0    0  501  0.00000000000E+00  0.00000000000E+00 -0.10912207896E+04  0.10912207896E+04  0.50400001928E-02 0. -1.
    10030    2    1    2    0    0  0.00000000000E+00  0.00000000000E+00  0.96923841433E+03  0.31516799935E+04  0.29989437603E+04 0.  0.
        5    1    3    3  502    0  0.12376826587E+04  0.60095406462E+03  0.11111265975E+04  0.17685102649E+04  0.46999998093E+01 0.  1.
       -5    1    3    3    0  502 -0.12376826587E+04 -0.60095406462E+03 -0.14188818317E+03  0.13831697286E+04  0.46999998093E+01 0. -1.
</event>
<event>
 5   0  0.6679022E-08  0.3003248E+04  0.7818609E-02  0.8242804E-01
       -1   -1    0    0    0  501  0.00000000000E+00  0.00000000000E+00  0.90305866909E+03  0.90305866910E+03  0.50400001928E-02 0. -1.
        1   -1    0    0  501    0  0.00000000000E+00  0.00000000000E+00 -0.24969300187E+04  0.24969300187E+04  0.50400001928E-02 0.  1.
    10030    2    1    2    0    0  0.00000000000E+00  0.00000000000E+00 -0.15938713496E+04  0.33999886878E+04  0.30032477750E+04 0.  0.
        3    1    3    3  502    0  0.10929647698E+04  0.24511016646E+03  0.33529467812E+03  0.11692191895E+04  0.10100000352E+00 0. -1.
       -3    1    3    3    0  502 -0.10929647698E+04 -0.24511016646E+03 -0.19291660277E+04  0.22307694983E+04  0.10100000352E+00 0.  1.
</event>
<event>
 5   0  0.1821305E-07  0.3000282E+04  0.7818609E-02  0.8243650E-01
       -2   -1    0    0    0  501  0.00000000000E+00  0.00000000000E+00  0.17542573164E+04  0.17542573164E+04  0.25500000920E-02 0.  1.
        2   -1    0    0  501    0  0.00000000000E+00  0.00000000000E+00 -0.12828350122E+04  0.12828350122E+04  0.25500000920E-02 0. -1.
    10030    2    1    2    0    0  0.00000000000E+00  0.00000000000E+00  0.47142230416E+03  0.30370923286E+04  0.30002817907E+04 0.  0.
        2    1    3    3  502    0  0.12595226040E+03 -0.35763107418E+02 -0.12770400653E+04  0.12837345131E+04  0.25500000920E-02 0. -1.
       -2    1    3    3    0  502 -0.12595226040E+03  0.35763107418E+02  0.17484623695E+04  0.17533578155E+04  0.25500000920E-02 0.  1.
</event>
<event>
 5   0  0.6374748E-08  0.3000520E+04  0.7818609E-02  0.8243582E-01
        1   -1    0    0  501    0  0.00000000000E+00  0.00000000000E+00  0.24878638903E+04  0.24878638903E+04  0.50400001928E-02 0.  1.
       -1   -1    0    0    0  501  0.00000000000E+00  0.00000000000E+00 -0.90470389968E+03  0.90470389970E+03  0.50400001928E-02 0. -1.
    10030    2    1    2    0    0  0.00000000000E+00  0.00000000000E+00  0.15831599907E+04  0.33925677900E+04  0.30005200639E+04 0.  0.
        1    1    3    3  502    0  0.10436922719E+04 -0.10541242453E+04  0.53797753508E+03  0.15779389441E+04  0.50400001928E-02 0.  1.
       -1    1    3    3    0  502 -0.10436922719E+04  0.10541242453E+04  0.10451824556E+04  0.18146288459E+04  0.50400001928E-02 0. -1.
</event>
<event>
 5   0  0.1821305E-07  0.2998531E+04  0.7818609E-02  0.8244151E-01
       -2   -1    0    0    0  501  0.00000000000E+00  0.00000000000E+00  0.19768584634E+04  0.19768584634E+04  0.25500000920E-02 0.  1.
        2   -1    0    0  501    0  0.00000000000E+00  0.00000000000E+00 -0.11370548929E+04  0.11370548929E+04  0.25500000920E-02 0. -1.
    10030    2    1    2    0    0  0.00000000000E+00  0.00000000000E+00  0.83980357046E+03  0.31139133563E+04  0.29985306991E+04 0.  0.
        2    1    3    3  502    0 -0.34922199992E+03  0.13722695977E+04 -0.91718652475E+02  0.14189757451E+04  0.25500000920E-02 0. -1.
       -2    1    3    3    0  502  0.34922199992E+03 -0.13722695977E+04  0.93152222293E+03  0.16949376112E+04  0.25500000920E-02 0.  1.
</event>
<event>
 5   0  0.1821305E-07  0.3001780E+04  0.7818609E-02  0.8243223E-01
       -2   -1    0    0    0  501  0.00000000000E+00  0.00000000000E+00  0.12763110353E+04  0.12763110353E+04  0.25500000920E-02 0.  1.
        2   -1    0    0  501    0  0.00000000000E+00  0.00000000000E+00 -0.17649851849E+04  0.17649851849E+04  0.25500000920E-02 0. -1.
    10030    2    1    2    0    0  0.00000000000E+00  0.00000000000E+00 -0.48867414954E+03  0.30412962202E+04  0.30017795180E+04 0.  0.
        2    1    3    3  502    0  0.11093424626E+04  0.56969146224E+03  0.60181052194E+03  0.13846894835E+04  0.25500000920E-02 0.  1.
       -2    1    3    3    0  502 -0.11093424626E+04 -0.56969146224E+03 -0.10904846715E+04  0.16566067367E+04  0.25500000920E-02 0. -1.
</event>
<event>
 5   0  0.6679022E-08  0.3000476E+04  0.7818609E-02  0.8243595E-01
        1   -1    0    0  501    0  0.00000000000E+00  0.00000000000E+00  0.16143849763E+04  0.16143849763E+04  0.50400001928E-02 0. -1.
       -1   -1    0    0    0  501  0.00000000000E+00  0.00000000000E+00 -0.13941622766E+04  0.13941622766E+04  0.50400001928E-02 0.  1.
    10030    2    1    2    0    0  0.00000000000E+00  0.00000000000E+00  0.22022269965E+03  0.30085472529E+04  0.30004763848E+04 0.  0.
        3    1    3    3  502    0 -0.10772653424E+04  0.98484523425E+02  0.11523855432E+04  0.15805670722E+04  0.10100000352E+00 0. -1.
       -3    1    3    3    0  502  0.10772653424E+04 -0.98484523425E+02 -0.93216284360E+03  0.14279801807E+04  0.10100000352E+00 0.  1.
</event>
<event>
 5   0  0.6374748E-08  0.3000851E+04  0.7818609E-02  0.8243488E-01
       -1   -1    0    0    0  501  0.00000000000E+00  0.00000000000E+00  0.94862332097E+03  0.94862332098E+03  0.50400001928E-02 0. -1.
        1   -1    0    0  501    0  0.00000000000E+00  0.00000000000E+00 -0.23732043754E+04  0.23732043754E+04  0.50400001928E-02 0.  1.
    10030    2    1    2    0    0  0.00000000000E+00  0.00000000000E+00 -0.14245810544E+04  0.33218276963E+04  0.30008512232E+04 0.  0.
        1    1    3    3  502    0  0.82547964535E+03 -0.12527911360E+04 -0.69086171799E+03  0.16517240050E+04  0.50400001928E-02 0. -1.
       -1    1    3    3    0  502 -0.82547964535E+03  0.12527911360E+04 -0.73371933639E+03  0.16701036914E+04  0.50400001928E-02 0.  1.
</event>
<event>
 5   0  0.6679022E-08  0.3000572E+04  0.7818609E-02  0.8243568E-01
        1   -1    0    0  501    0  0.00000000000E+00  0.00000000000E+00  0.16355862768E+04  0.16355862768E+04  0.50400001928E-02 0.  1.
       -1   -1    0    0    0  501  0.00000000000E+00  0.00000000000E+00 -0.13761778348E+04  0.13761778348E+04  0.50400001928E-02 0. -1.
    10030    2    1    2    0    0  0.00000000000E+00  0.00000000000E+00  0.25940844195E+03  0.30117641116E+04  0.30005716663E+04 0.  0.
        3    1    3    3  502    0  0.23256165224E+03 -0.10143530388E+04  0.12144112295E+04  0.15993097429E+04  0.10100000352E+00 0.  1.
       -3    1    3    3    0  502 -0.23256165224E+03  0.10143530388E+04 -0.95500278751E+03  0.14124543687E+04  0.10100000352E+00 0. -1.
</event>
<event>
 5   0  0.6017625E-08  0.3000456E+04  0.7818609E-02  0.8243601E-01
       -3   -1    0    0    0  501  0.00000000000E+00  0.00000000000E+00  0.12564016922E+04  0.12564016962E+04  0.10100000352E+00 0.  1.
        3   -1    0    0  501    0  0.00000000000E+00  0.00000000000E+00 -0.17913728060E+04  0.17913728088E+04  0.10100000352E+00 0. -1.
    10030    2    1    2    0    0  0.00000000000E+00  0.00000000000E+00 -0.53497111380E+03  0.30477745051E+04  0.30004558556E+04 0.  0.
        4    1    3    3  502    0  0.14241780993E+04 -0.37673622909E+03  0.20658251436E+02  0.14733098185E+04  0.12699999809E+01 0. -1.
       -4    1    3    3    0  502 -0.14241780993E+04  0.37673622909E+03 -0.55562936524E+03  0.15744646866E+04  0.12699999809E+01 0.  1.
</event>
<event>
 5   0  0.6525507E-08  0.3000905E+04  0.7818609E-02  0.8243472E-01
        1   -1    0    0  501    0  0.00000000000E+00  0.00000000000E+00  0.96797002725E+03  0.96797002727E+03  0.50400001928E-02 0.  1.
       -1   -1    0    0    0  501  0.00000000000E+00  0.00000000000E+00 -0.23258554321E+04  0.23258554321E+04  0.50400001928E-02 0. -1.
    10030    2    1    2    0    0  0.00000000000E+00  0.00000000000E+00 -0.13578854049E+04  0.32938254594E+04  0.30009054274E+04 0.  0.
        4    1    3    3  502    0  0.51773768891E+03  0.35691931391E+02 -0.22242093826E+04  0.22839516674E+04  0.12699999809E+01 0. -1.
       -4    1    3    3    0  502 -0.51773768891E+03 -0.35691931391E+02  0.86632397773E+03  0.10098737920E+04  0.12699999809E+01 0.  1.
</event>
<event>
 5   0  0.6525507E-08  0.3000837E+04  0.7818609E-02  0.8243492E-01
        1   -1    0    0  501    0  0.00000000000E+00  0.00000000000E+00  0.27691213960E+04  0.27691213960E+04  0.50400001928E-02 0. -1.
       -1   -1    0    0    0  501  0.00000000000E+00  0.00000000000E+00 -0.81298531287E+03  0.81298531288E+03  0.50400001928E-02 0.  1.
    10030    2    1    2    0    0  0.00000000000E+00  0.00000000000E+00  0.19561360831E+04  0.35821067088E+04  0.30008365664E+04 0.  0.
        4    1    3    3  502    0  0.26153028081E+03 -0.82218364955E+03 -0.48725702340E+03  0.99086076778E+03  0.12699999809E+01 0.  1.
       -4    1    3    3    0  502 -0.26153028081E+03  0.82218364955E+03  0.24433931065E+04  0.25912459411E+04  0.12699999809E+01 0. -1.
</event>
<event>
 5   0  0.1817566E-07  0.3001315E+04  0.7818609E-02  0.8243355E-01
        2   -1    0    0  501    0  0.00000000000E+00  0.00000000000E+00  0.14437246316E+04  0.14437246316E+04  0.25500000920E-02 0.  1.
       -2   -1    0    0    0  501  0.00000000000E+00  0.00000000000E+00 -0.15598355316E+04  0.15598355316E+04  0.25500000920E-02 0. -1.
    10030    2    1    2    0    0  0.00000000000E+00  0.00000000000E+00 -0.11611089999E+03  0.30035601633E+04  0.30013150307E+04 0.  0.
        1    1    3    3  502    0  0.68001131754E+03  0.13374221179E+04 -0.87397425466E+02  0.15029143766E+04  0.50400001928E-02 0.  1.
       -1    1    3    3    0  502 -0.68001131754E+03 -0.13374221179E+04 -0.28713474520E+02  0.15006457867E+04  0.50400001928E-02 0. -1.
</event>
<event>
 5   0  0.1813720E-07  0.3000185E+04  0.7818609E-02  0.8243678E-01
       -2   -1    0    0    0  501  0.00000000000E+00  0.00000000000E+00  0.22066136239E+04  0.22066136239E+04  0.25500000920E-02 0. -1.
        2   -1    0    0  501    0  0.00000000000E+00  0.00000000000E+00 -0.10197878884E+04  0.10197878884E+04  0.25500000920E-02 0.  1.
    10030    2    1    2    0    0  0.00000000000E+00  0.00000000000E+00  0.11868257355E+04  0.32264015123E+04  0.30001852263E+04 0.  0.
        3    1    3    3  502    0  0.12494015033E+03 -0.62354700728E+03  0.20544772786E+04  0.21506505551E+04  0.10100000352E+00 0. -1.
       -3    1    3    3    0  502 -0.12494015033E+03  0.62354700728E+03 -0.86765154314E+03  0.10757509572E+04  0.10100000352E+00 0.  1.
</event>
<event>
 5   0  0.6464436E-08  0.2999217E+04  0.7818609E-02  0.8243954E-01
        1   -1    0    0  501    0  0.00000000000E+00  0.00000000000E+00  0.16355617632E+04  0.16355617632E+04  0.50400001928E-02 0. -1.
       -1   -1    0    0    0  501  0.00000000000E+00  0.00000000000E+00 -0.13749564479E+04  0.13749564479E+04  0.50400001928E-02 0.  1.
    10030    2    1    2    0    0  0.00000000000E+00  0.00000000000E+00  0.26060531531E+03  0.30105182112E+04  0.29992173595E+04 0.  0.
        5    1    3    3  502    0 -0.14722811113E+04 -0.64772663769E+02 -0.14822609385E+03  0.14811482821E+04  0.46999998093E+01 0. -1.
       -5    1    3    3    0  502  0.14722811113E+04  0.64772663769E+02  0.40883140916E+03  0.15293699291E+04  0.46999998093E+01 0.  1.
</event>
<event>
 5   0  0.1821305E-07  0.2999647E+04  0.7818609E-02  0.8243832E-01
        2   -1    0    0  501    0  0.00000000000E+00  0.00000000000E+00  0.23392601001E+04  0.23392601001E+04  0.25500000920E-02 0.  1.
       -2   -1    0    0    0  501  0.00000000000E+00  0.00000000000E+00 -0.96161634832E+03  0.96161634832E+03  0.25500000920E-02 0. -1.
    10030    2    1    2    0    0  0.00000000000E+00  0.00000000000E+00  0.13776437518E+04  0.33008764485E+04  0.29996471494E+04 0.  0.
        2    1    3    3  502    0 -0.12175869233E+04  0.58679249585E+03  0.14042037400E+04  0.19490078225E+04  0.25500000920E-02 0.  1.
       -2    1    3    3    0  502  0.12175869233E+04 -0.58679249585E+03 -0.26559988146E+02  0.13518686260E+04  0.25500000920E-02 0. -1.
</event>
<event>
 5   0  0.1810055E-07  0.3002610E+04  0.7818609E-02  0.8242986E-01
        2   -1    0    0  501    0  0.00000000000E+00  0.00000000000E+00  0.17748313942E+04  0.17748313942E+04  0.25500000920E-02 0.  1.
       -2   -1    0    0    0  501  0.00000000000E+00  0.00000000000E+00 -0.12699330327E+04  0.12699330327E+04  0.25500000920E-02 0. -1.
    10030    2    1    2    0    0  0.00000000000E+00  0.00000000000E+00  0.50489836150E+03  0.30447644269E+04  0.30026102078E+04 0.  0.
        4    1    3    3  502    0 -0.70768373734E+03  0.11313756126E+04 -0.44502135925E+03  0.14067240923E+04  0.12699999809E+01 0. -1.
       -4    1    3    3    0  502  0.70768373734E+03 -0.11313756126E+04  0.94991972075E+03  0.16380403346E+04  0.12699999809E+01 0.  1.
</event>
<event>
 5   0  0.6525507E-08  0.3002133E+04  0.7818609E-02  0.8243122E-01
        1   -1    0    0  501    0  0.00000000000E+00  0.00000000000E+00  0.19693749578E+04  0.19693749578E+04  0.50400001928E-02 0. -1.
       -1   -1    0    0    0  501  0.00000000000E+00  0.00000000000E+00 -0.11441197532E+04  0.11441197533E+04  0.50400001928E-02 0.  1.
    10030    2    1    2    0    0  0.00000000000E+00  0.00000000000E+00  0.82525520454E+03  0.31134947110E+04  0.30021331021E+04 0.  0.
        4    1    3    3  502    0 -0.19635589203E+03 -0.92411198340E+03  0.16223705282E+04  0.18773988222E+04  0.12699999809E+01 0. -1.
       -4    1    3    3    0  502  0.19635589203E+03  0.92411198340E+03 -0.79711532364E+03  0.12360958888E+04  0.12699999809E+01 0.  1.
</event>
<event>
 5   0  0.1914439E-07  0.3001770E+04  0.7818609E-02  0.8243226E-01
       -2   -1    0    0    0  501  0.00000000000E+00  0.00000000000E+00  0.13412311298E+04  0.13412311298E+04  0.25500000920E-02 0. -1.
        2   -1    0    0  501    0  0.00000000000E+00  0.00000000000E+00 -0.16795434495E+04  0.16795434495E+04  0.25500000920E-02 0.  1.
    10030    2    1    2    0    0  0.00000000000E+00  0.00000000000E+00 -0.33831231964E+03  0.30207745793E+04  0.30017701167E+04 0.  0.
        5    1    3    3  502    0  0.37110938009E+03 -0.14324964625E+04  0.83161330121E+02  0.14821289364E+04  0.46999998093E+01 0.  1.
       -5    1    3    3    0  502 -0.37110938009E+03  0.14324964625E+04 -0.42147364976E+03  0.15386456430E+04  0.46999998093E+01 0. -1.
</event>
<event>
 5   0  0.1817566E-07  0.3002691E+04  0.7818609E-02  0.8242963E-01
       -2   -1    0    0    0  501  0.00000000000E+00  0.00000000000E+00  0.15287834598E+04  0.15287834598E+04  0.25500000920E-02 0.  1.
        2   -1    0    0  501    0  0.00000000000E+00  0.00000000000E+00 -0.14744001950E+04  0.14744001950E+04  0.25500000920E-02 0. -1.
    10030    2    1    2    0    0  0.00000000000E+00  0.00000000000E+00  0.54383264776E+02  0.30031836547E+04  0.30026912137E+04 0.  0.
        1    1    3    3  502    0 -0.63022610305E+03 -0.11567451611E+03  0.13851598960E+04  0.15261826470E+04  0.50400001928E-02 0.  1.
       -1    1    3    3    0  502  0.63022610305E+03  0.11567451611E+03 -0.13307766312E+04  0.14770010077E+04  0.50400001928E-02 0. -1.
</event>
<event>
 5   0  0.6525507E-08  0.3001769E+04  0.7818609E-02  0.8243226E-01
       -1   -1    0    0    0  501  0.00000000000E+00  0.00000000000E+00  0.15527583887E+04  0.15527583888E+04  0.50400001928E-02 0.  1.
        1   -1    0    0  501    0  0.00000000000E+00  0.00000000000E+00 -0.14507440633E+04  0.14507440633E+04  0.50400001928E-02 0. -1.
    10030    2    1    2    0    0  0.00000000000E+00  0.00000000000E+00  0.10201432546E+03  0.30035024520E+04  0.30017694876E+04 0.  0.
        4    1    3    3  502    0  0.10450084693E+04 -0.41775426098E+03  0.10446021389E+04  0.15354988000E+04  0.12699999809E+01 0.  1.
       -4    1    3    3    0  502 -0.10450084693E+04  0.41775426098E+03 -0.94258781342E+03  0.14680036520E+04  0.12699999809E+01 0. -1.
</event>
<event>
 5   0  0.6679022E-08  0.3001652E+04  0.7818609E-02  0.8243259E-01
        1   -1    0    0  501    0  0.00000000000E+00  0.00000000000E+00  0.13579986283E+04  0.13579986283E+04  0.50400001928E-02 0. -1.
       -1   -1    0    0    0  501  0.00000000000E+00  0.00000000000E+00 -0.16586748929E+04  0.16586748929E+04  0.50400001928E-02 0.  1.
    10030    2    1    2    0    0  0.00000000000E+00  0.00000000000E+00 -0.30067626455E+03  0.30166735212E+04  0.30016516982E+04 0.  0.
        3    1    3    3  502    0 -0.97370164689E+03  0.96143257042E+03 -0.76988957850E+03  0.15700883599E+04  0.10100000352E+00 0.  1.
       -3    1    3    3    0  502  0.97370164689E+03 -0.96143257042E+03  0.46921331395E+03  0.14465851613E+04  0.10100000352E+00 0. -1.
</event>
<event>
 5   0  0.1810055E-07  0.2998758E+04  0.7818609E-02  0.8244086E-01
       -2   -1    0    0    0  501  0.00000000000E+00  0.00000000000E+00  0.19937952091E+04  0.19937952091E+04  0.25500000920E-02 0.  1.
        2   -1    0    0  501    0  0.00000000000E+00  0.00000000000E+00 -0.11275671635E+04  0.11275671635E+04  0.25500000920E-02 0. -1.
    10030    2    1    2    0    0  0.00000000000E+00  0.00000000000E+00  0.86622804561E+03  0.31213623727E+04  0.29987584155E+04 0.  0.
        4    1    3    3  502    0  0.10617835568E+04 -0.10284935320E+04  0.17195118974E+03  0.14882043178E+04  0.12699999809E+01 0. -1.
       -4    1    3    3    0  502 -0.10617835568E+04  0.10284935320E+04  0.69427685587E+03  0.16331580549E+04  0.12699999809E+01 0.  1.
</event>
<event>
 5   0  0.1813720E-07  0.3000439E+04  0.7818609E-02  0.8243605E-01
       -2   -1    0    0    0  501  0.00000000000E+00  0.00000000000E+00  0.12727889846E+04  0.12727889846E+04  0.25500000920E-02 0.  1.
        2   -1    0    0  501    0  0.00000000000E+00  0.00000000000E+00 -0.17682891237E+04  0.17682891237E+04  0.25500000920E-02 0. -1.
    10030    2    1    2    0    0  0.00000000000E+00  0.00000000000E+00 -0.49550013907E+03  0.30410781084E+04  0.30004392467E+04 0.  0.
        3    1    3    3  502    0  0.36816609704E+03 -0.12448351915E+04  0.51443118966E+03  0.13963525300E+04  0.10100000352E+00 0.  1.
       -3    1    3    3    0  502 -0.36816609704E+03  0.12448351915E+04 -0.10099313287E+04  0.16447255783E+04  0.10100000352E+00 0. -1.
</event>
<event>
 5   0  0.1821305E-07  0.2999646E+04  0.7818609E-02  0.8243832E-01
        2   -1    0    0  501    0  0.00000000000E+00  0.00000000000E+00  0.17120241528E+04  0.17120241528E+04  0.25500000920E-02 0.  1.
       -2   -1    0    0    0  501  0.00000000000E+00  0.00000000000E+00 -0.13139240301E+04  0.13139240301E+04  0.25500000920E-02 0. -1.
    10030    2    1    2    0    0  0.00000000000E+00  0.00000000000E+00  0.39810012270E+03  0.30259481829E+04  0.29996464289E+04 0.  0.
        2    1    3    3  502    0  0.16456769434E+03 -0.79242945639E+03  0.14728343232E+04  0.16805558345E+04  0.25500000920E-02 0.  1.
       -2    1    3    3    0  502 -0.16456769434E+03  0.79242945639E+03 -0.10747342005E+04  0.13453923484E+04  0.25500000920E-02 0. -1.
</event>
<event>
 5   0  0.1821305E-07  0.2999602E+04  0.7818609E-02  0.8243844E-01
       -2   -1    0    0    0  501  0.00000000000E+00  0.00000000000E+00  0.11924080173E+04  0.11924080173E+04  0.25500000920E-02 0. -1.
        2   -1    0    0  501    0  0.00000000000E+00  0.00000000000E+00 -0.18864377196E+04  0.18864377196E+04  0.25500000920E-02 0.  1.
    10030    2    1    2    0    0  0.00000000000E+00  0.00000000000E+00 -0.69402970237E+03  0.30788457369E+04  0.29996022809E+04 0.  0.
        2    1    3    3  502    0  0.10996317869E+04 -0.95571543316E+03 -0.71254275381E+03  0.16218197285E+04  0.25500000920E-02 0. -1.
       -2    1    3    3    0  502 -0.10996317869E+04  0.95571543316E+03  0.18513051445E+02  0.14570260083E+04  0.25500000920E-02 0.  1.
</event>
<event>
 5   0  0.1810055E-07  0.2998397E+04  0.7818609E-02  0.8244189E-01
        2   -1    0    0  501    0  0.00000000000E+00  0.00000000000E+00  0.27938145649E+04  0.27938145649E+04  0.25500000920E-02 0.  1.
       -2   -1    0    0    0  501  0.00000000000E+00  0.00000000000E+00 -0.80449003450E+03  0.80449003450E+03  0.25500000920E-02 0. -1.
    10030    2    1    2    0    0  0.00000000000E+00  0.00000000000E+00  0.19893245304E+04  0.35983045994E+04  0.29983968888E+04 0.  0.
        4    1    3    3  502    0  0.14478006739E+04 -0.12525270926E+03  0.14368692892E+04  0.20436266781E+04  0.12699999809E+01 0.  1.
       -4    1    3    3    0  502 -0.14478006739E+04  0.12525270926E+03  0.55245524119E+03  0.15546779213E+04  0.12699999809E+01 0. -1.
</event>
<event>
 5   0  0.1914439E-07  0.2998462E+04  0.7818609E-02  0.8244170E-01
       -2   -1    0    0    0  501  0.00000000000E+00  0.00000000000E+00  0.77966632215E+03  0.77966632215E+03  0.25500000920E-02 0. -1.
        2   -1    0    0  501    0  0.00000000000E+00  0.00000000000E+00 -0.28828910267E+04  0.28828910267E+04  0.25500000920E-02 0.  1.
    10030    2    1    2    0    0  0.00000000000E+00  0.00000000000E+00 -0.21032247046E+04  0.36625573489E+04  0.29984616349E+04 0.  0.
        5    1    3    3  502    0 -0.13051677496E+04  0.68646390732E+03 -0.72164255565E+03  0.16417934154E+04  0.46999998093E+01 0. -1.
       -5    1    3    3    0  502  0.13051677496E+04 -0.68646390732E+03 -0.13815821489E+04  0.20207639335E+04  0.46999998093E+01 0.  1.
</event>
<event>
 5   0  0.1914439E-07  0.2999678E+04  0.7818609E-02  0.8243823E-01
        2   -1    0    0  501    0  0.00000000000E+00  0.00000000000E+00  0.24672874703E+04  0.24672874703E+04  0.25500000920E-02 0. -1.
       -2   -1    0    0    0  501  0.00000000000E+00  0.00000000000E+00 -0.91173672668E+03  0.91173672668E+03  0.25500000920E-02 0.  1.
    10030    2    1    2    0    0  0.00000000000E+00  0.00000000000E+00  0.15555507437E+04  0.33790241970E+04  0.29996777173E+04 0.  0.
        5    1    3    3  502    0  0.44466167227E+03 -0.75918869007E+03 -0.59049537507E+03  0.10596217947E+04  0.46999998093E+01 0.  1.
       -5    1    3    3    0  502 -0.44466167227E+03  0.75918869007E+03  0.21460461187E+04  0.23194024023E+04  0.46999998093E+01 0. -1.
</event>
<event>
 5   0  0.1813720E-07  0.3000996E+04  0.7818609E-02  0.8243446E-01
        2   -1    0    0  501    0  0.00000000000E+00  0.00000000000E+00  0.27715950163E+04  0.27715950163E+04  0.25500000920E-02 0.  1.
       -2   -1    0    0    0  501  0.00000000000E+00  0.00000000000E+00 -0.81234617563E+03  0.81234617563E+03  0.25500000920E-02 0. -1.
    10030    2    1    2    0    0  0.00000000000E+00  0.00000000000E+00  0.19592488406E+04  0.35839411919E+04  0.30009962425E+04 0.  0.
        3    1    3    3  502    0  0.22455893235E+02  0.52249869582E+03 -0.69997984627E+03  0.87377396943E+03  0.10100000352E+00 0. -1.
       -3    1    3    3    0  502 -0.22455893235E+02 -0.52249869582E+03  0.26592286869E+04  0.27101672225E+04  0.10100000352E+00 0.  1.
</event>
<event>
 5   0  0.6374748E-08  0.2999336E+04  0.7818609E-02  0.8243921E-01
        1   -1    0    0  501    0  0.00000000000E+00  0.00000000000E+00  0.17082357933E+04  0.17082357933E+04  0.50400001928E-02 0. -1.
       -1   -1    0    0    0  501  0.00000000000E+00  0.00000000000E+00 -0.13165650495E+04  0.13165650495E+04  0.50400001928E-02 0.  1.
    10030    2    1    2    0    0  0.00000000000E+00  0.00000000000E+00  0.39167074381E+03  0.30248008427E+04  0.29993356209E+04 0.  0.
        1    1    3    3  502    0 -0.22435194082E+03  0.13174949314E+04 -0.49029153749E+03  0.14235562789E+04  0.50400001928E-02 0.  1.
       -1    1    3    3    0  502  0.22435194082E+03 -0.13174949314E+04  0.88196228130E+03  0.16012445638E+04  0.50400001928E-02 0. -1.
</event>
<event>
 5   0  0.6374748E-08  0.3002661E+04  0.7818609E-02  0.8242971E-01
       -1   -1    0    0    0  501  0.00000000000E+00  0.00000000000E+00  0.10795491284E+04  0.10795491284E+04  0.50400001928E-02 0. -1.
        1   -1    0    0  501    0  0.00000000000E+00  0.00000000000E+00 -0.20879027438E+04  0.20879027438E+04  0.50400001928E-02 0.  1.
    10030    2    1    2    0    0  0.00000000000E+00  0.00000000000E+00 -0.10083536154E+04  0.31674518722E+04  0.30026612111E+04 0.  0.
        1    1    3    3  502    0  0.24117677011E+03  0.12032691309E+04  0.40814067803E+03  0.12932910148E+04  0.50400001928E-02 0. -1.
       -1    1    3    3    0  502 -0.24117677011E+03 -0.12032691309E+04 -0.14164942935E+04  0.18741608574E+04  0.50400001928E-02 0.  1.
</event>
<event>
 5   0  0.1821305E-07  0.3000644E+04  0.7818609E-02  0.8243547E-01
       -2   -1    0    0    0  501  0.00000000000E+00  0.00000000000E+00  0.98958038197E+03  0.98958038197E+03  0.25500000920E-02 0. -1.
        2   -1    0    0  501    0  0.00000000000E+00  0.00000000000E+00 -0.22746676384E+04  0.22746676384E+04  0.25500000920E-02 0.  1.
    10030    2    1    2    0    0  0.00000000000E+00  0.00000000000E+00 -0.12850872565E+04  0.32642480204E+04  0.30006442445E+04 0.  0.
        2    1    3    3  502    0 -0.11266288407E+04 -0.59111747249E+03  0.22245307849E+03  0.12915873115E+04  0.25500000920E-02 0. -1.
       -2    1    3    3    0  502  0.11266288407E+04  0.59111747249E+03 -0.15075403350E+04  0.19726607089E+04  0.25500000920E-02 0.  1.
</event>
<event>
 5   0  0.1810055E-07  0.3000264E+04  0.7818609E-02  0.8243655E-01
        2   -1    0    0  501    0  0.00000000000E+00  0.00000000000E+00  0.13745399204E+04  0.13745399204E+04  0.25500000920E-02 0. -1.
       -2   -1    0    0    0  501  0.00000000000E+00  0.00000000000E+00 -0.16371996233E+04  0.16371996233E+04  0.25500000920E-02 0.  1.
    10030    2    1    2    0    0  0.00000000000E+00  0.00000000000E+00 -0.26265970297E+03  0.30117395437E+04  0.30002641483E+04 0.  0.
        4    1    3    3  502    0  0.97443245033E+03  0.24935759580E+03 -0.12485542962E+04  0.16033051033E+04  0.12699999809E+01 0.  1.
       -4    1    3    3    0  502 -0.97443245033E+03 -0.24935759580E+03  0.98589459328E+03  0.14084344404E+04  0.12699999809E+01 0. -1.
</event>
<event>
 5   0  0.6464436E-08  0.3000215E+04  0.7818609E-02  0.8243669E-01
       -1   -1    0    0    0  501  0.00000000000E+00  0.00000000000E+00  0.13325936280E+04  0.13325936280E+04  0.50400001928E-02 0.  1.
        1   -1    0    0  501    0  0.00000000000E+00  0.00000000000E+00 -0.16886791315E+04  0.16886791315E+04  0.50400001928E-02 0. -1.
    10030    2    1    2    0    0  0.00000000000E+00  0.00000000000E+00 -0.35608550351E+03  0.30212727595E+04  0.30002153592E+04 0.  0.
        5    1    3    3  502    0 -0.16067777992E+03 -0.33843492905E+03  0.12847173787E+04  0.13382362957E+04  0.46999998093E+01 0.  1.
       -5    1    3    3    0  502  0.16067777992E+03  0.33843492905E+03 -0.16408028822E+04  0.16830364638E+04  0.46999998093E+01 0. -1.
</event>
<event>
 5   0  0.1817566E-07  0.3001017E+04  0.7818609E-02  0.8243440E-01
        2   -1    0    0  501    0  0.00000000000E+00  0.00000000000E+00  0.13277463169E+04  0.13277463169E+04  0.25500000920E-02 0.  1.
       -2   -1    0    0    0  501  0.00000000000E+00  0.00000000000E+00 -0.16957505118E+04  0.16957505118E+04  0.25500000920E-02 0. -1.
    10030    2    1    2    0    0  0.00000000000E+00  0.00000000000E+00 -0.36800419491E+03  0.30234968287E+04  0.30010174917E+04 0.  0.
        1    1    3    3  502    0 -0.41647976488E+03  0.93917824414E+03 -0.12858188298E+04  0.16458557750E+04  0.50400001928E-02 0. -1.
       -1    1    3    3    0  502  0.41647976488E+03 -0.93917824414E+03  0.91781463491E+03  0.13776410537E+04  0.50400001928E-02 0.  1.
</event>
<event>
 5   0  0.6464436E-08  0.2998579E+04  0.7818609E-02  0.8244137E-01
        1   -1    0    0  501    0  0.00000000000E+00  0.00000000000E+00  0.12911129864E+04  0.12911129864E+04  0.50400001928E-02 0.  1.
       -1   -1    0    0    0  501  0.00000000000E+00  0.00000000000E+00 -0.17410318350E+04  0.17410318350E+04  0.50400001928E-02 0. -1.
    10030    2    1    2    0    0  0.00000000000E+00  0.00000000000E+00 -0.44991884861E+03  0.30321448215E+04  0.29985788714E+04 0.  0.
        5    1    3    3  502    0 -0.43720226273E+03 -0.14326707782E+04 -0.29014297156E+03  0.15257445433E+04  0.46999998093E+01 0.  1.
       -5    1    3    3    0  502  0.43720226273E+03  0.14326707782E+04 -0.15977587705E+03  0.15064002782E+04  0.46999998093E+01 0. -1.
</event>
<event>
 5   0  0.6525507E-08  0.3000158E+04  0.7818609E-02  0.8243686E-01
        1   -1    0    0  501    0  0.00000000000E+00  0.00000000000E+00  0.16521913696E+04  0.16521913696E+04  0.50400001928E-02 0.  1.
       -1   -1    0    0    0  501  0.00000000000E+00  0.00000000000E+00 -0.13619712689E+04  0.13619712689E+04  0.50400001928E-02 0. -1.
    10030    2    1    2    0    0  0.00000000000E+00  0.00000000000E+00  0.29022010073E+03  0.30141626385E+04  0.30001581132E+04 0.  0.
        4    1    3    3  502    0  0.58606704199E+03  0.13655825328E+04 -0.60651562503E+02  0.14872694633E+04  0.12699999809E+01 0. -1.
       -4    1    3    3    0  502 -0.58606704199E+03 -0.13655825328E+04  0.35087166323E+03  0.15268931752E+04  0.12699999809E+01 0.  1.
</event>
<event>
 5   0  0.6374748E-08  0.3000996E+04  0.7818609E-02  0.8243447E-01
       -1   -1    0    0    0  501  0.00000000000E+00  0.00000000000E+00  0.16974850059E+04  0.16974850059E+04  0.50400001928E-02 0. -1.
        1   -1    0    0  501    0  0.00000000000E+00  0.00000000000E+00 -0.13263705016E+04  0.13263705016E+04  0.50400001928E-02 0.  1.
    10030    2    1    2    0    0  0.00000000000E+00  0.00000000000E+00  0.37111450430E+03  0.30238555075E+04  0.30009958605E+04 0.  0.
        1    1    3    3  502    0  0.25276046724E+03  0.26444837886E+03 -0.12807504400E+04  0.13319694022E+04  0.50400001928E-02 0.  1.
       -1    1    3    3    0  502 -0.25276046724E+03 -0.26444837886E+03  0.16518649443E+04  0.16918861052E+04  0.50400001928E-02 0. -1.
</event>
<event>
 5   0  0.6374748E-08  0.3000791E+04  0.7818609E-02  0.8243505E-01
        1   -1    0    0  501    0  0.00000000000E+00  0.00000000000E+00  0.18079588083E+04  0.18079588083E+04  0.50400001928E-02 0.  1.
       -1   -1    0    0    0  501  0.00000000000E+00  0.00000000000E+00 -0.12451539669E+04  0.12451539669E+04  0.50400001928E-02 0. -1.
    10030    2    1    2    0    0  0.00000000000E+00  0.00000000000E+00  0.56280484145E+03  0.30531127752E+04  0.30007912838E+04 0.  0.
        1    1    3    3  502    0  0.81302887977E+03  0.57251632746E+03  0.14245568206E+04  0.17372832353E+04  0.50400001928E-02 0.  1.
       -1    1    3    3    0  502 -0.81302887977E+03 -0.57251632746E+03 -0.86175197915E+03  0.13158295399E+04  0.50400001928E-02 0. -1.
</event>
<event>
 5   0  0.6374748E-08  0.2997237E+04  0.7818609E-02  0.8244520E-01
       -1   -1    0    0    0  501  0.00000000000E+00  0.00000000000E+00  0.13982519466E+04  0.13982519466E+04  0.50400001928E-02 0. -1.
        1   -1    0    0  501    0  0.00000000000E+00  0.00000000000E+00 -0.16061898125E+04  0.16061898125E+04  0.50400001928E-02 0.  1.
    10030    2    1    2    0    0  0.00000000000E+00  0.00000000000E+00 -0.20793786596E+03  0.30044417591E+04  0.29972374160E+04 0.  0.
        1    1    3    3  502    0 -0.12211489832E+04 -0.81084453561E+03  0.20852441034E+03  0.14805931683E+04  0.50400001928E-02 0. -1.
       -1    1    3    3    0  502  0.12211489832E+04  0.81084453561E+03 -0.41646227630E+03  0.15238485908E+04  0.50400001928E-02 0.  1.
</event>
<event>
 5   0  0.6636007E-08  0.2999774E+04  0.7818609E-02  0.8243795E-01
        1   -1    0    0  501    0  0.00000000000E+00  0.00000000000E+00  0.17551210926E+04  0.17551210926E+04  0.50400001928E-02 0. -1.
       -1   -1    0    0    0  501  0.00000000000E+00  0.00000000000E+00 -0.12817697933E+04  0.12817697933E+04  0.50400001928E-02 0.  1.
    10030    2    1    2    0    0  0.00000000000E+00  0.00000000000E+00  0.47335129938E+03  0.30368908859E+04  0.29997741249E+04 0.  0.
        2    1    3    3  502    0  0.28133347234E+03 -0.90257626109E+03 -0.94214968895E+03  0.13347053855E+04  0.25500000920E-02 0.  1.
       -2    1    3    3    0  502 -0.28133347234E+03  0.90257626109E+03  0.14155009883E+04  0.17021855004E+04  0.25500000920E-02 0. -1.
</event>
<event>
 5   0  0.6464436E-08  0.3000083E+04  0.7818609E-02  0.8243707E-01
       -1   -1    0    0    0  501  0.00000000000E+00  0.00000000000E+00  0.76056435447E+03  0.76056435448E+03  0.50400001928E-02 0.  1.
        1   -1    0    0  501    0  0.00000000000E+00  0.00000000000E+00 -0.29584925652E+04  0.29584925652E+04  0.50400001928E-02 0. -1.
    10030    2    1    2    0    0  0.00000000000E+00  0.00000000000E+00 -0.21979282107E+04  0.37190569196E+04  0.30000826576E+04 0.  0.
        5    1    3    3  502    0  0.14012979887E+04 -0.31819344157E+03 -0.56545465978E+03  0.15442293164E+04  0.46999998093E+01 0.  1.
       -5    1    3    3    0  502 -0.14012979887E+04  0.31819344157E+03 -0.16324735509E+04  0.21748276032E+04  0.46999998093E+01 0. -1.
</event>
<event>
 5   0  0.1813720E-07  0.3000303E+04  0.7818609E-02  0.8243644E-01
        2   -1    0    0  501    0  0.00000000000E+00  0.00000000000E+00  0.13743179391E+04  0.13743179391E+04  0.25500000920E-02 0. -1.
       -2   -1    0    0    0  501  0.00000000000E+00  0.00000000000E+00 -0.16375059889E+04  0.16375059889E+04  0.25500000920E-02 0.  1.
    10030    2    1    2    0    0  0.00000000000E+00  0.00000000000E+00 -0.26318804978E+03  0.30118239280E+04  0.30003025553E+04 0.  0.
        3    1    3    3  502    0 -0.13659627586E+04  0.60776864331E+03 -0.25542437684E+03  0.15167328717E+04  0.10100000352E+00 0.  1.
       -3    1    3    3    0  502  0.13659627586E+04 -0.60776864331E+03 -0.77636729314E+01  0.14950910563E+04  0.10100000352E+00 0. -1.
</event>
<event>
 5   0  0.6679022E-08  0.2999926E+04  0.7818609E-02  0.8243752E-01
        1   -1    0    0  501    0  0.00000000000E+00  0.00000000000E+00  0.16905466438E+04  0.16905466438E+04  0.50400001928E-02 0.  1.
       -1   -1    0    0    0  501  0.00000000000E+00  0.00000000000E+00 -0.13308651798E+04  0.13308651798E+04  0.50400001928E-02 0. -1.
    10030    2    1    2    0    0  0.00000000000E+00  0.00000000000E+00  0.35968146399E+03  0.30214118236E+04  0.29999264411E+04 0.  0.
        3    1    3    3  502    0 -0.10027973968E+04 -0.11142126371E+04  0.12638297716E+03  0.15043420777E+04  0.10100000352E+00 0. -1.
       -3    1    3    3    0  502  0.10027973968E+04  0.11142126371E+04  0.23329848683E+03  0.15170697459E+04  0.10100000352E+00 0.  1.
</event>
<event>
 5   0  0.6636007E-08  0.2999619E+04  0.7818609E-02  0.8243840E-01
       -1   -1    0    0    0  501  0.00000000000E+00  0.00000000000E+00  0.15935195738E+04  0.15935195738E+04  0.50400001928E-02 0. -1.
        1   -1    0    0  501    0  0.00000000000E+00  0.00000000000E+00 -0.14116102219E+04  0.14116102219E+04  0.50400001928E-02 0.  1.
    10030    2    1    2    0    0  0.00000000000E+00  0.00000000000E+00  0.18190935194E+03  0.30051297957E+04  0.29996189886E+04 0.  0.
        2    1    3    3  502    0 -0.13287877997E+04 -0.29679385874E+03  0.72112929479E+03  0.15407112224E+04  0.25500000920E-02 0. -1.
       -2    1    3    3    0  502  0.13287877997E+04  0.29679385874E+03 -0.53921994285E+03  0.14644185733E+04  0.25500000920E-02 0.  1.
</event>
<event>
 5   0  0.1914439E-07  0.3000039E+04  0.7818609E-02  0.8243720E-01
        2   -1    0    0  501    0  0.00000000000E+00  0.00000000000E+00  0.17226022280E+04  0.17226022280E+04  0.25500000920E-02 0. -1.
       -2   -1    0    0    0  501  0.00000000000E+00  0.00000000000E+00 -0.13061970919E+04  0.13061970919E+04  0.25500000920E-02 0.  1.
    10030    2    1    2    0    0  0.00000000000E+00  0.00000000000E+00  0.41640513613E+03  0.30287993199E+04  0.30000386802E+04 0.  0.
        5    1    3    3  502    0 -0.51817917276E+03 -0.32534509734E+03 -0.11744805274E+04  0.13243057377E+04  0.46999998093E+01 0.  1.
       -5    1    3    3    0  502  0.51817917276E+03  0.32534509734E+03  0.15908856636E+04  0.17044935823E+04  0.46999998093E+01 0. -1.
</event>
<event>
 5   0  0.1813720E-07  0.3000553E+04  0.7818609E-02  0.8243573E-01
       -2   -1    0    0    0  501  0.00000000000E+00  0.00000000000E+00  0.94886450639E+03  0.94886450639E+03  0.25500000920E-02 0.  1.
        2   -1    0    0  501    0  0.00000000000E+00  0.00000000000E+00 -0.23721297633E+04  0.23721297633E+04  0.25500000920E-02 0. -1.
    10030    2    1    2    0    0  0.00000000000E+00  0.00000000000E+00 -0.14232652569E+04  0.33209942697E+04  0.30005531070E+04 0.  0.
        3    1    3    3  502    0  0.90890833373E+02 -0.13388792796E+04  0.30803337472E+02  0.13423143167E+04  0.10100000352E+00 0.  1.
       -3    1    3    3    0  502 -0.90890833373E+02  0.13388792796E+04 -0.14540685943E+04  0.19786799530E+04  0.10100000352E+00 0. -1.
</event>
<event>
 5   0  0.6374748E-08  0.2998883E+04  0.7818609E-02  0.8244050E-01
       -1   -1    0    0    0  501  0.00000000000E+00  0.00000000000E+00  0.13220578730E+04  0.13220578730E+04  0.50400001928E-02 0. -1.
        1   -1    0    0  501    0  0.00000000000E+00  0.00000000000E+00 -0.17006256637E+04  0.17006256637E+04  0.50400001928E-02 0.  1.
    10030    2    1    2    0    0  0.00000000000E+00  0.00000000000E+00 -0.37856779065E+03  0.30226835367E+04  0.29988834907E+04 0.  0.
        1    1    3    3  502    0 -0.44465413168E+03 -0.46608724191E+03 -0.15540500952E+04  0.16822682047E+04  0.50400001928E-02 0.  1.
       -1    1    3    3    0  502  0.44465413168E+03  0.46608724191E+03  0.11754823046E+04  0.13404153320E+04  0.50400001928E-02 0. -1.
</event>
<event>
 5   0  0.1810055E-07  0.2999905E+04  0.7818609E-02  0.8243758E-01
       -2   -1    0    0    0  501  0.00000000000E+00  0.00000000000E+00  0.13731583761E+04  0.13731583761E+04  0.25500000920E-02 0.  1.
        2   -1    0    0  501    0  0.00000000000E+00  0.00000000000E+00 -0.16384549282E+04  0.16384549282E+04  0.25500000920E-02 0. -1.
    10030    2    1    2    0    0  0.00000000000E+00  0.00000000000E+00 -0.26529655212E+03  0.30116133044E+04  0.29999054042E+04 0.  0.
        4    1    3    3  502    0 -0.20151355461E+03  0.19813386859E+03  0.13461900193E+04  0.13755340503E+04  0.12699999809E+01 0.  1.
       -4    1    3    3    0  502  0.20151355461E+03 -0.19813386859E+03 -0.16114865714E+04  0.16360792540E+04  0.12699999809E+01 0. -1.
</event>
<event>
 5   0  0.1817566E-07  0.3000153E+04  0.7818609E-02  0.8243687E-01
        2   -1    0    0  501    0  0.00000000000E+00  0.00000000000E+00  0.14324659579E+04  0.14324659579E+04  0.25500000920E-02 0. -1.
       -2   -1    0    0    0  501  0.00000000000E+00  0.00000000000E+00 -0.15708782812E+04  0.15708782812E+04  0.25500000920E-02 0.  1.
    10030    2    1    2    0    0  0.00000000000E+00  0.00000000000E+00 -0.13841232333E+03  0.30033442392E+04  0.30001531040E+04 0.  0.
        1    1    3    3  502    0  0.11115131491E+04 -0.54268995515E+03 -0.91878771719E+03  0.15408259919E+04  0.50400001928E-02 0.  1.
       -1    1    3    3    0  502 -0.11115131491E+04  0.54268995515E+03  0.78037539386E+03  0.14625182472E+04  0.50400001928E-02 0. -1.
</event>
<event>
 5   0  0.1813720E-07  0.3005320E+04  0.7818609E-02  0.8242213E-01
        2   -1    0    0  501    0  0.00000000000E+00  0.00000000000E+00  0.21738578895E+04  0.21738578895E+04  0.25500000920E-02 0. -1.
       -2   -1    0    0    0  501  0.00000000000E+00  0.00000000000E+00 -0.10387002625E+04  0.10387002625E+04  0.25500000920E-02 0.  1.
    10030    2    1    2    0    0  0.00000000000E+00  0.00000000000E+00  0.11351576269E+04  0.32125581520E+04  0.30053197903E+04 0.  0.
        3    1    3    3  502    0  0.88612847598E+02 -0.18932599018E+03  0.21582395963E+04  0.21683391646E+04  0.10100000352E+00 0. -1.
       -3    1    3    3    0  502 -0.88612847598E+02  0.18932599018E+03 -0.10230819694E+04  0.10442189874E+04  0.10100000352E+00 0.  1.
</event>
<event>
 5   0  0.6464436E-08  0.2976411E+04  0.7818609E-02  0.8250499E-01
        1   -1    0    0  501    0  0.00000000000E+00  0.00000000000E+00  0.16243067038E+04  0.16243067038E+04  0.50400001928E-02 0.  1.
       -1   -1    0    0    0  501  0.00000000000E+00  0.00000000000E+00 -0.13635081681E+04  0.13635081681E+04  0.50400001928E-02 0. -1.
    10030    2    1    2    0    0  0.00000000000E+00  0.00000000000E+00  0.26079853571E+03  0.29878148719E+04  0.29764108978E+04 0.  0.
        5    1    3    3  502    0  0.12873438681E+03 -0.14825155414E+04  0.11276794333E+03  0.14923684438E+04  0.46999998093E+01 0. -1.
       -5    1    3    3    0  502 -0.12873438681E+03  0.14825155414E+04  0.14803059239E+03  0.14954464281E+04  0.46999998093E+01 0.  1.
</event>
<event>
 5   0  0.6636007E-08  0.2998614E+04  0.7818609E-02  0.8244127E-01
        1   -1    0    0  501    0  0.00000000000E+00  0.00000000000E+00  0.19155409235E+04  0.19155409235E+04  0.50400001928E-02 0.  1.
       -1   -1    0    0    0  501  0.00000000000E+00  0.00000000000E+00 -0.11735178879E+04  0.11735178879E+04  0.50400001928E-02 0. -1.
    10030    2    1    2    0    0  0.00000000000E+00  0.00000000000E+00  0.74202303560E+03  0.30890588113E+04  0.29986140390E+04 0.  0.
        2    1    3    3  502    0  0.43740606088E+03  0.25609745689E+03  0.18246034323E+04  0.18936968223E+04  0.25500000920E-02 0.  1.
       -2    1    3    3    0  502 -0.43740606088E+03 -0.25609745689E+03 -0.10825803967E+04  0.11953619891E+04  0.25500000920E-02 0. -1.
</event>
<event>
 5   0  0.6374748E-08  0.3000604E+04  0.7818609E-02  0.8243558E-01
        1   -1    0    0  501    0  0.00000000000E+00  0.00000000000E+00  0.11018643849E+04  0.11018643849E+04  0.50400001928E-02 0. -1.
       -1   -1    0    0    0  501  0.00000000000E+00  0.00000000000E+00 -0.20428165651E+04  0.20428165651E+04  0.50400001928E-02 0.  1.
    10030    2    1    2    0    0  0.00000000000E+00  0.00000000000E+00 -0.94095218015E+03  0.31446809500E+04  0.30006044845E+04 0.  0.
        1    1    3    3  502    0 -0.11834587849E+04 -0.35439385452E+03 -0.13626676042E+04  0.18393022316E+04  0.50400001928E-02 0.  1.
       -1    1    3    3    0  502  0.11834587849E+04  0.35439385452E+03  0.42171542405E+03  0.13053787184E+04  0.50400001928E-02 0. -1.
</event>
<event>
 5   0  0.1821305E-07  0.3000271E+04  0.7818609E-02  0.8243654E-01
       -2   -1    0    0    0  501  0.00000000000E+00  0.00000000000E+00  0.13606291539E+04  0.13606291539E+04  0.25500000920E-02 0.  1.
        2   -1    0    0  501    0  0.00000000000E+00  0.00000000000E+00 -0.16539451410E+04  0.16539451410E+04  0.25500000920E-02 0. -1.
    10030    2    1    2    0    0  0.00000000000E+00  0.00000000000E+00 -0.29331598710E+03  0.30145742950E+04  0.30002706397E+04 0.  0.
        2    1    3    3  502    0  0.10916312323E+04  0.91469855326E+03 -0.62015169800E+03  0.15533577564E+04  0.25500000920E-02 0. -1.
       -2    1    3    3    0  502 -0.10916312323E+04 -0.91469855326E+03  0.32683571091E+03  0.14612165386E+04  0.25500000920E-02 0.  1.
</event>
<event>
 5   0  0.1810055E-07  0.3001308E+04  0.7818609E-02  0.8243358E-01
       -2   -1    0    0    0  501  0.00000000000E+00  0.00000000000E+00  0.11287715757E+04  0.11287715757E+04  0.25500000920E-02 0. -1.
        2   -1    0    0  501    0  0.00000000000E+00  0.00000000000E+00 -0.19950556529E+04  0.19950556529E+04  0.25500000920E-02 0.  1.
    10030    2    1    2    0    0  0.00000000000E+00  0.00000000000E+00 -0.86628407719E+03  0.31238272286E+04  0.30013077902E+04 0.  0.
        4    1    3    3  502    0  0.12994327964E+04  0.73786689553E+03 -0.28972238417E+03  0.15221411961E+04  0.12699999809E+01 0. -1.
       -4    1    3    3    0  502 -0.12994327964E+04 -0.73786689553E+03 -0.57656169302E+03  0.16016860325E+04  0.12699999809E+01 0.  1.
</event>
<event>
 5   0  0.6636007E-08  0.2999798E+04  0.7818609E-02  0.8243789E-01
        1   -1    0    0  501    0  0.00000000000E+00  0.00000000000E+00  0.11202509128E+04  0.11202509128E+04  0.50400001928E-02 0. -1.
       -1   -1    0    0    0  501  0.00000000000E+00  0.00000000000E+00 -0.20082075237E+04  0.20082075237E+04  0.50400001928E-02 0.  1.
    10030    2    1    2    0    0  0.00000000000E+00  0.00000000000E+00 -0.88795661095E+03  0.31284584365E+04  0.29997975342E+04 0.  0.
        2    1    3    3  502    0  0.11184547160E+04  0.31768973869E+03 -0.14321562602E+04  0.18447057422E+04  0.25500000920E-02 0.  1.
       -2    1    3    3    0  502 -0.11184547160E+04 -0.31768973869E+03  0.54419964926E+03  0.12837526943E+04  0.25500000920E-02 0. -1.
</event>
<event>
 5   0  0.6464436E-08  0.2997681E+04  0.7818609E-02  0.8244394E-01
        1   -1    0    0  501    0  0.00000000000E+00  0.00000000000E+00  0.21360107091E+04  0.21360107091E+04  0.50400001928E-02 0. -1.
       -1   -1    0    0    0  501  0.00000000000E+00  0.00000000000E+00 -0.10517373410E+04  0.10517373411E+04  0.50400001928E-02 0.  1.
    10030    2    1    2    0    0  0.00000000000E+00  0.00000000000E+00  0.10842733681E+04  0.31877480502E+04  0.29976805858E+04 0.  0.
        5    1    3    3  502    0  0.48524527863E+03  0.95824743996E+03 -0.56951512071E+03  0.12157593098E+04  0.46999998093E+01 0.  1.
       -5    1    3    3    0  502 -0.48524527863E+03 -0.95824743996E+03  0.16537884888E+04  0.19719887404E+04  0.46999998093E+01 0. -1.
</event>
<event>
 5   0  0.6636007E-08  0.3000330E+04  0.7818609E-02  0.8243637E-01
        1   -1    0    0  501    0  0.00000000000E+00  0.00000000000E+00  0.23830832009E+04  0.23830832009E+04  0.50400001928E-02 0. -1.
       -1   -1    0    0    0  501  0.00000000000E+00  0.00000000000E+00 -0.94436259064E+03  0.94436259065E+03  0.50400001928E-02 0.  1.
    10030    2    1    2    0    0  0.00000000000E+00  0.00000000000E+00  0.14387206103E+04  0.33274457915E+04  0.30003297321E+04 0.  0.
        2    1    3    3  502    0 -0.63250470409E+03  0.96477397976E+03  0.17828952836E+04  0.21235740216E+04  0.25500000920E-02 0. -1.
       -2    1    3    3    0  502  0.63250470409E+03 -0.96477397976E+03 -0.34417467339E+03  0.12038717700E+04  0.25500000920E-02 0.  1.
</event>
<event>
 5   0  0.1821305E-07  0.2994768E+04  0.7818609E-02  0.8245226E-01
        2   -1    0    0  501    0  0.00000000000E+00  0.00000000000E+00  0.26369371538E+04  0.26369371538E+04  0.25500000920E-02 0. -1.
       -2   -1    0    0    0  501  0.00000000000E+00  0.00000000000E+00 -0.85028923402E+03  0.85028923403E+03  0.25500000920E-02 0.  1.
    10030    2    1    2    0    0  0.00000000000E+00  0.00000000000E+00  0.17866479198E+04  0.34872263878E+04  0.29947682867E+04 0.  0.
        2    1    3    3  502    0  0.14741751372E+04  0.16934619943E+03  0.11270510728E+04  0.18633611006E+04  0.25500000920E-02 0. -1.
       -2    1    3    3    0  502 -0.14741751372E+04 -0.16934619943E+03  0.65959684698E+03  0.16238652872E+04  0.25500000920E-02 0.  1.
</event>
<event>
 5   0  0.1813720E-07  0.2997294E+04  0.7818609E-02  0.8244504E-01
       -2   -1    0    0    0  501  0.00000000000E+00  0.00000000000E+00  0.14710245970E+04  0.14710245970E+04  0.25500000920E-02 0. -1.
        2   -1    0    0  501    0  0.00000000000E+00  0.00000000000E+00 -0.15267881484E+04  0.15267881484E+04  0.25500000920E-02 0.  1.
    10030    2    1    2    0    0  0.00000000000E+00  0.00000000000E+00 -0.55763551408E+02  0.29978127455E+04  0.29972940602E+04 0.  0.
        3    1    3    3  502    0 -0.12268664894E+04  0.63074429255E+03 -0.61356245239E+03  0.15098008606E+04  0.10100000352E+00 0.  1.
       -3    1    3    3    0  502  0.12268664894E+04 -0.63074429255E+03  0.55779890098E+03  0.14880118849E+04  0.10100000352E+00 0. -1.
</event>
<event>
 5   0  0.1821305E-07  0.2999403E+04  0.7818609E-02  0.8243901E-01
        2   -1    0    0  501    0  0.00000000000E+00  0.00000000000E+00  0.19774455264E+04  0.19774455264E+04  0.25500000920E-02 0.  1.
       -2   -1    0    0    0  501  0.00000000000E+00  0.00000000000E+00 -0.11373784921E+04  0.11373784921E+04  0.25500000920E-02 0. -1.
    10030    2    1    2    0    0  0.00000000000E+00  0.00000000000E+00  0.84006703431E+03  0.31148240186E+04  0.29994026146E+04 0.  0.
        2    1    3    3  502    0  0.69182737589E+03 -0.30714817990E+03 -0.92444463837E+03  0.11948066839E+04  0.25500000920E-02 0. -1.
       -2    1    3    3    0  502 -0.69182737589E+03  0.30714817990E+03  0.17645116727E+04  0.19200173347E+04  0.25500000920E-02 0.  1.
</event>
<event>
 5   0  0.6679022E-08  0.3000075E+04  0.7818609E-02  0.8243709E-01
        1   -1    0    0  501    0  0.00000000000E+00  0.00000000000E+00  0.11511840316E+04  0.11511840316E+04  0.50400001928E-02 0.  1.
       -1   -1    0    0    0  501  0.00000000000E+00  0.00000000000E+00 -0.19546069935E+04  0.19546069935E+04  0.50400001928E-02 0. -1.
    10030    2    1    2    0    0  0.00000000000E+00  0.00000000000E+00 -0.80342296189E+03  0.31057910252E+04  0.30000749051E+04 0.  0.
        3    1    3    3  502    0 -0.14693403992E+04  0.21292372117E+03 -0.62329743121E+03  0.16102165748E+04  0.10100000352E+00 0.  1.
       -3    1    3    3    0  502  0.14693403992E+04 -0.21292372117E+03 -0.18012553068E+03  0.14955744504E+04  0.10100000352E+00 0. -1.
</event>
<event>
 5   0  0.6464436E-08  0.2999686E+04  0.7818609E-02  0.8243820E-01
        1   -1    0    0  501    0  0.00000000000E+00  0.00000000000E+00  0.20676737530E+04  0.20676737530E+04  0.50400001928E-02 0.  1.
       -1   -1    0    0    0  501  0.00000000000E+00  0.00000000000E+00 -0.10879518938E+04  0.10879518938E+04  0.50400001928E-02 0. -1.
    10030    2    1    2    0    0  0.00000000000E+00  0.00000000000E+00  0.97972185919E+03  0.31556256468E+04  0.29996863671E+04 0.  0.
        5    1    3    3  502    0  0.81620524495E+03  0.22519109553E+03 -0.81248036407E+03  0.11734770826E+04  0.46999998093E+01 0. -1.
       -5    1    3    3    0  502 -0.81620524495E+03 -0.22519109553E+03  0.17922022233E+04  0.19821485642E+04  0.46999998093E+01 0.  1.
</event>
<event>
 5   0  0.1914439E-07  0.2999936E+04  0.7818609E-02  0.8243749E-01
       -2   -1    0    0    0  501  0.00000000000E+00  0.00000000000E+00  0.14017408738E+04  0.14017408738E+04  0.25500000920E-02 0.  1.
        2   -1    0    0  501    0  0.00000000000E+00  0.00000000000E+00 -0.16050780597E+04  0.16050780597E+04  0.25500000920E-02 0. -1.
    10030    2    1    2    0    0  0.00000000000E+00  0.00000000000E+00 -0.20333718586E+03  0.30068189336E+04  0.29999356806E+04 0.  0.
        5    1    3    3  502    0  0.17120557804E+03 -0.14750233612E+04  0.11065742050E+03  0.14890508456E+04  0.46999998093E+01 0. -1.
       -5    1    3    3    0  502 -0.17120557804E+03  0.14750233612E+04 -0.31399460636E+03  0.15177680880E+04  0.46999998093E+01 0.  1.
</event>
<event>
 5   0  0.6464436E-08  0.3006703E+04  0.7818609E-02  0.8241819E-01
       -1   -1    0    0    0  501  0.00000000000E+00  0.00000000000E+00  0.13057016614E+04  0.13057016614E+04  0.50400001928E-02 0.  1.
        1   -1    0    0  501    0  0.00000000000E+00  0.00000000000E+00 -0.17309209301E+04  0.17309209301E+04  0.50400001928E-02 0. -1.
    10030    2    1    2    0    0  0.00000000000E+00  0.00000000000E+00 -0.42521926875E+03  0.30366225915E+04  0.30067034002E+04 0.  0.
        5    1    3    3  502    0  0.45405470793E+03  0.10918413345E+04 -0.11501579645E+04  0.16495964994E+04  0.46999998093E+01 0. -1.
       -5    1    3    3    0  502 -0.45405470793E+03 -0.10918413345E+04  0.72493869580E+03  0.13870260921E+04  0.46999998093E+01 0.  1.
</event>
<event>
 5   0  0.6636007E-08  0.2999942E+04  0.7818609E-02  0.8243747E-01
        1   -1    0    0  501    0  0.00000000000E+00  0.00000000000E+00  0.26284930197E+04  0.26284930197E+04  0.50400001928E-02 0.  1.
       -1   -1    0    0    0  501  0.00000000000E+00  0.00000000000E+00 -0.85597081787E+03  0.85597081789E+03  0.50400001928E-02 0. -1.
    10030    2    1    2    0    0  0.00000000000E+00  0.00000000000E+00  0.17725222019E+04  0.34844638376E+04  0.29999422127E+04 0.  0.
        2    1    3    3  502    0 -0.74940585515E+02  0.66639779600E+03 -0.67215993943E+03  0.94947411658E+03  0.25500000920E-02 0. -1.
       -2    1    3    3    0  502  0.74940585515E+02 -0.66639779600E+03  0.24446821413E+04  0.25349897210E+04  0.25500000920E-02 0.  1.
</event>
<event>
 5   0  0.1914439E-07  0.3000512E+04  0.7818609E-02  0.8243585E-01
        2   -1    0    0  501    0  0.00000000000E+00  0.00000000000E+00  0.24659265817E+04  0.24659265817E+04  0.25500000920E-02 0.  1.
       -2   -1    0    0    0  501  0.00000000000E+00  0.00000000000E+00 -0.91274735333E+03  0.91274735333E+03  0.25500000920E-02 0. -1.
    10030    2    1    2    0    0  0.00000000000E+00  0.00000000000E+00  0.15531792284E+04  0.33786739350E+04  0.30005119303E+04 0.  0.
        5    1    3    3  502    0  0.79322827021E+03  0.91450917359E+03 -0.22120972798E+03  0.12306477770E+04  0.46999998093E+01 0. -1.
       -5    1    3    3    0  502 -0.79322827021E+03 -0.91450917359E+03  0.17743889563E+04  0.21480261580E+04  0.46999998093E+01 0.  1.
</event>
<event>
 5   0  0.6374748E-08  0.3000725E+04  0.7818609E-02  0.8243524E-01
       -1   -1    0    0    0  501  0.00000000000E+00  0.00000000000E+00  0.79344566594E+03  0.79344566596E+03  0.50400001928E-02 0. -1.
        1   -1    0    0  501    0  0.00000000000E+00  0.00000000000E+00 -0.28371029697E+04  0.28371029697E+04  0.50400001928E-02 0.  1.
    10030    2    1    2    0    0  0.00000000000E+00  0.00000000000E+00 -0.20436573037E+04  0.36305486356E+04  0.30007246159E+04 0.  0.
        1    1    3    3  502    0 -0.55140562700E+03  0.57964077672E+03  0.51385359470E+03  0.95082969680E+03  0.50400001928E-02 0. -1.
       -1    1    3    3    0  502  0.55140562700E+03 -0.57964077672E+03 -0.25575108984E+04  0.26797189388E+04  0.50400001928E-02 0.  1.
</event>
<event>
 5   0  0.1813720E-07  0.2999426E+04  0.7818609E-02  0.8243895E-01
        2   -1    0    0  501    0  0.00000000000E+00  0.00000000000E+00  0.26937147202E+04  0.26937147202E+04  0.25500000920E-02 0.  1.
       -2   -1    0    0    0  501  0.00000000000E+00  0.00000000000E+00 -0.83495805605E+03  0.83495805605E+03  0.25500000920E-02 0. -1.
    10030    2    1    2    0    0  0.00000000000E+00  0.00000000000E+00  0.18587566642E+04  0.35286727763E+04  0.29994258160E+04 0.  0.
        3    1    3    3  502    0  0.11604642354E+04  0.68375253862E+03  0.15350657345E+03  0.13556397213E+04  0.10100000352E+00 0.  1.
       -3    1    3    3    0  502 -0.11604642354E+04 -0.68375253862E+03  0.17052500907E+04  0.21730330549E+04  0.10100000352E+00 0. -1.
</event>
<event>
 5   0  0.1817566E-07  0.2998347E+04  0.7818609E-02  0.8244203E-01
       -2   -1    0    0    0  501  0.00000000000E+00  0.00000000000E+00  0.92639335035E+03  0.92639335035E+03  0.25500000920E-02 0. -1.
        2   -1    0    0  501    0  0.00000000000E+00  0.00000000000E+00 -0.24260986927E+04  0.24260986927E+04  0.25500000920E-02 0.  1.
    10030    2    1    2    0    0  0.00000000000E+00  0.00000000000E+00 -0.14997053424E+04  0.33524920431E+04  0.29983473423E+04 0.  0.
        1    1    3    3  502    0  0.50586649467E+03  0.64211453858E+03 -0.21549922466E+04  0.23048218096E+04  0.50400001928E-02 0.  1.
       -1    1    3    3    0  502 -0.50586649467E+03 -0.64211453858E+03  0.65528690427E+03  0.10476702334E+04  0.50400001928E-02 0. -1.
</event>
<event>
 5   0  0.1813720E-07  0.3002234E+04  0.7818609E-02  0.8243093E-01
        2   -1    0    0  501    0  0.00000000000E+00  0.00000000000E+00  0.20391432060E+04  0.20391432060E+04  0.25500000920E-02 0.  1.
       -2   -1    0    0    0  501  0.00000000000E+00  0.00000000000E+00 -0.11050486807E+04  0.11050486807E+04  0.25500000920E-02 0. -1.
    10030    2    1    2    0    0  0.00000000000E+00  0.00000000000E+00  0.93409452529E+03  0.31441918867E+04  0.30022341744E+04 0.  0.
        3    1    3    3  502    0 -0.11595698794E+04 -0.80229285834E+03 -0.72152857745E+02  0.14119072848E+04  0.10100000352E+00 0. -1.
       -3    1    3    3    0  502  0.11595698794E+04  0.80229285834E+03  0.10062473830E+04  0.17322846019E+04  0.10100000352E+00 0.  1.
</event>
<event>
 5   0  0.6636007E-08  0.2999375E+04  0.7818609E-02  0.8243909E-01
       -1   -1    0    0    0  501  0.00000000000E+00  0.00000000000E+00  0.22769803748E+04  0.22769803748E+04  0.50400001928E-02 0.  1.
        1   -1    0    0  501    0  0.00000000000E+00  0.00000000000E+00 -0.98773923851E+03  0.98773923852E+03  0.50400001928E-02 0. -1.
    10030    2    1    2    0    0  0.00000000000E+00  0.00000000000E+00  0.12892411363E+04  0.32647196133E+04  0.29993751760E+04 0.  0.
        2    1    3    3  502    0  0.97188814913E+03  0.11421437847E+04  0.64675965864E+03  0.16332045357E+04  0.25500000920E-02 0.  1.
       -2    1    3    3    0  502 -0.97188814913E+03 -0.11421437847E+04  0.64248147766E+03  0.16315150776E+04  0.25500000920E-02 0. -1.
</event>
<event>
 5   0  0.1810055E-07  0.2999925E+04  0.7818609E-02  0.8243752E-01
        2   -1    0    0  501    0  0.00000000000E+00  0.00000000000E+00  0.15994403830E+04  0.15994403830E+04  0.25500000920E-02 0. -1.
       -2   -1    0    0    0  501  0.00000000000E+00  0.00000000000E+00 -0.14066720276E+04  0.14066720276E+04  0.25500000920E-02 0.  1.
    10030    2    1    2    0    0  0.00000000000E+00  0.00000000000E+00  0.19276835543E+03  0.30061124107E+04  0.29999253635E+04 0.  0.
        4    1    3    3  502    0 -0.25781738454E+03  0.13352787115E+04  0.73049841155E+03  0.15437190753E+04  0.12699999809E+01 0. -1.
       -4    1    3    3    0  502  0.25781738454E+03 -0.13352787115E+04 -0.53773005611E+03  0.14623933354E+04  0.12699999809E+01 0.  1.
</event>
<event>
 5   0  0.6464436E-08  0.2999996E+04  0.7818609E-02  0.8243732E-01
       -1   -1    0    0    0  501  0.00000000000E+00  0.00000000000E+00  0.11662705786E+04  0.11662705786E+04  0.50400001928E-02 0. -1.
        1   -1    0    0  501    0  0.00000000000E+00  0.00000000000E+00 -0.19292212945E+04  0.19292212945E+04  0.50400001928E-02 0.  1.
    10030    2    1    2    0    0  0.00000000000E+00  0.00000000000E+00 -0.76295071589E+03  0.30954918731E+04  0.29999960236E+04 0.  0.
        5    1    3    3  502    0 -0.79274446507E+03  0.47047389211E+03  0.83948428143E+03  0.12468141076E+04  0.46999998093E+01 0. -1.
       -5    1    3    3    0  502  0.79274446507E+03 -0.47047389211E+03 -0.16024349973E+04  0.18486777655E+04  0.46999998093E+01 0.  1.
</event>
<event>
 5   0  0.6636007E-08  0.3000470E+04  0.7818609E-02  0.8243597E-01
        1   -1    0    0  501    0  0.00000000000E+00  0.00000000000E+00  0.20606676675E+04  0.20606676675E+04  0.50400001928E-02 0.  1.
       -1   -1    0    0    0  501  0.00000000000E+00  0.00000000000E+00 -0.10922213204E+04  0.10922213204E+04  0.50400001928E-02 0. -1.
    10030    2    1    2    0    0  0.00000000000E+00  0.00000000000E+00  0.96844634714E+03  0.31528889879E+04  0.30004700703E+04 0.  0.
        2    1    3    3  502    0 -0.67750319392E+03 -0.54343952575E+03  0.17696240631E+04  0.19712702556E+04  0.25500000920E-02 0.  1.
       -2    1    3    3    0  502  0.67750319392E+03  0.54343952575E+03 -0.80117771599E+03  0.11816187323E+04  0.25500000920E-02 0. -1.
</event>
<event>
 5   0  0.6017625E-08  0.2999450E+04  0.7818609E-02  0.8243888E-01
       -3   -1    0    0    0  501  0.00000000000E+00  0.00000000000E+00  0.11674723719E+04  0.11674723763E+04  0.10100000352E+00 0.  1.
        3   -1    0    0  501    0  0.00000000000E+00  0.00000000000E+00 -0.19265339850E+04  0.19265339876E+04  0.10100000352E+00 0. -1.
    10030    2    1    2    0    0  0.00000000000E+00  0.00000000000E+00 -0.75906161307E+03  0.30940063639E+04  0.29994500909E+04 0.  0.
        3    1    3    3  502    0  0.34455868392E+03  0.12335789192E+04  0.42528151015E+03  0.13495562270E+04  0.10100000352E+00 0.  1.
       -3    1    3    3    0  502 -0.34455868392E+03 -0.12335789192E+04 -0.11843431232E+04  0.17444501370E+04  0.10100000352E+00 0. -1.
</event>
<event>
 5   0  0.6636007E-08  0.2999777E+04  0.7818609E-02  0.8243795E-01
       -1   -1    0    0    0  501  0.00000000000E+00  0.00000000000E+00  0.75152284028E+03  0.75152284030E+03  0.50400001928E-02 0. -1.
        1   -1    0    0  501    0  0.00000000000E+00  0.00000000000E+00 -0.29934756701E+04  0.29934756701E+04  0.50400001928E-02 0.  1.
    10030    2    1    2    0    0  0.00000000000E+00  0.00000000000E+00 -0.22419528298E+04  0.37449985104E+04  0.29997768837E+04 0.  0.
        2    1    3    3  502    0  0.45242933073E+03  0.14914823662E+03 -0.28965203425E+04  0.29354331180E+04  0.25500000920E-02 0.  1.
       -2    1    3    3    0  502 -0.45242933073E+03 -0.14914823662E+03  0.65456751271E+03  0.80956539236E+03  0.25500000920E-02 0. -1.
</event>
<event>
 5   0  0.6679022E-08  0.2999716E+04  0.7818609E-02  0.8243812E-01
       -1   -1    0    0    0  501  0.00000000000E+00  0.00000000000E+00  0.13119192063E+04  0.13119192063E+04  0.50400001928E-02 0. -1.
        1   -1    0    0  501    0  0.00000000000E+00  0.00000000000E+00 -0.17147194648E+04  0.17147194648E+04  0.50400001928E-02 0.  1.
    10030    2    1    2    0    0  0.00000000000E+00  0.00000000000E+00 -0.40280025848E+03  0.30266386712E+04  0.29997155861E+04 0.  0.
        3    1    3    3  502    0  0.74400389250E+03 -0.12241426709E+03  0.11067884109E+04  0.13392190417E+04  0.10100000352E+00 0. -1.
       -3    1    3    3    0  502 -0.74400389250E+03  0.12241426709E+03 -0.15095886694E+04  0.16874196295E+04  0.10100000352E+00 0.  1.
</event>
<event>
 5   0  0.6464436E-08  0.2999598E+04  0.7818609E-02  0.8243846E-01
        1   -1    0    0  501    0  0.00000000000E+00  0.00000000000E+00  0.11429244797E+04  0.11429244797E+04  0.50400001928E-02 0. -1.
       -1   -1    0    0    0  501  0.00000000000E+00  0.00000000000E+00 -0.19681060512E+04  0.19681060512E+04  0.50400001928E-02 0.  1.
    10030    2    1    2    0    0  0.00000000000E+00  0.00000000000E+00 -0.82518157150E+03  0.31110305308E+04  0.29995976960E+04 0.  0.
        5    1    3    3  502    0 -0.12594969355E+04  0.42035661405E+03  0.31069890573E+03  0.13636671565E+04  0.46999998093E+01 0. -1.
       -5    1    3    3    0  502  0.12594969355E+04 -0.42035661405E+03 -0.11358804772E+04  0.17473633744E+04  0.46999998093E+01 0.  1.
</event>
<event>
 5   0  0.1914439E-07  0.3000709E+04  0.7818609E-02  0.8243528E-01
        2   -1    0    0  501    0  0.00000000000E+00  0.00000000000E+00  0.11224639957E+04  0.11224639957E+04  0.25500000920E-02 0.  1.
       -2   -1    0    0    0  501  0.00000000000E+00  0.00000000000E+00 -0.20054664328E+04  0.20054664328E+04  0.25500000920E-02 0. -1.
    10030    2    1    2    0    0  0.00000000000E+00  0.00000000000E+00 -0.88300243713E+03  0.31279304285E+04  0.30007091598E+04 0.  0.
        5    1    3    3  502    0 -0.74964951651E+03 -0.12921672832E+04 -0.29642032918E+03  0.15230094507E+04  0.46999998093E+01 0.  1.
       -5    1    3    3    0  502  0.74964951651E+03  0.12921672832E+04 -0.58658210795E+03  0.16049209777E+04  0.46999998093E+01 0. -1.
</event>
<event>
 5   0  0.6374748E-08  0.2998039E+04  0.7818609E-02  0.8244291E-01
       -1   -1    0    0    0  501  0.00000000000E+00  0.00000000000E+00  0.95827579602E+03  0.95827579604E+03  0.50400001928E-02 0.  1.
        1   -1    0    0  501    0  0.00000000000E+00  0.00000000000E+00 -0.23448986267E+04  0.23448986267E+04  0.50400001928E-02 0. -1.
    10030    2    1    2    0    0  0.00000000000E+00  0.00000000000E+00 -0.13866228307E+04  0.33031744228E+04  0.29980390912E+04 0.  0.
        1    1    3    3  502    0 -0.51428840852E+03 -0.13713180544E+04 -0.10452840171E+04  0.17993400040E+04  0.50400001928E-02 0. -1.
       -1    1    3    3    0  502  0.51428840852E+03  0.13713180544E+04 -0.34133881360E+03  0.15038344188E+04  0.50400001928E-02 0.  1.
</event>
<event>
 5   0  0.6464436E-08  0.3001594E+04  0.7818609E-02  0.8243276E-01
        1   -1    0    0  501    0  0.00000000000E+00  0.00000000000E+00  0.19132706261E+04  0.19132706261E+04  0.50400001928E-02 0. -1.
       -1   -1    0    0    0  501  0.00000000000E+00  0.00000000000E+00 -0.11772465565E+04  0.11772465565E+04  0.50400001928E-02 0.  1.
    10030    2    1    2    0    0  0.00000000000E+00  0.00000000000E+00  0.73602406958E+03  0.30905171826E+04  0.30015937475E+04 0.  0.
        5    1    3    3  502    0 -0.13281448283E+04  0.40029148131E+03  0.95784201541E+03  0.16857299225E+04  0.46999998093E+01 0. -1.
       -5    1    3    3    0  502  0.13281448283E+04 -0.40029148131E+03 -0.22181794583E+03  0.14047872601E+04  0.46999998093E+01 0.  1.
</event>
<event>
 5   0  0.6525507E-08  0.2999747E+04  0.7818609E-02  0.8243803E-01
        1   -1    0    0  501    0  0.00000000000E+00  0.00000000000E+00  0.17580901755E+04  0.17580901755E+04  0.50400001928E-02 0. -1.
       -1   -1    0    0    0  501  0.00000000000E+00  0.00000000000E+00 -0.12795820526E+04  0.12795820526E+04  0.50400001928E-02 0.  1.
    10030    2    1    2    0    0  0.00000000000E+00  0.00000000000E+00  0.47850812285E+03  0.30376722281E+04  0.29997470797E+04 0.  0.
        4    1    3    3  502    0 -0.89330742611E+02 -0.76209012709E+03 -0.10657819051E+04  0.13132608368E+04  0.12699999809E+01 0.  1.
       -4    1    3    3    0  502  0.89330742611E+02  0.76209012709E+03  0.15442900279E+04  0.17244113913E+04  0.12699999809E+01 0. -1.
</event>
<event>
 5   0  0.6636007E-08  0.3000075E+04  0.7818609E-02  0.8243709E-01
       -1   -1    0    0    0  501  0.00000000000E+00  0.00000000000E+00  0.21341770066E+04  0.21341770066E+04  0.50400001928E-02 0.  1.
        1   -1    0    0  501    0  0.00000000000E+00  0.00000000000E+00 -0.10543233291E+04  0.10543233291E+04  0.50400001928E-02 0. -1.
    10030    2    1    2    0    0  0.00000000000E+00  0.00000000000E+00  0.10798536775E+04  0.31885003358E+04  0.30000750701E+04 0.  0.
        2    1    3    3  502    0  0.10155370746E+04 -0.56146883457E+03 -0.47032672959E+03  0.12521062394E+04  0.25500000920E-02 0. -1.
       -2    1    3    3    0  502 -0.10155370746E+04  0.56146883457E+03  0.15501804071E+04  0.19363940964E+04  0.25500000920E-02 0.  1.
</event>
<event>
 5   0  0.1821305E-07  0.3000082E+04  0.7818609E-02  0.8243707E-01
       -2   -1    0    0    0  501  0.00000000000E+00  0.00000000000E+00  0.14995827244E+04  0.14995827244E+04  0.25500000920E-02 0. -1.
        2   -1    0    0  501    0  0.00000000000E+00  0.00000000000E+00 -0.15004993554E+04  0.15004993554E+04  0.25500000920E-02 0.  1.
    10030    2    1    2    0    0  0.00000000000E+00  0.00000000000E+00 -0.91663091659E+00  0.30000820798E+04  0.30000819398E+04 0.  0.
        2    1    3    3  502    0  0.47553987805E+02 -0.55940502383E+03  0.13905584815E+04  0.14996160352E+04  0.25500000920E-02 0. -1.
       -2    1    3    3    0  502 -0.47553987805E+02  0.55940502383E+03 -0.13914751125E+04  0.15004660446E+04  0.25500000920E-02 0.  1.
</event>
<event>
 5   0  0.1813720E-07  0.3001142E+04  0.7818609E-02  0.8243405E-01
        2   -1    0    0  501    0  0.00000000000E+00  0.00000000000E+00  0.16270950765E+04  0.16270950765E+04  0.25500000920E-02 0.  1.
       -2   -1    0    0    0  501  0.00000000000E+00  0.00000000000E+00 -0.13838856919E+04  0.13838856919E+04  0.25500000920E-02 0. -1.
    10030    2    1    2    0    0  0.00000000000E+00  0.00000000000E+00  0.24320938458E+03  0.30109807684E+04  0.30011421797E+04 0.  0.
        3    1    3    3  502    0 -0.24336441212E+03 -0.78634337566E+03  0.13803697158E+04  0.16071660475E+04  0.10100000352E+00 0.  1.
       -3    1    3    3    0  502  0.24336441212E+03  0.78634337566E+03 -0.11371603312E+04  0.14038147209E+04  0.10100000352E+00 0. -1.
</event>
<event>
 5   0  0.1810055E-07  0.2997222E+04  0.7818609E-02  0.8244525E-01
       -2   -1    0    0    0  501  0.00000000000E+00  0.00000000000E+00  0.23764897812E+04  0.23764897812E+04  0.25500000920E-02 0.  1.
        2   -1    0    0  501    0  0.00000000000E+00  0.00000000000E+00 -0.94502169621E+03  0.94502169621E+03  0.25500000920E-02 0. -1.
    10030    2    1    2    0    0  0.00000000000E+00  0.00000000000E+00  0.14314680850E+04  0.33215114774E+04  0.29972216495E+04 0.  0.
        4    1    3    3  502    0  0.53862401922E+02  0.12101158580E+04  0.16935576040E+04  0.20821672649E+04  0.12699999809E+01 0.  1.
       -4    1    3    3    0  502 -0.53862401922E+02 -0.12101158580E+04 -0.26208951897E+03  0.12393442125E+04  0.12699999809E+01 0. -1.
</event>
<event>
 5   0  0.6464436E-08  0.2996635E+04  0.7818609E-02  0.8244692E-01
       -1   -1    0    0    0  501  0.00000000000E+00  0.00000000000E+00  0.14550133322E+04  0.14550133322E+04  0.50400001928E-02 0. -1.
        1   -1    0    0  501    0  0.00000000000E+00  0.00000000000E+00 -0.15429109919E+04  0.15429109919E+04  0.50400001928E-02 0.  1.
    10030    2    1    2    0    0  0.00000000000E+00  0.00000000000E+00 -0.87897659714E+02  0.29979243241E+04  0.29966354891E+04 0.  0.
        5    1    3    3  502    0  0.14887219927E+04 -0.15046294899E+03 -0.12145280892E+03  0.15012345404E+04  0.46999998093E+01 0.  1.
       -5    1    3    3    0  502 -0.14887219927E+04  0.15046294899E+03  0.33555149204E+02  0.14966897837E+04  0.46999998093E+01 0. -1.
</event>
<event>
 5   0  0.1817566E-07  0.3002187E+04  0.7818609E-02  0.8243107E-01
       -2   -1    0    0    0  501  0.00000000000E+00  0.00000000000E+00  0.14159525073E+04  0.14159525073E+04  0.25500000920E-02 0. -1.
        2   -1    0    0  501    0  0.00000000000E+00  0.00000000000E+00 -0.15913543913E+04  0.15913543913E+04  0.25500000920E-02 0.  1.
    10030    2    1    2    0    0  0.00000000000E+00  0.00000000000E+00 -0.17540188407E+03  0.30073068986E+04  0.30021873628E+04 0.  0.
        1    1    3    3  502    0 -0.10698994795E+04  0.38802530490E+03  0.89276012416E+03  0.14464678264E+04  0.50400001928E-02 0. -1.
       -1    1    3    3    0  502  0.10698994795E+04 -0.38802530490E+03 -0.10681620082E+04  0.15608390722E+04  0.50400001928E-02 0.  1.
</event>
<event>
 5   0  0.1914439E-07  0.3020421E+04  0.7818609E-02  0.8237923E-01
        2   -1    0    0  501    0  0.00000000000E+00  0.00000000000E+00  0.23272125504E+04  0.23272125504E+04  0.25500000920E-02 0.  1.
       -2   -1    0    0    0  501  0.00000000000E+00  0.00000000000E+00 -0.98002902154E+03  0.98002902155E+03  0.25500000920E-02 0. -1.
    10030    2    1    2    0    0  0.00000000000E+00  0.00000000000E+00  0.13471835289E+04  0.33072415720E+04  0.30204210559E+04 0.  0.
        5    1    3    3  502    0 -0.45255339550E+03  0.13960794750E+04  0.10636056567E+04  0.18124904301E+04  0.46999998093E+01 0. -1.
       -5    1    3    3    0  502  0.45255339550E+03 -0.13960794750E+04  0.28357787219E+03  0.14947511418E+04  0.46999998093E+01 0.  1.
</event>
<event>
 5   0  0.6525507E-08  0.2995777E+04  0.7818609E-02  0.8244938E-01
        1   -1    0    0  501    0  0.00000000000E+00  0.00000000000E+00  0.15004286431E+04  0.15004286431E+04  0.50400001928E-02 0. -1.
       -1   -1    0    0    0  501  0.00000000000E+00  0.00000000000E+00 -0.14953522178E+04  0.14953522178E+04  0.50400001928E-02 0.  1.
    10030    2    1    2    0    0  0.00000000000E+00  0.00000000000E+00  0.50764253168E+01  0.29957808609E+04  0.29957765598E+04 0.  0.
        4    1    3    3  502    0 -0.10966057242E+04  0.30125330155E+03 -0.97233241933E+03  0.14962384879E+04  0.12699999809E+01 0.  1.
       -4    1    3    3    0  502  0.10966057242E+04 -0.30125330155E+03  0.97740884465E+03  0.14995423730E+04  0.12699999809E+01 0. -1.
</event>
<event>
 5   0  0.6636007E-08  0.2999499E+04  0.7818609E-02  0.8243874E-01
        1   -1    0    0  501    0  0.00000000000E+00  0.00000000000E+00  0.21109569753E+04  0.21109569753E+04  0.50400001928E-02 0.  1.
       -1   -1    0    0    0  501  0.00000000000E+00  0.00000000000E+00 -0.10655115774E+04  0.10655115774E+04  0.50400001928E-02 0. -1.
    10030    2    1    2    0    0  0.00000000000E+00  0.00000000000E+00  0.10454453979E+04  0.31764685527E+04  0.29994993559E+04 0.  0.
        2    1    3    3  502    0  0.10156084754E+04  0.80975709696E+03  0.13166771953E+04  0.18495420968E+04  0.25500000920E-02 0.  1.
       -2    1    3    3    0  502 -0.10156084754E+04 -0.80975709696E+03 -0.27123179738E+03  0.13269264558E+04  0.25500000920E-02 0. -1.
</event>
<event>
 5   0  0.6636007E-08  0.2998088E+04  0.7818609E-02  0.8244277E-01
        1   -1    0    0  501    0  0.00000000000E+00  0.00000000000E+00  0.17249307681E+04  0.17249307681E+04  0.50400001928E-02 0.  1.
       -1   -1    0    0    0  501  0.00000000000E+00  0.00000000000E+00 -0.13027377972E+04  0.13027377972E+04  0.50400001928E-02 0. -1.
    10030    2    1    2    0    0  0.00000000000E+00  0.00000000000E+00  0.42219297096E+03  0.30276685653E+04  0.29980877300E+04 0.  0.
        2    1    3    3  502    0 -0.52562649164E+03 -0.82957912673E+03  0.13548111787E+04  0.16733194753E+04  0.25500000920E-02 0.  1.
       -2    1    3    3    0  502  0.52562649164E+03  0.82957912673E+03 -0.93261820779E+03  0.13543490901E+04  0.25500000920E-02 0. -1.
</event>
<event>
 5   0  0.6679022E-08  0.2997810E+04  0.7818609E-02  0.8244357E-01
        1   -1    0    0  501    0  0.00000000000E+00  0.00000000000E+00  0.13437392527E+04  0.13437392527E+04  0.50400001928E-02 0.  1.
       -1   -1    0    0    0  501  0.00000000000E+00  0.00000000000E+00 -0.16719878917E+04  0.16719878917E+04  0.50400001928E-02 0. -1.
    10030    2    1    2    0    0  0.00000000000E+00  0.00000000000E+00 -0.32824863903E+03  0.30157271444E+04  0.29978097071E+04 0.  0.
        3    1    3    3  502    0 -0.11447463068E+04  0.94273115554E+03  0.55191578764E+02  0.14839920010E+04  0.10100000352E+00 0.  1.
       -3    1    3    3    0  502  0.11447463068E+04 -0.94273115554E+03 -0.38344021779E+03  0.15317351433E+04  0.10100000352E+00 0. -1.
</event>
<event>
 5   0  0.6636007E-08  0.2999713E+04  0.7818609E-02  0.8243813E-01
        1   -1    0    0  501    0  0.00000000000E+00  0.00000000000E+00  0.16533690293E+04  0.16533690293E+04  0.50400001928E-02 0. -1.
       -1   -1    0    0    0  501  0.00000000000E+00  0.00000000000E+00 -0.13605972521E+04  0.13605972521E+04  0.50400001928E-02 0.  1.
    10030    2    1    2    0    0  0.00000000000E+00  0.00000000000E+00  0.29277177724E+03  0.30139662814E+04  0.29997128916E+04 0.  0.
        2    1    3    3  502    0  0.57447701478E+03 -0.88843722344E+02 -0.12428089237E+04  0.13720390185E+04  0.25500000920E-02 0.  1.
       -2    1    3    3    0  502 -0.57447701478E+03  0.88843722344E+02  0.15355807009E+04  0.16419272629E+04  0.25500000920E-02 0. -1.
</event>
<event>
 5   0  0.1821305E-07  0.2999171E+04  0.7818609E-02  0.8243968E-01
        2   -1    0    0  501    0  0.00000000000E+00  0.00000000000E+00  0.85849587349E+03  0.85849587350E+03  0.25500000920E-02 0.  1.
       -2   -1    0    0    0  501  0.00000000000E+00  0.00000000000E+00 -0.26194143808E+04  0.26194143808E+04  0.25500000920E-02 0. -1.
    10030    2    1    2    0    0  0.00000000000E+00  0.00000000000E+00 -0.17609185073E+04  0.34779102543E+04  0.29991708434E+04 0.  0.
        2    1    3    3  502    0 -0.27460337450E+03  0.55541327621E+03 -0.24640425962E+04  0.25407472989E+04  0.25500000920E-02 0. -1.
       -2    1    3    3    0  502  0.27460337450E+03 -0.55541327621E+03  0.70312408890E+03  0.93716295545E+03  0.25500000920E-02 0.  1.
</event>
<event>
 5   0  0.1821305E-07  0.2996202E+04  0.7818609E-02  0.8244816E-01
       -2   -1    0    0    0  501  0.00000000000E+00  0.00000000000E+00  0.13821479386E+04  0.13821479386E+04  0.25500000920E-02 0. -1.
        2   -1    0    0  501    0  0.00000000000E+00  0.00000000000E+00 -0.16237814992E+04  0.16237814992E+04  0.25500000920E-02 0.  1.
    10030    2    1    2    0    0  0.00000000000E+00  0.00000000000E+00 -0.24163356065E+03  0.30059294378E+04  0.29962017634E+04 0.  0.
        2    1    3    3  502    0 -0.11253413160E+04  0.74174116989E+03  0.53531974198E+03  0.14502207648E+04  0.25500000920E-02 0. -1.
       -2    1    3    3    0  502  0.11253413160E+04 -0.74174116989E+03 -0.77695330263E+03  0.15557086729E+04  0.25500000920E-02 0.  1.
</event>
<event>
 5   0  0.1813720E-07  0.3000250E+04  0.7818609E-02  0.8243659E-01
       -2   -1    0    0    0  501  0.00000000000E+00  0.00000000000E+00  0.10221126952E+04  0.10221126952E+04  0.25500000920E-02 0. -1.
        2   -1    0    0  501    0  0.00000000000E+00  0.00000000000E+00 -0.22016901686E+04  0.22016901686E+04  0.25500000920E-02 0.  1.
    10030    2    1    2    0    0  0.00000000000E+00  0.00000000000E+00 -0.11795774734E+04  0.32238028638E+04  0.30002503044E+04 0.  0.
        3    1    3    3  502    0  0.68078511248E+03 -0.12799751231E+03 -0.20195445274E+04  0.21350437562E+04  0.10100000352E+00 0.  1.
       -3    1    3    3    0  502 -0.68078511248E+03  0.12799751231E+03  0.83996705400E+03  0.10887591077E+04  0.10100000352E+00 0. -1.
</event>
<event>
 5   0  0.6374748E-08  0.3002892E+04  0.7818609E-02  0.8242906E-01
       -1   -1    0    0    0  501  0.00000000000E+00  0.00000000000E+00  0.15392415116E+04  0.15392415116E+04  0.50400001928E-02 0. -1.
        1   -1    0    0  501    0  0.00000000000E+00  0.00000000000E+00 -0.14645786588E+04  0.14645786588E+04  0.50400001928E-02 0.  1.
    10030    2    1    2    0    0  0.00000000000E+00  0.00000000000E+00  0.74662852722E+02  0.30038201704E+04  0.30028921184E+04 0.  0.
        1    1    3    3  502    0 -0.57170442394E+03 -0.48674225491E+02 -0.13505861700E+04  0.14674120523E+04  0.50400001928E-02 0.  1.
       -1    1    3    3    0  502  0.57170442394E+03  0.48674225491E+02  0.14252490227E+04  0.15364081181E+04  0.50400001928E-02 0. -1.
</event>
<event>
 5   0  0.6636007E-08  0.2999807E+04  0.7818609E-02  0.8243786E-01
        1   -1    0    0  501    0  0.00000000000E+00  0.00000000000E+00  0.18914841915E+04  0.18914841915E+04  0.50400001928E-02 0. -1.
       -1   -1    0    0    0  501  0.00000000000E+00  0.00000000000E+00 -0.11893889025E+04  0.11893889025E+04  0.50400001928E-02 0.  1.
    10030    2    1    2    0    0  0.00000000000E+00  0.00000000000E+00  0.70209528897E+03  0.30808730940E+04  0.29998068649E+04 0.  0.
        2    1    3    3  502    0 -0.12125867119E+03  0.50502809581E+03  0.17961811964E+04  0.18697657429E+04  0.25500000920E-02 0. -1.
       -2    1    3    3    0  502  0.12125867119E+03 -0.50502809581E+03 -0.10940859075E+04  0.12111073511E+04  0.25500000920E-02 0.  1.
</event>
<event>
 5   0  0.6636007E-08  0.3000228E+04  0.7818609E-02  0.8243666E-01
       -1   -1    0    0    0  501  0.00000000000E+00  0.00000000000E+00  0.17787282666E+04  0.17787282666E+04  0.50400001928E-02 0. -1.
        1   -1    0    0  501    0  0.00000000000E+00  0.00000000000E+00 -0.12651413884E+04  0.12651413884E+04  0.50400001928E-02 0.  1.
    10030    2    1    2    0    0  0.00000000000E+00  0.00000000000E+00  0.51358687821E+03  0.30438696550E+04  0.30002284905E+04 0.  0.
        2    1    3    3  502    0  0.11526116479E+04  0.95746797483E+03  0.32913430159E+03  0.15341407765E+04  0.25500000920E-02 0.  1.
       -2    1    3    3    0  502 -0.11526116479E+04 -0.95746797483E+03  0.18445257662E+03  0.15097288785E+04  0.25500000920E-02 0. -1.
</event>
<event>
 5   0  0.1813720E-07  0.2999890E+04  0.7818609E-02  0.8243762E-01
        2   -1    0    0  501    0  0.00000000000E+00  0.00000000000E+00  0.20576513494E+04  0.20576513494E+04  0.25500000920E-02 0.  1.
       -2   -1    0    0    0  501  0.00000000000E+00  0.00000000000E+00 -0.10933998433E+04  0.10933998433E+04  0.25500000920E-02 0. -1.
    10030    2    1    2    0    0  0.00000000000E+00  0.00000000000E+00  0.96425150611E+03  0.31510511926E+04  0.29998904399E+04 0.  0.
        3    1    3    3  502    0  0.77502853995E+02  0.14678632955E+04  0.79584982496E+03  0.16715281334E+04  0.10100000352E+00 0.  1.
       -3    1    3    3    0  502 -0.77502853995E+02 -0.14678632955E+04  0.16840168115E+03  0.14795230593E+04  0.10100000352E+00 0. -1.
</event>
<event>
 5   0  0.1821305E-07  0.2999802E+04  0.7818609E-02  0.8243788E-01
        2   -1    0    0  501    0  0.00000000000E+00  0.00000000000E+00  0.16390110206E+04  0.16390110206E+04  0.25500000920E-02 0.  1.
       -2   -1    0    0    0  501  0.00000000000E+00  0.00000000000E+00 -0.13725974572E+04  0.13725974572E+04  0.25500000920E-02 0. -1.
    10030    2    1    2    0    0  0.00000000000E+00  0.00000000000E+00  0.26641356332E+03  0.30116084778E+04  0.29998015663E+04 0.  0.
        2    1    3    3  502    0  0.44032205554E+03 -0.11615102780E+04 -0.71076405096E+03  0.14311447078E+04  0.25500000920E-02 0. -1.
       -2    1    3    3    0  502 -0.44032205554E+03  0.11615102780E+04  0.97717761428E+03  0.15804637700E+04  0.25500000920E-02 0.  1.
</event>
<event>
 5   0  0.1821305E-07  0.2999478E+04  0.7818609E-02  0.8243880E-01
        2   -1    0    0  501    0  0.00000000000E+00  0.00000000000E+00  0.12610565327E+04  0.12610565327E+04  0.25500000920E-02 0.  1.
       -2   -1    0    0    0  501  0.00000000000E+00  0.00000000000E+00 -0.17835969769E+04  0.17835969769E+04  0.25500000920E-02 0. -1.
    10030    2    1    2    0    0  0.00000000000E+00  0.00000000000E+00 -0.52254044425E+03  0.30446535096E+04  0.29994777008E+04 0.  0.
        2    1    3    3  502    0 -0.10246649338E+03 -0.14746671439E+04 -0.43292679631E+01  0.14782291129E+04  0.25500000920E-02 0. -1.
       -2    1    3    3    0  502  0.10246649338E+03  0.14746671439E+04 -0.51821117629E+03  0.15664243968E+04  0.25500000920E-02 0.  1.
</event>
<event>
 5   0  0.6525507E-08  0.3002907E+04  0.7818609E-02  0.8242901E-01
        1   -1    0    0  501    0  0.00000000000E+00  0.00000000000E+00  0.17248486096E+04  0.17248486096E+04  0.50400001928E-02 0.  1.
       -1   -1    0    0    0  501  0.00000000000E+00  0.00000000000E+00 -0.13069915140E+04  0.13069915140E+04  0.50400001928E-02 0. -1.
    10030    2    1    2    0    0  0.00000000000E+00  0.00000000000E+00  0.41785709554E+03  0.30318401236E+04  0.30029069221E+04 0.  0.
        4    1    3    3  502    0  0.90236957823E+03 -0.90838356609E+03  0.10006584119E+04  0.16250385931E+04  0.12699999809E+01 0.  1.
       -4    1    3    3    0  502 -0.90236957823E+03  0.90838356609E+03 -0.58280131638E+03  0.14068015305E+04  0.12699999809E+01 0. -1.
</event>
<event>
 5   0  0.6017625E-08  0.3004409E+04  0.7818609E-02  0.8242473E-01
        3   -1    0    0  501    0  0.00000000000E+00  0.00000000000E+00  0.13701106183E+04  0.13701106220E+04  0.10100000352E+00 0.  1.
       -3   -1    0    0    0  501  0.00000000000E+00  0.00000000000E+00 -0.16470337867E+04  0.16470337898E+04  0.10100000352E+00 0. -1.
    10030    2    1    2    0    0  0.00000000000E+00  0.00000000000E+00 -0.27692316836E+03  0.30171444118E+04  0.30044090867E+04 0.  0.
        4    1    3    3  502    0  0.11665530135E+04 -0.59549213514E+03  0.60029250746E+03  0.14407669915E+04  0.12699999809E+01 0.  1.
       -4    1    3    3    0  502 -0.11665530135E+04  0.59549213514E+03 -0.87721567582E+03  0.15763774203E+04  0.12699999809E+01 0. -1.
</event>
<event>
 5   0  0.1817566E-07  0.2999735E+04  0.7818609E-02  0.8243806E-01
       -2   -1    0    0    0  501  0.00000000000E+00  0.00000000000E+00  0.88086945635E+03  0.88086945635E+03  0.25500000920E-02 0.  1.
        2   -1    0    0  501    0  0.00000000000E+00  0.00000000000E+00 -0.25538437062E+04  0.25538437062E+04  0.25500000920E-02 0. -1.
    10030    2    1    2    0    0  0.00000000000E+00  0.00000000000E+00 -0.16729742498E+04  0.34347131625E+04  0.29997352664E+04 0.  0.
        1    1    3    3  502    0 -0.78019994891E+03  0.12289129376E+04 -0.42259664763E+03  0.15157595110E+04  0.50400001928E-02 0. -1.
       -1    1    3    3    0  502  0.78019994891E+03 -0.12289129376E+04 -0.12503776022E+04  0.19189536515E+04  0.50400001928E-02 0.  1.
</event>
<event>
 5   0  0.1813720E-07  0.3002488E+04  0.7818609E-02  0.8243021E-01
       -2   -1    0    0    0  501  0.00000000000E+00  0.00000000000E+00  0.14563699715E+04  0.14563699715E+04  0.25500000920E-02 0.  1.
        2   -1    0    0  501    0  0.00000000000E+00  0.00000000000E+00 -0.15475002470E+04  0.15475002470E+04  0.25500000920E-02 0. -1.
    10030    2    1    2    0    0  0.00000000000E+00  0.00000000000E+00 -0.91130275466E+02  0.30038702185E+04  0.30024875624E+04 0.  0.
        3    1    3    3  502    0  0.46332847751E+02 -0.10748194485E+04  0.10019840395E+04  0.14701549596E+04  0.10100000352E+00 0.  1.
       -3    1    3    3    0  502 -0.46332847751E+02  0.10748194485E+04 -0.10931143149E+04  0.15337152589E+04  0.10100000352E+00 0. -1.
</event>
<event>
 5   0  0.6636007E-08  0.3003260E+04  0.7818609E-02  0.8242801E-01
       -1   -1    0    0    0  501  0.00000000000E+00  0.00000000000E+00  0.29563019251E+04  0.29563019251E+04  0.50400001928E-02 0. -1.
        1   -1    0    0  501    0  0.00000000000E+00  0.00000000000E+00 -0.76274088868E+03  0.76274088870E+03  0.50400001928E-02 0.  1.
    10030    2    1    2    0    0  0.00000000000E+00  0.00000000000E+00  0.21935610364E+04  0.37190428138E+04  0.30032598007E+04 0.  0.
        2    1    3    3  502    0  0.43364985240E+03  0.58832536282E+03  0.27211789040E+04  0.28176219680E+04  0.25500000920E-02 0. -1.
       -2    1    3    3    0  502 -0.43364985240E+03 -0.58832536282E+03 -0.52761786758E+03  0.90142084579E+03  0.25500000920E-02 0.  1.
</event>
<event>
 5   0  0.1813720E-07  0.2998652E+04  0.7818609E-02  0.8244116E-01
        2   -1    0    0  501    0  0.00000000000E+00  0.00000000000E+00  0.17391043247E+04  0.17391043247E+04  0.25500000920E-02 0.  1.
       -2   -1    0    0    0  501  0.00000000000E+00  0.00000000000E+00 -0.12926067669E+04  0.12926067669E+04  0.25500000920E-02 0. -1.
    10030    2    1    2    0    0  0.00000000000E+00  0.00000000000E+00  0.44649755773E+03  0.30317110916E+04  0.29986517093E+04 0.  0.
        3    1    3    3  502    0 -0.37826879363E+03 -0.12989179491E+04 -0.43017589031E+03  0.14196219305E+04  0.10100000352E+00 0. -1.
       -3    1    3    3    0  502  0.37826879363E+03  0.12989179491E+04  0.87667344804E+03  0.16120891611E+04  0.10100000352E+00 0.  1.
</event>
<event>
 5   0  0.1821305E-07  0.2999769E+04  0.7818609E-02  0.8243797E-01
        2   -1    0    0  501    0  0.00000000000E+00  0.00000000000E+00  0.24053742086E+04  0.24053742086E+04  0.25500000920E-02 0. -1.
       -2   -1    0    0    0  501  0.00000000000E+00  0.00000000000E+00 -0.93526159530E+03  0.93526159530E+03  0.25500000920E-02 0.  1.
    10030    2    1    2    0    0  0.00000000000E+00  0.00000000000E+00  0.14701126133E+04  0.33406358039E+04  0.29997694042E+04 0.  0.
        2    1    3    3  502    0  0.29136946212E+03 -0.68067588588E+03 -0.71755480457E+03  0.10310677585E+04  0.25500000920E-02 0.  1.
       -2    1    3    3    0  502 -0.29136946212E+03  0.68067588588E+03  0.21876674179E+04  0.23095680454E+04  0.25500000920E-02 0. -1.
</event>
<event>
 5   0  0.1813720E-07  0.3000066E+04  0.7818609E-02  0.8243712E-01
       -2   -1    0    0    0  501  0.00000000000E+00  0.00000000000E+00  0.12360432895E+04  0.12360432895E+04  0.25500000920E-02 0. -1.
        2   -1    0    0  501    0  0.00000000000E+00  0.00000000000E+00 -0.18204045398E+04  0.18204045398E+04  0.25500000920E-02 0.  1.
    10030    2    1    2    0    0  0.00000000000E+00  0.00000000000E+00 -0.58436125022E+03  0.30564478293E+04  0.30000658764E+04 0.  0.
        3    1    3    3  502    0 -0.13314273507E+04 -0.46649564762E+03 -0.81144745162E+03  0.16275023676E+04  0.10100000352E+00 0.  1.
       -3    1    3    3    0  502  0.13314273507E+04  0.46649564762E+03  0.22708620140E+03  0.14289454617E+04  0.10100000352E+00 0. -1.
</event>
<event>
 5   0  0.6464436E-08  0.3000166E+04  0.7818609E-02  0.8243684E-01
       -1   -1    0    0    0  501  0.00000000000E+00  0.00000000000E+00  0.11824403443E+04  0.11824403444E+04  0.50400001928E-02 0. -1.
        1   -1    0    0  501    0  0.00000000000E+00  0.00000000000E+00 -0.19030546213E+04  0.19030546213E+04  0.50400001928E-02 0.  1.
    10030    2    1    2    0    0  0.00000000000E+00  0.00000000000E+00 -0.72061427699E+03  0.30854949657E+04  0.30001657033E+04 0.  0.
        5    1    3    3  502    0 -0.10945139962E+03  0.34121127251E+03 -0.18583838287E+04  0.18926218022E+04  0.46999998093E+01 0.  1.
       -5    1    3    3    0  502  0.10945139962E+03 -0.34121127251E+03  0.11377695517E+04  0.11928731635E+04  0.46999998093E+01 0. -1.
</event>
<event>
 5   0  0.6464436E-08  0.3000503E+04  0.7818609E-02  0.8243587E-01
       -1   -1    0    0    0  501  0.00000000000E+00  0.00000000000E+00  0.15980544449E+04  0.15980544449E+04  0.50400001928E-02 0.  1.
        1   -1    0    0  501    0  0.00000000000E+00  0.00000000000E+00 -0.14084343891E+04  0.14084343891E+04  0.50400001928E-02 0. -1.
    10030    2    1    2    0    0  0.00000000000E+00  0.00000000000E+00  0.18962005576E+03  0.30064888340E+04  0.30005031817E+04 0.  0.
        5    1    3    3  502    0  0.95121865493E+03 -0.72926963345E+03 -0.80925460075E+03  0.14462248188E+04  0.46999998093E+01 0. -1.
       -5    1    3    3    0  502 -0.95121865493E+03  0.72926963345E+03  0.99887465651E+03  0.15602640152E+04  0.46999998093E+01 0.  1.
</event>
<event>
 5   0  0.1817566E-07  0.3004551E+04  0.7818609E-02  0.8242433E-01
       -2   -1    0    0    0  501  0.00000000000E+00  0.00000000000E+00  0.14340837665E+04  0.14340837665E+04  0.25500000920E-02 0.  1.
        2   -1    0    0  501    0  0.00000000000E+00  0.00000000000E+00 -0.15737093695E+04  0.15737093695E+04  0.25500000920E-02 0. -1.
    10030    2    1    2    0    0  0.00000000000E+00  0.00000000000E+00 -0.13962560303E+03  0.30077931360E+04  0.30045505887E+04 0.  0.
        1    1    3    3  502    0 -0.10639378538E+04  0.52019933161E+03  0.85544651836E+03  0.14609448474E+04  0.50400001928E-02 0.  1.
       -1    1    3    3    0  502  0.10639378538E+04 -0.52019933161E+03 -0.99507212139E+03  0.15468482886E+04  0.50400001928E-02 0. -1.
</event>
<event>
 5   0  0.6525507E-08  0.2999726E+04  0.7818609E-02  0.8243809E-01
       -1   -1    0    0    0  501  0.00000000000E+00  0.00000000000E+00  0.10201819944E+04  0.10201819944E+04  0.50400001928E-02 0.  1.
        1   -1    0    0  501    0  0.00000000000E+00  0.00000000000E+00 -0.22050853770E+04  0.22050853770E+04  0.50400001928E-02 0. -1.
    10030    2    1    2    0    0  0.00000000000E+00  0.00000000000E+00 -0.11849033826E+04  0.32252673714E+04  0.29997255860E+04 0.  0.
        4    1    3    3  502    0 -0.94045181153E+01 -0.12983488200E+04 -0.13997654835E+04  0.19092257920E+04  0.12699999809E+01 0. -1.
       -4    1    3    3    0  502  0.94045181153E+01  0.12983488200E+04  0.21486210090E+03  0.13160415794E+04  0.12699999809E+01 0.  1.
</event>
<event>
 5   0  0.1821305E-07  0.2996833E+04  0.7818609E-02  0.8244636E-01
       -2   -1    0    0    0  501  0.00000000000E+00  0.00000000000E+00  0.24254977105E+04  0.24254977105E+04  0.25500000920E-02 0. -1.
        2   -1    0    0  501    0  0.00000000000E+00  0.00000000000E+00 -0.92568712453E+03  0.92568712453E+03  0.25500000920E-02 0.  1.
    10030    2    1    2    0    0  0.00000000000E+00  0.00000000000E+00  0.14998105860E+04  0.33511848351E+04  0.29968329958E+04 0.  0.
        2    1    3    3  502    0  0.26756906568E+02 -0.12498625316E+04 -0.17383289152E+03  0.12621767523E+04  0.25500000920E-02 0.  1.
       -2    1    3    3    0  502 -0.26756906568E+02  0.12498625316E+04  0.16736434775E+04  0.20890080828E+04  0.25500000920E-02 0. -1.
</event>
<event>
 5   0  0.6374748E-08  0.2999838E+04  0.7818609E-02  0.8243777E-01
       -1   -1    0    0    0  501  0.00000000000E+00  0.00000000000E+00  0.15789892019E+04  0.15789892019E+04  0.50400001928E-02 0.  1.
        1   -1    0    0  501    0  0.00000000000E+00  0.00000000000E+00 -0.14248079677E+04  0.14248079677E+04  0.50400001928E-02 0. -1.
    10030    2    1    2    0    0  0.00000000000E+00  0.00000000000E+00  0.15418123421E+03  0.30037971696E+04  0.29998375928E+04 0.  0.
        1    1    3    3  502    0  0.13942366626E+04 -0.99498634816E+02  0.62183124923E+03  0.15298594551E+04  0.50400001928E-02 0. -1.
       -1    1    3    3    0  502 -0.13942366626E+04  0.99498634816E+02 -0.46765001502E+03  0.14739377145E+04  0.50400001928E-02 0.  1.
</event>
<event>
 5   0  0.1810055E-07  0.2998830E+04  0.7818609E-02  0.8244065E-01
        2   -1    0    0  501    0  0.00000000000E+00  0.00000000000E+00  0.17206337630E+04  0.17206337630E+04  0.25500000920E-02 0.  1.
       -2   -1    0    0    0  501  0.00000000000E+00  0.00000000000E+00 -0.13066381179E+04  0.13066381179E+04  0.25500000920E-02 0. -1.
    10030    2    1    2    0    0  0.00000000000E+00  0.00000000000E+00  0.41399564509E+03  0.30272718809E+04  0.29988302130E+04 0.  0.
        4    1    3    3  502    0 -0.55200681177E+03  0.12232892541E+04  0.88199181435E+03  0.16059449844E+04  0.12699999809E+01 0.  1.
       -4    1    3    3    0  502  0.55200681177E+03 -0.12232892541E+04 -0.46799616926E+03  0.14213268965E+04  0.12699999809E+01 0. -1.
</event>
<event>
 5   0  0.6525507E-08  0.3001140E+04  0.7818609E-02  0.8243405E-01
       -1   -1    0    0    0  501  0.00000000000E+00  0.00000000000E+00  0.13597678489E+04  0.13597678490E+04  0.50400001928E-02 0.  1.
        1   -1    0    0  501    0  0.00000000000E+00  0.00000000000E+00 -0.16559517928E+04  0.16559517929E+04  0.50400001928E-02 0. -1.
    10030    2    1    2    0    0  0.00000000000E+00  0.00000000000E+00 -0.29618394391E+03  0.30157196418E+04  0.30011397884E+04 0.  0.
        4    1    3    3  502    0 -0.84161319885E+03 -0.20210397029E+03 -0.13798322667E+04  0.16288331678E+04  0.12699999809E+01 0. -1.
       -4    1    3    3    0  502  0.84161319885E+03  0.20210397029E+03  0.10836483228E+04  0.13868864740E+04  0.12699999809E+01 0.  1.
</event>
<event>
 5   0  0.1914439E-07  0.2999306E+04  0.7818609E-02  0.8243929E-01
       -2   -1    0    0    0  501  0.00000000000E+00  0.00000000000E+00  0.21567878522E+04  0.21567878522E+04  0.25500000920E-02 0.  1.
        2   -1    0    0  501    0  0.00000000000E+00  0.00000000000E+00 -0.10427351376E+04  0.10427351377E+04  0.25500000920E-02 0. -1.
    10030    2    1    2    0    0  0.00000000000E+00  0.00000000000E+00  0.11140527146E+04  0.31995229899E+04  0.29993055716E+04 0.  0.
        5    1    3    3  502    0 -0.11421514675E+04 -0.29244091845E+03  0.15456637127E+04  0.19439984743E+04  0.46999998093E+01 0.  1.
       -5    1    3    3    0  502  0.11421514675E+04  0.29244091845E+03 -0.43161099810E+03  0.12555245156E+04  0.46999998093E+01 0. -1.
</event>
<event>
 5   0  0.6525507E-08  0.2999385E+04  0.7818609E-02  0.8243906E-01
       -1   -1    0    0    0  501  0.00000000000E+00  0.00000000000E+00  0.10169782605E+04  0.10169782605E+04  0.50400001928E-02 0. -1.
        1   -1    0    0  501    0  0.00000000000E+00  0.00000000000E+00 -0.22115303513E+04  0.22115303513E+04  0.50400001928E-02 0.  1.
    10030    2    1    2    0    0  0.00000000000E+00  0.00000000000E+00 -0.11945520908E+04  0.32285086118E+04  0.29993854636E+04 0.  0.
        4    1    3    3  502    0  0.13319726489E+04  0.63511014789E+03 -0.88521920982E+03  0.17207936250E+04  0.12699999809E+01 0.  1.
       -4    1    3    3    0  502 -0.13319726489E+04 -0.63511014789E+03 -0.30933288096E+03  0.15077149869E+04  0.12699999809E+01 0. -1.
</event>
<event>
 5   0  0.6464436E-08  0.2999990E+04  0.7818609E-02  0.8243734E-01
       -1   -1    0    0    0  501  0.00000000000E+00  0.00000000000E+00  0.15264896654E+04  0.15264896654E+04  0.50400001928E-02 0. -1.
        1   -1    0    0  501    0  0.00000000000E+00  0.00000000000E+00 -0.14739600333E+04  0.14739600333E+04  0.50400001928E-02 0.  1.
    10030    2    1    2    0    0  0.00000000000E+00  0.00000000000E+00  0.52529632045E+02  0.30004496987E+04  0.29999898387E+04 0.  0.
        5    1    3    3  502    0 -0.45288045371E+03  0.13872540272E+04  0.37328806807E+03  0.15063002732E+04  0.46999998093E+01 0. -1.
       -5    1    3    3    0  502  0.45288045371E+03 -0.13872540272E+04 -0.32075843603E+03  0.14941494255E+04  0.46999998093E+01 0.  1.
</event>
<event>
 5   0  0.1817566E-07  0.3007406E+04  0.7818609E-02  0.8241619E-01
       -2   -1    0    0    0  501  0.00000000000E+00  0.00000000000E+00  0.14057048853E+04  0.14057048853E+04  0.25500000920E-02 0. -1.
        2   -1    0    0  501    0  0.00000000000E+00  0.00000000000E+00 -0.16085335277E+04  0.16085335277E+04  0.25500000920E-02 0.  1.
    10030    2    1    2    0    0  0.00000000000E+00  0.00000000000E+00 -0.20282864240E+03  0.30142384129E+04  0.30074064826E+04 0.  0.
        1    1    3    3  502    0 -0.88440549676E+03 -0.95147469355E+03  0.65770064339E+03  0.14560382246E+04  0.50400001928E-02 0. -1.
       -1    1    3    3    0  502  0.88440549676E+03  0.95147469355E+03 -0.86052928579E+03  0.15582001883E+04  0.50400001928E-02 0.  1.
</event>
<event>
 5   0  0.6679022E-08  0.3003073E+04  0.7818609E-02  0.8242854E-01
       -1   -1    0    0    0  501  0.00000000000E+00  0.00000000000E+00  0.10729096899E+04  0.10729096899E+04  0.50400001928E-02 0.  1.
        1   -1    0    0  501    0  0.00000000000E+00  0.00000000000E+00 -0.21013998863E+04  0.21013998863E+04  0.50400001928E-02 0. -1.
    10030    2    1    2    0    0  0.00000000000E+00  0.00000000000E+00 -0.10284901964E+04  0.31743095761E+04  0.30030732927E+04 0.  0.
        3    1    3    3  502    0 -0.11235059525E+04  0.81906229704E+03 -0.11135706189E+04  0.17813388800E+04  0.10100000352E+00 0.  1.
       -3    1    3    3    0  502  0.11235059525E+04 -0.81906229704E+03  0.85080422505E+02  0.13929706962E+04  0.10100000352E+00 0. -1.
</event>
<event>
 5   0  0.1817566E-07  0.2999250E+04  0.7818609E-02  0.8243945E-01
       -2   -1    0    0    0  501  0.00000000000E+00  0.00000000000E+00  0.11443760640E+04  0.11443760640E+04  0.25500000920E-02 0.  1.
        2   -1    0    0  501    0  0.00000000000E+00  0.00000000000E+00 -0.19651544762E+04  0.19651544762E+04  0.25500000920E-02 0. -1.
    10030    2    1    2    0    0  0.00000000000E+00  0.00000000000E+00 -0.82077841218E+03  0.31095305402E+04  0.29992504028E+04 0.  0.
        1    1    3    3  502    0  0.10528218099E+04  0.10835733432E+03  0.69107779860E+03  0.12640267398E+04  0.50400001928E-02 0.  1.
       -1    1    3    3    0  502 -0.10528218099E+04 -0.10835733432E+03 -0.15118562108E+04  0.18455038004E+04  0.50400001928E-02 0. -1.
</event>
<event>
 5   0  0.6679022E-08  0.3000531E+04  0.7818609E-02  0.8243579E-01
        1   -1    0    0  501    0  0.00000000000E+00  0.00000000000E+00  0.16208884201E+04  0.16208884201E+04  0.50400001928E-02 0.  1.
       -1   -1    0    0    0  501  0.00000000000E+00  0.00000000000E+00 -0.13886186486E+04  0.13886186486E+04  0.50400001928E-02 0. -1.
    10030    2    1    2    0    0  0.00000000000E+00  0.00000000000E+00  0.23226977156E+03  0.30095070687E+04  0.30005305447E+04 0.  0.
        3    1    3    3  502    0  0.12719186446E+04  0.10790569421E+03 -0.67449690595E+03  0.14437336193E+04  0.10100000352E+00 0. -1.
       -3    1    3    3    0  502 -0.12719186446E+04 -0.10790569421E+03  0.90676667752E+03  0.15657734494E+04  0.10100000352E+00 0.  1.
</event>
<event>
 5   0  0.6464436E-08  0.3000910E+04  0.7818609E-02  0.8243471E-01
       -1   -1    0    0    0  501  0.00000000000E+00  0.00000000000E+00  0.23180645643E+04  0.23180645643E+04  0.50400001928E-02 0. -1.
        1   -1    0    0  501    0  0.00000000000E+00  0.00000000000E+00 -0.97122657835E+03  0.97122657837E+03  0.50400001928E-02 0.  1.
    10030    2    1    2    0    0  0.00000000000E+00  0.00000000000E+00  0.13468379860E+04  0.32892911427E+04  0.30009104720E+04 0.  0.
        5    1    3    3  502    0  0.13517912183E+04  0.17615163029E+03 -0.13699598412E+02  0.13632969830E+04  0.46999998093E+01 0.  1.
       -5    1    3    3    0  502 -0.13517912183E+04 -0.17615163029E+03  0.13605375844E+04  0.19259941597E+04  0.46999998093E+01 0. -1.
</event>
<event>
 5   0  0.1810055E-07  0.2998588E+04  0.7818609E-02  0.8244134E-01
        2   -1    0    0  501    0  0.00000000000E+00  0.00000000000E+00  0.25938716274E+04  0.25938716274E+04  0.25500000920E-02 0.  1.
       -2   -1    0    0    0  501  0.00000000000E+00  0.00000000000E+00 -0.86661268199E+03  0.86661268199E+03  0.25500000920E-02 0. -1.
    10030    2    1    2    0    0  0.00000000000E+00  0.00000000000E+00  0.17272589454E+04  0.34604843094E+04  0.29985876994E+04 0.  0.
        4    1    3    3  502    0 -0.76173681921E+03 -0.10847197406E+04  0.54962031192E+02  0.13266055688E+04  0.12699999809E+01 0. -1.
       -4    1    3    3    0  502  0.76173681921E+03  0.10847197406E+04  0.16722969142E+04  0.21338787406E+04  0.12699999809E+01 0.  1.
</event>
<event>
 5   0  0.1821305E-07  0.2994409E+04  0.7818609E-02  0.8245329E-01
        2   -1    0    0  501    0  0.00000000000E+00  0.00000000000E+00  0.25423548620E+04  0.25423548620E+04  0.25500000920E-02 0. -1.
       -2   -1    0    0    0  501  0.00000000000E+00  0.00000000000E+00 -0.88171036155E+03  0.88171036156E+03  0.25500000920E-02 0.  1.
    10030    2    1    2    0    0  0.00000000000E+00  0.00000000000E+00  0.16606445004E+04  0.34240652236E+04  0.29944085390E+04 0.  0.
        2    1    3    3  502    0 -0.10443949216E+04  0.37198370379E+03 -0.32028185118E+03  0.11539987402E+04  0.25500000920E-02 0.  1.
       -2    1    3    3    0  502  0.10443949216E+04 -0.37198370379E+03  0.19809263516E+04  0.22700664833E+04  0.25500000920E-02 0. -1.
</event>
<event>
 5   0  0.6525507E-08  0.2999545E+04  0.7818609E-02  0.8243861E-01
       -1   -1    0    0    0  501  0.00000000000E+00  0.00000000000E+00  0.20973518192E+04  0.20973518192E+04  0.50400001928E-02 0. -1.
        1   -1    0    0  501    0  0.00000000000E+00  0.00000000000E+00 -0.10724559306E+04  0.10724559306E+04  0.50400001928E-02 0.  1.
    10030    2    1    2    0    0  0.00000000000E+00  0.00000000000E+00  0.10248958886E+04  0.31698077498E+04  0.29995448968E+04 0.  0.
        4    1    3    3  502    0  0.85822346182E+03  0.18021299603E+03 -0.77328622595E+03  0.11691866551E+04  0.12699999809E+01 0.  1.
       -4    1    3    3    0  502 -0.85822346182E+03 -0.18021299603E+03  0.17981821146E+04  0.20006210947E+04  0.12699999809E+01 0. -1.
</event>
<event>
 5   0  0.1914439E-07  0.3001351E+04  0.7818609E-02  0.8243345E-01
        2   -1    0    0  501    0  0.00000000000E+00  0.00000000000E+00  0.13974158033E+04  0.13974158033E+04  0.25500000920E-02 0.  1.
       -2   -1    0    0    0  501  0.00000000000E+00  0.00000000000E+00 -0.16115652480E+04  0.16115652480E+04  0.25500000920E-02 0. -1.
    10030    2    1    2    0    0  0.00000000000E+00  0.00000000000E+00 -0.21414944463E+03  0.30089810513E+04  0.30013508596E+04 0.  0.
        5    1    3    3  502    0 -0.83925246766E+03 -0.74307960789E+03 -0.11073550174E+04  0.15756805618E+04  0.46999998093E+01 0. -1.
       -5    1    3    3    0  502  0.83925246766E+03  0.74307960789E+03  0.89320557278E+03  0.14333004896E+04  0.46999998093E+01 0.  1.
</event>
<event>
 5   0  0.6374748E-08  0.2999600E+04  0.7818609E-02  0.8243845E-01
        1   -1    0    0  501    0  0.00000000000E+00  0.00000000000E+00  0.16344813404E+04  0.16344813404E+04  0.50400001928E-02 0.  1.
       -1   -1    0    0    0  501  0.00000000000E+00  0.00000000000E+00 -0.13762160185E+04  0.13762160185E+04  0.50400001928E-02 0. -1.
    10030    2    1    2    0    0  0.00000000000E+00  0.00000000000E+00  0.25826532185E+03  0.30106973589E+04  0.29995995750E+04 0.  0.
        1    1    3    3  502    0 -0.11997413585E+04  0.76047906950E+03 -0.35399179133E+03  0.14639050279E+04  0.50400001928E-02 0. -1.
       -1    1    3    3    0  502  0.11997413585E+04 -0.76047906950E+03  0.61225711318E+03  0.15467923310E+04  0.50400001928E-02 0.  1.
</event>
<event>
 5   0  0.1810055E-07  0.3002269E+04  0.7818609E-02  0.8243083E-01
       -2   -1    0    0    0  501  0.00000000000E+00  0.00000000000E+00  0.14459007588E+04  0.14459007588E+04  0.25500000920E-02 0.  1.
        2   -1    0    0  501    0  0.00000000000E+00  0.00000000000E+00 -0.15584783648E+04  0.15584783648E+04  0.25500000920E-02 0. -1.
    10030    2    1    2    0    0  0.00000000000E+00  0.00000000000E+00 -0.11257760597E+03  0.30043791236E+04  0.30022691753E+04 0.  0.
        4    1    3    3  502    0 -0.91887416792E+03  0.10499202355E+03 -0.12395115726E+04  0.15465263053E+04  0.12699999809E+01 0. -1.
       -4    1    3    3    0  502  0.91887416792E+03 -0.10499202355E+03  0.11269339667E+04  0.14578528182E+04  0.12699999809E+01 0.  1.
</event>
<event>
 5   0  0.6636007E-08  0.3001799E+04  0.7818609E-02  0.8243217E-01
       -1   -1    0    0    0  501  0.00000000000E+00  0.00000000000E+00  0.12609436416E+04  0.12609436416E+04  0.50400001928E-02 0. -1.
        1   -1    0    0  501    0  0.00000000000E+00  0.00000000000E+00 -0.17865187368E+04  0.17865187368E+04  0.50400001928E-02 0.  1.
    10030    2    1    2    0    0  0.00000000000E+00  0.00000000000E+00 -0.52557509523E+03  0.30474623783E+04  0.30017990883E+04 0.  0.
        2    1    3    3  502    0  0.34011419354E+03 -0.12764365627E+04  0.46060457697E+03  0.13989726729E+04  0.25500000920E-02 0.  1.
       -2    1    3    3    0  502 -0.34011419354E+03  0.12764365627E+04 -0.98617967220E+03  0.16484897055E+04  0.25500000920E-02 0. -1.
</event>
<event>
 5   0  0.6636007E-08  0.2998318E+04  0.7818609E-02  0.8244211E-01
        1   -1    0    0  501    0  0.00000000000E+00  0.00000000000E+00  0.15008818585E+04  0.15008818585E+04  0.50400001928E-02 0. -1.
       -1   -1    0    0    0  501  0.00000000000E+00  0.00000000000E+00 -0.14974385153E+04  0.14974385153E+04  0.50400001928E-02 0.  1.
    10030    2    1    2    0    0  0.00000000000E+00  0.00000000000E+00  0.34433431852E+01  0.29983203738E+04  0.29983183966E+04 0.  0.
        2    1    3    3  502    0  0.12730902518E+04  0.17816642681E+03  0.77306920777E+03  0.15000460209E+04  0.25500000920E-02 0. -1.
       -2    1    3    3    0  502 -0.12730902518E+04 -0.17816642681E+03 -0.76962586458E+03  0.14982743528E+04  0.25500000920E-02 0.  1.
</event>
<event>
 5   0  0.1821305E-07  0.3000067E+04  0.7818609E-02  0.8243712E-01
       -2   -1    0    0    0  501  0.00000000000E+00  0.00000000000E+00  0.87248365244E+03  0.87248365244E+03  0.25500000920E-02 0.  1.
        2   -1    0    0  501    0  0.00000000000E+00  0.00000000000E+00 -0.25789592477E+04  0.25789592477E+04  0.25500000920E-02 0. -1.
    10030    2    1    2    0    0  0.00000000000E+00  0.00000000000E+00 -0.17064755952E+04  0.34514429001E+04  0.30000665219E+04 0.  0.
        2    1    3    3  502    0 -0.39227463763E+03 -0.11138846335E+03  0.80749277263E+03  0.90461669173E+03  0.25500000920E-02 0.  1.
       -2    1    3    3    0  502  0.39227463763E+03  0.11138846335E+03 -0.25139683679E+04  0.25468262084E+04  0.25500000920E-02 0. -1.
</event>
<event>
 5   0  0.6464436E-08  0.2999173E+04  0.7818609E-02  0.8243967E-01
        1   -1    0    0  501    0  0.00000000000E+00  0.00000000000E+00  0.14438651481E+04  0.14438651481E+04  0.50400001928E-02 0.  1.
       -1   -1    0    0    0  501  0.00000000000E+00  0.00000000000E+00 -0.15574581729E+04  0.15574581729E+04  0.50400001928E-02 0. -1.
    10030    2    1    2    0    0  0.00000000000E+00  0.00000000000E+00 -0.11359302487E+03  0.30013233210E+04  0.29991729363E+04 0.  0.
        5    1    3    3  502    0 -0.81799802447E+03 -0.19173782107E+03  0.11862105460E+04  0.14536167684E+04  0.46999998093E+01 0.  1.
       -5    1    3    3    0  502  0.81799802447E+03  0.19173782107E+03 -0.12998035708E+04  0.15477065526E+04  0.46999998093E+01 0. -1.
</event>
<event>
 5   0  0.6374748E-08  0.2999354E+04  0.7818609E-02  0.8243915E-01
        1   -1    0    0  501    0  0.00000000000E+00  0.00000000000E+00  0.11043775962E+04  0.11043775962E+04  0.50400001928E-02 0.  1.
       -1   -1    0    0    0  501  0.00000000000E+00  0.00000000000E+00 -0.20364690079E+04  0.20364690079E+04  0.50400001928E-02 0. -1.
    10030    2    1    2    0    0  0.00000000000E+00  0.00000000000E+00 -0.93209141176E+03  0.31408466041E+04  0.29993537622E+04 0.  0.
        1    1    3    3  502    0 -0.13414822114E+04  0.66962513608E+03 -0.43197789674E+03  0.15603131896E+04  0.50400001928E-02 0.  1.
       -1    1    3    3    0  502  0.13414822114E+04 -0.66962513608E+03 -0.50011351502E+03  0.15805334145E+04  0.50400001928E-02 0. -1.
</event>
<event>
 5   0  0.6464436E-08  0.2999150E+04  0.7818609E-02  0.8243974E-01
       -1   -1    0    0    0  501  0.00000000000E+00  0.00000000000E+00  0.15057425619E+04  0.15057425620E+04  0.50400001928E-02 0.  1.
        1   -1    0    0  501    0  0.00000000000E+00  0.00000000000E+00 -0.14934329927E+04  0.14934329928E+04  0.50400001928E-02 0. -1.
    10030    2    1    2    0    0  0.00000000000E+00  0.00000000000E+00  0.12309569197E+02  0.29991755547E+04  0.29991502934E+04 0.  0.
        5    1    3    3  502    0 -0.34799164155E+03  0.18747436305E+03  0.14527003111E+04  0.15055248597E+04  0.46999998093E+01 0.  1.
       -5    1    3    3    0  502  0.34799164155E+03 -0.18747436305E+03 -0.14403907419E+04  0.14936506950E+04  0.46999998093E+01 0. -1.
</event>
<event>
 5   0  0.1821305E-07  0.3000641E+04  0.7818609E-02  0.8243548E-01
        2   -1    0    0  501    0  0.00000000000E+00  0.00000000000E+00  0.27127339149E+04  0.27127339149E+04  0.25500000920E-02 0. -1.
       -2   -1    0    0    0  501  0.00000000000E+00  0.00000000000E+00 -0.82977592493E+03  0.82977592494E+03  0.25500000920E-02 0.  1.
    10030    2    1    2    0    0  0.00000000000E+00  0.00000000000E+00  0.18829579900E+04  0.35425098399E+04  0.30006407938E+04 0.  0.
        2    1    3    3  502    0  0.26800862024E+03 -0.14685455750E+04  0.76436548699E+03  0.16771133903E+04  0.25500000920E-02 0.  1.
       -2    1    3    3    0  502 -0.26800862024E+03  0.14685455750E+04  0.11185925030E+04  0.18653964496E+04  0.25500000920E-02 0. -1.
</event>
<event>
 5   0  0.1821305E-07  0.2999500E+04  0.7818609E-02  0.8243874E-01
        2   -1    0    0  501    0  0.00000000000E+00  0.00000000000E+00  0.21691192798E+04  0.21691192798E+04  0.25500000920E-02 0.  1.
       -2   -1    0    0    0  501  0.00000000000E+00  0.00000000000E+00 -0.10369418488E+04  0.10369418488E+04  0.25500000920E-02 0. -1.
    10030    2    1    2    0    0  0.00000000000E+00  0.00000000000E+00  0.11321774311E+04  0.32060611286E+04  0.29995003292E+04 0.  0.
        2    1    3    3  502    0  0.31052572515E+03  0.10500412886E+04  0.16614734157E+04  0.19898509604E+04  0.25500000920E-02 0. -1.
       -2    1    3    3    0  502 -0.31052572515E+03 -0.10500412886E+04 -0.52929598458E+03  0.12162101682E+04  0.25500000920E-02 0.  1.
</event>
<event>
 5   0  0.6374748E-08  0.2999780E+04  0.7818609E-02  0.8243794E-01
       -1   -1    0    0    0  501  0.00000000000E+00  0.00000000000E+00  0.15326441722E+04  0.15326441722E+04  0.50400001928E-02 0.  1.
        1   -1    0    0  501    0  0.00000000000E+00  0.00000000000E+00 -0.14678357454E+04  0.14678357454E+04  0.50400001928E-02 0. -1.
    10030    2    1    2    0    0  0.00000000000E+00  0.00000000000E+00  0.64808426830E+02  0.30004799177E+04  0.29997799259E+04 0.  0.
        1    1    3    3  502    0 -0.37457685006E+03  0.10056429506E+04 -0.10157164153E+04  0.14776012307E+04  0.50400001928E-02 0. -1.
       -1    1    3    3    0  502  0.37457685006E+03 -0.10056429506E+04  0.10805248421E+04  0.15228786869E+04  0.50400001928E-02 0.  1.
</event>
<event>
 5   0  0.1813720E-07  0.3001264E+04  0.7818609E-02  0.8243370E-01
        2   -1    0    0  501    0  0.00000000000E+00  0.00000000000E+00  0.11582202721E+04  0.11582202721E+04  0.25500000920E-02 0.  1.
       -2   -1    0    0    0  501  0.00000000000E+00  0.00000000000E+00 -0.19442735548E+04  0.19442735548E+04  0.25500000920E-02 0. -1.
    10030    2    1    2    0    0  0.00000000000E+00  0.00000000000E+00 -0.78605328267E+03  0.31024938268E+04  0.30012644306E+04 0.  0.
        3    1    3    3  502    0  0.46422112303E+03 -0.11278729503E+03 -0.18635672696E+04  0.19238256686E+04  0.10100000352E+00 0. -1.
       -3    1    3    3    0  502 -0.46422112303E+03  0.11278729503E+03  0.10775139869E+04  0.11786681582E+04  0.10100000352E+00 0.  1.
</event>
<event>
 5   0  0.1813720E-07  0.2999850E+04  0.7818609E-02  0.8243774E-01
        2   -1    0    0  501    0  0.00000000000E+00  0.00000000000E+00  0.23059356816E+04  0.23059356816E+04  0.25500000920E-02 0.  1.
       -2   -1    0    0    0  501  0.00000000000E+00  0.00000000000E+00 -0.97564517158E+03  0.97564517158E+03  0.25500000920E-02 0. -1.
    10030    2    1    2    0    0  0.00000000000E+00  0.00000000000E+00  0.13302905101E+04  0.32815808532E+04  0.29998500054E+04 0.  0.
        3    1    3    3  502    0  0.96313247076E+03 -0.16329765498E+03 -0.57994179713E+03  0.11360557991E+04  0.10100000352E+00 0. -1.
       -3    1    3    3    0  502 -0.96313247076E+03  0.16329765498E+03  0.19102323072E+04  0.21455250541E+04  0.10100000352E+00 0.  1.
</event>
<event>
 5   0  0.1810055E-07  0.2977900E+04  0.7818609E-02  0.8250070E-01
        2   -1    0    0  501    0  0.00000000000E+00  0.00000000000E+00  0.20039294182E+04  0.20039294182E+04  0.25500000920E-02 0.  1.
       -2   -1    0    0    0  501  0.00000000000E+00  0.00000000000E+00 -0.11063126314E+04  0.11063126314E+04  0.25500000920E-02 0. -1.
    10030    2    1    2    0    0  0.00000000000E+00  0.00000000000E+00  0.89761678681E+03  0.31102420496E+04  0.29779002185E+04 0.  0.
        4    1    3    3  502    0 -0.13138494211E+04  0.50598752252E+03  0.95484764242E+03  0.17011641036E+04  0.12699999809E+01 0.  1.
       -4    1    3    3    0  502  0.13138494211E+04 -0.50598752252E+03 -0.57230855618E+02  0.14090779460E+04  0.12699999809E+01 0. -1.
</event>
<event>
 5   0  0.6525507E-08  0.3000482E+04  0.7818609E-02  0.8243593E-01
       -1   -1    0    0    0  501  0.00000000000E+00  0.00000000000E+00  0.10368121453E+04  0.10368121453E+04  0.50400001928E-02 0. -1.
        1   -1    0    0  501    0  0.00000000000E+00  0.00000000000E+00 -0.21708102940E+04  0.21708102940E+04  0.50400001928E-02 0.  1.
    10030    2    1    2    0    0  0.00000000000E+00  0.00000000000E+00 -0.11339981487E+04  0.32076224393E+04  0.30004816133E+04 0.  0.
        4    1    3    3  502    0 -0.13615707078E+04  0.35189496260E+03 -0.11255802932E+04  0.18012877244E+04  0.12699999809E+01 0.  1.
       -4    1    3    3    0  502  0.13615707078E+04 -0.35189496260E+03 -0.84178555848E+01  0.14063347148E+04  0.12699999809E+01 0. -1.
</event>
<event>
 5   0  0.6525507E-08  0.2988942E+04  0.7818609E-02  0.8246896E-01
        1   -1    0    0  501    0  0.00000000000E+00  0.00000000000E+00  0.17865495286E+04  0.17865495287E+04  0.50400001928E-02 0. -1.
       -1   -1    0    0    0  501  0.00000000000E+00  0.00000000000E+00 -0.12501435874E+04  0.12501435875E+04  0.50400001928E-02 0.  1.
    10030    2    1    2    0    0  0.00000000000E+00  0.00000000000E+00  0.53640594120E+03  0.30366931161E+04  0.29889419111E+04 0.  0.
        4    1    3    3  502    0 -0.11504876952E+04 -0.91294095360E+03 -0.12542462374E+02  0.14687552716E+04  0.12699999809E+01 0. -1.
       -4    1    3    3    0  502  0.11504876952E+04  0.91294095360E+03  0.54894840358E+03  0.15679378445E+04  0.12699999809E+01 0.  1.
</event>
<event>
 5   0  0.1914439E-07  0.3001099E+04  0.7818609E-02  0.8243417E-01
        2   -1    0    0  501    0  0.00000000000E+00  0.00000000000E+00  0.11705165318E+04  0.11705165318E+04  0.25500000920E-02 0.  1.
       -2   -1    0    0    0  501  0.00000000000E+00  0.00000000000E+00 -0.19236362941E+04  0.19236362941E+04  0.25500000920E-02 0. -1.
    10030    2    1    2    0    0  0.00000000000E+00  0.00000000000E+00 -0.75311976224E+03  0.30941528259E+04  0.30010985212E+04 0.  0.
        5    1    3    3  502    0 -0.81584793602E+03  0.21761105479E+03 -0.16554503272E+04  0.18583595728E+04  0.46999998093E+01 0. -1.
       -5    1    3    3    0  502  0.81584793602E+03 -0.21761105479E+03  0.90233056501E+03  0.12357932531E+04  0.46999998093E+01 0.  1.
</event>
<event>
 5   0  0.6525507E-08  0.3004599E+04  0.7818609E-02  0.8242419E-01
       -1   -1    0    0    0  501  0.00000000000E+00  0.00000000000E+00  0.11585336201E+04  0.11585336202E+04  0.50400001928E-02 0. -1.
        1   -1    0    0  501    0  0.00000000000E+00  0.00000000000E+00 -0.19480694168E+04  0.19480694168E+04  0.50400001928E-02 0.  1.
    10030    2    1    2    0    0  0.00000000000E+00  0.00000000000E+00 -0.78953579664E+03  0.31066030369E+04  0.30045990839E+04 0.  0.
        4    1    3    3  502    0  0.12067641776E+04 -0.89324833328E+03 -0.44879049268E+03  0.15670312328E+04  0.12699999809E+01 0.  1.
       -4    1    3    3    0  502 -0.12067641776E+04  0.89324833328E+03 -0.34074530395E+03  0.15395718042E+04  0.12699999809E+01 0. -1.
</event>
<event>
 5   0  0.1813720E-07  0.2998261E+04  0.7818609E-02  0.8244228E-01
       -2   -1    0    0    0  501  0.00000000000E+00  0.00000000000E+00  0.10256376010E+04  0.10256376010E+04  0.25500000920E-02 0. -1.
        2   -1    0    0  501    0  0.00000000000E+00  0.00000000000E+00 -0.21912151335E+04  0.21912151335E+04  0.25500000920E-02 0.  1.
    10030    2    1    2    0    0  0.00000000000E+00  0.00000000000E+00 -0.11655775325E+04  0.32168527346E+04  0.29982612514E+04 0.  0.
        3    1    3    3  502    0  0.10818672747E+02  0.59063098971E+03  0.89549930257E+03  0.10727912289E+04  0.10100000352E+00 0. -1.
       -3    1    3    3    0  502 -0.10818672747E+02 -0.59063098971E+03 -0.20610768351E+04  0.21440615057E+04  0.10100000352E+00 0.  1.
</event>
<event>
 5   0  0.1813720E-07  0.2998760E+04  0.7818609E-02  0.8244085E-01
       -2   -1    0    0    0  501  0.00000000000E+00  0.00000000000E+00  0.11890438552E+04  0.11890438552E+04  0.25500000920E-02 0. -1.
        2   -1    0    0  501    0  0.00000000000E+00  0.00000000000E+00 -0.18907127437E+04  0.18907127437E+04  0.25500000920E-02 0.  1.
    10030    2    1    2    0    0  0.00000000000E+00  0.00000000000E+00 -0.70166888848E+03  0.30797565989E+04  0.29987599903E+04 0.  0.
        3    1    3    3  502    0 -0.31604163724E+03 -0.12532031838E+04 -0.11314565378E+04  0.17177294442E+04  0.10100000352E+00 0.  1.
       -3    1    3    3    0  502  0.31604163724E+03  0.12532031838E+04  0.42978764931E+03  0.13620271547E+04  0.10100000352E+00 0. -1.
</event>
<event>
 5   0  0.6525507E-08  0.3000431E+04  0.7818609E-02  0.8243608E-01
        1   -1    0    0  501    0  0.00000000000E+00  0.00000000000E+00  0.12391486990E+04  0.12391486990E+04  0.50400001928E-02 0.  1.
       -1   -1    0    0    0  501  0.00000000000E+00  0.00000000000E+00 -0.18162845644E+04  0.18162845644E+04  0.50400001928E-02 0. -1.
    10030    2    1    2    0    0  0.00000000000E+00  0.00000000000E+00 -0.57713586539E+03  0.30554332633E+04  0.30004310723E+04 0.  0.
        4    1    3    3  502    0  0.40230494410E+03  0.14034326796E+04  0.62974011890E+02  0.14613144402E+04  0.12699999809E+01 0.  1.
       -4    1    3    3    0  502 -0.40230494410E+03 -0.14034326796E+04 -0.64010987728E+03  0.15941188231E+04  0.12699999809E+01 0. -1.
</event>
<event>
 5   0  0.6679022E-08  0.3003641E+04  0.7818609E-02  0.8242692E-01
        1   -1    0    0  501    0  0.00000000000E+00  0.00000000000E+00  0.23195004573E+04  0.23195004573E+04  0.50400001928E-02 0. -1.
       -1   -1    0    0    0  501  0.00000000000E+00  0.00000000000E+00 -0.97239234884E+03  0.97239234885E+03  0.50400001928E-02 0.  1.
    10030    2    1    2    0    0  0.00000000000E+00  0.00000000000E+00  0.13471081085E+04  0.32918928062E+04  0.30036407893E+04 0.  0.
        3    1    3    3  502    0  0.12372839979E+04 -0.32564792992E+03  0.15355074218E+04  0.19986748906E+04  0.10100000352E+00 0. -1.
       -3    1    3    3    0  502 -0.12372839979E+04  0.32564792992E+03 -0.18839931332E+03  0.12932179156E+04  0.10100000352E+00 0.  1.
</event>
<event>
 5   0  0.6525507E-08  0.3000095E+04  0.7818609E-02  0.8243704E-01
       -1   -1    0    0    0  501  0.00000000000E+00  0.00000000000E+00  0.18453924522E+04  0.18453924522E+04  0.50400001928E-02 0.  1.
        1   -1    0    0  501    0  0.00000000000E+00  0.00000000000E+00 -0.12193303436E+04  0.12193303436E+04  0.50400001928E-02 0. -1.
    10030    2    1    2    0    0  0.00000000000E+00  0.00000000000E+00  0.62606210859E+03  0.30647227959E+04  0.30000953404E+04 0.  0.
        4    1    3    3  502    0  0.53501471782E+03  0.12804764540E+04 -0.26869256146E+03  0.14135267960E+04  0.12699999809E+01 0. -1.
       -4    1    3    3    0  502 -0.53501471782E+03 -0.12804764540E+04  0.89475467004E+03  0.16511959999E+04  0.12699999809E+01 0.  1.
</event>
<event>
 5   0  0.1914439E-07  0.2999691E+04  0.7818609E-02  0.8243819E-01
        2   -1    0    0  501    0  0.00000000000E+00  0.00000000000E+00  0.15696266931E+04  0.15696266931E+04  0.25500000920E-02 0.  1.
       -2   -1    0    0    0  501  0.00000000000E+00  0.00000000000E+00 -0.14331668268E+04  0.14331668268E+04  0.25500000920E-02 0. -1.
    10030    2    1    2    0    0  0.00000000000E+00  0.00000000000E+00  0.13645986631E+03  0.30027935199E+04  0.29996912555E+04 0.  0.
        5    1    3    3  502    0 -0.63207149738E+03  0.96188387244E+03 -0.89441935341E+03  0.14576498316E+04  0.46999998093E+01 0.  1.
       -5    1    3    3    0  502  0.63207149738E+03 -0.96188387244E+03  0.10308792197E+04  0.15451436883E+04  0.46999998093E+01 0. -1.
</event>
<event>
 5   0  0.6525507E-08  0.3000989E+04  0.7818609E-02  0.8243449E-01
        1   -1    0    0  501    0  0.00000000000E+00  0.00000000000E+00  0.15312668075E+04  0.15312668075E+04  0.50400001928E-02 0. -1.
       -1   -1    0    0    0  501  0.00000000000E+00  0.00000000000E+00 -0.14703401237E+04  0.14703401237E+04  0.50400001928E-02 0.  1.
    10030    2    1    2    0    0  0.00000000000E+00  0.00000000000E+00  0.60926683804E+02  0.30016069313E+04  0.30009885220E+04 0.  0.
        4    1    3    3  502    0  0.12927728482E+04 -0.61543687228E+03  0.47939570899E+03  0.15099159047E+04  0.12699999809E+01 0. -1.
       -4    1    3    3    0  502 -0.12927728482E+04  0.61543687228E+03 -0.41846902518E+03  0.14916910265E+04  0.12699999809E+01 0.  1.
</event>
<event>
 5   0  0.6636007E-08  0.3001381E+04  0.7818609E-02  0.8243337E-01
        1   -1    0    0  501    0  0.00000000000E+00  0.00000000000E+00  0.21578058504E+04  0.21578058504E+04  0.50400001928E-02 0. -1.
       -1   -1    0    0    0  501  0.00000000000E+00  0.00000000000E+00 -0.10436863979E+04  0.10436863979E+04  0.50400001928E-02 0.  1.
    10030    2    1    2    0    0  0.00000000000E+00  0.00000000000E+00  0.11141194525E+04  0.32014922483E+04  0.30013814255E+04 0.  0.
        2    1    3    3  502    0  0.10661540101E+03 -0.43648704567E+02 -0.10389626202E+04  0.10453302728E+04  0.25500000920E-02 0.  1.
       -2    1    3    3    0  502 -0.10661540101E+03  0.43648704567E+02  0.21530820726E+04  0.21561619755E+04  0.25500000920E-02 0. -1.
</event>
<event>
 5   0  0.6464436E-08  0.3014551E+04  0.7818609E-02  0.8239588E-01
       -1   -1    0    0    0  501  0.00000000000E+00  0.00000000000E+00  0.14043544942E+04  0.14043544942E+04  0.50400001928E-02 0.  1.
        1   -1    0    0  501    0  0.00000000000E+00  0.00000000000E+00 -0.16177387923E+04  0.16177387923E+04  0.50400001928E-02 0. -1.
    10030    2    1    2    0    0  0.00000000000E+00  0.00000000000E+00 -0.21338429816E+03  0.30220932865E+04  0.30145505426E+04 0.  0.
        5    1    3    3  502    0  0.79517129159E+03  0.10943675172E+04  0.55974107065E+03  0.14639910525E+04  0.46999998093E+01 0.  1.
       -5    1    3    3    0  502 -0.79517129159E+03 -0.10943675172E+04 -0.77312536881E+03  0.15581022340E+04  0.46999998093E+01 0. -1.
</event>
<event>
 5   0  0.1821305E-07  0.3012950E+04  0.7818609E-02  0.8240043E-01
       -2   -1    0    0    0  501  0.00000000000E+00  0.00000000000E+00  0.11339107090E+04  0.11339107090E+04  0.25500000920E-02 0.  1.
        2   -1    0    0  501    0  0.00000000000E+00  0.00000000000E+00 -0.20014508437E+04  0.20014508437E+04  0.25500000920E-02 0. -1.
    10030    2    1    2    0    0  0.00000000000E+00  0.00000000000E+00 -0.86754013465E+03  0.31353615527E+04  0.30129497475E+04 0.  0.
        2    1    3    3  502    0  0.19361485412E+03 -0.13667223202E+04  0.19410930873E+03  0.13939494381E+04  0.25500000920E-02 0.  1.
       -2    1    3    3    0  502 -0.19361485412E+03  0.13667223202E+04 -0.10616494434E+04  0.17414121146E+04  0.25500000920E-02 0. -1.
</event>
<event>
 5   0  0.1810055E-07  0.2999304E+04  0.7818609E-02  0.8243930E-01
       -2   -1    0    0    0  501  0.00000000000E+00  0.00000000000E+00  0.14455883440E+04  0.14455883440E+04  0.25500000920E-02 0.  1.
        2   -1    0    0  501    0  0.00000000000E+00  0.00000000000E+00 -0.15557372919E+04  0.15557372919E+04  0.25500000920E-02 0. -1.
    10030    2    1    2    0    0  0.00000000000E+00  0.00000000000E+00 -0.11014894791E+03  0.30013256358E+04  0.29993037161E+04 0.  0.
        4    1    3    3  502    0  0.29341671647E+02  0.84043851944E+02 -0.15530905912E+04  0.15556401577E+04  0.12699999809E+01 0. -1.
       -4    1    3    3    0  502 -0.29341671647E+02 -0.84043851944E+02  0.14429416433E+04  0.14456854781E+04  0.12699999809E+01 0.  1.
</event>
<event>
 5   0  0.1813720E-07  0.2987330E+04  0.7818609E-02  0.8247358E-01
        2   -1    0    0  501    0  0.00000000000E+00  0.00000000000E+00  0.26773655438E+04  0.26773655438E+04  0.25500000920E-02 0.  1.
       -2   -1    0    0    0  501  0.00000000000E+00  0.00000000000E+00 -0.83329470434E+03  0.83329470434E+03  0.25500000920E-02 0. -1.
    10030    2    1    2    0    0  0.00000000000E+00  0.00000000000E+00  0.18440708395E+04  0.35106602481E+04  0.29873295963E+04 0.  0.
        3    1    3    3  502    0  0.11298522691E+04 -0.18970935011E+03 -0.20422860542E+03  0.11637289723E+04  0.10100000352E+00 0. -1.
       -3    1    3    3    0  502 -0.11298522691E+04  0.18970935011E+03  0.20482994449E+04  0.23469312758E+04  0.10100000352E+00 0.  1.
</event>
<event>
 5   0  0.6374748E-08  0.3000200E+04  0.7818609E-02  0.8243674E-01
        1   -1    0    0  501    0  0.00000000000E+00  0.00000000000E+00  0.16909230931E+04  0.16909230931E+04  0.50400001928E-02 0.  1.
       -1   -1    0    0    0  501  0.00000000000E+00  0.00000000000E+00 -0.13308112778E+04  0.13308112778E+04  0.50400001928E-02 0. -1.
    10030    2    1    2    0    0  0.00000000000E+00  0.00000000000E+00  0.36011181528E+03  0.30217343709E+04  0.30001996748E+04 0.  0.
        1    1    3    3  502    0  0.12779765782E+04 -0.62769800960E+03  0.65574948664E+03  0.15675574359E+04  0.50400001928E-02 0.  1.
       -1    1    3    3    0  502 -0.12779765782E+04  0.62769800960E+03 -0.29563767136E+03  0.14541769350E+04  0.50400001928E-02 0. -1.
</event>
<event>
 5   0  0.6679022E-08  0.2999750E+04  0.7818609E-02  0.8243802E-01
       -1   -1    0    0    0  501  0.00000000000E+00  0.00000000000E+00  0.14761803543E+04  0.14761803543E+04  0.50400001928E-02 0. -1.
        1   -1    0    0  501    0  0.00000000000E+00  0.00000000000E+00 -0.15239495160E+04  0.15239495160E+04  0.50400001928E-02 0.  1.
    10030    2    1    2    0    0  0.00000000000E+00  0.00000000000E+00 -0.47769161732E+02  0.30001298703E+04  0.29997495472E+04 0.  0.
        3    1    3    3  502    0  0.28586155527E+03 -0.97729270840E+01 -0.14964203917E+04  0.15235111872E+04  0.10100000352E+00 0.  1.
       -3    1    3    3    0  502 -0.28586155527E+03  0.97729270840E+01  0.14486512299E+04  0.14766186830E+04  0.10100000352E+00 0. -1.
</event>
<event>
 5   0  0.6464436E-08  0.3000331E+04  0.7818609E-02  0.8243636E-01
        1   -1    0    0  501    0  0.00000000000E+00  0.00000000000E+00  0.19247104152E+04  0.19247104152E+04  0.50400001928E-02 0.  1.
       -1   -1    0    0    0  501  0.00000000000E+00  0.00000000000E+00 -0.11692647389E+04  0.11692647389E+04  0.50400001928E-02 0. -1.
    10030    2    1    2    0    0  0.00000000000E+00  0.00000000000E+00  0.75544567625E+03  0.30939751541E+04  0.30003306625E+04 0.  0.
        5    1    3    3  502    0 -0.11752210548E+04 -0.41887564972E+03  0.12367117710E+04  0.17567240626E+04  0.46999998093E+01 0.  1.
       -5    1    3    3    0  502  0.11752210548E+04  0.41887564972E+03 -0.48126609479E+03  0.13372510915E+04  0.46999998093E+01 0. -1.
</event>
<event>
 5   0  0.6464436E-08  0.2999656E+04  0.7818609E-02  0.8243829E-01
        1   -1    0    0  501    0  0.00000000000E+00  0.00000000000E+00  0.25998506749E+04  0.25998506749E+04  0.50400001928E-02 0. -1.
       -1   -1    0    0    0  501  0.00000000000E+00  0.00000000000E+00 -0.86523562525E+03  0.86523562527E+03  0.50400001928E-02 0.  1.
    10030    2    1    2    0    0  0.00000000000E+00  0.00000000000E+00  0.17346150497E+04  0.34650863002E+04  0.29996555965E+04 0.  0.
        5    1    3    3  502    0 -0.12150065704E+03  0.35549367820E+03  0.25446094748E+04  0.25721970442E+04  0.46999998093E+01 0. -1.
       -5    1    3    3    0  502  0.12150065704E+03 -0.35549367820E+03 -0.80999442508E+03  0.89288925605E+03  0.46999998093E+01 0.  1.
</event>
<event>
 5   0  0.1821305E-07  0.3000883E+04  0.7818609E-02  0.8243479E-01
        2   -1    0    0  501    0  0.00000000000E+00  0.00000000000E+00  0.19973544325E+04  0.19973544325E+04  0.25500000920E-02 0.  1.
       -2   -1    0    0    0  501  0.00000000000E+00  0.00000000000E+00 -0.11271534257E+04  0.11271534257E+04  0.25500000920E-02 0. -1.
    10030    2    1    2    0    0  0.00000000000E+00  0.00000000000E+00  0.87020100681E+03  0.31245078582E+04  0.30008831307E+04 0.  0.
        2    1    3    3  502    0  0.19829334791E+03 -0.12976386555E+04  0.11917704363E+04  0.17729926974E+04  0.25500000920E-02 0.  1.
       -2    1    3    3    0  502 -0.19829334791E+03  0.12976386555E+04 -0.32156942947E+03  0.13515151609E+04  0.25500000920E-02 0. -1.
</event>
<event>
 5   0  0.1821305E-07  0.2984602E+04  0.7818609E-02  0.8248142E-01
       -2   -1    0    0    0  501  0.00000000000E+00  0.00000000000E+00  0.11225471327E+04  0.11225471327E+04  0.25500000920E-02 0.  1.
        2   -1    0    0  501    0  0.00000000000E+00  0.00000000000E+00 -0.19838468294E+04  0.19838468294E+04  0.25500000920E-02 0. -1.
    10030    2    1    2    0    0  0.00000000000E+00  0.00000000000E+00 -0.86129969670E+03  0.31063939620E+04  0.29846015278E+04 0.  0.
        2    1    3    3  502    0 -0.12024084462E+04 -0.18215125283E+03  0.46951061889E+03  0.13036124316E+04  0.25500000920E-02 0.  1.
       -2    1    3    3    0  502  0.12024084462E+04  0.18215125283E+03 -0.13308103156E+04  0.18027815305E+04  0.25500000920E-02 0. -1.
</event>
<event>
 5   0  0.6679022E-08  0.3002988E+04  0.7818609E-02  0.8242878E-01
       -1   -1    0    0    0  501  0.00000000000E+00  0.00000000000E+00  0.11655961461E+04  0.11655961461E+04  0.50400001928E-02 0.  1.
        1   -1    0    0  501    0  0.00000000000E+00  0.00000000000E+00 -0.19341896889E+04  0.19341896889E+04  0.50400001928E-02 0. -1.
    10030    2    1    2    0    0  0.00000000000E+00  0.00000000000E+00 -0.76859354285E+03  0.30997858351E+04  0.30029878769E+04 0.  0.
        3    1    3    3  502    0  0.31626572668E+03 -0.83570216452E+03 -0.16298664639E+04  0.18587325838E+04  0.10100000352E+00 0. -1.
       -3    1    3    3    0  502 -0.31626572668E+03  0.83570216452E+03  0.86127292108E+03  0.12410532512E+04  0.10100000352E+00 0.  1.
</event>
<event>
 5   0  0.6374748E-08  0.3001201E+04  0.7818609E-02  0.8243388E-01
        1   -1    0    0  501    0  0.00000000000E+00  0.00000000000E+00  0.14070056311E+04  0.14070056311E+04  0.50400001928E-02 0. -1.
       -1   -1    0    0    0  501  0.00000000000E+00  0.00000000000E+00 -0.16004209086E+04  0.16004209086E+04  0.50400001928E-02 0.  1.
    10030    2    1    2    0    0  0.00000000000E+00  0.00000000000E+00 -0.19341527756E+03  0.30074265397E+04  0.30012005801E+04 0.  0.
        1    1    3    3  502    0  0.61108667412E+03 -0.12134092523E+04  0.54180514697E+03  0.14626488827E+04  0.50400001928E-02 0.  1.
       -1    1    3    3    0  502 -0.61108667412E+03  0.12134092523E+04 -0.73522042453E+03  0.15447776570E+04  0.50400001928E-02 0. -1.
</event>
<event>
 5   0  0.1817566E-07  0.2998047E+04  0.7818609E-02  0.8244289E-01
        2   -1    0    0  501    0  0.00000000000E+00  0.00000000000E+00  0.18505997569E+04  0.18505997569E+04  0.25500000920E-02 0. -1.
       -2   -1    0    0    0  501  0.00000000000E+00  0.00000000000E+00 -0.12142397556E+04  0.12142397556E+04  0.25500000920E-02 0.  1.
    10030    2    1    2    0    0  0.00000000000E+00  0.00000000000E+00  0.63636000134E+03  0.30648395125E+04  0.29980472288E+04 0.  0.
        1    1    3    3  502    0  0.52304964529E+03 -0.51335161714E+03  0.16549674774E+04  0.18099801561E+04  0.50400001928E-02 0. -1.
       -1    1    3    3    0  502 -0.52304964529E+03  0.51335161714E+03 -0.10186074760E+04  0.12548593565E+04  0.50400001928E-02 0.  1.
</event>
<event>
 5   0  0.1914439E-07  0.3005850E+04  0.7818609E-02  0.8242062E-01
       -2   -1    0    0    0  501  0.00000000000E+00  0.00000000000E+00  0.16659930686E+04  0.16659930686E+04  0.25500000920E-02 0. -1.
        2   -1    0    0  501    0  0.00000000000E+00  0.00000000000E+00 -0.13558179519E+04  0.13558179519E+04  0.25500000920E-02 0.  1.
    10030    2    1    2    0    0  0.00000000000E+00  0.00000000000E+00  0.31017511672E+03  0.30218110205E+04  0.30058498367E+04 0.  0.
        5    1    3    3  502    0  0.72920329550E+03  0.12563489525E+04  0.54263566589E+03  0.15506855556E+04  0.46999998093E+01 0. -1.
       -5    1    3    3    0  502 -0.72920329550E+03 -0.12563489525E+04 -0.23246054917E+03  0.14711254649E+04  0.46999998093E+01 0.  1.
</event>
<event>
 5   0  0.6636007E-08  0.3000564E+04  0.7818609E-02  0.8243570E-01
       -1   -1    0    0    0  501  0.00000000000E+00  0.00000000000E+00  0.11349576975E+04  0.11349576975E+04  0.50400001928E-02 0.  1.
        1   -1    0    0  501    0  0.00000000000E+00  0.00000000000E+00 -0.19831978093E+04  0.19831978093E+04  0.50400001928E-02 0. -1.
    10030    2    1    2    0    0  0.00000000000E+00  0.00000000000E+00 -0.84824011185E+03  0.31181555068E+04  0.30005636933E+04 0.  0.
        2    1    3    3  502    0 -0.13963113784E+04 -0.38656259156E+01 -0.99439317491E+03  0.17142106623E+04  0.25500000920E-02 0. -1.
       -2    1    3    3    0  502  0.13963113784E+04  0.38656259156E+01  0.14615306307E+03  0.14039448445E+04  0.25500000920E-02 0.  1.
</event>
<event>
 5   0  0.6636007E-08  0.2999163E+04  0.7818609E-02  0.8243970E-01
        1   -1    0    0  501    0  0.00000000000E+00  0.00000000000E+00  0.18235249644E+04  0.18235249644E+04  0.50400001928E-02 0. -1.
       -1   -1    0    0    0  501  0.00000000000E+00  0.00000000000E+00 -0.12331854973E+04  0.12331854973E+04  0.50400001928E-02 0.  1.
    10030    2    1    2    0    0  0.00000000000E+00  0.00000000000E+00  0.59033946712E+03  0.30567104617E+04  0.29991629099E+04 0.  0.
        2    1    3    3  502    0  0.27355665810E+03  0.12294530229E+04 -0.53429928136E+03  0.13681607007E+04  0.25500000920E-02 0.  1.
       -2    1    3    3    0  502 -0.27355665810E+03 -0.12294530229E+04  0.11246387485E+04  0.16885497610E+04  0.25500000920E-02 0. -1.
</event>
<event>
 5   0  0.6679022E-08  0.2998353E+04  0.7818609E-02  0.8244201E-01
       -1   -1    0    0    0  501  0.00000000000E+00  0.00000000000E+00  0.10869030719E+04  0.10869030719E+04  0.50400001928E-02 0.  1.
        1   -1    0    0  501    0  0.00000000000E+00  0.00000000000E+00 -0.20678290841E+04  0.20678290841E+04  0.50400001928E-02 0. -1.
    10030    2    1    2    0    0  0.00000000000E+00  0.00000000000E+00 -0.98092601214E+03  0.31547321560E+04  0.29983527369E+04 0.  0.
        3    1    3    3  502    0 -0.88569565024E+03  0.65693491189E+03 -0.15590660016E+04  0.19096353241E+04  0.10100000352E+00 0. -1.
       -3    1    3    3    0  502  0.88569565024E+03 -0.65693491189E+03  0.57813998946E+03  0.12450968320E+04  0.10100000352E+00 0.  1.
</event>
<event>
 5   0  0.1813720E-07  0.3000325E+04  0.7818609E-02  0.8243638E-01
       -2   -1    0    0    0  501  0.00000000000E+00  0.00000000000E+00  0.18393657011E+04  0.18393657011E+04  0.25500000920E-02 0. -1.
        2   -1    0    0  501    0  0.00000000000E+00  0.00000000000E+00 -0.12235128285E+04  0.12235128285E+04  0.25500000920E-02 0.  1.
    10030    2    1    2    0    0  0.00000000000E+00  0.00000000000E+00  0.61585287263E+03  0.30628785296E+04  0.30003250034E+04 0.  0.
        3    1    3    3  502    0  0.20311965390E+03  0.14531192546E+04  0.62697130053E+03  0.15955896038E+04  0.10100000352E+00 0. -1.
       -3    1    3    3    0  502 -0.20311965390E+03 -0.14531192546E+04 -0.11118427905E+02  0.14672889257E+04  0.10100000352E+00 0.  1.
</event>
<event>
 5   0  0.6464436E-08  0.3001174E+04  0.7818609E-02  0.8243396E-01
        1   -1    0    0  501    0  0.00000000000E+00  0.00000000000E+00  0.17463595492E+04  0.17463595492E+04  0.50400001928E-02 0. -1.
       -1   -1    0    0    0  501  0.00000000000E+00  0.00000000000E+00 -0.12894027729E+04  0.12894027729E+04  0.50400001928E-02 0.  1.
    10030    2    1    2    0    0  0.00000000000E+00  0.00000000000E+00  0.45695677630E+03  0.30357623220E+04  0.30011736672E+04 0.  0.
        5    1    3    3  502    0 -0.14767386297E+04 -0.26383164533E+03  0.19097498077E+03  0.15122359773E+04  0.46999998093E+01 0. -1.
       -5    1    3    3    0  502  0.14767386297E+04  0.26383164533E+03  0.26598179553E+03  0.15235263448E+04  0.46999998093E+01 0.  1.
</event>
<event>
 5   0  0.6525507E-08  0.3002901E+04  0.7818609E-02  0.8242903E-01
       -1   -1    0    0    0  501  0.00000000000E+00  0.00000000000E+00  0.12957482812E+04  0.12957482812E+04  0.50400001928E-02 0. -1.
        1   -1    0    0  501    0  0.00000000000E+00  0.00000000000E+00 -0.17398088290E+04  0.17398088290E+04  0.50400001928E-02 0.  1.
    10030    2    1    2    0    0  0.00000000000E+00  0.00000000000E+00 -0.44406054781E+03  0.30355571102E+04  0.30029014634E+04 0.  0.
        4    1    3    3  502    0 -0.31519494462E+03  0.96751091167E+03 -0.13380869728E+04  0.16810424079E+04  0.12699999809E+01 0.  1.
       -4    1    3    3    0  502  0.31519494462E+03 -0.96751091167E+03  0.89402642500E+03  0.13545147023E+04  0.12699999809E+01 0. -1.
</event>
<event>
 5   0  0.1813720E-07  0.3000657E+04  0.7818609E-02  0.8243543E-01
       -2   -1    0    0    0  501  0.00000000000E+00  0.00000000000E+00  0.81000722355E+03  0.81000722355E+03  0.25500000920E-02 0. -1.
        2   -1    0    0  501    0  0.00000000000E+00  0.00000000000E+00 -0.27789696190E+04  0.27789696190E+04  0.25500000920E-02 0.  1.
    10030    2    1    2    0    0  0.00000000000E+00  0.00000000000E+00 -0.19689623955E+04  0.35889768426E+04  0.30006569050E+04 0.  0.
        3    1    3    3  502    0  0.14469062741E+04 -0.24900628630E+03 -0.61496998077E+03  0.15917694507E+04  0.10100000352E+00 0. -1.
       -3    1    3    3    0  502 -0.14469062741E+04  0.24900628630E+03 -0.13539924147E+04  0.19972073918E+04  0.10100000352E+00 0.  1.
</event>
<event>
 5   0  0.1914439E-07  0.3000095E+04  0.7818609E-02  0.8243704E-01
        2   -1    0    0  501    0  0.00000000000E+00  0.00000000000E+00  0.25758993048E+04  0.25758993048E+04  0.25500000920E-02 0.  1.
       -2   -1    0    0    0  501  0.00000000000E+00  0.00000000000E+00 -0.87353685492E+03  0.87353685493E+03  0.25500000920E-02 0. -1.
    10030    2    1    2    0    0  0.00000000000E+00  0.00000000000E+00  0.17023624498E+04  0.34494361597E+04  0.30000953167E+04 0.  0.
        5    1    3    3  502    0  0.34470047746E+03 -0.14421851004E+04  0.11118650405E+04  0.18533705084E+04  0.46999998093E+01 0. -1.
       -5    1    3    3    0  502 -0.34470047746E+03  0.14421851004E+04  0.59049740930E+03  0.15960656513E+04  0.46999998093E+01 0.  1.
</event>
<event>
 5   0  0.1914439E-07  0.3000680E+04  0.7818609E-02  0.8243537E-01
       -2   -1    0    0    0  501  0.00000000000E+00  0.00000000000E+00  0.14110208947E+04  0.14110208947E+04  0.25500000920E-02 0. -1.
        2   -1    0    0  501    0  0.00000000000E+00  0.00000000000E+00 -0.15953135973E+04  0.15953135973E+04  0.25500000920E-02 0.  1.
    10030    2    1    2    0    0  0.00000000000E+00  0.00000000000E+00 -0.18429270259E+03  0.30063344919E+04  0.30006804690E+04 0.  0.
        5    1    3    3  502    0 -0.12087237868E+04 -0.26905415644E+03 -0.94085254246E+03  0.15551941771E+04  0.46999998093E+01 0.  1.
       -5    1    3    3    0  502  0.12087237868E+04  0.26905415644E+03  0.75655983986E+03  0.14511403148E+04  0.46999998093E+01 0. -1.
</event>
<event>
 5   0  0.1914439E-07  0.3003914E+04  0.7818609E-02  0.8242614E-01
        2   -1    0    0  501    0  0.00000000000E+00  0.00000000000E+00  0.13766796483E+04  0.13766796483E+04  0.25500000920E-02 0.  1.
       -2   -1    0    0    0  501  0.00000000000E+00  0.00000000000E+00 -0.16386343301E+04  0.16386343301E+04  0.25500000920E-02 0. -1.
    10030    2    1    2    0    0  0.00000000000E+00  0.00000000000E+00 -0.26195468176E+03  0.30153139784E+04  0.30039138025E+04 0.  0.
        5    1    3    3  502    0 -0.58085653318E+03  0.63792859899E+03 -0.13650760620E+04  0.16148690209E+04  0.46999998093E+01 0. -1.
       -5    1    3    3    0  502  0.58085653318E+03 -0.63792859899E+03  0.11031213802E+04  0.14004449575E+04  0.46999998093E+01 0.  1.
</event>
<event>
 5   0  0.1821305E-07  0.3000096E+04  0.7818609E-02  0.8243704E-01
       -2   -1    0    0    0  501  0.00000000000E+00  0.00000000000E+00  0.14631211533E+04  0.14631211533E+04  0.25500000920E-02 0. -1.
        2   -1    0    0  501    0  0.00000000000E+00  0.00000000000E+00 -0.15379063294E+04  0.15379063294E+04  0.25500000920E-02 0.  1.
    10030    2    1    2    0    0  0.00000000000E+00  0.00000000000E+00 -0.74785176147E+02  0.30010274827E+04  0.30000955200E+04 0.  0.
        2    1    3    3  502    0  0.60314028187E+03  0.13717663890E+04  0.30614240355E+02  0.14988190209E+04  0.25500000920E-02 0.  1.
       -2    1    3    3    0  502 -0.60314028187E+03 -0.13717663890E+04 -0.10539941650E+03  0.15022084618E+04  0.25500000920E-02 0. -1.
</event>
<event>
 5   0  0.1810055E-07  0.2998545E+04  0.7818609E-02  0.8244147E-01
       -2   -1    0    0    0  501  0.00000000000E+00  0.00000000000E+00  0.17320644232E+04  0.17320644232E+04  0.25500000920E-02 0.  1.
        2   -1    0    0  501    0  0.00000000000E+00  0.00000000000E+00 -0.12977679624E+04  0.12977679624E+04  0.25500000920E-02 0. -1.
    10030    2    1    2    0    0  0.00000000000E+00  0.00000000000E+00  0.43429646079E+03  0.30298323856E+04  0.29985447919E+04 0.  0.
        4    1    3    3  502    0 -0.84457553048E+03 -0.71737723646E+03 -0.80327940685E+03  0.13686479987E+04  0.12699999809E+01 0. -1.
       -4    1    3    3    0  502  0.84457553048E+03  0.71737723646E+03  0.12375758676E+04  0.16611843869E+04  0.12699999809E+01 0.  1.
</event>
<event>
 5   0  0.1813720E-07  0.3000753E+04  0.7818609E-02  0.8243516E-01
       -2   -1    0    0    0  501  0.00000000000E+00  0.00000000000E+00  0.77437511897E+03  0.77437511897E+03  0.25500000920E-02 0. -1.
        2   -1    0    0  501    0  0.00000000000E+00  0.00000000000E+00 -0.29070276197E+04  0.29070276197E+04  0.25500000920E-02 0.  1.
    10030    2    1    2    0    0  0.00000000000E+00  0.00000000000E+00 -0.21326525007E+04  0.36814027386E+04  0.30007531447E+04 0.  0.
        3    1    3    3  502    0  0.72042669243E+02  0.13596722346E+04 -0.18395491222E+04  0.22886327173E+04  0.10100000352E+00 0. -1.
       -3    1    3    3    0  502 -0.72042669243E+02 -0.13596722346E+04 -0.29310337853E+03  0.13927700213E+04  0.10100000352E+00 0.  1.
</event>
<event>
 5   0  0.1914439E-07  0.3000246E+04  0.7818609E-02  0.8243661E-01
        2   -1    0    0  501    0  0.00000000000E+00  0.00000000000E+00  0.11749900953E+04  0.11749900953E+04  0.25500000920E-02 0. -1.
       -2   -1    0    0    0  501  0.00000000000E+00  0.00000000000E+00 -0.19152240211E+04  0.19152240211E+04  0.25500000920E-02 0.  1.
    10030    2    1    2    0    0  0.00000000000E+00  0.00000000000E+00 -0.74023392579E+03  0.30902141163E+04  0.30002461599E+04 0.  0.
        5    1    3    3  502    0 -0.99848763502E+03  0.10488812311E+04  0.33051221847E+02  0.14485316246E+04  0.46999998093E+01 0. -1.
       -5    1    3    3    0  502  0.99848763502E+03 -0.10488812311E+04 -0.77328514763E+03  0.16416824918E+04  0.46999998093E+01 0.  1.
</event>
<event>
 5   0  0.1817566E-07  0.2999594E+04  0.7818609E-02  0.8243847E-01
       -2   -1    0    0    0  501  0.00000000000E+00  0.00000000000E+00  0.17184449708E+04  0.17184449708E+04  0.25500000920E-02 0.  1.
        2   -1    0    0  501    0  0.00000000000E+00  0.00000000000E+00 -0.13089692902E+04  0.13089692902E+04  0.25500000920E-02 0. -1.
    10030    2    1    2    0    0  0.00000000000E+00  0.00000000000E+00  0.40947568062E+03  0.30274142610E+04  0.29995944351E+04 0.  0.
        1    1    3    3  502    0  0.50797650548E+03 -0.10359643234E+04  0.11718153430E+04  0.16445100813E+04  0.50400001928E-02 0.  1.
       -1    1    3    3    0  502 -0.50797650548E+03  0.10359643234E+04 -0.76233966241E+03  0.13829041797E+04  0.50400001928E-02 0. -1.
</event>
<event>
 5   0  0.6017625E-08  0.3000522E+04  0.7818609E-02  0.8243582E-01
        3   -1    0    0  501    0  0.00000000000E+00  0.00000000000E+00  0.12864795129E+04  0.12864795168E+04  0.10100000352E+00 0.  1.
       -3   -1    0    0    0  501  0.00000000000E+00  0.00000000000E+00 -0.17495671846E+04  0.17495671875E+04  0.10100000352E+00 0. -1.
    10030    2    1    2    0    0  0.00000000000E+00  0.00000000000E+00 -0.46308767178E+03  0.30360467044E+04  0.30005215212E+04 0.  0.
        3    1    3    3  502    0 -0.52079137425E+03 -0.17941880965E+03  0.11804593261E+04  0.13026507573E+04  0.10100000352E+00 0.  1.
       -3    1    3    3    0  502  0.52079137425E+03  0.17941880965E+03 -0.16435469979E+04  0.17333959470E+04  0.10100000352E+00 0. -1.
</event>
<event>
 5   0  0.1817566E-07  0.3001261E+04  0.7818609E-02  0.8243371E-01
        2   -1    0    0  501    0  0.00000000000E+00  0.00000000000E+00  0.20666042392E+04  0.20666042392E+04  0.25500000920E-02 0. -1.
       -2   -1    0    0    0  501  0.00000000000E+00  0.00000000000E+00 -0.10896576916E+04  0.10896576916E+04  0.25500000920E-02 0.  1.
    10030    2    1    2    0    0  0.00000000000E+00  0.00000000000E+00  0.97694654756E+03  0.31562619308E+04  0.30012605383E+04 0.  0.
        1    1    3    3  502    0 -0.82439984894E+03  0.95254765165E+03  0.13460055320E+04  0.18435598802E+04  0.50400001928E-02 0. -1.
       -1    1    3    3    0  502  0.82439984894E+03 -0.95254765165E+03 -0.36905898445E+03  0.13127020506E+04  0.50400001928E-02 0.  1.
</event>
<event>
 5   0  0.6636007E-08  0.3000736E+04  0.7818609E-02  0.8243521E-01
       -1   -1    0    0    0  501  0.00000000000E+00  0.00000000000E+00  0.11167673066E+04  0.11167673066E+04  0.50400001928E-02 0.  1.
        1   -1    0    0  501    0  0.00000000000E+00  0.00000000000E+00 -0.20157328297E+04  0.20157328297E+04  0.50400001928E-02 0. -1.
    10030    2    1    2    0    0  0.00000000000E+00  0.00000000000E+00 -0.89896552305E+03  0.31325001363E+04  0.30007362584E+04 0.  0.
        2    1    3    3  502    0 -0.69405638003E+03  0.14993501257E+02  0.93902239990E+03  0.11677765759E+04  0.25500000920E-02 0.  1.
       -2    1    3    3    0  502  0.69405638003E+03 -0.14993501257E+02 -0.18379879230E+04  0.19647235604E+04  0.25500000920E-02 0. -1.
</event>
<event>
 5   0  0.1813720E-07  0.3001418E+04  0.7818609E-02  0.8243326E-01
        2   -1    0    0  501    0  0.00000000000E+00  0.00000000000E+00  0.23927849574E+04  0.23927849574E+04  0.25500000920E-02 0. -1.
       -2   -1    0    0    0  501  0.00000000000E+00  0.00000000000E+00 -0.94121619998E+03  0.94121619999E+03  0.25500000920E-02 0.  1.
    10030    2    1    2    0    0  0.00000000000E+00  0.00000000000E+00  0.14515687575E+04  0.33340011574E+04  0.30014183081E+04 0.  0.
        3    1    3    3  502    0 -0.12951987721E+04  0.55156964751E+03  0.13033610592E+04  0.19184678773E+04  0.10100000352E+00 0. -1.
       -3    1    3    3    0  502  0.12951987721E+04 -0.55156964751E+03  0.14820769822E+03  0.14155332801E+04  0.10100000352E+00 0.  1.
</event>
<event>
 5   0  0.6525507E-08  0.2997464E+04  0.7818609E-02  0.8244455E-01
        1   -1    0    0  501    0  0.00000000000E+00  0.00000000000E+00  0.30501436970E+04  0.30501436970E+04  0.50400001928E-02 0. -1.
       -1   -1    0    0    0  501  0.00000000000E+00  0.00000000000E+00 -0.73642371726E+03  0.73642371727E+03  0.50400001928E-02 0.  1.
    10030    2    1    2    0    0  0.00000000000E+00  0.00000000000E+00  0.23137199798E+04  0.37865674143E+04  0.29974643681E+04 0.  0.
        4    1    3    3  502    0  0.35376323701E+03 -0.42260003694E+03 -0.60376721193E+03  0.81748130142E+03  0.12699999809E+01 0.  1.
       -4    1    3    3    0  502 -0.35376323701E+03  0.42260003694E+03  0.29174871917E+04  0.29690861129E+04  0.12699999809E+01 0. -1.
</event>
<event>
 5   0  0.6374748E-08  0.2998509E+04  0.7818609E-02  0.8244157E-01
        1   -1    0    0  501    0  0.00000000000E+00  0.00000000000E+00  0.25236701805E+04  0.25236701805E+04  0.50400001928E-02 0. -1.
       -1   -1    0    0    0  501  0.00000000000E+00  0.00000000000E+00 -0.89067255142E+03  0.89067255144E+03  0.50400001928E-02 0.  1.
    10030    2    1    2    0    0  0.00000000000E+00  0.00000000000E+00  0.16329976291E+04  0.34143427319E+04  0.29985088018E+04 0.  0.
        1    1    3    3  502    0 -0.61845828353E+03 -0.38589254151E+03 -0.67528532327E+03  0.99368705834E+03  0.50400001928E-02 0.  1.
       -1    1    3    3    0  502  0.61845828353E+03  0.38589254151E+03  0.23082829523E+04  0.24206556736E+04  0.50400001928E-02 0. -1.
</event>
<event>
 5   0  0.6464436E-08  0.2989419E+04  0.7818609E-02  0.8246759E-01
        1   -1    0    0  501    0  0.00000000000E+00  0.00000000000E+00  0.16145147508E+04  0.16145147508E+04  0.50400001928E-02 0. -1.
       -1   -1    0    0    0  501  0.00000000000E+00  0.00000000000E+00 -0.13837941952E+04  0.13837941952E+04  0.50400001928E-02 0.  1.
    10030    2    1    2    0    0  0.00000000000E+00  0.00000000000E+00  0.23072055559E+03  0.29983089461E+04  0.29894187665E+04 0.  0.
        5    1    3    3  502    0  0.73169356112E+03  0.93139112507E+03  0.10298113154E+04  0.15695216884E+04  0.46999998093E+01 0. -1.
       -5    1    3    3    0  502 -0.73169356112E+03 -0.93139112507E+03 -0.79909075977E+03  0.14287872576E+04  0.46999998093E+01 0.  1.
</event>
<event>
 5   0  0.1810055E-07  0.3001018E+04  0.7818609E-02  0.8243440E-01
       -2   -1    0    0    0  501  0.00000000000E+00  0.00000000000E+00  0.14618630419E+04  0.14618630419E+04  0.25500000920E-02 0. -1.
        2   -1    0    0  501    0  0.00000000000E+00  0.00000000000E+00 -0.15401767636E+04  0.15401767636E+04  0.25500000920E-02 0.  1.
    10030    2    1    2    0    0  0.00000000000E+00  0.00000000000E+00 -0.78313721778E+02  0.30020398055E+04  0.30010181530E+04 0.  0.
        4    1    3    3  502    0 -0.67908631652E+02 -0.38457527620E+03  0.14101345356E+04  0.14632124749E+04  0.12699999809E+01 0. -1.
       -4    1    3    3    0  502  0.67908631652E+02  0.38457527620E+03 -0.14884482574E+04  0.15388273305E+04  0.12699999809E+01 0.  1.
</event>
<event>
 5   0  0.6636007E-08  0.2997913E+04  0.7818609E-02  0.8244327E-01
        1   -1    0    0  501    0  0.00000000000E+00  0.00000000000E+00  0.21824284317E+04  0.21824284317E+04  0.50400001928E-02 0. -1.
       -1   -1    0    0    0  501  0.00000000000E+00  0.00000000000E+00 -0.10295276774E+04  0.10295276774E+04  0.50400001928E-02 0.  1.
    10030    2    1    2    0    0  0.00000000000E+00  0.00000000000E+00  0.11529007543E+04  0.32119561092E+04  0.29979129237E+04 0.  0.
        2    1    3    3  502    0  0.69190829459E+03  0.51745208401E+03  0.18888036155E+04  0.20770346279E+04  0.25500000920E-02 0. -1.
       -2    1    3    3    0  502 -0.69190829459E+03 -0.51745208401E+03 -0.73590286128E+03  0.11349214813E+04  0.25500000920E-02 0.  1.
</event>
<event>
 5   0  0.1821305E-07  0.2999125E+04  0.7818609E-02  0.8243981E-01
       -2   -1    0    0    0  501  0.00000000000E+00  0.00000000000E+00  0.11885360111E+04  0.11885360111E+04  0.25500000920E-02 0. -1.
        2   -1    0    0  501    0  0.00000000000E+00  0.00000000000E+00 -0.18919812958E+04  0.18919812958E+04  0.25500000920E-02 0.  1.
    10030    2    1    2    0    0  0.00000000000E+00  0.00000000000E+00 -0.70344528465E+03  0.30805173069E+04  0.29991251407E+04 0.  0.
        2    1    3    3  502    0 -0.13383780255E+04 -0.97174612867E+02 -0.10392070708E+04  0.16972477664E+04  0.25500000920E-02 0.  1.
       -2    1    3    3    0  502  0.13383780255E+04  0.97174612867E+02  0.33576178617E+03  0.13832695405E+04  0.25500000920E-02 0. -1.
</event>
<event>
 5   0  0.1817566E-07  0.2999107E+04  0.7818609E-02  0.8243986E-01
       -2   -1    0    0    0  501  0.00000000000E+00  0.00000000000E+00  0.23185107093E+04  0.23185107093E+04  0.25500000920E-02 0.  1.
        2   -1    0    0  501    0  0.00000000000E+00  0.00000000000E+00 -0.96987318107E+03  0.96987318107E+03  0.25500000920E-02 0. -1.
    10030    2    1    2    0    0  0.00000000000E+00  0.00000000000E+00  0.13486375283E+04  0.32883838904E+04  0.29991074386E+04 0.  0.
        1    1    3    3  502    0  0.13100604044E+04  0.55919280585E+03  0.16037933190E+03  0.14334142414E+04  0.50400001928E-02 0. -1.
       -1    1    3    3    0  502 -0.13100604044E+04 -0.55919280585E+03  0.11882581964E+04  0.18549696490E+04  0.50400001928E-02 0.  1.
</event>
<event>
 5   0  0.1914439E-07  0.2999789E+04  0.7818609E-02  0.8243791E-01
       -2   -1    0    0    0  501  0.00000000000E+00  0.00000000000E+00  0.10593401514E+04  0.10593401514E+04  0.25500000920E-02 0.  1.
        2   -1    0    0  501    0  0.00000000000E+00  0.00000000000E+00 -0.21236654951E+04  0.21236654951E+04  0.25500000920E-02 0. -1.
    10030    2    1    2    0    0  0.00000000000E+00  0.00000000000E+00 -0.10643253437E+04  0.31830056465E+04  0.29997894106E+04 0.  0.
        5    1    3    3  502    0 -0.50769464081E+03  0.13877161257E+04 -0.80507213848E+03  0.16827575975E+04  0.46999998093E+01 0.  1.
       -5    1    3    3    0  502  0.50769464081E+03 -0.13877161257E+04 -0.25925320526E+03  0.15002480489E+04  0.46999998093E+01 0. -1.
</event>
<event>
 5   0  0.6636007E-08  0.2998488E+04  0.7818609E-02  0.8244163E-01
       -1   -1    0    0    0  501  0.00000000000E+00  0.00000000000E+00  0.94093243442E+03  0.94093243444E+03  0.50400001928E-02 0. -1.
        1   -1    0    0  501    0  0.00000000000E+00  0.00000000000E+00 -0.23888350459E+04  0.23888350459E+04  0.50400001928E-02 0.  1.
    10030    2    1    2    0    0  0.00000000000E+00  0.00000000000E+00 -0.14479026115E+04  0.33297674803E+04  0.29984878690E+04 0.  0.
        2    1    3    3  502    0  0.10117085336E+04  0.35763234708E+03  0.43875981575E+03  0.11592951430E+04  0.25500000920E-02 0. -1.
       -2    1    3    3    0  502 -0.10117085336E+04 -0.35763234708E+03 -0.18866624272E+04  0.21704723373E+04  0.25500000920E-02 0.  1.
</event>
<event>
 5   0  0.6525507E-08  0.3001032E+04  0.7818609E-02  0.8243436E-01
        1   -1    0    0  501    0  0.00000000000E+00  0.00000000000E+00  0.16968515929E+04  0.16968515929E+04  0.50400001928E-02 0. -1.
       -1   -1    0    0    0  501  0.00000000000E+00  0.00000000000E+00 -0.13268971711E+04  0.13268971711E+04  0.50400001928E-02 0.  1.
    10030    2    1    2    0    0  0.00000000000E+00  0.00000000000E+00  0.36995442184E+03  0.30237487640E+04  0.30010315416E+04 0.  0.
        4    1    3    3  502    0  0.15907530738E+03  0.28040132957E+03 -0.12915908497E+04  0.13312168851E+04  0.12699999809E+01 0.  1.
       -4    1    3    3    0  502 -0.15907530738E+03 -0.28040132957E+03  0.16615452716E+04  0.16925318790E+04  0.12699999809E+01 0. -1.
</event>
<event>
 5   0  0.1810055E-07  0.2999267E+04  0.7818609E-02  0.8243940E-01
       -2   -1    0    0    0  501  0.00000000000E+00  0.00000000000E+00  0.12682683644E+04  0.12682683644E+04  0.25500000920E-02 0.  1.
        2   -1    0    0  501    0  0.00000000000E+00  0.00000000000E+00 -0.17732051953E+04  0.17732051953E+04  0.25500000920E-02 0. -1.
    10030    2    1    2    0    0  0.00000000000E+00  0.00000000000E+00 -0.50493683093E+03  0.30414735598E+04  0.29992666123E+04 0.  0.
        4    1    3    3  502    0 -0.13676347272E+04  0.21639589997E+03  0.33152330020E+03  0.14237841283E+04  0.12699999809E+01 0. -1.
       -4    1    3    3    0  502  0.13676347272E+04 -0.21639589997E+03 -0.83646013113E+03  0.16176894314E+04  0.12699999809E+01 0.  1.
</event>
<event>
 5   0  0.1813720E-07  0.2998822E+04  0.7818609E-02  0.8244067E-01
       -2   -1    0    0    0  501  0.00000000000E+00  0.00000000000E+00  0.11636439649E+04  0.11636439649E+04  0.25500000920E-02 0.  1.
        2   -1    0    0  501    0  0.00000000000E+00  0.00000000000E+00 -0.19320629740E+04  0.19320629740E+04  0.25500000920E-02 0. -1.
    10030    2    1    2    0    0  0.00000000000E+00  0.00000000000E+00 -0.76841900916E+03  0.30957069389E+04  0.29988220484E+04 0.  0.
        3    1    3    3  502    0 -0.23965753263E+03  0.13872495183E+04 -0.91696071971E+03  0.16800934292E+04  0.10100000352E+00 0. -1.
       -3    1    3    3    0  502  0.23965753263E+03 -0.13872495183E+04  0.14854171055E+03  0.14156135097E+04  0.10100000352E+00 0.  1.
</event>
<event>
 5   0  0.6374748E-08  0.2995075E+04  0.7818609E-02  0.8245139E-01
       -1   -1    0    0    0  501  0.00000000000E+00  0.00000000000E+00  0.87689005634E+03  0.87689005636E+03  0.50400001928E-02 0.  1.
        1   -1    0    0  501    0  0.00000000000E+00  0.00000000000E+00 -0.25574677268E+04  0.25574677268E+04  0.50400001928E-02 0. -1.
    10030    2    1    2    0    0  0.00000000000E+00  0.00000000000E+00 -0.16805776705E+04  0.34343577832E+04  0.29950746362E+04 0.  0.
        1    1    3    3  502    0  0.40469237827E+03 -0.13044012566E+04 -0.15447012750E+04  0.20618779276E+04  0.50400001928E-02 0. -1.
       -1    1    3    3    0  502 -0.40469237827E+03  0.13044012566E+04 -0.13587639553E+03  0.13724798556E+04  0.50400001928E-02 0.  1.
</event>
<event>
 5   0  0.6679022E-08  0.2998833E+04  0.7818609E-02  0.8244064E-01
       -1   -1    0    0    0  501  0.00000000000E+00  0.00000000000E+00  0.13744625155E+04  0.13744625155E+04  0.50400001928E-02 0.  1.
        1   -1    0    0  501    0  0.00000000000E+00  0.00000000000E+00 -0.16357302193E+04  0.16357302193E+04  0.50400001928E-02 0. -1.
    10030    2    1    2    0    0  0.00000000000E+00  0.00000000000E+00 -0.26126770384E+03  0.30101927348E+04  0.29988330210E+04 0.  0.
        3    1    3    3  502    0  0.11447390835E+04 -0.49508808137E+03  0.70481097431E+03  0.14325844817E+04  0.10100000352E+00 0.  1.
       -3    1    3    3    0  502 -0.11447390835E+04  0.49508808137E+03 -0.96607867816E+03  0.15776082531E+04  0.10100000352E+00 0. -1.
</event>
<event>
 5   0  0.6636007E-08  0.2999811E+04  0.7818609E-02  0.8243785E-01
        1   -1    0    0  501    0  0.00000000000E+00  0.00000000000E+00  0.22215859530E+04  0.22215859531E+04  0.50400001928E-02 0.  1.
       -1   -1    0    0    0  501  0.00000000000E+00  0.00000000000E+00 -0.10126625490E+04  0.10126625490E+04  0.50400001928E-02 0. -1.
    10030    2    1    2    0    0  0.00000000000E+00  0.00000000000E+00  0.12089234040E+04  0.32342485021E+04  0.29998112568E+04 0.  0.
        2    1    3    3  502    0  0.61412857630E+03 -0.11850867838E+04  0.13421344836E+04  0.18928575132E+04  0.25500000920E-02 0.  1.
       -2    1    3    3    0  502 -0.61412857630E+03  0.11850867838E+04 -0.13321107963E+03  0.13413909889E+04  0.25500000920E-02 0. -1.
</event>
<event>
 5   0  0.6636007E-08  0.3000407E+04  0.7818609E-02  0.8243615E-01
        1   -1    0    0  501    0  0.00000000000E+00  0.00000000000E+00  0.22984510852E+04  0.22984510852E+04  0.50400001928E-02 0. -1.
       -1   -1    0    0    0  501  0.00000000000E+00  0.00000000000E+00 -0.97918592972E+03  0.97918592973E+03  0.50400001928E-02 0.  1.
    10030    2    1    2    0    0  0.00000000000E+00  0.00000000000E+00  0.13192651555E+04  0.32776370149E+04  0.30004072809E+04 0.  0.
        2    1    3    3  502    0  0.54173195286E+03 -0.13632830089E+04  0.10026469022E+04  0.17768834744E+04  0.25500000920E-02 0. -1.
       -2    1    3    3    0  502 -0.54173195286E+03  0.13632830089E+04  0.31661825329E+03  0.15007535405E+04  0.25500000920E-02 0.  1.
</event>
<event>
 5   0  0.1914439E-07  0.2996441E+04  0.7818609E-02  0.8244748E-01
        2   -1    0    0  501    0  0.00000000000E+00  0.00000000000E+00  0.13456161125E+04  0.13456161125E+04  0.25500000920E-02 0. -1.
       -2   -1    0    0    0  501  0.00000000000E+00  0.00000000000E+00 -0.16681310546E+04  0.16681310546E+04  0.25500000920E-02 0.  1.
    10030    2    1    2    0    0  0.00000000000E+00  0.00000000000E+00 -0.32251494209E+03  0.30137471671E+04  0.29964405716E+04 0.  0.
        5    1    3    3  502    0  0.10785899450E+04  0.43126632496E+03 -0.11129227648E+04  0.16087156626E+04  0.46999998093E+01 0.  1.
       -5    1    3    3    0  502 -0.10785899450E+04 -0.43126632496E+03  0.79040782270E+03  0.14050315045E+04  0.46999998093E+01 0. -1.
</event>
<event>
 5   0  0.6464436E-08  0.2993953E+04  0.7818609E-02  0.8245460E-01
        1   -1    0    0  501    0  0.00000000000E+00  0.00000000000E+00  0.22594397308E+04  0.22594397308E+04  0.50400001928E-02 0.  1.
       -1   -1    0    0    0  501  0.00000000000E+00  0.00000000000E+00 -0.99181193452E+03  0.99181193454E+03  0.50400001928E-02 0. -1.
    10030    2    1    2    0    0  0.00000000000E+00  0.00000000000E+00  0.12676277963E+04  0.32512516653E+04  0.29939534334E+04 0.  0.
        5    1    3    3  502    0  0.45303889381E+03 -0.75627774757E+03  0.19476285304E+04  0.21378679223E+04  0.46999998093E+01 0.  1.
       -5    1    3    3    0  502 -0.45303889381E+03  0.75627774757E+03 -0.68000073415E+03  0.11133837430E+04  0.46999998093E+01 0. -1.
</event>
<event>
 5   0  0.6679022E-08  0.3000756E+04  0.7818609E-02  0.8243515E-01
        1   -1    0    0  501    0  0.00000000000E+00  0.00000000000E+00  0.21286913777E+04  0.21286913777E+04  0.50400001928E-02 0. -1.
       -1   -1    0    0    0  501  0.00000000000E+00  0.00000000000E+00 -0.10575200927E+04  0.10575200927E+04  0.50400001928E-02 0.  1.
    10030    2    1    2    0    0  0.00000000000E+00  0.00000000000E+00  0.10711712850E+04  0.31862114704E+04  0.30007558402E+04 0.  0.
        3    1    3    3  502    0  0.11625935032E+02  0.11575277399E+04  0.15491088458E+04  0.19338417353E+04  0.10100000352E+00 0. -1.
       -3    1    3    3    0  502 -0.11625935032E+02 -0.11575277399E+04 -0.47793756083E+03  0.12523697351E+04  0.10100000352E+00 0.  1.
</event>
<event>
 5   0  0.6464436E-08  0.2997803E+04  0.7818609E-02  0.8244358E-01
       -1   -1    0    0    0  501  0.00000000000E+00  0.00000000000E+00  0.16179300872E+04  0.16179300872E+04  0.50400001928E-02 0.  1.
        1   -1    0    0  501    0  0.00000000000E+00  0.00000000000E+00 -0.13886297696E+04  0.13886297696E+04  0.50400001928E-02 0. -1.
    10030    2    1    2    0    0  0.00000000000E+00  0.00000000000E+00  0.22930031765E+03  0.30065598568E+04  0.29978031185E+04 0.  0.
        5    1    3    3  502    0 -0.13173315541E+04 -0.60910672342E+03 -0.26102426825E+03  0.14746284897E+04  0.46999998093E+01 0. -1.
       -5    1    3    3    0  502  0.13173315541E+04  0.60910672342E+03  0.49032458590E+03  0.15319313671E+04  0.46999998093E+01 0.  1.
</event>
<event>
 5   0  0.6374748E-08  0.3003518E+04  0.7818609E-02  0.8242727E-01
        1   -1    0    0  501    0  0.00000000000E+00  0.00000000000E+00  0.92590950137E+03  0.92590950139E+03  0.50400001928E-02 0.  1.
       -1   -1    0    0    0  501  0.00000000000E+00  0.00000000000E+00 -0.24357454957E+04  0.24357454957E+04  0.50400001928E-02 0. -1.
    10030    2    1    2    0    0  0.00000000000E+00  0.00000000000E+00 -0.15098359943E+04  0.33616549971E+04  0.30035178690E+04 0.  0.
        1    1    3    3  502    0 -0.10979733778E+04 -0.66347092074E+01 -0.19016277873E+04  0.21958546854E+04  0.50400001928E-02 0. -1.
       -1    1    3    3    0  502  0.10979733778E+04  0.66347092074E+01  0.39179179303E+03  0.11658003117E+04  0.50400001928E-02 0.  1.
</event>
<event>
 5   0  0.1821305E-07  0.3001984E+04  0.7818609E-02  0.8243165E-01
        2   -1    0    0  501    0  0.00000000000E+00  0.00000000000E+00  0.22713121618E+04  0.22713121618E+04  0.25500000920E-02 0. -1.
       -2   -1    0    0    0  501  0.00000000000E+00  0.00000000000E+00 -0.99192721287E+03  0.99192721287E+03  0.25500000920E-02 0.  1.
    10030    2    1    2    0    0  0.00000000000E+00  0.00000000000E+00  0.12793849489E+04  0.32632393747E+04  0.30019835724E+04 0.  0.
        2    1    3    3  502    0 -0.94991106733E+03  0.10096838267E+04  0.12652614668E+04  0.18768801360E+04  0.25500000920E-02 0.  1.
       -2    1    3    3    0  502  0.94991106733E+03 -0.10096838267E+04  0.14123482161E+02  0.13863592386E+04  0.25500000920E-02 0. -1.
</event>
<event>
 5   0  0.1817566E-07  0.3005738E+04  0.7818609E-02  0.8242094E-01
        2   -1    0    0  501    0  0.00000000000E+00  0.00000000000E+00  0.16165244892E+04  0.16165244892E+04  0.25500000920E-02 0.  1.
       -2   -1    0    0    0  501  0.00000000000E+00  0.00000000000E+00 -0.13972044343E+04  0.13972044343E+04  0.25500000920E-02 0. -1.
    10030    2    1    2    0    0  0.00000000000E+00  0.00000000000E+00  0.21932005492E+03  0.30137289235E+04  0.30057379689E+04 0.  0.
        1    1    3    3  502    0  0.12116343827E+04  0.83470248152E+03 -0.19746965093E+03  0.14845135139E+04  0.50400001928E-02 0. -1.
       -1    1    3    3    0  502 -0.12116343827E+04 -0.83470248152E+03  0.41678970586E+03  0.15292154096E+04  0.50400001928E-02 0.  1.
</event>
<event>
 5   0  0.6464436E-08  0.3003058E+04  0.7818609E-02  0.8242858E-01
       -1   -1    0    0    0  501  0.00000000000E+00  0.00000000000E+00  0.10366779771E+04  0.10366779771E+04  0.50400001928E-02 0. -1.
        1   -1    0    0  501    0  0.00000000000E+00  0.00000000000E+00 -0.21748216065E+04  0.21748216065E+04  0.50400001928E-02 0.  1.
    10030    2    1    2    0    0  0.00000000000E+00  0.00000000000E+00 -0.11381436294E+04  0.32114995836E+04  0.30030582170E+04 0.  0.
        5    1    3    3  502    0 -0.11135417637E+04  0.98121549603E+03 -0.81248521283E+03  0.16920146040E+04  0.46999998093E+01 0.  1.
       -5    1    3    3    0  502  0.11135417637E+04 -0.98121549603E+03 -0.32565841653E+03  0.15194849796E+04  0.46999998093E+01 0. -1.
</event>
<event>
 5   0  0.6636007E-08  0.2999836E+04  0.7818609E-02  0.8243778E-01
       -1   -1    0    0    0  501  0.00000000000E+00  0.00000000000E+00  0.20050660192E+04  0.20050660192E+04  0.50400001928E-02 0.  1.
        1   -1    0    0  501    0  0.00000000000E+00  0.00000000000E+00 -0.11220349773E+04  0.11220349773E+04  0.50400001928E-02 0. -1.
    10030    2    1    2    0    0  0.00000000000E+00  0.00000000000E+00  0.88303104187E+03  0.31271009965E+04  0.29998361324E+04 0.  0.
        2    1    3    3  502    0  0.60825883984E+03  0.12848217455E+04  0.94036572022E+03  0.17044158594E+04  0.25500000920E-02 0.  1.
       -2    1    3    3    0  502 -0.60825883984E+03 -0.12848217455E+04 -0.57334678346E+02  0.14226851371E+04  0.25500000920E-02 0. -1.
</event>
<event>
 5   0  0.6679022E-08  0.2998441E+04  0.7818609E-02  0.8244176E-01
       -1   -1    0    0    0  501  0.00000000000E+00  0.00000000000E+00  0.12846158492E+04  0.12846158492E+04  0.50400001928E-02 0. -1.
        1   -1    0    0  501    0  0.00000000000E+00  0.00000000000E+00 -0.17496759755E+04  0.17496759755E+04  0.50400001928E-02 0.  1.
    10030    2    1    2    0    0  0.00000000000E+00  0.00000000000E+00 -0.46506012627E+03  0.30342918247E+04  0.29984405874E+04 0.  0.
        3    1    3    3  502    0 -0.23792956874E+03 -0.12251552393E+04  0.60809204320E+03  0.13883053639E+04  0.10100000352E+00 0. -1.
       -3    1    3    3    0  502  0.23792956874E+03  0.12251552393E+04 -0.10731521695E+04  0.16459864608E+04  0.10100000352E+00 0.  1.
</event>
<event>
 5   0  0.1821305E-07  0.3000243E+04  0.7818609E-02  0.8243662E-01
       -2   -1    0    0    0  501  0.00000000000E+00  0.00000000000E+00  0.21516273817E+04  0.21516273817E+04  0.25500000920E-02 0. -1.
        2   -1    0    0  501    0  0.00000000000E+00  0.00000000000E+00 -0.10458893964E+04  0.10458893964E+04  0.25500000920E-02 0.  1.
    10030    2    1    2    0    0  0.00000000000E+00  0.00000000000E+00  0.11057379853E+04  0.31975167781E+04  0.30002428326E+04 0.  0.
        2    1    3    3  502    0 -0.33754885979E+03 -0.64689550563E+03  0.19497578116E+04  0.20818185684E+04  0.25500000920E-02 0. -1.
       -2    1    3    3    0  502  0.33754885979E+03  0.64689550563E+03 -0.84401982629E+03  0.11156982097E+04  0.25500000920E-02 0.  1.
</event>
<event>
 5   0  0.1817566E-07  0.3001225E+04  0.7818609E-02  0.8243381E-01
       -2   -1    0    0    0  501  0.00000000000E+00  0.00000000000E+00  0.20724878347E+04  0.20724878347E+04  0.25500000920E-02 0.  1.
        2   -1    0    0  501    0  0.00000000000E+00  0.00000000000E+00 -0.10865385964E+04  0.10865385964E+04  0.25500000920E-02 0. -1.
    10030    2    1    2    0    0  0.00000000000E+00  0.00000000000E+00  0.98594923822E+03  0.31590264311E+04  0.30012250985E+04 0.  0.
        1    1    3    3  502    0  0.70412661281E+03  0.68282327892E+03  0.16883800391E+04  0.19526057138E+04  0.50400001928E-02 0.  1.
       -1    1    3    3    0  502 -0.70412661281E+03 -0.68282327892E+03 -0.70243080088E+03  0.12064207173E+04  0.50400001928E-02 0. -1.
</event>
<event>
 5   0  0.6374748E-08  0.2999087E+04  0.7818609E-02  0.8243992E-01
        1   -1    0    0  501    0  0.00000000000E+00  0.00000000000E+00  0.19811310524E+04  0.19811310524E+04  0.50400001928E-02 0. -1.
       -1   -1    0    0    0  501  0.00000000000E+00  0.00000000000E+00 -0.11350238132E+04  0.11350238132E+04  0.50400001928E-02 0.  1.
    10030    2    1    2    0    0  0.00000000000E+00  0.00000000000E+00  0.84610723916E+03  0.31161548656E+04  0.29990871422E+04 0.  0.
        1    1    3    3  502    0 -0.41426466752E+03  0.10404213089E+04 -0.61313997282E+03  0.12767271991E+04  0.50400001928E-02 0. -1.
       -1    1    3    3    0  502  0.41426466752E+03 -0.10404213089E+04  0.14592472120E+04  0.18394276665E+04  0.50400001928E-02 0.  1.
</event>
<event>
 5   0  0.1821305E-07  0.3001659E+04  0.7818609E-02  0.8243257E-01
       -2   -1    0    0    0  501  0.00000000000E+00  0.00000000000E+00  0.19467543746E+04  0.19467543746E+04  0.25500000920E-02 0. -1.
        2   -1    0    0  501    0  0.00000000000E+00  0.00000000000E+00 -0.11570485788E+04  0.11570485788E+04  0.25500000920E-02 0.  1.
    10030    2    1    2    0    0  0.00000000000E+00  0.00000000000E+00  0.78970579581E+03  0.31038029534E+04  0.30016591294E+04 0.  0.
        2    1    3    3  502    0  0.41222638929E+03  0.48670370836E+03  0.17996408425E+04  0.19093240317E+04  0.25500000920E-02 0. -1.
       -2    1    3    3    0  502 -0.41222638929E+03 -0.48670370836E+03 -0.10099350467E+04  0.11944789217E+04  0.25500000920E-02 0.  1.
</event>
<event>
 5   0  0.6525507E-08  0.3000151E+04  0.7818609E-02  0.8243688E-01
        1   -1    0    0  501    0  0.00000000000E+00  0.00000000000E+00  0.17868630456E+04  0.17868630456E+04  0.50400001928E-02 0. -1.
       -1   -1    0    0    0  501  0.00000000000E+00  0.00000000000E+00 -0.12593168017E+04  0.12593168017E+04  0.50400001928E-02 0.  1.
    10030    2    1    2    0    0  0.00000000000E+00  0.00000000000E+00  0.52754624394E+03  0.30461798473E+04  0.30001510999E+04 0.  0.
        4    1    3    3  502    0 -0.14247932345E+04  0.31311913851E+03  0.61862857242E+03  0.15845448178E+04  0.12699999809E+01 0. -1.
       -4    1    3    3    0  502  0.14247932345E+04 -0.31311913851E+03 -0.91082328487E+02  0.14616350295E+04  0.12699999809E+01 0.  1.
</event>
<event>
 5   0  0.6679022E-08  0.3001700E+04  0.7818609E-02  0.8243246E-01
        1   -1    0    0  501    0  0.00000000000E+00  0.00000000000E+00  0.24641717651E+04  0.24641717651E+04  0.50400001928E-02 0. -1.
       -1   -1    0    0    0  501  0.00000000000E+00  0.00000000000E+00 -0.91412065317E+03  0.91412065319E+03  0.50400001928E-02 0.  1.
    10030    2    1    2    0    0  0.00000000000E+00  0.00000000000E+00  0.15500511119E+04  0.33782924183E+04  0.30016997208E+04 0.  0.
        3    1    3    3  502    0  0.24010363325E+03  0.58577709239E+03  0.23065467659E+04  0.23918491906E+04  0.10100000352E+00 0. -1.
       -3    1    3    3    0  502 -0.24010363325E+03 -0.58577709239E+03 -0.75649565406E+03  0.98644322770E+03  0.10100000352E+00 0.  1.
</event>
<event>
 5   0  0.1914439E-07  0.3002517E+04  0.7818609E-02  0.8243012E-01
        2   -1    0    0  501    0  0.00000000000E+00  0.00000000000E+00  0.88033248814E+03  0.88033248815E+03  0.25500000920E-02 0. -1.
       -2   -1    0    0    0  501  0.00000000000E+00  0.00000000000E+00 -0.25601435140E+04  0.25601435140E+04  0.25500000920E-02 0.  1.
    10030    2    1    2    0    0  0.00000000000E+00  0.00000000000E+00 -0.16798110259E+04  0.34404760022E+04  0.30025172837E+04 0.  0.
        5    1    3    3  502    0 -0.12186770037E+04 -0.41781925062E+03  0.43234325305E+02  0.12890453299E+04  0.46999998093E+01 0.  1.
       -5    1    3    3    0  502  0.12186770037E+04  0.41781925062E+03 -0.17230453512E+04  0.21514306723E+04  0.46999998093E+01 0. -1.
</event>
<event>
 5   0  0.1821305E-07  0.2998082E+04  0.7818609E-02  0.8244279E-01
       -2   -1    0    0    0  501  0.00000000000E+00  0.00000000000E+00  0.17828907200E+04  0.17828907200E+04  0.25500000920E-02 0. -1.
        2   -1    0    0  501    0  0.00000000000E+00  0.00000000000E+00 -0.12603823925E+04  0.12603823925E+04  0.25500000920E-02 0.  1.
    10030    2    1    2    0    0  0.00000000000E+00  0.00000000000E+00  0.52250832753E+03  0.30432731124E+04  0.29980821010E+04 0.  0.
        2    1    3    3  502    0 -0.96033143151E+03 -0.52415226862E+03  0.13014700733E+04  0.17002342223E+04  0.25500000920E-02 0. -1.
       -2    1    3    3    0  502  0.96033143151E+03  0.52415226862E+03 -0.77896174575E+03  0.13430388901E+04  0.25500000920E-02 0.  1.
</event>
<event>
 5   0  0.6017625E-08  0.3000276E+04  0.7818609E-02  0.8243652E-01
        3   -1    0    0  501    0  0.00000000000E+00  0.00000000000E+00  0.17360290921E+04  0.17360290951E+04  0.10100000352E+00 0. -1.
       -3   -1    0    0    0  501  0.00000000000E+00  0.00000000000E+00 -0.12962996963E+04  0.12962997003E+04  0.10100000352E+00 0.  1.
    10030    2    1    2    0    0  0.00000000000E+00  0.00000000000E+00  0.43972939579E+03  0.30323287953E+04  0.30002759842E+04 0.  0.
        4    1    3    3  502    0  0.67143603383E+03  0.46103867607E+03 -0.10533673659E+04  0.13315282306E+04  0.12699999809E+01 0.  1.
       -4    1    3    3    0  502 -0.67143603383E+03 -0.46103867607E+03  0.14930967617E+04  0.17008005648E+04  0.12699999809E+01 0. -1.
</event>
<event>
 5   0  0.6464436E-08  0.3001772E+04  0.7818609E-02  0.8243225E-01
        1   -1    0    0  501    0  0.00000000000E+00  0.00000000000E+00  0.18708895743E+04  0.18708895744E+04  0.50400001928E-02 0. -1.
       -1   -1    0    0    0  501  0.00000000000E+00  0.00000000000E+00 -0.12040576863E+04  0.12040576863E+04  0.50400001928E-02 0.  1.
    10030    2    1    2    0    0  0.00000000000E+00  0.00000000000E+00  0.66683188804E+03  0.30749472607E+04  0.30017721248E+04 0.  0.
        5    1    3    3  502    0 -0.16687583173E+03  0.14767015952E+04  0.11819493410E+03  0.14908008844E+04  0.46999998093E+01 0.  1.
       -5    1    3    3    0  502  0.16687583173E+03 -0.14767015952E+04  0.54863695394E+03  0.15841463763E+04  0.46999998093E+01 0. -1.
</event>
<event>
 5   0  0.6636007E-08  0.2998810E+04  0.7818609E-02  0.8244071E-01
       -1   -1    0    0    0  501  0.00000000000E+00  0.00000000000E+00  0.18192306981E+04  0.18192306982E+04  0.50400001928E-02 0.  1.
        1   -1    0    0  501    0  0.00000000000E+00  0.00000000000E+00 -0.12358056758E+04  0.12358056759E+04  0.50400001928E-02 0. -1.
    10030    2    1    2    0    0  0.00000000000E+00  0.00000000000E+00  0.58342502231E+03  0.30550363740E+04  0.29988101790E+04 0.  0.
        2    1    3    3  502    0 -0.60405256803E+03  0.84098868360E+03 -0.81309027691E+03  0.13165322895E+04  0.25500000920E-02 0. -1.
       -2    1    3    3    0  502  0.60405256803E+03 -0.84098868360E+03  0.13965152992E+04  0.17385040845E+04  0.25500000920E-02 0.  1.
</event>
<event>
 5   0  0.6374748E-08  0.2997539E+04  0.7818609E-02  0.8244434E-01
       -1   -1    0    0    0  501  0.00000000000E+00  0.00000000000E+00  0.11506462319E+04  0.11506462319E+04  0.50400001928E-02 0.  1.
        1   -1    0    0  501    0  0.00000000000E+00  0.00000000000E+00 -0.19522161469E+04  0.19522161469E+04  0.50400001928E-02 0. -1.
    10030    2    1    2    0    0  0.00000000000E+00  0.00000000000E+00 -0.80156991499E+03  0.31028623789E+04  0.29975390929E+04 0.  0.
        1    1    3    3  502    0  0.88934342583E+03  0.16226105461E+03 -0.16382169381E+04  0.18710999747E+04  0.50400001928E-02 0. -1.
       -1    1    3    3    0  502 -0.88934342583E+03 -0.16226105461E+03  0.83664702316E+03  0.12317624042E+04  0.50400001928E-02 0.  1.
</event>
<event>
 5   0  0.1821305E-07  0.2999053E+04  0.7818609E-02  0.8244001E-01
       -2   -1    0    0    0  501  0.00000000000E+00  0.00000000000E+00  0.10439423767E+04  0.10439423767E+04  0.25500000920E-02 0. -1.
        2   -1    0    0  501    0  0.00000000000E+00  0.00000000000E+00 -0.21539308481E+04  0.21539308481E+04  0.25500000920E-02 0.  1.
    10030    2    1    2    0    0  0.00000000000E+00  0.00000000000E+00 -0.11099884714E+04  0.31978732248E+04  0.29990529764E+04 0.  0.
        2    1    3    3  502    0  0.15127750245E+03  0.80536346384E+03 -0.18940682635E+04  0.20637320026E+04  0.25500000920E-02 0.  1.
       -2    1    3    3    0  502 -0.15127750245E+03 -0.80536346384E+03  0.78407979207E+03  0.11341412222E+04  0.25500000920E-02 0. -1.
</event>
<event>
 5   0  0.6374748E-08  0.3000184E+04  0.7818609E-02  0.8243678E-01
        1   -1    0    0  501    0  0.00000000000E+00  0.00000000000E+00  0.22349475691E+04  0.22349475691E+04  0.50400001928E-02 0.  1.
       -1   -1    0    0    0  501  0.00000000000E+00  0.00000000000E+00 -0.10068585986E+04  0.10068585986E+04  0.50400001928E-02 0. -1.
    10030    2    1    2    0    0  0.00000000000E+00  0.00000000000E+00  0.12280889704E+04  0.32418061677E+04  0.30001841126E+04 0.  0.
        1    1    3    3  502    0  0.53532831844E+03  0.35688058066E+03  0.20782944214E+04  0.21756028727E+04  0.50400001928E-02 0.  1.
       -1    1    3    3    0  502 -0.53532831844E+03 -0.35688058066E+03 -0.85020545100E+03  0.10662032950E+04  0.50400001928E-02 0. -1.
</event>
<event>
 5   0  0.1914439E-07  0.3000462E+04  0.7818609E-02  0.8243599E-01
        2   -1    0    0  501    0  0.00000000000E+00  0.00000000000E+00  0.70002329962E+03  0.70002329963E+03  0.25500000920E-02 0. -1.
       -2   -1    0    0    0  501  0.00000000000E+00  0.00000000000E+00 -0.32151688915E+04  0.32151688915E+04  0.25500000920E-02 0.  1.
    10030    2    1    2    0    0  0.00000000000E+00  0.00000000000E+00 -0.25151455918E+04  0.39151921911E+04  0.30004620553E+04 0.  0.
        5    1    3    3  502    0  0.62052985911E+03 -0.11640334421E+04 -0.21900158412E+04  0.25566037305E+04  0.46999998093E+01 0. -1.
       -5    1    3    3    0  502 -0.62052985911E+03  0.11640334421E+04 -0.32512975066E+03  0.13585884606E+04  0.46999998093E+01 0.  1.
</event>
<event>
 5   0  0.6679022E-08  0.2999343E+04  0.7818609E-02  0.8243919E-01
       -1   -1    0    0    0  501  0.00000000000E+00  0.00000000000E+00  0.14534161325E+04  0.14534161325E+04  0.50400001928E-02 0. -1.
        1   -1    0    0  501    0  0.00000000000E+00  0.00000000000E+00 -0.15473989399E+04  0.15473989399E+04  0.50400001928E-02 0.  1.
    10030    2    1    2    0    0  0.00000000000E+00  0.00000000000E+00 -0.93982807349E+02  0.30008150724E+04  0.29993429832E+04 0.  0.
        3    1    3    3  502    0 -0.65042110223E+03  0.12940654195E+04  0.34225179345E+03  0.14882167922E+04  0.10100000352E+00 0. -1.
       -3    1    3    3    0  502  0.65042110223E+03 -0.12940654195E+04 -0.43623460080E+03  0.15125982802E+04  0.10100000352E+00 0.  1.
</event>
<event>
 5   0  0.6017625E-08  0.2998287E+04  0.7818609E-02  0.8244220E-01
        3   -1    0    0  501    0  0.00000000000E+00  0.00000000000E+00  0.12835455880E+04  0.12835455920E+04  0.10100000352E+00 0. -1.
       -3   -1    0    0    0  501  0.00000000000E+00  0.00000000000E+00 -0.17509554746E+04  0.17509554775E+04  0.10100000352E+00 0.  1.
    10030    2    1    2    0    0  0.00000000000E+00  0.00000000000E+00 -0.46740988658E+03  0.30345010695E+04  0.29982869673E+04 0.  0.
        2    1    3    3  502    0 -0.11286997281E+04  0.24558479650E+03 -0.12008389131E+04  0.16662199926E+04  0.25500000920E-02 0.  1.
       -2    1    3    3    0  502  0.11286997281E+04 -0.24558479650E+03  0.73342902652E+03  0.13682810769E+04  0.25500000920E-02 0. -1.
</event>
<event>
 5   0  0.6464436E-08  0.3002002E+04  0.7818609E-02  0.8243160E-01
        1   -1    0    0  501    0  0.00000000000E+00  0.00000000000E+00  0.20753801168E+04  0.20753801168E+04  0.50400001928E-02 0.  1.
       -1   -1    0    0    0  501  0.00000000000E+00  0.00000000000E+00 -0.10855859618E+04  0.10855859618E+04  0.50400001928E-02 0. -1.
    10030    2    1    2    0    0  0.00000000000E+00  0.00000000000E+00  0.98979415508E+03  0.31609660786E+04  0.30020016790E+04 0.  0.
        5    1    3    3  502    0 -0.36135074770E+03  0.45873184616E+03 -0.96106373733E+03  0.11245776393E+04  0.46999998093E+01 0. -1.
       -5    1    3    3    0  502  0.36135074770E+03 -0.45873184616E+03  0.19508578924E+04  0.20363884394E+04  0.46999998093E+01 0.  1.
</event>
<event>
 5   0  0.1821305E-07  0.3000599E+04  0.7818609E-02  0.8243560E-01
        2   -1    0    0  501    0  0.00000000000E+00  0.00000000000E+00  0.10887352131E+04  0.10887352132E+04  0.25500000920E-02 0. -1.
       -2   -1    0    0    0  501  0.00000000000E+00  0.00000000000E+00 -0.20674436472E+04  0.20674436472E+04  0.25500000920E-02 0.  1.
    10030    2    1    2    0    0  0.00000000000E+00  0.00000000000E+00 -0.97870843408E+03  0.31561788604E+04  0.30005990735E+04 0.  0.
        2    1    3    3  502    0 -0.19643843951E+03 -0.14080780424E+04 -0.99339419630E+03  0.17343886137E+04  0.25500000920E-02 0.  1.
       -2    1    3    3    0  502  0.19643843951E+03  0.14080780424E+04  0.14685762216E+02  0.14217902467E+04  0.25500000920E-02 0. -1.
</event>
<event>
 5   0  0.6017625E-08  0.2999853E+04  0.7818609E-02  0.8243773E-01
        3   -1    0    0  501    0  0.00000000000E+00  0.00000000000E+00  0.14879532107E+04  0.14879532141E+04  0.10100000352E+00 0.  1.
       -3   -1    0    0    0  501  0.00000000000E+00  0.00000000000E+00 -0.15119964934E+04  0.15119964968E+04  0.10100000352E+00 0. -1.
    10030    2    1    2    0    0  0.00000000000E+00  0.00000000000E+00 -0.24043282749E+02  0.29999497109E+04  0.29998533611E+04 0.  0.
        4    1    3    3  502    0  0.31657727310E+02  0.24865727862E+03  0.14668584294E+04  0.14881222795E+04  0.12699999809E+01 0.  1.
       -4    1    3    3    0  502 -0.31657727310E+02 -0.24865727862E+03 -0.14909017122E+04  0.15118274314E+04  0.12699999809E+01 0. -1.
</event>
<event>
 5   0  0.6374748E-08  0.3000654E+04  0.7818609E-02  0.8243544E-01
       -1   -1    0    0    0  501  0.00000000000E+00  0.00000000000E+00  0.13105341349E+04  0.13105341349E+04  0.50400001928E-02 0. -1.
        1   -1    0    0  501    0  0.00000000000E+00  0.00000000000E+00 -0.17176053810E+04  0.17176053810E+04  0.50400001928E-02 0.  1.
    10030    2    1    2    0    0  0.00000000000E+00  0.00000000000E+00 -0.40707124614E+03  0.30281395159E+04  0.30006535835E+04 0.  0.
        1    1    3    3  502    0  0.16760400070E+03 -0.11354232742E+04  0.77159879013E+03  0.13829829376E+04  0.50400001928E-02 0. -1.
       -1    1    3    3    0  502 -0.16760400070E+03  0.11354232742E+04 -0.11786700363E+04  0.16451565783E+04  0.50400001928E-02 0.  1.
</event>
<event>
 5   0  0.1821305E-07  0.2999851E+04  0.7818609E-02  0.8243773E-01
       -2   -1    0    0    0  501  0.00000000000E+00  0.00000000000E+00  0.12651972028E+04  0.12651972028E+04  0.25500000920E-02 0. -1.
        2   -1    0    0  501    0  0.00000000000E+00  0.00000000000E+00 -0.17782019813E+04  0.17782019813E+04  0.25500000920E-02 0.  1.
    10030    2    1    2    0    0  0.00000000000E+00  0.00000000000E+00 -0.51300477849E+03  0.30433991841E+04  0.29998507782E+04 0.  0.
        2    1    3    3  502    0  0.38258241189E+03 -0.14495570552E+04 -0.20901243836E+03  0.15136945391E+04  0.25500000920E-02 0. -1.
       -2    1    3    3    0  502 -0.38258241189E+03  0.14495570552E+04 -0.30399234013E+03  0.15297046451E+04  0.25500000920E-02 0.  1.
</event>
<event>
 5   0  0.6636007E-08  0.2999514E+04  0.7818609E-02  0.8243870E-01
        1   -1    0    0  501    0  0.00000000000E+00  0.00000000000E+00  0.11905414171E+04  0.11905414172E+04  0.50400001928E-02 0.  1.
       -1   -1    0    0    0  501  0.00000000000E+00  0.00000000000E+00 -0.18892840148E+04  0.18892840149E+04  0.50400001928E-02 0. -1.
    10030    2    1    2    0    0  0.00000000000E+00  0.00000000000E+00 -0.69874259770E+03  0.30798254320E+04  0.29995138729E+04 0.  0.
        2    1    3    3  502    0  0.55447831854E+03  0.83229402228E+03 -0.14969323473E+04  0.18002683127E+04  0.25500000920E-02 0. -1.
       -2    1    3    3    0  502 -0.55447831854E+03 -0.83229402228E+03  0.79818974960E+03  0.12795571193E+04  0.25500000920E-02 0.  1.
</event>
<event>
 5   0  0.6636007E-08  0.3000306E+04  0.7818609E-02  0.8243644E-01
        1   -1    0    0  501    0  0.00000000000E+00  0.00000000000E+00  0.17149565726E+04  0.17149565726E+04  0.50400001928E-02 0. -1.
       -1   -1    0    0    0  501  0.00000000000E+00  0.00000000000E+00 -0.13122542379E+04  0.13122542379E+04  0.50400001928E-02 0.  1.
    10030    2    1    2    0    0  0.00000000000E+00  0.00000000000E+00  0.40270233463E+03  0.30272108105E+04  0.30003060045E+04 0.  0.
        2    1    3    3  502    0  0.68453370569E+03  0.41964227667E+03 -0.10772031690E+04  0.13435224978E+04  0.25500000920E-02 0.  1.
       -2    1    3    3    0  502 -0.68453370569E+03 -0.41964227667E+03  0.14799055037E+04  0.16836883127E+04  0.25500000920E-02 0. -1.
</event>
<event>
 5   0  0.6525507E-08  0.3000078E+04  0.7818609E-02  0.8243709E-01
        1   -1    0    0  501    0  0.00000000000E+00  0.00000000000E+00  0.18887320529E+04  0.18887320529E+04  0.50400001928E-02 0. -1.
       -1   -1    0    0    0  501  0.00000000000E+00  0.00000000000E+00 -0.11913369589E+04  0.11913369589E+04  0.50400001928E-02 0.  1.
    10030    2    1    2    0    0  0.00000000000E+00  0.00000000000E+00  0.69739509402E+03  0.30800690118E+04  0.30000775324E+04 0.  0.
        4    1    3    3  502    0 -0.79183048512E+03 -0.93754156859E+03  0.12343306234E+04  0.17405612344E+04  0.12699999809E+01 0. -1.
       -4    1    3    3    0  502  0.79183048512E+03  0.93754156859E+03 -0.53693552940E+03  0.13395077774E+04  0.12699999809E+01 0.  1.
</event>
<event>
 5   0  0.6525507E-08  0.3002453E+04  0.7818609E-02  0.8243031E-01
       -1   -1    0    0    0  501  0.00000000000E+00  0.00000000000E+00  0.13264451402E+04  0.13264451402E+04  0.50400001928E-02 0. -1.
        1   -1    0    0  501    0  0.00000000000E+00  0.00000000000E+00 -0.16990379404E+04  0.16990379404E+04  0.50400001928E-02 0.  1.
    10030    2    1    2    0    0  0.00000000000E+00  0.00000000000E+00 -0.37259280018E+03  0.30254830806E+04  0.30024527434E+04 0.  0.
        4    1    3    3  502    0 -0.17627241269E+03 -0.16505880974E+03  0.13067444206E+04  0.13288713135E+04  0.12699999809E+01 0. -1.
       -4    1    3    3    0  502  0.17627241269E+03  0.16505880974E+03 -0.16793372208E+04  0.16966117671E+04  0.12699999809E+01 0.  1.
</event>
<event>
 5   0  0.6464436E-08  0.2998314E+04  0.7818609E-02  0.8244212E-01
        1   -1    0    0  501    0  0.00000000000E+00  0.00000000000E+00  0.30666895157E+04  0.30666895157E+04  0.50400001928E-02 0.  1.
       -1   -1    0    0    0  501  0.00000000000E+00  0.00000000000E+00 -0.73286594984E+03  0.73286594985E+03  0.50400001928E-02 0. -1.
    10030    2    1    2    0    0  0.00000000000E+00  0.00000000000E+00  0.23338235658E+04  0.37995554655E+04  0.29983144097E+04 0.  0.
        5    1    3    3  502    0 -0.31587060264E+03  0.88448148667E+03 -0.31383417509E+03  0.99025033064E+03  0.46999998093E+01 0. -1.
       -5    1    3    3    0  502  0.31587060264E+03 -0.88448148667E+03  0.26476577409E+04  0.28093051349E+04  0.46999998093E+01 0.  1.
</event>
<event>
 5   0  0.6679022E-08  0.3008548E+04  0.7818609E-02  0.8241294E-01
        1   -1    0    0  501    0  0.00000000000E+00  0.00000000000E+00  0.14747014295E+04  0.14747014295E+04  0.50400001928E-02 0.  1.
       -1   -1    0    0    0  501  0.00000000000E+00  0.00000000000E+00 -0.15344392232E+04  0.15344392232E+04  0.50400001928E-02 0. -1.
    10030    2    1    2    0    0  0.00000000000E+00  0.00000000000E+00 -0.59737793681E+02  0.30091406527E+04  0.30085476336E+04 0.  0.
        3    1    3    3  502    0  0.10279535670E+04 -0.10710786012E+04  0.21295828150E+03  0.14997496943E+04  0.10100000352E+00 0. -1.
       -3    1    3    3    0  502 -0.10279535670E+04  0.10710786012E+04 -0.27269607518E+03  0.15093909584E+04  0.10100000352E+00 0.  1.
</event>
<event>
 5   0  0.1914439E-07  0.2999515E+04  0.7818609E-02  0.8243869E-01
       -2   -1    0    0    0  501  0.00000000000E+00  0.00000000000E+00  0.95864989641E+03  0.95864989641E+03  0.25500000920E-02 0.  1.
        2   -1    0    0  501    0  0.00000000000E+00  0.00000000000E+00 -0.23462925853E+04  0.23462925853E+04  0.25500000920E-02 0. -1.
    10030    2    1    2    0    0  0.00000000000E+00  0.00000000000E+00 -0.13876426889E+04  0.33049424817E+04  0.29995153901E+04 0.  0.
        5    1    3    3  502    0  0.47726936010E+03  0.11678395962E+04  0.19968757863E+03  0.12773145985E+04  0.46999998093E+01 0.  1.
       -5    1    3    3    0  502 -0.47726936010E+03 -0.11678395962E+04 -0.15873302675E+04  0.20276278832E+04  0.46999998093E+01 0. -1.
</event>
<event>
 5   0  0.6464436E-08  0.2998627E+04  0.7818609E-02  0.8244123E-01
       -1   -1    0    0    0  501  0.00000000000E+00  0.00000000000E+00  0.11491670650E+04  0.11491670650E+04  0.50400001928E-02 0. -1.
        1   -1    0    0  501    0  0.00000000000E+00  0.00000000000E+00 -0.19561475653E+04  0.19561475654E+04  0.50400001928E-02 0.  1.
    10030    2    1    2    0    0  0.00000000000E+00  0.00000000000E+00 -0.80698050033E+03  0.31053146304E+04  0.29986265899E+04 0.  0.
        5    1    3    3  502    0  0.46832974545E+02  0.10037299637E+04 -0.15558486790E+04  0.18521215860E+04  0.46999998093E+01 0.  1.
       -5    1    3    3    0  502 -0.46832974545E+02 -0.10037299637E+04  0.74886817863E+03  0.12531930444E+04  0.46999998093E+01 0. -1.
</event>
<event>
 5   0  0.1817566E-07  0.3001047E+04  0.7818609E-02  0.8243432E-01
        2   -1    0    0  501    0  0.00000000000E+00  0.00000000000E+00  0.26577411099E+04  0.26577411099E+04  0.25500000920E-02 0.  1.
       -2   -1    0    0    0  501  0.00000000000E+00  0.00000000000E+00 -0.84717464215E+03  0.84717464216E+03  0.25500000920E-02 0. -1.
    10030    2    1    2    0    0  0.00000000000E+00  0.00000000000E+00  0.18105664678E+04  0.35049157521E+04  0.30010470664E+04 0.  0.
        1    1    3    3  502    0 -0.53682915244E+03 -0.12490928466E+04  0.16468314575E+04  0.21355262414E+04  0.50400001928E-02 0.  1.
       -1    1    3    3    0  502  0.53682915244E+03  0.12490928466E+04  0.16373501027E+03  0.13693895107E+04  0.50400001928E-02 0. -1.
</event>
<event>
 5   0  0.6679022E-08  0.3000870E+04  0.7818609E-02  0.8243483E-01
       -1   -1    0    0    0  501  0.00000000000E+00  0.00000000000E+00  0.14146672185E+04  0.14146672185E+04  0.50400001928E-02 0.  1.
        1   -1    0    0  501    0  0.00000000000E+00  0.00000000000E+00 -0.15914023586E+04  0.15914023586E+04  0.50400001928E-02 0. -1.
    10030    2    1    2    0    0  0.00000000000E+00  0.00000000000E+00 -0.17673514006E+03  0.30060695771E+04  0.30008697061E+04 0.  0.
        3    1    3    3  502    0 -0.11869542543E+04  0.10236431125E+03 -0.10020697223E+04  0.15567538638E+04  0.10100000352E+00 0. -1.
       -3    1    3    3    0  502  0.11869542543E+04 -0.10236431125E+03  0.82533458223E+03  0.14493157133E+04  0.10100000352E+00 0.  1.
</event>
<event>
 5   0  0.6525507E-08  0.3000322E+04  0.7818609E-02  0.8243639E-01
       -1   -1    0    0    0  501  0.00000000000E+00  0.00000000000E+00  0.12758730701E+04  0.12758730701E+04  0.50400001928E-02 0.  1.
        1   -1    0    0  501    0  0.00000000000E+00  0.00000000000E+00 -0.17638765887E+04  0.17638765887E+04  0.50400001928E-02 0. -1.
    10030    2    1    2    0    0  0.00000000000E+00  0.00000000000E+00 -0.48800351859E+03  0.30397496588E+04  0.30003217417E+04 0.  0.
        4    1    3    3  502    0  0.47306859917E+03  0.42571503069E+02  0.11976789134E+04  0.12884264142E+04  0.12699999809E+01 0.  1.
       -4    1    3    3    0  502 -0.47306859917E+03 -0.42571503069E+02 -0.16856824320E+04  0.17513232445E+04  0.12699999809E+01 0. -1.
</event>
<event>
 5   0  0.1817566E-07  0.3011828E+04  0.7818609E-02  0.8240361E-01
       -2   -1    0    0    0  501  0.00000000000E+00  0.00000000000E+00  0.13890516027E+04  0.13890516027E+04  0.25500000920E-02 0. -1.
        2   -1    0    0  501    0  0.00000000000E+00  0.00000000000E+00 -0.16326080994E+04  0.16326080994E+04  0.25500000920E-02 0.  1.
    10030    2    1    2    0    0  0.00000000000E+00  0.00000000000E+00 -0.24355649667E+03  0.30216597021E+04  0.30118279480E+04 0.  0.
        1    1    3    3  502    0  0.80888356996E+03  0.11350645442E+04  0.45026964829E+03  0.14647207602E+04  0.50400001928E-02 0. -1.
       -1    1    3    3    0  502 -0.80888356996E+03 -0.11350645442E+04 -0.69382614496E+03  0.15569389419E+04  0.50400001928E-02 0.  1.
</event>
<event>
 5   0  0.1813720E-07  0.3000893E+04  0.7818609E-02  0.8243476E-01
        2   -1    0    0  501    0  0.00000000000E+00  0.00000000000E+00  0.26060491340E+04  0.26060491340E+04  0.25500000920E-02 0.  1.
       -2   -1    0    0    0  501  0.00000000000E+00  0.00000000000E+00 -0.86388997173E+03  0.86388997173E+03  0.25500000920E-02 0. -1.
    10030    2    1    2    0    0  0.00000000000E+00  0.00000000000E+00  0.17421591623E+04  0.34699391058E+04  0.30008930089E+04 0.  0.
        3    1    3    3  502    0  0.82005612333E+03  0.66768651128E+03 -0.35974006219E+03  0.11170095099E+04  0.10100000352E+00 0. -1.
       -3    1    3    3    0  502 -0.82005612333E+03 -0.66768651128E+03  0.21018992245E+04  0.23529295958E+04  0.10100000352E+00 0.  1.
</event>
<event>
 5   0  0.1817566E-07  0.2996987E+04  0.7818609E-02  0.8244592E-01
       -2   -1    0    0    0  501  0.00000000000E+00  0.00000000000E+00  0.18629530082E+04  0.18629530082E+04  0.25500000920E-02 0. -1.
        2   -1    0    0  501    0  0.00000000000E+00  0.00000000000E+00 -0.12053352687E+04  0.12053352687E+04  0.25500000920E-02 0.  1.
    10030    2    1    2    0    0  0.00000000000E+00  0.00000000000E+00  0.65761773952E+03  0.30682882770E+04  0.29969871303E+04 0.  0.
        1    1    3    3  502    0  0.43483720171E+03  0.13855976915E+04  0.70708349672E+03  0.16152186930E+04  0.50400001928E-02 0. -1.
       -1    1    3    3    0  502 -0.43483720171E+03 -0.13855976915E+04 -0.49465757204E+02  0.14530695840E+04  0.50400001928E-02 0.  1.
</event>
<event>
 5   0  0.1813720E-07  0.2998793E+04  0.7818609E-02  0.8244075E-01
       -2   -1    0    0    0  501  0.00000000000E+00  0.00000000000E+00  0.14111978363E+04  0.14111978363E+04  0.25500000920E-02 0.  1.
        2   -1    0    0  501    0  0.00000000000E+00  0.00000000000E+00 -0.15931080145E+04  0.15931080145E+04  0.25500000920E-02 0. -1.
    10030    2    1    2    0    0  0.00000000000E+00  0.00000000000E+00 -0.18191017818E+03  0.30043058507E+04  0.29987934794E+04 0.  0.
        3    1    3    3  502    0  0.51238544991E+03 -0.28733076486E+03 -0.14730172085E+04  0.15858365378E+04  0.10100000352E+00 0. -1.
       -3    1    3    3    0  502 -0.51238544991E+03  0.28733076486E+03  0.12911070304E+04  0.14184693129E+04  0.10100000352E+00 0.  1.
</event>
<event>
 5   0  0.1821305E-07  0.2998413E+04  0.7818609E-02  0.8244184E-01
       -2   -1    0    0    0  501  0.00000000000E+00  0.00000000000E+00  0.14221574849E+04  0.14221574849E+04  0.25500000920E-02 0.  1.
        2   -1    0    0  501    0  0.00000000000E+00  0.00000000000E+00 -0.15804293560E+04  0.15804293560E+04  0.25500000920E-02 0. -1.
    10030    2    1    2    0    0  0.00000000000E+00  0.00000000000E+00 -0.15827187108E+03  0.30025868410E+04  0.29984125387E+04 0.  0.
        2    1    3    3  502    0 -0.12906675121E+04 -0.79288285031E+02  0.68054407035E+03  0.14612492911E+04  0.25500000920E-02 0.  1.
       -2    1    3    3    0  502  0.12906675121E+04  0.79288285031E+02 -0.83881594143E+03  0.15413375499E+04  0.25500000920E-02 0. -1.
</event>
<event>
 5   0  0.1817566E-07  0.3000390E+04  0.7818609E-02  0.8243620E-01
       -2   -1    0    0    0  501  0.00000000000E+00  0.00000000000E+00  0.98614710312E+03  0.98614710312E+03  0.25500000920E-02 0.  1.
        2   -1    0    0  501    0  0.00000000000E+00  0.00000000000E+00 -0.22822001159E+04  0.22822001159E+04  0.25500000920E-02 0. -1.
    10030    2    1    2    0    0  0.00000000000E+00  0.00000000000E+00 -0.12960530127E+04  0.32683472190E+04  0.30003899967E+04 0.  0.
        1    1    3    3  502    0 -0.93875699996E+03 -0.76492224596E+03 -0.16126722541E+04  0.20167009066E+04  0.50400001928E-02 0. -1.
       -1    1    3    3    0  502  0.93875699996E+03  0.76492224596E+03  0.31661924138E+03  0.12516463124E+04  0.50400001928E-02 0.  1.
</event>
<event>
 5   0  0.6464436E-08  0.2997960E+04  0.7818609E-02  0.8244314E-01
       -1   -1    0    0    0  501  0.00000000000E+00  0.00000000000E+00  0.15714676745E+04  0.15714676745E+04  0.50400001928E-02 0. -1.
        1   -1    0    0  501    0  0.00000000000E+00  0.00000000000E+00 -0.14298359302E+04  0.14298359302E+04  0.50400001928E-02 0.  1.
    10030    2    1    2    0    0  0.00000000000E+00  0.00000000000E+00  0.14163174431E+03  0.30013036047E+04  0.29979599357E+04 0.  0.
        5    1    3    3  502    0  0.18395739746E+01 -0.99857207407E+03  0.11899935211E+04  0.15534658803E+04  0.46999998093E+01 0. -1.
       -5    1    3    3    0  502 -0.18395739746E+01  0.99857207407E+03 -0.10483617767E+04  0.14478377244E+04  0.46999998093E+01 0.  1.
</event>
<event>
 5   0  0.6464436E-08  0.3000449E+04  0.7818609E-02  0.8243603E-01
       -1   -1    0    0    0  501  0.00000000000E+00  0.00000000000E+00  0.13056364157E+04  0.13056364157E+04  0.50400001928E-02 0.  1.
        1   -1    0    0  501    0  0.00000000000E+00  0.00000000000E+00 -0.17238137219E+04  0.17238137219E+04  0.50400001928E-02 0. -1.
    10030    2    1    2    0    0  0.00000000000E+00  0.00000000000E+00 -0.41817730622E+03  0.30294501376E+04  0.30004492791E+04 0.  0.
        5    1    3    3  502    0 -0.30263881216E+03 -0.12269750361E+04 -0.10253542837E+04  0.16274002234E+04  0.46999998093E+01 0. -1.
       -5    1    3    3    0  502  0.30263881216E+03  0.12269750361E+04  0.60717697748E+03  0.14020499142E+04  0.46999998093E+01 0.  1.
</event>
<event>
 5   0  0.1821305E-07  0.3000617E+04  0.7818609E-02  0.8243555E-01
        2   -1    0    0  501    0  0.00000000000E+00  0.00000000000E+00  0.14142460542E+04  0.14142460542E+04  0.25500000920E-02 0.  1.
       -2   -1    0    0    0  501  0.00000000000E+00  0.00000000000E+00 -0.15916083835E+04  0.15916083835E+04  0.25500000920E-02 0. -1.
    10030    2    1    2    0    0  0.00000000000E+00  0.00000000000E+00 -0.17736232930E+03  0.30058544378E+04  0.30006171874E+04 0.  0.
        2    1    3    3  502    0  0.61966081192E+03 -0.47007516805E+03 -0.13738762656E+04  0.15787609631E+04  0.25500000920E-02 0. -1.
       -2    1    3    3    0  502 -0.61966081192E+03  0.47007516805E+03  0.11965139364E+04  0.14270934746E+04  0.25500000920E-02 0.  1.
</event>
<event>
 5   0  0.6679022E-08  0.2998402E+04  0.7818609E-02  0.8244187E-01
       -1   -1    0    0    0  501  0.00000000000E+00  0.00000000000E+00  0.10486346447E+04  0.10486346447E+04  0.50400001928E-02 0. -1.
        1   -1    0    0  501    0  0.00000000000E+00  0.00000000000E+00 -0.21433617915E+04  0.21433617915E+04  0.50400001928E-02 0.  1.
    10030    2    1    2    0    0  0.00000000000E+00  0.00000000000E+00 -0.10947271469E+04  0.31919964362E+04  0.29984018615E+04 0.  0.
        3    1    3    3  502    0 -0.28896084117E+03 -0.69261481698E+03  0.83427311236E+03  0.11221520791E+04  0.10100000352E+00 0. -1.
       -3    1    3    3    0  502  0.28896084117E+03  0.69261481698E+03 -0.19290002592E+04  0.20698443571E+04  0.10100000352E+00 0.  1.
</event>
<event>
 5   0  0.6464436E-08  0.2999774E+04  0.7818609E-02  0.8243796E-01
        1   -1    0    0  501    0  0.00000000000E+00  0.00000000000E+00  0.17781133649E+04  0.17781133649E+04  0.50400001928E-02 0.  1.
       -1   -1    0    0    0  501  0.00000000000E+00  0.00000000000E+00 -0.12651952412E+04  0.12651952412E+04  0.50400001928E-02 0. -1.
    10030    2    1    2    0    0  0.00000000000E+00  0.00000000000E+00  0.51291812374E+03  0.30433086061E+04  0.29997737032E+04 0.  0.
        5    1    3    3  502    0 -0.11533050057E+04  0.77115702871E+03  0.83468048151E+03  0.16191075305E+04  0.46999998093E+01 0.  1.
       -5    1    3    3    0  502  0.11533050057E+04 -0.77115702871E+03 -0.32176235777E+03  0.14242010756E+04  0.46999998093E+01 0. -1.
</event>
<event>
 5   0  0.1914439E-07  0.3000683E+04  0.7818609E-02  0.8243536E-01
        2   -1    0    0  501    0  0.00000000000E+00  0.00000000000E+00  0.18303263089E+04  0.18303263089E+04  0.25500000920E-02 0. -1.
       -2   -1    0    0    0  501  0.00000000000E+00  0.00000000000E+00 -0.12298490508E+04  0.12298490509E+04  0.25500000920E-02 0.  1.
    10030    2    1    2    0    0  0.00000000000E+00  0.00000000000E+00  0.60047725802E+03  0.30601753597E+04  0.30006833047E+04 0.  0.
        5    1    3    3  502    0  0.28759741340E+03  0.11872528784E+04  0.11885542399E+04  0.17043957700E+04  0.46999998093E+01 0. -1.
       -5    1    3    3    0  502 -0.28759741340E+03 -0.11872528784E+04 -0.58807698191E+03  0.13557795898E+04  0.46999998093E+01 0.  1.
</event>
<event>
 5   0  0.1813720E-07  0.2998995E+04  0.7818609E-02  0.8244018E-01
        2   -1    0    0  501    0  0.00000000000E+00  0.00000000000E+00  0.15289263836E+04  0.15289263836E+04  0.25500000920E-02 0.  1.
       -2   -1    0    0    0  501  0.00000000000E+00  0.00000000000E+00 -0.14706348293E+04  0.14706348293E+04  0.25500000920E-02 0. -1.
    10030    2    1    2    0    0  0.00000000000E+00  0.00000000000E+00  0.58291554342E+02  0.29995612129E+04  0.29989947590E+04 0.  0.
        3    1    3    3  502    0 -0.93264401194E+03  0.63610545702E+03 -0.95797395467E+03  0.14805975528E+04  0.10100000352E+00 0. -1.
       -3    1    3    3    0  502  0.93264401194E+03 -0.63610545702E+03  0.10162655090E+04  0.15189636600E+04  0.10100000352E+00 0.  1.
</event>
<event>
 5   0  0.6464436E-08  0.2993010E+04  0.7818609E-02  0.8245730E-01
       -1   -1    0    0    0  501  0.00000000000E+00  0.00000000000E+00  0.79035640246E+03  0.79035640248E+03  0.50400001928E-02 0.  1.
        1   -1    0    0  501    0  0.00000000000E+00  0.00000000000E+00 -0.28335659786E+04  0.28335659786E+04  0.50400001928E-02 0. -1.
    10030    2    1    2    0    0  0.00000000000E+00  0.00000000000E+00 -0.20432095762E+04  0.36239223811E+04  0.29930098650E+04 0.  0.
        5    1    3    3  502    0 -0.38292591019E+03  0.10857673059E+04  0.13594469910E+03  0.11593213301E+04  0.46999998093E+01 0.  1.
       -5    1    3    3    0  502  0.38292591019E+03 -0.10857673059E+04 -0.21791542753E+04  0.24646010510E+04  0.46999998093E+01 0. -1.
</event>
<event>
 5   0  0.1821305E-07  0.3002426E+04  0.7818609E-02  0.8243038E-01
        2   -1    0    0  501    0  0.00000000000E+00  0.00000000000E+00  0.11414114005E+04  0.11414114005E+04  0.25500000920E-02 0. -1.
       -2   -1    0    0    0  501  0.00000000000E+00  0.00000000000E+00 -0.19744335996E+04  0.19744335996E+04  0.25500000920E-02 0.  1.
    10030    2    1    2    0    0  0.00000000000E+00  0.00000000000E+00 -0.83302219916E+03  0.31158450001E+04  0.30024263655E+04 0.  0.
        2    1    3    3  502    0 -0.65145776342E+03 -0.38589937850E+03  0.92873018047E+03  0.11982717955E+04  0.25500000920E-02 0. -1.
       -2    1    3    3    0  502  0.65145776342E+03  0.38589937850E+03 -0.17617523796E+04  0.19175732046E+04  0.25500000920E-02 0.  1.
</event>
<event>
 5   0  0.6374748E-08  0.3000189E+04  0.7818609E-02  0.8243677E-01
        1   -1    0    0  501    0  0.00000000000E+00  0.00000000000E+00  0.18386985993E+04  0.18386985993E+04  0.50400001928E-02 0.  1.
       -1   -1    0    0    0  501  0.00000000000E+00  0.00000000000E+00 -0.12238453967E+04  0.12238453967E+04  0.50400001928E-02 0. -1.
    10030    2    1    2    0    0  0.00000000000E+00  0.00000000000E+00  0.61485320262E+03  0.30625439960E+04  0.30001885386E+04 0.  0.
        1    1    3    3  502    0  0.13078986858E+04 -0.68610460455E+03  0.39396838407E+02  0.14774608664E+04  0.50400001928E-02 0. -1.
       -1    1    3    3    0  502 -0.13078986858E+04  0.68610460455E+03  0.57545636421E+03  0.15850831297E+04  0.50400001928E-02 0.  1.
</event>
<event>
 5   0  0.1817566E-07  0.2999279E+04  0.7818609E-02  0.8243937E-01
       -2   -1    0    0    0  501  0.00000000000E+00  0.00000000000E+00  0.12928789122E+04  0.12928789122E+04  0.25500000920E-02 0.  1.
        2   -1    0    0  501    0  0.00000000000E+00  0.00000000000E+00 -0.17394654420E+04  0.17394654420E+04  0.25500000920E-02 0. -1.
    10030    2    1    2    0    0  0.00000000000E+00  0.00000000000E+00 -0.44658652986E+03  0.30323443542E+04  0.29992787056E+04 0.  0.
        1    1    3    3  502    0 -0.61424889216E+03 -0.37962958345E+03  0.11055398861E+04  0.13204691446E+04  0.50400001928E-02 0.  1.
       -1    1    3    3    0  502  0.61424889216E+03  0.37962958345E+03 -0.15521264159E+04  0.17118752096E+04  0.50400001928E-02 0. -1.
</event>
<event>
 5   0  0.6636007E-08  0.3002861E+04  0.7818609E-02  0.8242915E-01
       -1   -1    0    0    0  501  0.00000000000E+00  0.00000000000E+00  0.27637258064E+04  0.27637258064E+04  0.50400001928E-02 0. -1.
        1   -1    0    0  501    0  0.00000000000E+00  0.00000000000E+00 -0.81567166240E+03  0.81567166241E+03  0.50400001928E-02 0.  1.
    10030    2    1    2    0    0  0.00000000000E+00  0.00000000000E+00  0.19480541440E+04  0.35793974688E+04  0.30028605182E+04 0.  0.
        2    1    3    3  502    0 -0.12783452414E+03 -0.10103605189E+04 -0.34102200896E+03  0.10739953698E+04  0.25500000920E-02 0.  1.
       -2    1    3    3    0  502  0.12783452414E+03  0.10103605189E+04  0.22890761529E+04  0.25054020990E+04  0.25500000920E-02 0. -1.
</event>
<event>
 5   0  0.6679022E-08  0.3000458E+04  0.7818609E-02  0.8243600E-01
       -1   -1    0    0    0  501  0.00000000000E+00  0.00000000000E+00  0.78962114074E+03  0.78962114075E+03  0.50400001928E-02 0. -1.
        1   -1    0    0  501    0  0.00000000000E+00  0.00000000000E+00 -0.28503375584E+04  0.28503375584E+04  0.50400001928E-02 0.  1.
    10030    2    1    2    0    0  0.00000000000E+00  0.00000000000E+00 -0.20607164176E+04  0.36399586991E+04  0.30004578280E+04 0.  0.
        3    1    3    3  502    0 -0.88025489964E+03  0.10964510342E+04 -0.39576803391E+03  0.14607141765E+04  0.10100000352E+00 0.  1.
       -3    1    3    3    0  502  0.88025489964E+03 -0.10964510342E+04 -0.16649483837E+04  0.21792445226E+04  0.10100000352E+00 0. -1.
</event>
<event>
 5   0  0.6464436E-08  0.2999047E+04  0.7818609E-02  0.8244003E-01
       -1   -1    0    0    0  501  0.00000000000E+00  0.00000000000E+00  0.12023469692E+04  0.12023469692E+04  0.50400001928E-02 0.  1.
        1   -1    0    0  501    0  0.00000000000E+00  0.00000000000E+00 -0.18701515286E+04  0.18701515286E+04  0.50400001928E-02 0. -1.
    10030    2    1    2    0    0  0.00000000000E+00  0.00000000000E+00 -0.66780455943E+03  0.30724984978E+04  0.29990471969E+04 0.  0.
        5    1    3    3  502    0  0.51919659916E+02  0.69146634399E+03 -0.16960244047E+04  0.18323051676E+04  0.46999998093E+01 0. -1.
       -5    1    3    3    0  502 -0.51919659916E+02 -0.69146634399E+03  0.10282198453E+04  0.12401933302E+04  0.46999998093E+01 0.  1.
</event>
<event>
 5   0  0.6636007E-08  0.3002201E+04  0.7818609E-02  0.8243103E-01
        1   -1    0    0  501    0  0.00000000000E+00  0.00000000000E+00  0.18311569877E+04  0.18311569877E+04  0.50400001928E-02 0. -1.
       -1   -1    0    0    0  501  0.00000000000E+00  0.00000000000E+00 -0.12305345689E+04  0.12305345689E+04  0.50400001928E-02 0.  1.
    10030    2    1    2    0    0  0.00000000000E+00  0.00000000000E+00  0.60062241880E+03  0.30616915566E+04  0.30022005093E+04 0.  0.
        2    1    3    3  502    0 -0.48467393600E+03  0.10374377077E+03  0.17452971506E+04  0.18143135722E+04  0.25500000920E-02 0. -1.
       -2    1    3    3    0  502  0.48467393600E+03 -0.10374377077E+03 -0.11446747318E+04  0.12473779844E+04  0.25500000920E-02 0.  1.
</event>
<event>
 5   0  0.1810055E-07  0.3001102E+04  0.7818609E-02  0.8243416E-01
       -2   -1    0    0    0  501  0.00000000000E+00  0.00000000000E+00  0.13146994526E+04  0.13146994526E+04  0.25500000920E-02 0. -1.
        2   -1    0    0  501    0  0.00000000000E+00  0.00000000000E+00 -0.17126756015E+04  0.17126756015E+04  0.25500000920E-02 0.  1.
    10030    2    1    2    0    0  0.00000000000E+00  0.00000000000E+00 -0.39797614888E+03  0.30273750541E+04  0.30011022480E+04 0.  0.
        4    1    3    3  502    0 -0.13923450555E+04  0.52501502665E+03 -0.39403675720E+03  0.15393284609E+04  0.12699999809E+01 0.  1.
       -4    1    3    3    0  502  0.13923450555E+04 -0.52501502665E+03 -0.39393916866E+01  0.14880465932E+04  0.12699999809E+01 0. -1.
</event>
<event>
 5   0  0.6525507E-08  0.3000034E+04  0.7818609E-02  0.8243721E-01
       -1   -1    0    0    0  501  0.00000000000E+00  0.00000000000E+00  0.14934376770E+04  0.14934376770E+04  0.50400001928E-02 0.  1.
        1   -1    0    0  501    0  0.00000000000E+00  0.00000000000E+00 -0.15066251094E+04  0.15066251094E+04  0.50400001928E-02 0. -1.
    10030    2    1    2    0    0  0.00000000000E+00  0.00000000000E+00 -0.13187432403E+02  0.30000627864E+04  0.30000338021E+04 0.  0.
        4    1    3    3  502    0 -0.14328480780E+04 -0.35288532103E+03  0.26260663010E+03  0.14988480642E+04  0.12699999809E+01 0. -1.
       -4    1    3    3    0  502  0.14328480780E+04  0.35288532103E+03 -0.27579406251E+03  0.15012147222E+04  0.12699999809E+01 0.  1.
</event>
<event>
 5   0  0.6464436E-08  0.3001455E+04  0.7818609E-02  0.8243316E-01
       -1   -1    0    0    0  501  0.00000000000E+00  0.00000000000E+00  0.14092748331E+04  0.14092748331E+04  0.50400001928E-02 0.  1.
        1   -1    0    0  501    0  0.00000000000E+00  0.00000000000E+00 -0.15981146975E+04  0.15981146975E+04  0.50400001928E-02 0. -1.
    10030    2    1    2    0    0  0.00000000000E+00  0.00000000000E+00 -0.18883986442E+03  0.30073895306E+04  0.30014548630E+04 0.  0.
        5    1    3    3  502    0  0.52163441201E+03 -0.10734066437E+04  0.81724528520E+03  0.14464495251E+04  0.46999998093E+01 0.  1.
       -5    1    3    3    0  502 -0.52163441201E+03  0.10734066437E+04 -0.10060851496E+04  0.15609400055E+04  0.46999998093E+01 0. -1.
</event>
<event>
 5   0  0.6636007E-08  0.3000309E+04  0.7818609E-02  0.8243643E-01
        1   -1    0    0  501    0  0.00000000000E+00  0.00000000000E+00  0.24453729158E+04  0.24453729158E+04  0.50400001928E-02 0.  1.
       -1   -1    0    0    0  501  0.00000000000E+00  0.00000000000E+00 -0.92029471749E+03  0.92029471750E+03  0.50400001928E-02 0. -1.
    10030    2    1    2    0    0  0.00000000000E+00  0.00000000000E+00  0.15250781983E+04  0.33656676333E+04  0.30003091686E+04 0.  0.
        2    1    3    3  502    0  0.81289271345E+03 -0.21866501384E+03  0.21554616170E+04  0.23140059927E+04  0.25500000920E-02 0. -1.
       -2    1    3    3    0  502 -0.81289271345E+03  0.21866501384E+03 -0.63038341866E+03  0.10516616406E+04  0.25500000920E-02 0.  1.
</event>
<event>
 5   0  0.1817566E-07  0.3003269E+04  0.7818609E-02  0.8242798E-01
       -2   -1    0    0    0  501  0.00000000000E+00  0.00000000000E+00  0.25812632069E+04  0.25812632069E+04  0.25500000920E-02 0.  1.
        2   -1    0    0  501    0  0.00000000000E+00  0.00000000000E+00 -0.87356676310E+03  0.87356676310E+03  0.25500000920E-02 0. -1.
    10030    2    1    2    0    0  0.00000000000E+00  0.00000000000E+00  0.17076964438E+04  0.34548299700E+04  0.30032687155E+04 0.  0.
        1    1    3    3  502    0  0.14388294471E+02 -0.14846576858E+04  0.59536261598E+03  0.15996474960E+04  0.50400001928E-02 0. -1.
       -1    1    3    3    0  502 -0.14388294471E+02  0.14846576858E+04  0.11123338278E+04  0.18551824739E+04  0.50400001928E-02 0.  1.
</event>
<event>
 5   0  0.1813720E-07  0.2999887E+04  0.7818609E-02  0.8243763E-01
       -2   -1    0    0    0  501  0.00000000000E+00  0.00000000000E+00  0.75381519349E+03  0.75381519349E+03  0.25500000920E-02 0. -1.
        2   -1    0    0  501    0  0.00000000000E+00  0.00000000000E+00 -0.29845912056E+04  0.29845912056E+04  0.25500000920E-02 0.  1.
    10030    2    1    2    0    0  0.00000000000E+00  0.00000000000E+00 -0.22307760122E+04  0.37384063991E+04  0.29998867960E+04 0.  0.
        3    1    3    3  502    0  0.37699204812E+03  0.10631062740E+04  0.11670288113E+03  0.11339918548E+04  0.10100000352E+00 0. -1.
       -3    1    3    3    0  502 -0.37699204812E+03 -0.10631062740E+04 -0.23474788933E+04  0.26044145443E+04  0.10100000352E+00 0.  1.
</event>
<event>
 5   0  0.1813720E-07  0.3000509E+04  0.7818609E-02  0.8243585E-01
        2   -1    0    0  501    0  0.00000000000E+00  0.00000000000E+00  0.14020751325E+04  0.14020751325E+04  0.25500000920E-02 0.  1.
       -2   -1    0    0    0  501  0.00000000000E+00  0.00000000000E+00 -0.16053092920E+04  0.16053092920E+04  0.25500000920E-02 0. -1.
    10030    2    1    2    0    0  0.00000000000E+00  0.00000000000E+00 -0.20323415956E+03  0.30073844245E+04  0.30005094490E+04 0.  0.
        3    1    3    3  502    0  0.22945810780E+03 -0.62071767234E+03  0.12478789832E+04  0.14124954580E+04  0.10100000352E+00 0.  1.
       -3    1    3    3    0  502 -0.22945810780E+03  0.62071767234E+03 -0.14511131428E+04  0.15948889665E+04  0.10100000352E+00 0. -1.
</event>
<event>
 5   0  0.6525507E-08  0.2997794E+04  0.7818609E-02  0.8244361E-01
        1   -1    0    0  501    0  0.00000000000E+00  0.00000000000E+00  0.17771432754E+04  0.17771432754E+04  0.50400001928E-02 0. -1.
       -1   -1    0    0    0  501  0.00000000000E+00  0.00000000000E+00 -0.12642156921E+04  0.12642156921E+04  0.50400001928E-02 0.  1.
    10030    2    1    2    0    0  0.00000000000E+00  0.00000000000E+00  0.51292758334E+03  0.30413589675E+04  0.29977941330E+04 0.  0.
        4    1    3    3  502    0 -0.43809060845E+03  0.11509617063E+04 -0.61038538242E+03  0.13744846884E+04  0.12699999809E+01 0.  1.
       -4    1    3    3    0  502  0.43809060845E+03 -0.11509617063E+04  0.11233129658E+04  0.16668742792E+04  0.12699999809E+01 0. -1.
</event>
<event>
 5   0  0.1817566E-07  0.3012181E+04  0.7818609E-02  0.8240261E-01
        2   -1    0    0  501    0  0.00000000000E+00  0.00000000000E+00  0.11286868955E+04  0.11286868955E+04  0.25500000920E-02 0.  1.
       -2   -1    0    0    0  501  0.00000000000E+00  0.00000000000E+00 -0.20096875941E+04  0.20096875941E+04  0.25500000920E-02 0. -1.
    10030    2    1    2    0    0  0.00000000000E+00  0.00000000000E+00 -0.88100069862E+03  0.31383744896E+04  0.30121806397E+04 0.  0.
        1    1    3    3  502    0  0.54538498678E+03  0.48686729968E+03  0.93141146053E+03  0.11840658175E+04  0.50400001928E-02 0.  1.
       -1    1    3    3    0  502 -0.54538498678E+03 -0.48686729968E+03 -0.18124121591E+04  0.19543086721E+04  0.50400001928E-02 0. -1.
</event>
<event>
 5   0  0.6636007E-08  0.2999957E+04  0.7818609E-02  0.8243743E-01
        1   -1    0    0  501    0  0.00000000000E+00  0.00000000000E+00  0.16378543539E+04  0.16378543539E+04  0.50400001928E-02 0.  1.
       -1   -1    0    0    0  501  0.00000000000E+00  0.00000000000E+00 -0.13737094045E+04  0.13737094045E+04  0.50400001928E-02 0. -1.
    10030    2    1    2    0    0  0.00000000000E+00  0.00000000000E+00  0.26414494943E+03  0.30115637584E+04  0.29999572858E+04 0.  0.
        2    1    3    3  502    0  0.89716246221E+03 -0.11401591737E+04 -0.25028496511E+03  0.14722452203E+04  0.25500000920E-02 0. -1.
       -2    1    3    3    0  502 -0.89716246221E+03  0.11401591737E+04  0.51442991454E+03  0.15393185381E+04  0.25500000920E-02 0.  1.
</event>
<event>
 5   0  0.6374748E-08  0.3000747E+04  0.7818609E-02  0.8243518E-01
        1   -1    0    0  501    0  0.00000000000E+00  0.00000000000E+00  0.16107947766E+04  0.16107947766E+04  0.50400001928E-02 0.  1.
       -1   -1    0    0    0  501  0.00000000000E+00  0.00000000000E+00 -0.13975212988E+04  0.13975212988E+04  0.50400001928E-02 0. -1.
    10030    2    1    2    0    0  0.00000000000E+00  0.00000000000E+00  0.21327347777E+03  0.30083160754E+04  0.30007465793E+04 0.  0.
        1    1    3    3  502    0 -0.71197681216E+03 -0.13116453705E+04 -0.48010118388E+02  0.14931944048E+04  0.50400001928E-02 0. -1.
       -1    1    3    3    0  502  0.71197681216E+03  0.13116453705E+04  0.26128359616E+03  0.15151216706E+04  0.50400001928E-02 0.  1.
</event>
<event>
 5   0  0.6464436E-08  0.2999876E+04  0.7818609E-02  0.8243766E-01
       -1   -1    0    0    0  501  0.00000000000E+00  0.00000000000E+00  0.11734974436E+04  0.11734974436E+04  0.50400001928E-02 0.  1.
        1   -1    0    0  501    0  0.00000000000E+00  0.00000000000E+00 -0.19171869657E+04  0.19171869657E+04  0.50400001928E-02 0. -1.
    10030    2    1    2    0    0  0.00000000000E+00  0.00000000000E+00 -0.74368952217E+03  0.30906844093E+04  0.29998759996E+04 0.  0.
        5    1    3    3  502    0  0.13007305103E+04  0.71801163134E+03 -0.15982077864E+03  0.14943243739E+04  0.46999998093E+01 0.  1.
       -5    1    3    3    0  502 -0.13007305103E+04 -0.71801163134E+03 -0.58386874353E+03  0.15963600354E+04  0.46999998093E+01 0. -1.
</event>
<event>
 5   0  0.1821305E-07  0.3000291E+04  0.7818609E-02  0.8243648E-01
        2   -1    0    0  501    0  0.00000000000E+00  0.00000000000E+00  0.17028024823E+04  0.17028024823E+04  0.25500000920E-02 0. -1.
       -2   -1    0    0    0  501  0.00000000000E+00  0.00000000000E+00 -0.13216071598E+04  0.13216071598E+04  0.25500000920E-02 0.  1.
    10030    2    1    2    0    0  0.00000000000E+00  0.00000000000E+00  0.38119532244E+03  0.30244096421E+04  0.30002906208E+04 0.  0.
        2    1    3    3  502    0  0.77453975903E+03  0.59412402758E+03  0.13388512019E+04  0.16569302156E+04  0.25500000920E-02 0. -1.
       -2    1    3    3    0  502 -0.77453975903E+03 -0.59412402758E+03 -0.95765587948E+03  0.13674794265E+04  0.25500000920E-02 0.  1.
</event>
<event>
 5   0  0.1817566E-07  0.3003678E+04  0.7818609E-02  0.8242682E-01
       -2   -1    0    0    0  501  0.00000000000E+00  0.00000000000E+00  0.16548058115E+04  0.16548058115E+04  0.25500000920E-02 0.  1.
        2   -1    0    0  501    0  0.00000000000E+00  0.00000000000E+00 -0.13630116949E+04  0.13630116949E+04  0.25500000920E-02 0. -1.
    10030    2    1    2    0    0  0.00000000000E+00  0.00000000000E+00  0.29179411659E+03  0.30178175064E+04  0.30036775285E+04 0.  0.
        1    1    3    3  502    0  0.51333891371E+03 -0.84411040308E+03 -0.99056907208E+03  0.13990233377E+04  0.50400001928E-02 0. -1.
       -1    1    3    3    0  502 -0.51333891371E+03  0.84411040308E+03  0.12823631887E+04  0.16187941687E+04  0.50400001928E-02 0.  1.
</event>
<event>
 5   0  0.1813720E-07  0.2999912E+04  0.7818609E-02  0.8243756E-01
        2   -1    0    0  501    0  0.00000000000E+00  0.00000000000E+00  0.17012263132E+04  0.17012263132E+04  0.25500000920E-02 0. -1.
       -2   -1    0    0    0  501  0.00000000000E+00  0.00000000000E+00 -0.13224975290E+04  0.13224975290E+04  0.25500000920E-02 0.  1.
    10030    2    1    2    0    0  0.00000000000E+00  0.00000000000E+00  0.37872878420E+03  0.30237238422E+04  0.29999117290E+04 0.  0.
        3    1    3    3  502    0 -0.10304125328E+03  0.13512731277E+04  0.83736011706E+03  0.15930249657E+04  0.10100000352E+00 0. -1.
       -3    1    3    3    0  502  0.10304125328E+03 -0.13512731277E+04 -0.45863133286E+03  0.14306988765E+04  0.10100000352E+00 0.  1.
</event>
<event>
 5   0  0.6017625E-08  0.2999999E+04  0.7818609E-02  0.8243731E-01
       -3   -1    0    0    0  501  0.00000000000E+00  0.00000000000E+00  0.15670100376E+04  0.15670100408E+04  0.10100000352E+00 0. -1.
        3   -1    0    0  501    0  0.00000000000E+00  0.00000000000E+00 -0.14358542760E+04  0.14358542795E+04  0.10100000352E+00 0.  1.
    10030    2    1    2    0    0  0.00000000000E+00  0.00000000000E+00  0.13115576160E+03  0.30028643203E+04  0.29999987154E+04 0.  0.
        3    1    3    3  502    0 -0.13903262693E+04 -0.55495411479E+03  0.16062572310E+03  0.15055835539E+04  0.10100000352E+00 0. -1.
       -3    1    3    3    0  502  0.13903262693E+04  0.55495411479E+03 -0.29469961505E+02  0.14972807664E+04  0.10100000352E+00 0.  1.
</event>
<event>
 5   0  0.6636007E-08  0.3000375E+04  0.7818609E-02  0.8243624E-01
       -1   -1    0    0    0  501  0.00000000000E+00  0.00000000000E+00  0.91474440671E+03  0.91474440672E+03  0.50400001928E-02 0.  1.
        1   -1    0    0  501    0  0.00000000000E+00  0.00000000000E+00 -0.24603187882E+04  0.24603187882E+04  0.50400001928E-02 0. -1.
    10030    2    1    2    0    0  0.00000000000E+00  0.00000000000E+00 -0.15455743815E+04  0.33750631949E+04  0.30003752100E+04 0.  0.
        2    1    3    3  502    0  0.41444826240E+03  0.37595259657E+03  0.79296189758E+03  0.97051341469E+03  0.25500000920E-02 0.  1.
       -2    1    3    3    0  502 -0.41444826240E+03 -0.37595259657E+03 -0.23385362791E+04  0.24045497802E+04  0.25500000920E-02 0. -1.
</event>
<event>
 5   0  0.1810055E-07  0.2999469E+04  0.7818609E-02  0.8243882E-01
       -2   -1    0    0    0  501  0.00000000000E+00  0.00000000000E+00  0.93990562010E+03  0.93990562010E+03  0.25500000920E-02 0. -1.
        2   -1    0    0  501    0  0.00000000000E+00  0.00000000000E+00 -0.23930108125E+04  0.23930108125E+04  0.25500000920E-02 0.  1.
    10030    2    1    2    0    0  0.00000000000E+00  0.00000000000E+00 -0.14531051924E+04  0.33329164326E+04  0.29994694942E+04 0.  0.
        4    1    3    3  502    0 -0.31709931484E+03  0.22951405363E+03 -0.23352446740E+04  0.23678255799E+04  0.12699999809E+01 0.  1.
       -4    1    3    3    0  502  0.31709931484E+03 -0.22951405363E+03  0.88213948156E+03  0.96509085278E+03  0.12699999809E+01 0. -1.
</event>
<event>
 5   0  0.1817566E-07  0.3000244E+04  0.7818609E-02  0.8243661E-01
        2   -1    0    0  501    0  0.00000000000E+00  0.00000000000E+00  0.25204895917E+04  0.25204895917E+04  0.25500000920E-02 0. -1.
       -2   -1    0    0    0  501  0.00000000000E+00  0.00000000000E+00 -0.89282876315E+03  0.89282876315E+03  0.25500000920E-02 0.  1.
    10030    2    1    2    0    0  0.00000000000E+00  0.00000000000E+00  0.16276608285E+04  0.34133183548E+04  0.30002437265E+04 0.  0.
        1    1    3    3  502    0 -0.50305726364E+03 -0.89245379763E+03  0.20605252453E+04  0.23011529019E+04  0.50400001928E-02 0. -1.
       -1    1    3    3    0  502  0.50305726364E+03  0.89245379763E+03 -0.43286441675E+03  0.11121654529E+04  0.50400001928E-02 0.  1.
</event>
<event>
 5   0  0.6374748E-08  0.2999411E+04  0.7818609E-02  0.8243899E-01
        1   -1    0    0  501    0  0.00000000000E+00  0.00000000000E+00  0.19312306588E+04  0.19312306588E+04  0.50400001928E-02 0. -1.
       -1   -1    0    0    0  501  0.00000000000E+00  0.00000000000E+00 -0.11646031626E+04  0.11646031626E+04  0.50400001928E-02 0.  1.
    10030    2    1    2    0    0  0.00000000000E+00  0.00000000000E+00  0.76662749622E+03  0.30958338215E+04  0.29994114976E+04 0.  0.
        1    1    3    3  502    0  0.11096207006E+04 -0.88142352464E+03 -0.12333465681E+03  0.14224545570E+04  0.50400001928E-02 0.  1.
       -1    1    3    3    0  502 -0.11096207006E+04  0.88142352464E+03  0.88996215303E+03  0.16733792645E+04  0.50400001928E-02 0. -1.
</event>
<event>
 5   0  0.6464436E-08  0.3001263E+04  0.7818609E-02  0.8243370E-01
       -1   -1    0    0    0  501  0.00000000000E+00  0.00000000000E+00  0.21734905969E+04  0.21734905969E+04  0.50400001928E-02 0. -1.
        1   -1    0    0  501    0  0.00000000000E+00  0.00000000000E+00 -0.10360727785E+04  0.10360727785E+04  0.50400001928E-02 0.  1.
    10030    2    1    2    0    0  0.00000000000E+00  0.00000000000E+00  0.11374178184E+04  0.32095633754E+04  0.30012626954E+04 0.  0.
        5    1    3    3  502    0 -0.59033626323E+03  0.12632432288E+04  0.11618110047E+04  0.18149675643E+04  0.46999998093E+01 0. -1.
       -5    1    3    3    0  502  0.59033626323E+03 -0.12632432288E+04 -0.24393186260E+02  0.13945958111E+04  0.46999998093E+01 0.  1.
</event>
<event>
 5   0  0.1914439E-07  0.3004364E+04  0.7818609E-02  0.8242486E-01
       -2   -1    0    0    0  501  0.00000000000E+00  0.00000000000E+00  0.15854206729E+04  0.15854206729E+04  0.25500000920E-02 0. -1.
        2   -1    0    0  501    0  0.00000000000E+00  0.00000000000E+00 -0.14233138665E+04  0.14233138665E+04  0.25500000920E-02 0.  1.
    10030    2    1    2    0    0  0.00000000000E+00  0.00000000000E+00  0.16210680631E+03  0.30087345394E+04  0.30043643108E+04 0.  0.
        5    1    3    3  502    0 -0.56946070484E+03 -0.40748053788E+02  0.14725288362E+04  0.15793382037E+04  0.46999998093E+01 0. -1.
       -5    1    3    3    0  502  0.56946070484E+03  0.40748053788E+02 -0.13104220299E+04  0.14293963357E+04  0.46999998093E+01 0.  1.
</event>
<event>
 5   0  0.1914439E-07  0.3001401E+04  0.7818609E-02  0.8243331E-01
       -2   -1    0    0    0  501  0.00000000000E+00  0.00000000000E+00  0.15222904857E+04  0.15222904857E+04  0.25500000920E-02 0.  1.
        2   -1    0    0  501    0  0.00000000000E+00  0.00000000000E+00 -0.14794167977E+04  0.14794167977E+04  0.25500000920E-02 0. -1.
    10030    2    1    2    0    0  0.00000000000E+00  0.00000000000E+00  0.42873688094E+02  0.30017072834E+04  0.30014010832E+04 0.  0.
        5    1    3    3  502    0 -0.51340069226E+03  0.16616126716E+03 -0.13790239033E+04  0.14808507195E+04  0.46999998093E+01 0. -1.
       -5    1    3    3    0  502  0.51340069226E+03 -0.16616126716E+03  0.14218975914E+04  0.15208565639E+04  0.46999998093E+01 0.  1.
</event>
<event>
 5   0  0.1914439E-07  0.2997607E+04  0.7818609E-02  0.8244415E-01
       -2   -1    0    0    0  501  0.00000000000E+00  0.00000000000E+00  0.92882290827E+03  0.92882290828E+03  0.25500000920E-02 0.  1.
        2   -1    0    0  501    0  0.00000000000E+00  0.00000000000E+00 -0.24185580047E+04  0.24185580047E+04  0.25500000920E-02 0. -1.
    10030    2    1    2    0    0  0.00000000000E+00  0.00000000000E+00 -0.14897350964E+04  0.33473809130E+04  0.29976070988E+04 0.  0.
        5    1    3    3  502    0 -0.12061102709E+04 -0.11392311729E+02  0.24864157217E+03  0.12315342025E+04  0.46999998093E+01 0.  1.
       -5    1    3    3    0  502  0.12061102709E+04  0.11392311729E+02 -0.17383766686E+04  0.21158467105E+04  0.46999998093E+01 0. -1.
</event>
<event>
 5   0  0.1810055E-07  0.3001893E+04  0.7818609E-02  0.8243190E-01
        2   -1    0    0  501    0  0.00000000000E+00  0.00000000000E+00  0.16899127377E+04  0.16899127377E+04  0.25500000920E-02 0. -1.
       -2   -1    0    0    0  501  0.00000000000E+00  0.00000000000E+00 -0.13331107461E+04  0.13331107461E+04  0.25500000920E-02 0.  1.
    10030    2    1    2    0    0  0.00000000000E+00  0.00000000000E+00  0.35680199165E+03  0.30230234838E+04  0.30018932896E+04 0.  0.
        4    1    3    3  502    0  0.90705483094E+03  0.33327018762E+03  0.13349718575E+04  0.16480197079E+04  0.12699999809E+01 0. -1.
       -4    1    3    3    0  502 -0.90705483094E+03 -0.33327018762E+03 -0.97816986589E+03  0.13750037759E+04  0.12699999809E+01 0.  1.
</event>
<event>
 5   0  0.1810055E-07  0.3000027E+04  0.7818609E-02  0.8243723E-01
        2   -1    0    0  501    0  0.00000000000E+00  0.00000000000E+00  0.25130793200E+04  0.25130793201E+04  0.25500000920E-02 0.  1.
       -2   -1    0    0    0  501  0.00000000000E+00  0.00000000000E+00 -0.89533210964E+03  0.89533210964E+03  0.25500000920E-02 0. -1.
    10030    2    1    2    0    0  0.00000000000E+00  0.00000000000E+00  0.16177472104E+04  0.34084114297E+04  0.30000270728E+04 0.  0.
        4    1    3    3  502    0 -0.39538465518E+03  0.75235811996E+03  0.22131132193E+04  0.23707052749E+04  0.12699999809E+01 0.  1.
       -4    1    3    3    0  502  0.39538465518E+03 -0.75235811996E+03 -0.59536600888E+03  0.10377061548E+04  0.12699999809E+01 0. -1.
</event>
<event>
 5   0  0.6464436E-08  0.2999430E+04  0.7818609E-02  0.8243894E-01
        1   -1    0    0  501    0  0.00000000000E+00  0.00000000000E+00  0.17685067161E+04  0.17685067161E+04  0.50400001928E-02 0. -1.
       -1   -1    0    0    0  501  0.00000000000E+00  0.00000000000E+00 -0.12717766557E+04  0.12717766558E+04  0.50400001928E-02 0.  1.
    10030    2    1    2    0    0  0.00000000000E+00  0.00000000000E+00  0.49673006036E+03  0.30402833719E+04  0.29994303173E+04 0.  0.
        5    1    3    3  502    0 -0.12734734966E+04  0.11310121684E+03 -0.54627501504E+03  0.13903111572E+04  0.46999998093E+01 0.  1.
       -5    1    3    3    0  502  0.12734734966E+04 -0.11310121684E+03  0.10430050754E+04  0.16499722147E+04  0.46999998093E+01 0. -1.
</event>
<event>
 5   0  0.1813720E-07  0.3000643E+04  0.7818609E-02  0.8243547E-01
        2   -1    0    0  501    0  0.00000000000E+00  0.00000000000E+00  0.16332707424E+04  0.16332707424E+04  0.25500000920E-02 0. -1.
       -2   -1    0    0    0  501  0.00000000000E+00  0.00000000000E+00 -0.13781943305E+04  0.13781943305E+04  0.25500000920E-02 0.  1.
    10030    2    1    2    0    0  0.00000000000E+00  0.00000000000E+00  0.25507641191E+03  0.30114650730E+04  0.30006429161E+04 0.  0.
        3    1    3    3  502    0  0.10566923231E+04  0.93301241507E+03 -0.38798124355E+03  0.14620671284E+04  0.10100000352E+00 0.  1.
       -3    1    3    3    0  502 -0.10566923231E+04 -0.93301241507E+03  0.64305765546E+03  0.15493979446E+04  0.10100000352E+00 0. -1.
</event>
<event>
 5   0  0.1821305E-07  0.3000182E+04  0.7818609E-02  0.8243679E-01
       -2   -1    0    0    0  501  0.00000000000E+00  0.00000000000E+00  0.11083605314E+04  0.11083605314E+04  0.25500000920E-02 0. -1.
        2   -1    0    0  501    0  0.00000000000E+00  0.00000000000E+00 -0.20302719850E+04  0.20302719850E+04  0.25500000920E-02 0.  1.
    10030    2    1    2    0    0  0.00000000000E+00  0.00000000000E+00 -0.92191145355E+03  0.31386325164E+04  0.30001822186E+04 0.  0.
        2    1    3    3  502    0 -0.26326938059E+03  0.60474841065E+03  0.94852809142E+03  0.11553081611E+04  0.25500000920E-02 0. -1.
       -2    1    3    3    0  502  0.26326938059E+03 -0.60474841065E+03 -0.18704395450E+04  0.19833243553E+04  0.25500000920E-02 0.  1.
</event>
<event>
 5   0  0.6679022E-08  0.2999390E+04  0.7818609E-02  0.8243905E-01
        1   -1    0    0  501    0  0.00000000000E+00  0.00000000000E+00  0.17310328667E+04  0.17310328667E+04  0.50400001928E-02 0. -1.
       -1   -1    0    0    0  501  0.00000000000E+00  0.00000000000E+00 -0.12992732607E+04  0.12992732607E+04  0.50400001928E-02 0.  1.
    10030    2    1    2    0    0  0.00000000000E+00  0.00000000000E+00  0.43175960600E+03  0.30303061273E+04  0.29993897493E+04 0.  0.
        3    1    3    3  502    0 -0.72980846851E+02 -0.10598813081E+04  0.12852845601E+04  0.16675224142E+04  0.10100000352E+00 0. -1.
       -3    1    3    3    0  502  0.72980846851E+02  0.10598813081E+04 -0.85352495406E+03  0.13627837131E+04  0.10100000352E+00 0.  1.
</event>
<event>
 5   0  0.1914439E-07  0.2981145E+04  0.7818609E-02  0.8249136E-01
       -2   -1    0    0    0  501  0.00000000000E+00  0.00000000000E+00  0.10072555175E+04  0.10072555175E+04  0.25500000920E-02 0. -1.
        2   -1    0    0  501    0  0.00000000000E+00  0.00000000000E+00 -0.22058019090E+04  0.22058019090E+04  0.25500000920E-02 0.  1.
    10030    2    1    2    0    0  0.00000000000E+00  0.00000000000E+00 -0.11985463914E+04  0.32130574265E+04  0.29811448428E+04 0.  0.
        5    1    3    3  502    0 -0.44722087564E+03 -0.11665395381E+04 -0.14755150638E+04  0.19333876484E+04  0.46999998093E+01 0.  1.
       -5    1    3    3    0  502  0.44722087564E+03  0.11665395381E+04  0.27696867239E+03  0.12796697781E+04  0.46999998093E+01 0. -1.
</event>
<event>
 5   0  0.1821305E-07  0.3001026E+04  0.7818609E-02  0.8243438E-01
       -2   -1    0    0    0  501  0.00000000000E+00  0.00000000000E+00  0.20178786546E+04  0.20178786546E+04  0.25500000920E-02 0. -1.
        2   -1    0    0  501    0  0.00000000000E+00  0.00000000000E+00 -0.11157950524E+04  0.11157950524E+04  0.25500000920E-02 0.  1.
    10030    2    1    2    0    0  0.00000000000E+00  0.00000000000E+00  0.90208360214E+03  0.31336737070E+04  0.30010258374E+04 0.  0.
        2    1    3    3  502    0  0.62392302133E+03  0.37453338420E+03 -0.91920429447E+03  0.11723871918E+04  0.25500000920E-02 0.  1.
       -2    1    3    3    0  502 -0.62392302133E+03 -0.37453338420E+03  0.18212878966E+04  0.19612865152E+04  0.25500000920E-02 0. -1.
</event>
<event>
 5   0  0.6374748E-08  0.3001155E+04  0.7818609E-02  0.8243401E-01
        1   -1    0    0  501    0  0.00000000000E+00  0.00000000000E+00  0.13031016121E+04  0.13031016121E+04  0.50400001928E-02 0.  1.
       -1   -1    0    0    0  501  0.00000000000E+00  0.00000000000E+00 -0.17279790730E+04  0.17279790730E+04  0.50400001928E-02 0. -1.
    10030    2    1    2    0    0  0.00000000000E+00  0.00000000000E+00 -0.42487746092E+03  0.30310806851E+04  0.30011546549E+04 0.  0.
        1    1    3    3  502    0 -0.14767124494E+04  0.11981880426E+03  0.28045032048E+02  0.14818308703E+04  0.50400001928E-02 0.  1.
       -1    1    3    3    0  502  0.14767124494E+04 -0.11981880426E+03 -0.45292249297E+03  0.15492498149E+04  0.50400001928E-02 0. -1.
</event>
<event>
 5   0  0.1914439E-07  0.2997327E+04  0.7818609E-02  0.8244495E-01
       -2   -1    0    0    0  501  0.00000000000E+00  0.00000000000E+00  0.91220319645E+03  0.91220319645E+03  0.25500000920E-02 0. -1.
        2   -1    0    0  501    0  0.00000000000E+00  0.00000000000E+00 -0.24621626341E+04  0.24621626341E+04  0.25500000920E-02 0.  1.
    10030    2    1    2    0    0  0.00000000000E+00  0.00000000000E+00 -0.15499594377E+04  0.33743658306E+04  0.29973272261E+04 0.  0.
        5    1    3    3  502    0  0.10927048598E+04 -0.32423860178E+03 -0.18704368237E+04  0.21903631167E+04  0.46999998093E+01 0.  1.
       -5    1    3    3    0  502 -0.10927048598E+04  0.32423860178E+03  0.32047738606E+03  0.11840027139E+04  0.46999998093E+01 0. -1.
</event>
<event>
 5   0  0.1914439E-07  0.2991758E+04  0.7818609E-02  0.8246088E-01
        2   -1    0    0  501    0  0.00000000000E+00  0.00000000000E+00  0.24240396749E+04  0.24240396749E+04  0.25500000920E-02 0. -1.
       -2   -1    0    0    0  501  0.00000000000E+00  0.00000000000E+00 -0.92310934943E+03  0.92310934943E+03  0.25500000920E-02 0.  1.
    10030    2    1    2    0    0  0.00000000000E+00  0.00000000000E+00  0.15009303255E+04  0.33471490244E+04  0.29917578026E+04 0.  0.
        5    1    3    3  502    0 -0.49112748650E+03 -0.13396946503E+04  0.12528550324E+04  0.18988564417E+04  0.46999998093E+01 0. -1.
       -5    1    3    3    0  502  0.49112748650E+03  0.13396946503E+04  0.24807529307E+03  0.14482925827E+04  0.46999998093E+01 0.  1.
</event>
<event>
 5   0  0.1813720E-07  0.2998970E+04  0.7818609E-02  0.8244025E-01
       -2   -1    0    0    0  501  0.00000000000E+00  0.00000000000E+00  0.12931408701E+04  0.12931408701E+04  0.25500000920E-02 0. -1.
        2   -1    0    0  501    0  0.00000000000E+00  0.00000000000E+00 -0.17387553048E+04  0.17387553048E+04  0.25500000920E-02 0.  1.
    10030    2    1    2    0    0  0.00000000000E+00  0.00000000000E+00 -0.44561443462E+03  0.30318961749E+04  0.29989701884E+04 0.  0.
        3    1    3    3  502    0 -0.79758724683E+03 -0.12671035184E+04 -0.13969271506E+03  0.15037322925E+04  0.10100000352E+00 0.  1.
       -3    1    3    3    0  502  0.79758724683E+03  0.12671035184E+04 -0.30592171956E+03  0.15281638824E+04  0.10100000352E+00 0. -1.
</event>
<event>
 5   0  0.6636007E-08  0.3001106E+04  0.7818609E-02  0.8243415E-01
       -1   -1    0    0    0  501  0.00000000000E+00  0.00000000000E+00  0.14994396396E+04  0.14994396396E+04  0.50400001928E-02 0.  1.
        1   -1    0    0  501    0  0.00000000000E+00  0.00000000000E+00 -0.15016670829E+04  0.15016670829E+04  0.50400001928E-02 0. -1.
    10030    2    1    2    0    0  0.00000000000E+00  0.00000000000E+00 -0.22274432644E+01  0.30011067225E+04  0.30011058959E+04 0.  0.
        2    1    3    3  502    0  0.77599418098E+03 -0.43772971968E+03  0.12063156454E+04  0.14996571984E+04  0.25500000920E-02 0.  1.
       -2    1    3    3    0  502 -0.77599418098E+03  0.43772971968E+03 -0.12085430886E+04  0.15014495241E+04  0.25500000920E-02 0. -1.
</event>
<event>
 5   0  0.6464436E-08  0.3000011E+04  0.7818609E-02  0.8243728E-01
       -1   -1    0    0    0  501  0.00000000000E+00  0.00000000000E+00  0.11609552629E+04  0.11609552629E+04  0.50400001928E-02 0. -1.
        1   -1    0    0  501    0  0.00000000000E+00  0.00000000000E+00 -0.19380730441E+04  0.19380730441E+04  0.50400001928E-02 0.  1.
    10030    2    1    2    0    0  0.00000000000E+00  0.00000000000E+00 -0.77711778119E+03  0.30990283070E+04  0.30000107336E+04 0.  0.
        5    1    3    3  502    0 -0.91368994374E+01  0.67454720360E+03 -0.17725154289E+04  0.18965575257E+04  0.46999998093E+01 0.  1.
       -5    1    3    3    0  502  0.91368994374E+01 -0.67454720360E+03  0.99539764769E+03  0.12024707813E+04  0.46999998093E+01 0. -1.
</event>
<event>
 5   0  0.1821305E-07  0.3000119E+04  0.7818609E-02  0.8243697E-01
       -2   -1    0    0    0  501  0.00000000000E+00  0.00000000000E+00  0.12065918714E+04  0.12065918715E+04  0.25500000920E-02 0.  1.
        2   -1    0    0  501    0  0.00000000000E+00  0.00000000000E+00 -0.18649039290E+04  0.18649039290E+04  0.25500000920E-02 0. -1.
    10030    2    1    2    0    0  0.00000000000E+00  0.00000000000E+00 -0.65831205759E+03  0.30714958005E+04  0.30001186122E+04 0.  0.
        2    1    3    3  502    0  0.30142186972E+03  0.91631292317E+03  0.84695419107E+03  0.12836728238E+04  0.25500000920E-02 0.  1.
       -2    1    3    3    0  502 -0.30142186972E+03 -0.91631292317E+03 -0.15052662487E+04  0.17878229767E+04  0.25500000920E-02 0. -1.
</event>
<event>
 5   0  0.1817566E-07  0.2999962E+04  0.7818609E-02  0.8243742E-01
        2   -1    0    0  501    0  0.00000000000E+00  0.00000000000E+00  0.21717920938E+04  0.21717920938E+04  0.25500000920E-02 0.  1.
       -2   -1    0    0    0  501  0.00000000000E+00  0.00000000000E+00 -0.10359848085E+04  0.10359848085E+04  0.25500000920E-02 0. -1.
    10030    2    1    2    0    0  0.00000000000E+00  0.00000000000E+00  0.11358072853E+04  0.32077769023E+04  0.29999624107E+04 0.  0.
        1    1    3    3  502    0 -0.10120540613E+04  0.10495743698E+04  0.19124672526E+03  0.14705220470E+04  0.50400001928E-02 0. -1.
       -1    1    3    3    0  502  0.10120540613E+04 -0.10495743698E+04  0.94456056004E+03  0.17372548553E+04  0.50400001928E-02 0.  1.
</event>
<event>
 5   0  0.6525507E-08  0.2999802E+04  0.7818609E-02  0.8243787E-01
        1   -1    0    0  501    0  0.00000000000E+00  0.00000000000E+00  0.17538159797E+04  0.17538159797E+04  0.50400001928E-02 0. -1.
       -1   -1    0    0    0  501  0.00000000000E+00  0.00000000000E+00 -0.12827477893E+04  0.12827477893E+04  0.50400001928E-02 0.  1.
    10030    2    1    2    0    0  0.00000000000E+00  0.00000000000E+00  0.47106819043E+03  0.30365637690E+04  0.29998023740E+04 0.  0.
        4    1    3    3  502    0  0.37238334882E+03 -0.32701029326E+03 -0.11974755583E+04  0.12959762405E+04  0.12699999809E+01 0.  1.
       -4    1    3    3    0  502 -0.37238334882E+03  0.32701029326E+03  0.16685437487E+04  0.17405875285E+04  0.12699999809E+01 0. -1.
</event>
<event>
 5   0  0.6679022E-08  0.3003214E+04  0.7818609E-02  0.8242814E-01
       -1   -1    0    0    0  501  0.00000000000E+00  0.00000000000E+00  0.11739388190E+04  0.11739388190E+04  0.50400001928E-02 0.  1.
        1   -1    0    0  501    0  0.00000000000E+00  0.00000000000E+00 -0.19207329033E+04  0.19207329033E+04  0.50400001928E-02 0. -1.
    10030    2    1    2    0    0  0.00000000000E+00  0.00000000000E+00 -0.74679408433E+03  0.30946717223E+04  0.30032135562E+04 0.  0.
        3    1    3    3  502    0 -0.95898393690E+03  0.50610033413E+03  0.69700313014E+03  0.12890310753E+04  0.10100000352E+00 0.  1.
       -3    1    3    3    0  502  0.95898393690E+03 -0.50610033413E+03 -0.14437972145E+04  0.18056406470E+04  0.10100000352E+00 0. -1.
</event>
<event>
 5   0  0.1821305E-07  0.3001755E+04  0.7818609E-02  0.8243230E-01
        2   -1    0    0  501    0  0.00000000000E+00  0.00000000000E+00  0.15116852686E+04  0.15116852686E+04  0.25500000920E-02 0.  1.
       -2   -1    0    0    0  501  0.00000000000E+00  0.00000000000E+00 -0.14901472245E+04  0.14901472245E+04  0.25500000920E-02 0. -1.
    10030    2    1    2    0    0  0.00000000000E+00  0.00000000000E+00  0.21538044130E+02  0.30018324930E+04  0.30017552247E+04 0.  0.
        2    1    3    3  502    0  0.11855669247E+04  0.68183331588E+02 -0.90708667331E+03  0.14943306637E+04  0.25500000920E-02 0. -1.
       -2    1    3    3    0  502 -0.11855669247E+04 -0.68183331588E+02  0.92862471744E+03  0.15075018293E+04  0.25500000920E-02 0.  1.
</event>
<event>
 5   0  0.6374748E-08  0.3001055E+04  0.7818609E-02  0.8243430E-01
        1   -1    0    0  501    0  0.00000000000E+00  0.00000000000E+00  0.13992504597E+04  0.13992504597E+04  0.50400001928E-02 0.  1.
       -1   -1    0    0    0  501  0.00000000000E+00  0.00000000000E+00 -0.16091351553E+04  0.16091351553E+04  0.50400001928E-02 0. -1.
    10030    2    1    2    0    0  0.00000000000E+00  0.00000000000E+00 -0.20988469559E+03  0.30083856149E+04  0.30010552182E+04 0.  0.
        1    1    3    3  502    0  0.18792568560E+02  0.33313020950E+03 -0.15714765531E+04  0.16065078444E+04  0.50400001928E-02 0. -1.
       -1    1    3    3    0  502 -0.18792568560E+02 -0.33313020950E+03  0.13615918575E+04  0.14018777706E+04  0.50400001928E-02 0.  1.
</event>
<event>
 5   0  0.6374748E-08  0.3001461E+04  0.7818609E-02  0.8243314E-01
       -1   -1    0    0    0  501  0.00000000000E+00  0.00000000000E+00  0.12881992554E+04  0.12881992554E+04  0.50400001928E-02 0. -1.
        1   -1    0    0  501    0  0.00000000000E+00  0.00000000000E+00 -0.17483259753E+04  0.17483259753E+04  0.50400001928E-02 0.  1.
    10030    2    1    2    0    0  0.00000000000E+00  0.00000000000E+00 -0.46012671998E+03  0.30365252307E+04  0.30014611239E+04 0.  0.
        1    1    3    3  502    0  0.14487408026E+04  0.36655996298E+03 -0.90700307162E+02  0.14971448378E+04  0.50400001928E-02 0. -1.
       -1    1    3    3    0  502 -0.14487408026E+04 -0.36655996298E+03 -0.36942641281E+03  0.15393803929E+04  0.50400001928E-02 0.  1.
</event>
<event>
 5   0  0.6636007E-08  0.3000172E+04  0.7818609E-02  0.8243682E-01
       -1   -1    0    0    0  501  0.00000000000E+00  0.00000000000E+00  0.13232793500E+04  0.13232793500E+04  0.50400001928E-02 0.  1.
        1   -1    0    0  501    0  0.00000000000E+00  0.00000000000E+00 -0.17005160364E+04  0.17005160364E+04  0.50400001928E-02 0. -1.
    10030    2    1    2    0    0  0.00000000000E+00  0.00000000000E+00 -0.37723668640E+03  0.30237953864E+04  0.30001718320E+04 0.  0.
        2    1    3    3  502    0 -0.20409816141E+03 -0.24027827663E+03  0.12895134372E+04  0.13274918510E+04  0.25500000920E-02 0.  1.
       -2    1    3    3    0  502  0.20409816141E+03  0.24027827663E+03 -0.16667501236E+04  0.16963035354E+04  0.25500000920E-02 0. -1.
</event>
<event>
 5   0  0.1810055E-07  0.3000543E+04  0.7818609E-02  0.8243576E-01
       -2   -1    0    0    0  501  0.00000000000E+00  0.00000000000E+00  0.11048163610E+04  0.11048163610E+04  0.25500000920E-02 0.  1.
        2   -1    0    0  501    0  0.00000000000E+00  0.00000000000E+00 -0.20372747012E+04  0.20372747012E+04  0.25500000920E-02 0. -1.
    10030    2    1    2    0    0  0.00000000000E+00  0.00000000000E+00 -0.93245834020E+03  0.31420910622E+04  0.30005428987E+04 0.  0.
        4    1    3    3  502    0  0.48998481313E+03 -0.14084738158E+04 -0.29438663600E+03  0.15200489174E+04  0.12699999809E+01 0. -1.
       -4    1    3    3    0  502 -0.48998481313E+03  0.14084738158E+04 -0.63807170420E+03  0.16220421448E+04  0.12699999809E+01 0.  1.
</event>
<event>
 5   0  0.6017625E-08  0.3002074E+04  0.7818609E-02  0.8243139E-01
        4   -1    0    0  501    0  0.00000000000E+00  0.00000000000E+00  0.19878591745E+04  0.19878595802E+04  0.12699999809E+01 0.  1.
       -4   -1    0    0    0  501  0.00000000000E+00  0.00000000000E+00 -0.11334356198E+04  0.11334363313E+04  0.12699999809E+01 0. -1.
    10030    2    1    2    0    0  0.00000000000E+00  0.00000000000E+00  0.85442355470E+03  0.31212959115E+04  0.30020740425E+04 0.  0.
        4    1    3    3  502    0 -0.13782009006E+04 -0.59379644505E+03  0.39306569837E+03  0.15513008080E+04  0.12699999809E+01 0.  1.
       -4    1    3    3    0  502  0.13782009006E+04  0.59379644505E+03  0.46135785633E+03  0.15699951036E+04  0.12699999809E+01 0. -1.
</event>
<event>
 5   0  0.1810055E-07  0.3000203E+04  0.7818609E-02  0.8243673E-01
       -2   -1    0    0    0  501  0.00000000000E+00  0.00000000000E+00  0.12013632673E+04  0.12013632673E+04  0.25500000920E-02 0. -1.
        2   -1    0    0  501    0  0.00000000000E+00  0.00000000000E+00 -0.18731259525E+04  0.18731259525E+04  0.25500000920E-02 0.  1.
    10030    2    1    2    0    0  0.00000000000E+00  0.00000000000E+00 -0.67176268517E+03  0.30744892198E+04  0.30002031360E+04 0.  0.
        4    1    3    3  502    0 -0.36786369327E+03  0.10775525745E+03  0.11503279305E+04  0.12125142691E+04  0.12699999809E+01 0. -1.
       -4    1    3    3    0  502  0.36786369327E+03 -0.10775525745E+03 -0.18220906156E+04  0.18619749507E+04  0.12699999809E+01 0.  1.
</event>
<event>
 5   0  0.1817566E-07  0.2998948E+04  0.7818609E-02  0.8244031E-01
       -2   -1    0    0    0  501  0.00000000000E+00  0.00000000000E+00  0.15965117067E+04  0.15965117067E+04  0.25500000920E-02 0.  1.
        2   -1    0    0  501    0  0.00000000000E+00  0.00000000000E+00 -0.14083347327E+04  0.14083347327E+04  0.25500000920E-02 0. -1.
    10030    2    1    2    0    0  0.00000000000E+00  0.00000000000E+00  0.18817697404E+03  0.30048464394E+04  0.29989484075E+04 0.  0.
        1    1    3    3  502    0  0.32501337597E+02  0.14402262112E+04  0.51097769477E+03  0.15285306935E+04  0.50400001928E-02 0.  1.
       -1    1    3    3    0  502 -0.32501337597E+02 -0.14402262112E+04 -0.32280072073E+03  0.14763157459E+04  0.50400001928E-02 0. -1.
</event>
<event>
 5   0  0.1914439E-07  0.2999868E+04  0.7818609E-02  0.8243769E-01
        2   -1    0    0  501    0  0.00000000000E+00  0.00000000000E+00  0.10905413857E+04  0.10905413857E+04  0.25500000920E-02 0.  1.
       -2   -1    0    0    0  501  0.00000000000E+00  0.00000000000E+00 -0.20630138991E+04  0.20630138991E+04  0.25500000920E-02 0. -1.
    10030    2    1    2    0    0  0.00000000000E+00  0.00000000000E+00 -0.97247251345E+03  0.31535552848E+04  0.29998680213E+04 0.  0.
        5    1    3    3  502    0 -0.85278123397E+01 -0.22902776497E+03 -0.20444907346E+04  0.20573018482E+04  0.46999998093E+01 0. -1.
       -5    1    3    3    0  502  0.85278123397E+01  0.22902776497E+03  0.10720182212E+04  0.10962534366E+04  0.46999998093E+01 0.  1.
</event>
<event>
 5   0  0.1813720E-07  0.2999720E+04  0.7818609E-02  0.8243811E-01
        2   -1    0    0  501    0  0.00000000000E+00  0.00000000000E+00  0.90690676665E+03  0.90690676666E+03  0.25500000920E-02 0.  1.
       -2   -1    0    0    0  501  0.00000000000E+00  0.00000000000E+00 -0.24804967862E+04  0.24804967862E+04  0.25500000920E-02 0. -1.
    10030    2    1    2    0    0  0.00000000000E+00  0.00000000000E+00 -0.15735900196E+04  0.33874035529E+04  0.29997195336E+04 0.  0.
        3    1    3    3  502    0 -0.53143749195E+03  0.32975258936E+03  0.75262752967E+03  0.97857589724E+03  0.10100000352E+00 0.  1.
       -3    1    3    3    0  502  0.53143749195E+03 -0.32975258936E+03 -0.23262175493E+04  0.24088276557E+04  0.10100000352E+00 0. -1.
</event>
<event>
 5   0  0.1810055E-07  0.3000449E+04  0.7818609E-02  0.8243603E-01
       -2   -1    0    0    0  501  0.00000000000E+00  0.00000000000E+00  0.94867960618E+03  0.94867960618E+03  0.25500000920E-02 0. -1.
        2   -1    0    0  501    0  0.00000000000E+00  0.00000000000E+00 -0.23724277611E+04  0.23724277611E+04  0.25500000920E-02 0.  1.
    10030    2    1    2    0    0  0.00000000000E+00  0.00000000000E+00 -0.14237481549E+04  0.33211073673E+04  0.30004491891E+04 0.  0.
        4    1    3    3  502    0 -0.10326678524E+04  0.55927132189E+03  0.32142627323E+03  0.12175811130E+04  0.12699999809E+01 0. -1.
       -4    1    3    3    0  502  0.10326678524E+04 -0.55927132189E+03 -0.17451744281E+04  0.21035262542E+04  0.12699999809E+01 0.  1.
</event>
<event>
 5   0  0.6679022E-08  0.2996887E+04  0.7818609E-02  0.8244621E-01
       -1   -1    0    0    0  501  0.00000000000E+00  0.00000000000E+00  0.30893344404E+04  0.30893344404E+04  0.50400001928E-02 0.  1.
        1   -1    0    0  501    0  0.00000000000E+00  0.00000000000E+00 -0.72680127237E+03  0.72680127239E+03  0.50400001928E-02 0. -1.
    10030    2    1    2    0    0  0.00000000000E+00  0.00000000000E+00  0.23625331681E+04  0.38161357128E+04  0.29968865191E+04 0.  0.
        3    1    3    3  502    0 -0.67255691141E+03  0.90166911292E+03 -0.79297192907E+02  0.11276648630E+04  0.10100000352E+00 0. -1.
       -3    1    3    3    0  502  0.67255691141E+03 -0.90166911292E+03  0.24418303610E+04  0.26884708498E+04  0.10100000352E+00 0.  1.
</event>
<event>
 5   0  0.6636007E-08  0.2999271E+04  0.7818609E-02  0.8243939E-01
        1   -1    0    0  501    0  0.00000000000E+00  0.00000000000E+00  0.33501409045E+04  0.33501409045E+04  0.50400001928E-02 0. -1.
       -1   -1    0    0    0  501  0.00000000000E+00  0.00000000000E+00 -0.67128698178E+03  0.67128698180E+03  0.50400001928E-02 0.  1.
    10030    2    1    2    0    0  0.00000000000E+00  0.00000000000E+00  0.26788539227E+04  0.40214278863E+04  0.29992705622E+04 0.  0.
        2    1    3    3  502    0  0.11413627234E+03  0.93889929680E+03  0.28998042301E+04  0.30501513980E+04  0.25500000920E-02 0. -1.
       -2    1    3    3    0  502 -0.11413627234E+03 -0.93889929680E+03 -0.22095030741E+03  0.97127648821E+03  0.25500000920E-02 0.  1.
</event>
<event>
 5   0  0.6464436E-08  0.2995617E+04  0.7818609E-02  0.8244984E-01
        1   -1    0    0  501    0  0.00000000000E+00  0.00000000000E+00  0.13807253370E+04  0.13807253370E+04  0.50400001928E-02 0. -1.
       -1   -1    0    0    0  501  0.00000000000E+00  0.00000000000E+00 -0.16248202494E+04  0.16248202494E+04  0.50400001928E-02 0.  1.
    10030    2    1    2    0    0  0.00000000000E+00  0.00000000000E+00 -0.24409491241E+03  0.30055455864E+04  0.29956171227E+04 0.  0.
        5    1    3    3  502    0 -0.12029773411E+04 -0.65790933779E+03  0.48278485491E+03  0.14536514321E+04  0.46999998093E+01 0. -1.
       -5    1    3    3    0  502  0.12029773411E+04  0.65790933779E+03 -0.72687976732E+03  0.15518941543E+04  0.46999998093E+01 0.  1.
</event>
<event>
 5   0  0.1810055E-07  0.2999741E+04  0.7818609E-02  0.8243805E-01
       -2   -1    0    0    0  501  0.00000000000E+00  0.00000000000E+00  0.16116751972E+04  0.16116751972E+04  0.25500000920E-02 0. -1.
        2   -1    0    0  501    0  0.00000000000E+00  0.00000000000E+00 -0.13958220904E+04  0.13958220904E+04  0.25500000920E-02 0.  1.
    10030    2    1    2    0    0  0.00000000000E+00  0.00000000000E+00  0.21585310686E+03  0.30074972876E+04  0.29997412174E+04 0.  0.
        4    1    3    3  502    0 -0.57070298806E+03  0.67659069608E+02 -0.12810545751E+04  0.14040591467E+04  0.12699999809E+01 0.  1.
       -4    1    3    3    0  502  0.57070298806E+03 -0.67659069608E+02  0.14969076820E+04  0.16034381408E+04  0.12699999809E+01 0. -1.
</event>
<event>
 5   0  0.6374748E-08  0.3001175E+04  0.7818609E-02  0.8243395E-01
        1   -1    0    0  501    0  0.00000000000E+00  0.00000000000E+00  0.19826489452E+04  0.19826489452E+04  0.50400001928E-02 0.  1.
       -1   -1    0    0    0  501  0.00000000000E+00  0.00000000000E+00 -0.11357344580E+04  0.11357344581E+04  0.50400001928E-02 0. -1.
    10030    2    1    2    0    0  0.00000000000E+00  0.00000000000E+00  0.84691448718E+03  0.31183834033E+04  0.30011749201E+04 0.  0.
        1    1    3    3  502    0 -0.13500291871E+04 -0.11752882337E+03 -0.24620564676E+03  0.13773195166E+04  0.50400001928E-02 0. -1.
       -1    1    3    3    0  502  0.13500291871E+04  0.11752882337E+03  0.10931201339E+04  0.17410638867E+04  0.50400001928E-02 0.  1.
</event>
<event>
 5   0  0.6464436E-08  0.2994673E+04  0.7818609E-02  0.8245254E-01
        1   -1    0    0  501    0  0.00000000000E+00  0.00000000000E+00  0.19764815779E+04  0.19764815779E+04  0.50400001928E-02 0. -1.
       -1   -1    0    0    0  501  0.00000000000E+00  0.00000000000E+00 -0.11343475932E+04  0.11343475933E+04  0.50400001928E-02 0.  1.
    10030    2    1    2    0    0  0.00000000000E+00  0.00000000000E+00  0.84213398465E+03  0.31108291711E+04  0.29946733518E+04 0.  0.
        5    1    3    3  502    0  0.53221522210E+02 -0.11624292765E+04  0.13999116834E+04  0.18203980786E+04  0.46999998093E+01 0. -1.
       -5    1    3    3    0  502 -0.53221522210E+02  0.11624292765E+04 -0.55777769878E+03  0.12904310925E+04  0.46999998093E+01 0.  1.
</event>
<event>
 5   0  0.6374748E-08  0.3000238E+04  0.7818609E-02  0.8243663E-01
        1   -1    0    0  501    0  0.00000000000E+00  0.00000000000E+00  0.20614683362E+04  0.20614683362E+04  0.50400001928E-02 0. -1.
       -1   -1    0    0    0  501  0.00000000000E+00  0.00000000000E+00 -0.10916281126E+04  0.10916281126E+04  0.50400001928E-02 0.  1.
    10030    2    1    2    0    0  0.00000000000E+00  0.00000000000E+00  0.96984022360E+03  0.31530964488E+04  0.30002378499E+04 0.  0.
        1    1    3    3  502    0 -0.45435586055E+03 -0.14176949680E+04  0.67887219468E+03  0.16362046715E+04  0.50400001928E-02 0. -1.
       -1    1    3    3    0  502  0.45435586055E+03  0.14176949680E+04  0.29096802892E+03  0.15168917773E+04  0.50400001928E-02 0.  1.
</event>
<event>
 5   0  0.6636007E-08  0.3002175E+04  0.7818609E-02  0.8243110E-01
        1   -1    0    0  501    0  0.00000000000E+00  0.00000000000E+00  0.21911576533E+04  0.21911576533E+04  0.50400001928E-02 0. -1.
       -1   -1    0    0    0  501  0.00000000000E+00  0.00000000000E+00 -0.10283436604E+04  0.10283436604E+04  0.50400001928E-02 0.  1.
    10030    2    1    2    0    0  0.00000000000E+00  0.00000000000E+00  0.11628139928E+04  0.32195013137E+04  0.30021745997E+04 0.  0.
        2    1    3    3  502    0  0.38514703461E+03  0.43499981879E+03 -0.90287496736E+03  0.10736602290E+04  0.25500000920E-02 0.  1.
       -2    1    3    3    0  502 -0.38514703461E+03 -0.43499981879E+03  0.20656889602E+04  0.21458410847E+04  0.25500000920E-02 0. -1.
</event>
<event>
 5   0  0.1914439E-07  0.3000871E+04  0.7818609E-02  0.8243482E-01
       -2   -1    0    0    0  501  0.00000000000E+00  0.00000000000E+00  0.10703968639E+04  0.10703968639E+04  0.25500000920E-02 0. -1.
        2   -1    0    0  501    0  0.00000000000E+00  0.00000000000E+00 -0.21032452154E+04  0.21032452154E+04  0.25500000920E-02 0.  1.
    10030    2    1    2    0    0  0.00000000000E+00  0.00000000000E+00 -0.10328483516E+04  0.31736420793E+04  0.30008712618E+04 0.  0.
        5    1    3    3  502    0  0.66611933703E+03 -0.19317162071E+03  0.89068717072E+03  0.11288826211E+04  0.46999998093E+01 0. -1.
       -5    1    3    3    0  502 -0.66611933703E+03  0.19317162071E+03 -0.19235355223E+04  0.20447594582E+04  0.46999998093E+01 0.  1.
</event>
<event>
 5   0  0.1810055E-07  0.3000747E+04  0.7818609E-02  0.8243517E-01
       -2   -1    0    0    0  501  0.00000000000E+00  0.00000000000E+00  0.13603209643E+04  0.13603209643E+04  0.25500000920E-02 0.  1.
        2   -1    0    0  501    0  0.00000000000E+00  0.00000000000E+00 -0.16548457307E+04  0.16548457307E+04  0.25500000920E-02 0. -1.
    10030    2    1    2    0    0  0.00000000000E+00  0.00000000000E+00 -0.29452476635E+03  0.30151666950E+04  0.30007474670E+04 0.  0.
        4    1    3    3  502    0  0.60796203887E+02 -0.36318137160E+03  0.13142104218E+04  0.13648250924E+04  0.12699999809E+01 0.  1.
       -4    1    3    3    0  502 -0.60796203887E+02  0.36318137160E+03 -0.16087351881E+04  0.16503416027E+04  0.12699999809E+01 0. -1.
</event>
<event>
 5   0  0.6679022E-08  0.3000209E+04  0.7818609E-02  0.8243671E-01
        1   -1    0    0  501    0  0.00000000000E+00  0.00000000000E+00  0.18399772362E+04  0.18399772362E+04  0.50400001928E-02 0. -1.
       -1   -1    0    0    0  501  0.00000000000E+00  0.00000000000E+00 -0.12230114484E+04  0.12230114484E+04  0.50400001928E-02 0.  1.
    10030    2    1    2    0    0  0.00000000000E+00  0.00000000000E+00  0.61696578777E+03  0.30629886846E+04  0.30002088092E+04 0.  0.
        3    1    3    3  502    0 -0.26700849149E+03  0.14626644870E+04  0.10523856718E+03  0.14905556354E+04  0.10100000352E+00 0.  1.
       -3    1    3    3    0  502  0.26700849149E+03 -0.14626644870E+04  0.51172722058E+03  0.15724330493E+04  0.10100000352E+00 0. -1.
</event>
<event>
 5   0  0.6636007E-08  0.3001406E+04  0.7818609E-02  0.8243330E-01
        1   -1    0    0  501    0  0.00000000000E+00  0.00000000000E+00  0.19186922222E+04  0.19186922222E+04  0.50400001928E-02 0. -1.
       -1   -1    0    0    0  501  0.00000000000E+00  0.00000000000E+00 -0.11737729237E+04  0.11737729237E+04  0.50400001928E-02 0.  1.
    10030    2    1    2    0    0  0.00000000000E+00  0.00000000000E+00  0.74491929844E+03  0.30924651459E+04  0.30014056569E+04 0.  0.
        2    1    3    3  502    0  0.15924206558E+03 -0.14136408396E+04 -0.11992004887E+03  0.14276271491E+04  0.25500000920E-02 0.  1.
       -2    1    3    3    0  502 -0.15924206558E+03  0.14136408396E+04  0.86483934731E+03  0.16648379968E+04  0.25500000920E-02 0. -1.
</event>
<event>
 5   0  0.1810055E-07  0.2997833E+04  0.7818609E-02  0.8244350E-01
        2   -1    0    0  501    0  0.00000000000E+00  0.00000000000E+00  0.16866495705E+04  0.16866495705E+04  0.25500000920E-02 0.  1.
       -2   -1    0    0    0  501  0.00000000000E+00  0.00000000000E+00 -0.13320792277E+04  0.13320792277E+04  0.25500000920E-02 0. -1.
    10030    2    1    2    0    0  0.00000000000E+00  0.00000000000E+00  0.35457034276E+03  0.30187287982E+04  0.29978331223E+04 0.  0.
        4    1    3    3  502    0 -0.71984605471E+02  0.56279455454E+03 -0.12197675815E+04  0.13452709987E+04  0.12699999809E+01 0. -1.
       -4    1    3    3    0  502  0.71984605471E+02 -0.56279455454E+03  0.15743379243E+04  0.16734577995E+04  0.12699999809E+01 0.  1.
</event>
<event>
 5   0  0.6374748E-08  0.3000229E+04  0.7818609E-02  0.8243666E-01
       -1   -1    0    0    0  501  0.00000000000E+00  0.00000000000E+00  0.23853533461E+04  0.23853533461E+04  0.50400001928E-02 0.  1.
        1   -1    0    0  501    0  0.00000000000E+00  0.00000000000E+00 -0.94340041047E+03  0.94340041048E+03  0.50400001928E-02 0. -1.
    10030    2    1    2    0    0  0.00000000000E+00  0.00000000000E+00  0.14419529356E+04  0.33287537566E+04  0.30002288752E+04 0.  0.
        1    1    3    3  502    0  0.57563223658E+03  0.13609248846E+04  0.43405902699E+03  0.15400896897E+04  0.50400001928E-02 0.  1.
       -1    1    3    3    0  502 -0.57563223658E+03 -0.13609248846E+04  0.10078939087E+04  0.17886640669E+04  0.50400001928E-02 0. -1.
</event>
<event>
 5   0  0.1817566E-07  0.3000811E+04  0.7818609E-02  0.8243499E-01
       -2   -1    0    0    0  501  0.00000000000E+00  0.00000000000E+00  0.18699359122E+04  0.18699359122E+04  0.25500000920E-02 0. -1.
        2   -1    0    0  501    0  0.00000000000E+00  0.00000000000E+00 -0.12039003422E+04  0.12039003422E+04  0.25500000920E-02 0.  1.
    10030    2    1    2    0    0  0.00000000000E+00  0.00000000000E+00  0.66603557002E+03  0.30738362544E+04  0.30008108801E+04 0.  0.
        1    1    3    3  502    0 -0.13199836797E+04  0.58405077720E+03  0.75255060023E+03  0.16278220514E+04  0.50400001928E-02 0.  1.
       -1    1    3    3    0  502  0.13199836797E+04 -0.58405077720E+03 -0.86515030214E+02  0.14460142030E+04  0.50400001928E-02 0. -1.
</event>
<event>
 5   0  0.6374748E-08  0.2999949E+04  0.7818609E-02  0.8243745E-01
       -1   -1    0    0    0  501  0.00000000000E+00  0.00000000000E+00  0.15797270645E+04  0.15797270645E+04  0.50400001928E-02 0. -1.
        1   -1    0    0  501    0  0.00000000000E+00  0.00000000000E+00 -0.14242485842E+04  0.14242485842E+04  0.50400001928E-02 0.  1.
    10030    2    1    2    0    0  0.00000000000E+00  0.00000000000E+00  0.15547848032E+03  0.30039756488E+04  0.29999493563E+04 0.  0.
        1    1    3    3  502    0 -0.24429725594E+03 -0.14698914312E+04 -0.94718696533E+02  0.14930618206E+04  0.50400001928E-02 0.  1.
       -1    1    3    3    0  502  0.24429725594E+03  0.14698914312E+04  0.25019717685E+03  0.15109138281E+04  0.50400001928E-02 0. -1.
</event>
<event>
 5   0  0.6374748E-08  0.3002666E+04  0.7818609E-02  0.8242970E-01
       -1   -1    0    0    0  501  0.00000000000E+00  0.00000000000E+00  0.14920890530E+04  0.14920890530E+04  0.50400001928E-02 0.  1.
        1   -1    0    0  501    0  0.00000000000E+00  0.00000000000E+00 -0.15106342759E+04  0.15106342759E+04  0.50400001928E-02 0. -1.
    10030    2    1    2    0    0  0.00000000000E+00  0.00000000000E+00 -0.18545222838E+02  0.30027233289E+04  0.30026660595E+04 0.  0.
        1    1    3    3  502    0  0.14429802402E+03  0.24778791096E+03 -0.14829967859E+04  0.15104635830E+04  0.50400001928E-02 0. -1.
       -1    1    3    3    0  502 -0.14429802402E+03 -0.24778791096E+03  0.14644515631E+04  0.14922597459E+04  0.50400001928E-02 0.  1.
</event>
<event>
 5   0  0.1813720E-07  0.2999488E+04  0.7818609E-02  0.8243877E-01
       -2   -1    0    0    0  501  0.00000000000E+00  0.00000000000E+00  0.15669951426E+04  0.15669951426E+04  0.25500000920E-02 0. -1.
        2   -1    0    0  501    0  0.00000000000E+00  0.00000000000E+00 -0.14353791129E+04  0.14353791129E+04  0.25500000920E-02 0.  1.
    10030    2    1    2    0    0  0.00000000000E+00  0.00000000000E+00  0.13161602969E+03  0.30023742555E+04  0.29994880214E+04 0.  0.
        3    1    3    3  502    0 -0.58483232545E+03 -0.19433588446E+03  0.14343971554E+04  0.15611824027E+04  0.10100000352E+00 0. -1.
       -3    1    3    3    0  502  0.58483232545E+03  0.19433588446E+03 -0.13027811257E+04  0.14411918528E+04  0.10100000352E+00 0.  1.
</event>
<event>
 5   0  0.6464436E-08  0.3000071E+04  0.7818609E-02  0.8243710E-01
       -1   -1    0    0    0  501  0.00000000000E+00  0.00000000000E+00  0.18541319835E+04  0.18541319835E+04  0.50400001928E-02 0. -1.
        1   -1    0    0  501    0  0.00000000000E+00  0.00000000000E+00 -0.12135636407E+04  0.12135636407E+04  0.50400001928E-02 0.  1.
    10030    2    1    2    0    0  0.00000000000E+00  0.00000000000E+00  0.64056834281E+03  0.30676956242E+04  0.30000714393E+04 0.  0.
        5    1    3    3  502    0 -0.52550829540E+03 -0.97557388275E+03  0.13541036755E+04  0.17497206129E+04  0.46999998093E+01 0. -1.
       -5    1    3    3    0  502  0.52550829540E+03  0.97557388275E+03 -0.71353533273E+03  0.13179750113E+04  0.46999998093E+01 0.  1.
</event>
<event>
 5   0  0.1813720E-07  0.2996718E+04  0.7818609E-02  0.8244669E-01
       -2   -1    0    0    0  501  0.00000000000E+00  0.00000000000E+00  0.20072092567E+04  0.20072092567E+04  0.25500000920E-02 0.  1.
        2   -1    0    0  501    0  0.00000000000E+00  0.00000000000E+00 -0.11185080724E+04  0.11185080724E+04  0.25500000920E-02 0. -1.
    10030    2    1    2    0    0  0.00000000000E+00  0.00000000000E+00  0.88870118426E+03  0.31257173291E+04  0.29967180426E+04 0.  0.
        3    1    3    3  502    0 -0.11001912757E+03  0.68690141742E+03  0.18285574694E+04  0.19564151387E+04  0.10100000352E+00 0.  1.
       -3    1    3    3    0  502  0.11001912757E+03 -0.68690141742E+03 -0.93985628516E+03  0.11693021905E+04  0.10100000352E+00 0. -1.
</event>
<event>
 5   0  0.1810055E-07  0.2998729E+04  0.7818609E-02  0.8244094E-01
       -2   -1    0    0    0  501  0.00000000000E+00  0.00000000000E+00  0.77278459236E+03  0.77278459236E+03  0.25500000920E-02 0. -1.
        2   -1    0    0  501    0  0.00000000000E+00  0.00000000000E+00 -0.29090825870E+04  0.29090825870E+04  0.25500000920E-02 0.  1.
    10030    2    1    2    0    0  0.00000000000E+00  0.00000000000E+00 -0.21362979947E+04  0.36818671794E+04  0.29987291983E+04 0.  0.
        4    1    3    3  502    0  0.32104775758E+03 -0.14373552858E+04 -0.72298236512E+03  0.16406605358E+04  0.12699999809E+01 0. -1.
       -4    1    3    3    0  502 -0.32104775758E+03  0.14373552858E+04 -0.14133156296E+04  0.20412066436E+04  0.12699999809E+01 0.  1.
</event>
<event>
 5   0  0.1813720E-07  0.2997411E+04  0.7818609E-02  0.8244471E-01
       -2   -1    0    0    0  501  0.00000000000E+00  0.00000000000E+00  0.98202544193E+03  0.98202544194E+03  0.25500000920E-02 0.  1.
        2   -1    0    0  501    0  0.00000000000E+00  0.00000000000E+00 -0.22872299347E+04  0.22872299347E+04  0.25500000920E-02 0. -1.
    10030    2    1    2    0    0  0.00000000000E+00  0.00000000000E+00 -0.13052044928E+04  0.32692553766E+04  0.29974108744E+04 0.  0.
        3    1    3    3  502    0 -0.63442986441E+03  0.32498894285E+03 -0.20904977251E+04  0.22086873511E+04  0.10100000352E+00 0. -1.
       -3    1    3    3    0  502  0.63442986441E+03 -0.32498894285E+03  0.78529323237E+03  0.10605680256E+04  0.10100000352E+00 0.  1.
</event>
<event>
 5   0  0.1817566E-07  0.2999014E+04  0.7818609E-02  0.8244013E-01
       -2   -1    0    0    0  501  0.00000000000E+00  0.00000000000E+00  0.17983004105E+04  0.17983004105E+04  0.25500000920E-02 0. -1.
        2   -1    0    0  501    0  0.00000000000E+00  0.00000000000E+00 -0.12503587406E+04  0.12503587406E+04  0.25500000920E-02 0.  1.
    10030    2    1    2    0    0  0.00000000000E+00  0.00000000000E+00  0.54794166987E+03  0.30486591511E+04  0.29990135955E+04 0.  0.
        1    1    3    3  502    0  0.11960060308E+04 -0.78115996087E+03  0.73745626631E+03  0.16076327487E+04  0.50400001928E-02 0. -1.
       -1    1    3    3    0  502 -0.11960060308E+04  0.78115996087E+03 -0.18951459643E+03  0.14410264024E+04  0.50400001928E-02 0.  1.
</event>
<event>
 5   0  0.6636007E-08  0.2999568E+04  0.7818609E-02  0.8243854E-01
        1   -1    0    0  501    0  0.00000000000E+00  0.00000000000E+00  0.17127128090E+04  0.17127128090E+04  0.50400001928E-02 0.  1.
       -1   -1    0    0    0  501  0.00000000000E+00  0.00000000000E+00 -0.13133270661E+04  0.13133270662E+04  0.50400001928E-02 0. -1.
    10030    2    1    2    0    0  0.00000000000E+00  0.00000000000E+00  0.39938574280E+03  0.30260398751E+04  0.29995680279E+04 0.  0.
        2    1    3    3  502    0 -0.12143565685E+04  0.11408520048E+03  0.10801348045E+04  0.16292232825E+04  0.25500000920E-02 0.  1.
       -2    1    3    3    0  502  0.12143565685E+04 -0.11408520048E+03 -0.68074906172E+03  0.13968165926E+04  0.25500000920E-02 0. -1.
</event>
<event>
 5   0  0.6525507E-08  0.2999180E+04  0.7818609E-02  0.8243965E-01
       -1   -1    0    0    0  501  0.00000000000E+00  0.00000000000E+00  0.20845300367E+04  0.20845300367E+04  0.50400001928E-02 0. -1.
        1   -1    0    0  501    0  0.00000000000E+00  0.00000000000E+00 -0.10787900328E+04  0.10787900328E+04  0.50400001928E-02 0.  1.
    10030    2    1    2    0    0  0.00000000000E+00  0.00000000000E+00  0.10057400040E+04  0.31633200695E+04  0.29991800390E+04 0.  0.
        4    1    3    3  502    0  0.14242902478E+04 -0.46205061847E+03  0.41669715161E+03  0.15542624016E+04  0.12699999809E+01 0.  1.
       -4    1    3    3    0  502 -0.14242902478E+04  0.46205061847E+03  0.58904285236E+03  0.16090576679E+04  0.12699999809E+01 0. -1.
</event>
<event>
 5   0  0.1914439E-07  0.3001598E+04  0.7818609E-02  0.8243275E-01
       -2   -1    0    0    0  501  0.00000000000E+00  0.00000000000E+00  0.92780625474E+03  0.92780625474E+03  0.25500000920E-02 0. -1.
        2   -1    0    0  501    0  0.00000000000E+00  0.00000000000E+00 -0.24276600519E+04  0.24276600519E+04  0.25500000920E-02 0.  1.
    10030    2    1    2    0    0  0.00000000000E+00  0.00000000000E+00 -0.14998537972E+04  0.33554663067E+04  0.30015983612E+04 0.  0.
        5    1    3    3  502    0 -0.67973193111E+03  0.12430555109E+02 -0.22456437611E+04  0.23463009203E+04  0.46999998093E+01 0.  1.
       -5    1    3    3    0  502  0.67973193111E+03 -0.12430555109E+02  0.74578996388E+03  0.10091653864E+04  0.46999998093E+01 0. -1.
</event>
<event>
 5   0  0.6374748E-08  0.3000642E+04  0.7818609E-02  0.8243548E-01
        1   -1    0    0  501    0  0.00000000000E+00  0.00000000000E+00  0.15670019564E+04  0.15670019564E+04  0.50400001928E-02 0. -1.
       -1   -1    0    0    0  501  0.00000000000E+00  0.00000000000E+00 -0.14364773831E+04  0.14364773832E+04  0.50400001928E-02 0.  1.
    10030    2    1    2    0    0  0.00000000000E+00  0.00000000000E+00  0.13052457327E+03  0.30034793396E+04  0.30006418445E+04 0.  0.
        1    1    3    3  502    0  0.10845128113E+04 -0.98633178615E+03 -0.25432703401E+03  0.14878510243E+04  0.50400001928E-02 0. -1.
       -1    1    3    3    0  502 -0.10845128113E+04  0.98633178615E+03  0.38485160728E+03  0.15156283152E+04  0.50400001928E-02 0.  1.
</event>
<event>
 5   0  0.6525507E-08  0.3000074E+04  0.7818609E-02  0.8243710E-01
        1   -1    0    0  501    0  0.00000000000E+00  0.00000000000E+00  0.12922090372E+04  0.12922090372E+04  0.50400001928E-02 0.  1.
       -1   -1    0    0    0  501  0.00000000000E+00  0.00000000000E+00 -0.17412898494E+04  0.17412898494E+04  0.50400001928E-02 0. -1.
    10030    2    1    2    0    0  0.00000000000E+00  0.00000000000E+00 -0.44908081219E+03  0.30334988867E+04  0.30000736523E+04 0.  0.
        4    1    3    3  502    0  0.10575750307E+04 -0.83893109033E+03  0.43684084361E+03  0.14188382062E+04  0.12699999809E+01 0.  1.
       -4    1    3    3    0  502 -0.10575750307E+04  0.83893109033E+03 -0.88592165580E+03  0.16146606804E+04  0.12699999809E+01 0. -1.
</event>
<event>
 5   0  0.6464436E-08  0.3008452E+04  0.7818609E-02  0.8241322E-01
       -1   -1    0    0    0  501  0.00000000000E+00  0.00000000000E+00  0.19300956890E+04  0.19300956890E+04  0.50400001928E-02 0.  1.
        1   -1    0    0  501    0  0.00000000000E+00  0.00000000000E+00 -0.11723230023E+04  0.11723230023E+04  0.50400001928E-02 0. -1.
    10030    2    1    2    0    0  0.00000000000E+00  0.00000000000E+00  0.75777268668E+03  0.31024186913E+04  0.30084518097E+04 0.  0.
        5    1    3    3  502    0 -0.10564199494E+04 -0.98048992990E+03 -0.65011656434E+02  0.14427862689E+04  0.46999998093E+01 0. -1.
       -5    1    3    3    0  502  0.10564199494E+04  0.98048992990E+03  0.82278434311E+03  0.16596324224E+04  0.46999998093E+01 0.  1.
</event>
<event>
 5   0  0.1810055E-07  0.3002186E+04  0.7818609E-02  0.8243107E-01
        2   -1    0    0  501    0  0.00000000000E+00  0.00000000000E+00  0.94756585125E+03  0.94756585125E+03  0.25500000920E-02 0. -1.
       -2   -1    0    0    0  501  0.00000000000E+00  0.00000000000E+00 -0.23779668386E+04  0.23779668386E+04  0.25500000920E-02 0.  1.
    10030    2    1    2    0    0  0.00000000000E+00  0.00000000000E+00 -0.14304009874E+04  0.33255326899E+04  0.30021859847E+04 0.  0.
        4    1    3    3  502    0 -0.11656006530E+04 -0.50414779041E+03  0.17130076787E+03  0.12814583266E+04  0.12699999809E+01 0. -1.
       -4    1    3    3    0  502  0.11656006530E+04  0.50414779041E+03 -0.16017017552E+04  0.20440743632E+04  0.12699999809E+01 0.  1.
</event>
<event>
 5   0  0.6374748E-08  0.2999715E+04  0.7818609E-02  0.8243812E-01
       -1   -1    0    0    0  501  0.00000000000E+00  0.00000000000E+00  0.16487074459E+04  0.16487074459E+04  0.50400001928E-02 0.  1.
        1   -1    0    0  501    0  0.00000000000E+00  0.00000000000E+00 -0.13644465084E+04  0.13644465084E+04  0.50400001928E-02 0. -1.
    10030    2    1    2    0    0  0.00000000000E+00  0.00000000000E+00  0.28426093756E+03  0.30131539543E+04  0.29997153985E+04 0.  0.
        1    1    3    3  502    0 -0.12178245334E+04 -0.36758129595E+02  0.10207635871E+04  0.15894672236E+04  0.50400001928E-02 0.  1.
       -1    1    3    3    0  502  0.12178245334E+04  0.36758129595E+02 -0.73650264949E+03  0.14236867307E+04  0.50400001928E-02 0. -1.
</event>
<event>
 5   0  0.1821305E-07  0.2999869E+04  0.7818609E-02  0.8243768E-01
        2   -1    0    0  501    0  0.00000000000E+00  0.00000000000E+00  0.13653246128E+04  0.13653246128E+04  0.25500000920E-02 0. -1.
       -2   -1    0    0    0  501  0.00000000000E+00  0.00000000000E+00 -0.16478160892E+04  0.16478160892E+04  0.25500000920E-02 0.  1.
    10030    2    1    2    0    0  0.00000000000E+00  0.00000000000E+00 -0.28249147646E+03  0.30131407020E+04  0.29998692397E+04 0.  0.
        2    1    3    3  502    0  0.88390724882E+03  0.67396756050E+03  0.87032422537E+03  0.14117324656E+04  0.25500000920E-02 0. -1.
       -2    1    3    3    0  502 -0.88390724882E+03 -0.67396756050E+03 -0.11528157018E+04  0.16014082364E+04  0.25500000920E-02 0.  1.
</event>
<event>
 5   0  0.1914439E-07  0.2994274E+04  0.7818609E-02  0.8245368E-01
        2   -1    0    0  501    0  0.00000000000E+00  0.00000000000E+00  0.23798471748E+04  0.23798471748E+04  0.25500000920E-02 0. -1.
       -2   -1    0    0    0  501  0.00000000000E+00  0.00000000000E+00 -0.94183333448E+03  0.94183333448E+03  0.25500000920E-02 0.  1.
    10030    2    1    2    0    0  0.00000000000E+00  0.00000000000E+00  0.14380138403E+04  0.33216805093E+04  0.29942741359E+04 0.  0.
        5    1    3    3  502    0  0.60552763275E+03  0.31538532600E+03  0.21970870522E+04  0.23007271074E+04  0.46999998093E+01 0. -1.
       -5    1    3    3    0  502 -0.60552763275E+03 -0.31538532600E+03 -0.75907321185E+03  0.10209534019E+04  0.46999998093E+01 0.  1.
</event>
<event>
 5   0  0.6679022E-08  0.3000629E+04  0.7818609E-02  0.8243551E-01
       -1   -1    0    0    0  501  0.00000000000E+00  0.00000000000E+00  0.14021058532E+04  0.14021058532E+04  0.50400001928E-02 0.  1.
        1   -1    0    0  501    0  0.00000000000E+00  0.00000000000E+00 -0.16054022881E+04  0.16054022881E+04  0.50400001928E-02 0. -1.
    10030    2    1    2    0    0  0.00000000000E+00  0.00000000000E+00 -0.20329643489E+03  0.30075081413E+04  0.30006292306E+04 0.  0.
        3    1    3    3  502    0 -0.12745394452E+04 -0.18036518694E+03  0.67080758029E+03  0.14515389137E+04  0.10100000352E+00 0.  1.
       -3    1    3    3    0  502  0.12745394452E+04  0.18036518694E+03 -0.87410401518E+03  0.15559692277E+04  0.10100000352E+00 0. -1.
</event>
<event>
 5   0  0.6464436E-08  0.2997775E+04  0.7818609E-02  0.8244367E-01
        1   -1    0    0  501    0  0.00000000000E+00  0.00000000000E+00  0.14766984497E+04  0.14766984497E+04  0.50400001928E-02 0.  1.
       -1   -1    0    0    0  501  0.00000000000E+00  0.00000000000E+00 -0.15214094840E+04  0.15214094840E+04  0.50400001928E-02 0. -1.
    10030    2    1    2    0    0  0.00000000000E+00  0.00000000000E+00 -0.44711034273E+02  0.29981079337E+04  0.29977745255E+04 0.  0.
        5    1    3    3  502    0 -0.61213322481E+03  0.73207882495E+03  0.11336252945E+04  0.14818147284E+04  0.46999998093E+01 0.  1.
       -5    1    3    3    0  502  0.61213322481E+03 -0.73207882495E+03 -0.11783363288E+04  0.15162932053E+04  0.46999998093E+01 0. -1.
</event>
<event>
 5   0  0.1821305E-07  0.3002127E+04  0.7818609E-02  0.8243124E-01
        2   -1    0    0  501    0  0.00000000000E+00  0.00000000000E+00  0.13451879593E+04  0.13451879593E+04  0.25500000920E-02 0.  1.
       -2   -1    0    0    0  501  0.00000000000E+00  0.00000000000E+00 -0.16750018669E+04  0.16750018670E+04  0.25500000920E-02 0. -1.
    10030    2    1    2    0    0  0.00000000000E+00  0.00000000000E+00 -0.32981390767E+03  0.30201898262E+04  0.30021274744E+04 0.  0.
        2    1    3    3  502    0 -0.95186699919E+03 -0.11437801317E+04  0.33532371754E+02  0.14884247357E+04  0.25500000920E-02 0.  1.
       -2    1    3    3    0  502  0.95186699919E+03  0.11437801317E+04 -0.36334627943E+03  0.15317650905E+04  0.25500000920E-02 0. -1.
</event>
<event>
 5   0  0.6525507E-08  0.3000391E+04  0.7818609E-02  0.8243619E-01
       -1   -1    0    0    0  501  0.00000000000E+00  0.00000000000E+00  0.11920687568E+04  0.11920687568E+04  0.50400001928E-02 0.  1.
        1   -1    0    0  501    0  0.00000000000E+00  0.00000000000E+00 -0.18879670382E+04  0.18879670382E+04  0.50400001928E-02 0. -1.
    10030    2    1    2    0    0  0.00000000000E+00  0.00000000000E+00 -0.69589828141E+03  0.30800357950E+04  0.30003909879E+04 0.  0.
        4    1    3    3  502    0 -0.69434498627E+03 -0.10400894059E+04 -0.11986098378E+04  0.17322147928E+04  0.12699999809E+01 0. -1.
       -4    1    3    3    0  502  0.69434498627E+03  0.10400894059E+04  0.50271155635E+03  0.13478210022E+04  0.12699999809E+01 0.  1.
</event>
<event>
 5   0  0.1813720E-07  0.2997677E+04  0.7818609E-02  0.8244395E-01
        2   -1    0    0  501    0  0.00000000000E+00  0.00000000000E+00  0.13677555403E+04  0.13677555403E+04  0.25500000920E-02 0. -1.
       -2   -1    0    0    0  501  0.00000000000E+00  0.00000000000E+00 -0.16424842925E+04  0.16424842925E+04  0.25500000920E-02 0.  1.
    10030    2    1    2    0    0  0.00000000000E+00  0.00000000000E+00 -0.27472875216E+03  0.30102398328E+04  0.29976770946E+04 0.  0.
        3    1    3    3  502    0  0.15832175747E+03 -0.15478232932E+02  0.13592544975E+04  0.13685313858E+04  0.10100000352E+00 0. -1.
       -3    1    3    3    0  502 -0.15832175747E+03  0.15478232932E+02 -0.16339832497E+04  0.16417084470E+04  0.10100000352E+00 0.  1.
</event>
<event>
 5   0  0.1914439E-07  0.2991700E+04  0.7818609E-02  0.8246105E-01
        2   -1    0    0  501    0  0.00000000000E+00  0.00000000000E+00  0.18788914626E+04  0.18788914626E+04  0.25500000920E-02 0. -1.
       -2   -1    0    0    0  501  0.00000000000E+00  0.00000000000E+00 -0.11908973603E+04  0.11908973604E+04  0.25500000920E-02 0.  1.
    10030    2    1    2    0    0  0.00000000000E+00  0.00000000000E+00  0.68799410221E+03  0.30697888229E+04  0.29916997731E+04 0.  0.
        5    1    3    3  502    0 -0.94867898620E+03 -0.83002578880E+03 -0.48238783757E+03  0.13496869062E+04  0.46999998093E+01 0.  1.
       -5    1    3    3    0  502  0.94867898620E+03  0.83002578880E+03  0.11703819398E+04  0.17201019167E+04  0.46999998093E+01 0. -1.
</event>
<event>
 5   0  0.1817566E-07  0.3002235E+04  0.7818609E-02  0.8243093E-01
        2   -1    0    0  501    0  0.00000000000E+00  0.00000000000E+00  0.23508598586E+04  0.23508598586E+04  0.25500000920E-02 0. -1.
       -2   -1    0    0    0  501  0.00000000000E+00  0.00000000000E+00 -0.95852332324E+03  0.95852332324E+03  0.25500000920E-02 0.  1.
    10030    2    1    2    0    0  0.00000000000E+00  0.00000000000E+00  0.13923365354E+04  0.33093831819E+04  0.30022351701E+04 0.  0.
        1    1    3    3  502    0 -0.37888800164E+03 -0.18986546470E+03  0.22835465755E+04  0.23225395529E+04  0.50400001928E-02 0. -1.
       -1    1    3    3    0  502  0.37888800164E+03  0.18986546470E+03 -0.89121004008E+03  0.98684362897E+03  0.50400001928E-02 0.  1.
</event>
<event>
 5   0  0.6525507E-08  0.2999684E+04  0.7818609E-02  0.8243821E-01
       -1   -1    0    0    0  501  0.00000000000E+00  0.00000000000E+00  0.28959701713E+04  0.28959701713E+04  0.50400001928E-02 0. -1.
        1   -1    0    0  501    0  0.00000000000E+00  0.00000000000E+00 -0.77677783882E+03  0.77677783884E+03  0.50400001928E-02 0.  1.
    10030    2    1    2    0    0  0.00000000000E+00  0.00000000000E+00  0.21191923324E+04  0.36727480101E+04  0.29996836173E+04 0.  0.
        4    1    3    3  502    0 -0.54348955106E+02 -0.12655646567E+04  0.20428537396E+04  0.24037181039E+04  0.12699999809E+01 0. -1.
       -4    1    3    3    0  502  0.54348955106E+02  0.12655646567E+04  0.76338592886E+02  0.12690299062E+04  0.12699999809E+01 0.  1.
</event>
<event>
 5   0  0.1817566E-07  0.3000056E+04  0.7818609E-02  0.8243715E-01
       -2   -1    0    0    0  501  0.00000000000E+00  0.00000000000E+00  0.28162035754E+04  0.28162035754E+04  0.25500000920E-02 0.  1.
        2   -1    0    0  501    0  0.00000000000E+00  0.00000000000E+00 -0.79897763756E+03  0.79897763757E+03  0.25500000920E-02 0. -1.
    10030    2    1    2    0    0  0.00000000000E+00  0.00000000000E+00  0.20172259378E+04  0.36151812130E+04  0.30000557859E+04 0.  0.
        1    1    3    3  502    0  0.49460875507E+03 -0.12163777514E+04  0.18824699539E+04  0.22951918835E+04  0.50400001928E-02 0.  1.
       -1    1    3    3    0  502 -0.49460875507E+03  0.12163777514E+04  0.13475598399E+03  0.13199893295E+04  0.50400001928E-02 0. -1.
</event>
<event>
 5   0  0.6374748E-08  0.3000457E+04  0.7818609E-02  0.8243600E-01
       -1   -1    0    0    0  501  0.00000000000E+00  0.00000000000E+00  0.94200828758E+03  0.94200828760E+03  0.50400001928E-02 0.  1.
        1   -1    0    0  501    0  0.00000000000E+00  0.00000000000E+00 -0.23892422520E+04  0.23892422520E+04  0.50400001928E-02 0. -1.
    10030    2    1    2    0    0  0.00000000000E+00  0.00000000000E+00 -0.14472339644E+04  0.33312505396E+04  0.30004573001E+04 0.  0.
        1    1    3    3  502    0  0.48616023922E+03  0.81709279147E+03 -0.20120274460E+04  0.22253644311E+04  0.50400001928E-02 0. -1.
       -1    1    3    3    0  502 -0.48616023922E+03 -0.81709279147E+03  0.56479348154E+03  0.11058861085E+04  0.50400001928E-02 0.  1.
</event>
<event>
 5   0  0.1810055E-07  0.3000077E+04  0.7818609E-02  0.8243709E-01
        2   -1    0    0  501    0  0.00000000000E+00  0.00000000000E+00  0.30145294326E+04  0.30145294326E+04  0.25500000920E-02 0.  1.
       -2   -1    0    0    0  501  0.00000000000E+00  0.00000000000E+00 -0.74642365535E+03  0.74642365535E+03  0.25500000920E-02 0. -1.
    10030    2    1    2    0    0  0.00000000000E+00  0.00000000000E+00  0.22681057773E+04  0.37609530880E+04  0.30000773845E+04 0.  0.
        4    1    3    3  502    0 -0.13339300563E+04  0.80537508398E+02  0.19882252644E+04  0.23955995075E+04  0.12699999809E+01 0.  1.
       -4    1    3    3    0  502  0.13339300563E+04 -0.80537508398E+02  0.27988051285E+03  0.13653535805E+04  0.12699999809E+01 0. -1.
</event>
<event>
 5   0  0.6374748E-08  0.2999161E+04  0.7818609E-02  0.8243970E-01
        1   -1    0    0  501    0  0.00000000000E+00  0.00000000000E+00  0.10942655961E+04  0.10942655961E+04  0.50400001928E-02 0.  1.
       -1   -1    0    0    0  501  0.00000000000E+00  0.00000000000E+00 -0.20550236916E+04  0.20550236916E+04  0.50400001928E-02 0. -1.
    10030    2    1    2    0    0  0.00000000000E+00  0.00000000000E+00 -0.96075809552E+03  0.31492892877E+04  0.29991610326E+04 0.  0.
        1    1    3    3  502    0 -0.76651271310E+03  0.72201205709E+03 -0.16014829817E+04  0.19166613918E+04  0.50400001928E-02 0. -1.
       -1    1    3    3    0  502  0.76651271310E+03 -0.72201205709E+03  0.64072488622E+03  0.12326278959E+04  0.50400001928E-02 0.  1.
</event>
<event>
 5   0  0.1914439E-07  0.3000296E+04  0.7818609E-02  0.8243646E-01
        2   -1    0    0  501    0  0.00000000000E+00  0.00000000000E+00  0.18901301245E+04  0.18901301245E+04  0.25500000920E-02 0.  1.
       -2   -1    0    0    0  501  0.00000000000E+00  0.00000000000E+00 -0.11906294196E+04  0.11906294197E+04  0.25500000920E-02 0. -1.
    10030    2    1    2    0    0  0.00000000000E+00  0.00000000000E+00  0.69950070484E+03  0.30807595441E+04  0.30002963408E+04 0.  0.
        5    1    3    3  502    0 -0.45926632397E+03 -0.88689458750E+03  0.14991059979E+04  0.18013462878E+04  0.46999998093E+01 0.  1.
       -5    1    3    3    0  502  0.45926632397E+03  0.88689458750E+03 -0.79960529309E+03  0.12794132563E+04  0.46999998093E+01 0. -1.
</event>
<event>
 5   0  0.1914439E-07  0.3006543E+04  0.7818609E-02  0.8241865E-01
        2   -1    0    0  501    0  0.00000000000E+00  0.00000000000E+00  0.22647983436E+04  0.22647983436E+04  0.25500000920E-02 0.  1.
       -2   -1    0    0    0  501  0.00000000000E+00  0.00000000000E+00 -0.99780437630E+03  0.99780437630E+03  0.25500000920E-02 0. -1.
    10030    2    1    2    0    0  0.00000000000E+00  0.00000000000E+00  0.12669939673E+04  0.32626027199E+04  0.30065433300E+04 0.  0.
        5    1    3    3  502    0 -0.10176582746E+04  0.89549259039E+03  0.13386623089E+04  0.19051441443E+04  0.46999998093E+01 0.  1.
       -5    1    3    3    0  502  0.10176582746E+04 -0.89549259039E+03 -0.71668341593E+02  0.13574585756E+04  0.46999998093E+01 0. -1.
</event>
<event>
 5   0  0.1821305E-07  0.3000416E+04  0.7818609E-02  0.8243612E-01
        2   -1    0    0  501    0  0.00000000000E+00  0.00000000000E+00  0.22645884286E+04  0.22645884286E+04  0.25500000920E-02 0. -1.
       -2   -1    0    0    0  501  0.00000000000E+00  0.00000000000E+00 -0.99383335341E+03  0.99383335341E+03  0.25500000920E-02 0.  1.
    10030    2    1    2    0    0  0.00000000000E+00  0.00000000000E+00  0.12707550752E+04  0.32584217820E+04  0.30004156459E+04 0.  0.
        2    1    3    3  502    0  0.29519756678E+03 -0.14581275503E+04  0.42550883963E+03  0.15473639937E+04  0.25500000920E-02 0.  1.
       -2    1    3    3    0  502 -0.29519756678E+03  0.14581275503E+04  0.84524623556E+03  0.17110577883E+04  0.25500000920E-02 0. -1.
</event>
<event>
 5   0  0.1821305E-07  0.3000297E+04  0.7818609E-02  0.8243646E-01
        2   -1    0    0  501    0  0.00000000000E+00  0.00000000000E+00  0.21243092116E+04  0.21243092116E+04  0.25500000920E-02 0.  1.
       -2   -1    0    0    0  501  0.00000000000E+00  0.00000000000E+00 -0.10593778229E+04  0.10593778229E+04  0.25500000920E-02 0. -1.
    10030    2    1    2    0    0  0.00000000000E+00  0.00000000000E+00  0.10649313887E+04  0.31836870345E+04  0.30002973637E+04 0.  0.
        2    1    3    3  502    0  0.13571128023E+04  0.63495682349E+03  0.61130899253E+03  0.16182163052E+04  0.25500000920E-02 0. -1.
       -2    1    3    3    0  502 -0.13571128023E+04 -0.63495682349E+03  0.45362239619E+03  0.15654707293E+04  0.25500000920E-02 0.  1.
</event>
<event>
 5   0  0.1817566E-07  0.2999642E+04  0.7818609E-02  0.8243833E-01
        2   -1    0    0  501    0  0.00000000000E+00  0.00000000000E+00  0.24381166110E+04  0.24381166110E+04  0.25500000920E-02 0. -1.
       -2   -1    0    0    0  501  0.00000000000E+00  0.00000000000E+00 -0.92262333393E+03  0.92262333393E+03  0.25500000920E-02 0.  1.
    10030    2    1    2    0    0  0.00000000000E+00  0.00000000000E+00  0.15154932771E+04  0.33607399450E+04  0.29996421628E+04 0.  0.
        1    1    3    3  502    0  0.28655317298E+03 -0.90096274468E+03 -0.54672280896E+03  0.10921320516E+04  0.50400001928E-02 0.  1.
       -1    1    3    3    0  502 -0.28655317298E+03  0.90096274468E+03  0.20622160861E+04  0.22686078934E+04  0.50400001928E-02 0. -1.
</event>
<event>
 5   0  0.6464436E-08  0.2999652E+04  0.7818609E-02  0.8243830E-01
       -1   -1    0    0    0  501  0.00000000000E+00  0.00000000000E+00  0.10440075015E+04  0.10440075015E+04  0.50400001928E-02 0.  1.
        1   -1    0    0  501    0  0.00000000000E+00  0.00000000000E+00 -0.21546574784E+04  0.21546574784E+04  0.50400001928E-02 0. -1.
    10030    2    1    2    0    0  0.00000000000E+00  0.00000000000E+00 -0.11106499768E+04  0.31986649799E+04  0.29996523603E+04 0.  0.
        5    1    3    3  502    0  0.48566673204E+03  0.56420822917E+03  0.83307671953E+03  0.11172475156E+04  0.46999998093E+01 0.  1.
       -5    1    3    3    0  502 -0.48566673204E+03 -0.56420822917E+03 -0.19437266964E+04  0.20814174643E+04  0.46999998093E+01 0. -1.
</event>
<event>
 5   0  0.6679022E-08  0.2999149E+04  0.7818609E-02  0.8243974E-01
        1   -1    0    0  501    0  0.00000000000E+00  0.00000000000E+00  0.18563890597E+04  0.18563890597E+04  0.50400001928E-02 0. -1.
       -1   -1    0    0    0  501  0.00000000000E+00  0.00000000000E+00 -0.12113431044E+04  0.12113431044E+04  0.50400001928E-02 0.  1.
    10030    2    1    2    0    0  0.00000000000E+00  0.00000000000E+00  0.64504595529E+03  0.30677321641E+04  0.29991492704E+04 0.  0.
        3    1    3    3  502    0  0.10871596889E+04  0.22208687033E+02 -0.73371565616E+03  0.13117728802E+04  0.10100000352E+00 0.  1.
       -3    1    3    3    0  502 -0.10871596889E+04 -0.22208687033E+02  0.13787616115E+04  0.17559592838E+04  0.10100000352E+00 0. -1.
</event>
<event>
 5   0  0.1813720E-07  0.2994304E+04  0.7818609E-02  0.8245359E-01
        2   -1    0    0  501    0  0.00000000000E+00  0.00000000000E+00  0.18000805367E+04  0.18000805367E+04  0.25500000920E-02 0.  1.
       -2   -1    0    0    0  501  0.00000000000E+00  0.00000000000E+00 -0.12452020986E+04  0.12452020986E+04  0.25500000920E-02 0. -1.
    10030    2    1    2    0    0  0.00000000000E+00  0.00000000000E+00  0.55487843816E+03  0.30452826353E+04  0.29943039672E+04 0.  0.
        3    1    3    3  502    0 -0.46429169361E+03 -0.11711593370E+04 -0.54520976522E+03  0.13727471245E+04  0.10100000352E+00 0. -1.
       -3    1    3    3    0  502  0.46429169361E+03  0.11711593370E+04  0.11000882034E+04  0.16725355108E+04  0.10100000352E+00 0.  1.
</event>
<event>
 5   0  0.6374748E-08  0.3000055E+04  0.7818609E-02  0.8243715E-01
        1   -1    0    0  501    0  0.00000000000E+00  0.00000000000E+00  0.19072864079E+04  0.19072864079E+04  0.50400001928E-02 0.  1.
       -1   -1    0    0    0  501  0.00000000000E+00  0.00000000000E+00 -0.11797297572E+04  0.11797297572E+04  0.50400001928E-02 0. -1.
    10030    2    1    2    0    0  0.00000000000E+00  0.00000000000E+00  0.72755665071E+03  0.30870161651E+04  0.30000550201E+04 0.  0.
        1    1    3    3  502    0  0.27066423205E+03 -0.14685471664E+04  0.50999808602E+03  0.15779695669E+04  0.50400001928E-02 0.  1.
       -1    1    3    3    0  502 -0.27066423205E+03  0.14685471664E+04  0.21755856470E+03  0.15090465982E+04  0.50400001928E-02 0. -1.
</event>
<event>
 5   0  0.1821305E-07  0.2999591E+04  0.7818609E-02  0.8243848E-01
       -2   -1    0    0    0  501  0.00000000000E+00  0.00000000000E+00  0.19187945451E+04  0.19187945451E+04  0.25500000920E-02 0.  1.
        2   -1    0    0  501    0  0.00000000000E+00  0.00000000000E+00 -0.11722918591E+04  0.11722918591E+04  0.25500000920E-02 0. -1.
    10030    2    1    2    0    0  0.00000000000E+00  0.00000000000E+00  0.74650268608E+03  0.30910864042E+04  0.29995914551E+04 0.  0.
        2    1    3    3  502    0 -0.83354298958E+02 -0.83953394591E+03  0.16510835638E+04  0.18541418824E+04  0.25500000920E-02 0.  1.
       -2    1    3    3    0  502  0.83354298958E+02  0.83953394591E+03 -0.90458087775E+03  0.12369445217E+04  0.25500000920E-02 0. -1.
</event>
<event>
 5   0  0.6525507E-08  0.2997120E+04  0.7818609E-02  0.8244554E-01
       -1   -1    0    0    0  501  0.00000000000E+00  0.00000000000E+00  0.12562145717E+04  0.12562145717E+04  0.50400001928E-02 0. -1.
        1   -1    0    0  501    0  0.00000000000E+00  0.00000000000E+00 -0.17876585620E+04  0.17876585620E+04  0.50400001928E-02 0.  1.
    10030    2    1    2    0    0  0.00000000000E+00  0.00000000000E+00 -0.53144399030E+03  0.30438731336E+04  0.29971204412E+04 0.  0.
        4    1    3    3  502    0 -0.11869163815E+04 -0.68737067943E+03  0.34737714588E+03  0.14148927317E+04  0.12699999809E+01 0. -1.
       -4    1    3    3    0  502  0.11869163815E+04  0.68737067943E+03 -0.87882113618E+03  0.16289804020E+04  0.12699999809E+01 0.  1.
</event>
<event>
 5   0  0.6374748E-08  0.3004356E+04  0.7818609E-02  0.8242488E-01
        1   -1    0    0  501    0  0.00000000000E+00  0.00000000000E+00  0.82056756501E+03  0.82056756503E+03  0.50400001928E-02 0.  1.
       -1   -1    0    0    0  501  0.00000000000E+00  0.00000000000E+00 -0.27499734259E+04  0.27499734259E+04  0.50400001928E-02 0. -1.
    10030    2    1    2    0    0  0.00000000000E+00  0.00000000000E+00 -0.19294058609E+04  0.35705409909E+04  0.30043561693E+04 0.  0.
        1    1    3    3  502    0 -0.76172197786E+03  0.27041751325E+03  0.54008572752E+03  0.97213095626E+03  0.50400001928E-02 0.  1.
       -1    1    3    3    0  502  0.76172197786E+03 -0.27041751325E+03 -0.24694915884E+04  0.25984100347E+04  0.50400001928E-02 0. -1.
</event>
<event>
 5   0  0.6636007E-08  0.2991993E+04  0.7818609E-02  0.8246021E-01
       -1   -1    0    0    0  501  0.00000000000E+00  0.00000000000E+00  0.11871808464E+04  0.11871808465E+04  0.50400001928E-02 0. -1.
        1   -1    0    0  501    0  0.00000000000E+00  0.00000000000E+00 -0.18851433633E+04  0.18851433633E+04  0.50400001928E-02 0.  1.
    10030    2    1    2    0    0  0.00000000000E+00  0.00000000000E+00 -0.69796251684E+03  0.30723242097E+04  0.29919933781E+04 0.  0.
        2    1    3    3  502    0 -0.88247994139E+03  0.10412500255E+04 -0.97782323265E+03  0.16790207673E+04  0.25500000920E-02 0.  1.
       -2    1    3    3    0  502  0.88247994139E+03 -0.10412500255E+04  0.27986071581E+03  0.13933034425E+04  0.25500000920E-02 0. -1.
</event>
<event>
 5   0  0.6679022E-08  0.2997265E+04  0.7818609E-02  0.8244512E-01
       -1   -1    0    0    0  501  0.00000000000E+00  0.00000000000E+00  0.13001815146E+04  0.13001815146E+04  0.50400001928E-02 0.  1.
        1   -1    0    0  501    0  0.00000000000E+00  0.00000000000E+00 -0.17273740406E+04  0.17273740406E+04  0.50400001928E-02 0. -1.
    10030    2    1    2    0    0  0.00000000000E+00  0.00000000000E+00 -0.42719252598E+03  0.30275555553E+04  0.29972652845E+04 0.  0.
        3    1    3    3  502    0  0.95642544386E+02  0.14626457033E+04  0.10167953654E+03  0.14692919002E+04  0.10100000352E+00 0.  1.
       -3    1    3    3    0  502 -0.95642544386E+02 -0.14626457033E+04 -0.52887206252E+03  0.15582636550E+04  0.10100000352E+00 0. -1.
</event>
<event>
 5   0  0.1810055E-07  0.3000154E+04  0.7818609E-02  0.8243687E-01
        2   -1    0    0  501    0  0.00000000000E+00  0.00000000000E+00  0.16496066233E+04  0.16496066233E+04  0.25500000920E-02 0. -1.
       -2   -1    0    0    0  501  0.00000000000E+00  0.00000000000E+00 -0.13641016787E+04  0.13641016787E+04  0.25500000920E-02 0.  1.
    10030    2    1    2    0    0  0.00000000000E+00  0.00000000000E+00  0.28550494457E+03  0.30137083020E+04  0.30001541054E+04 0.  0.
        4    1    3    3  502    0 -0.84063079638E+03 -0.63864534759E+03 -0.92775513476E+03  0.14054391551E+04  0.12699999809E+01 0.  1.
       -4    1    3    3    0  502  0.84063079638E+03  0.63864534759E+03  0.12132600793E+04  0.16082691469E+04  0.12699999809E+01 0. -1.
</event>
<event>
 5   0  0.1810055E-07  0.2999289E+04  0.7818609E-02  0.8243934E-01
       -2   -1    0    0    0  501  0.00000000000E+00  0.00000000000E+00  0.10971025755E+04  0.10971025755E+04  0.25500000920E-02 0.  1.
        2   -1    0    0  501    0  0.00000000000E+00  0.00000000000E+00 -0.20498842327E+04  0.20498842327E+04  0.25500000920E-02 0. -1.
    10030    2    1    2    0    0  0.00000000000E+00  0.00000000000E+00 -0.95278165723E+03  0.31469868081E+04  0.29992887631E+04 0.  0.
        4    1    3    3  502    0 -0.65036028147E+03 -0.13809773669E+02  0.94136018690E+03  0.11442551376E+04  0.12699999809E+01 0.  1.
       -4    1    3    3    0  502  0.65036028147E+03  0.13809773669E+02 -0.18941418441E+04  0.20027316705E+04  0.12699999809E+01 0. -1.
</event>
<event>
 5   0  0.6636007E-08  0.3001333E+04  0.7818609E-02  0.8243350E-01
        1   -1    0    0  501    0  0.00000000000E+00  0.00000000000E+00  0.15776368989E+04  0.15776368989E+04  0.50400001928E-02 0.  1.
       -1   -1    0    0    0  501  0.00000000000E+00  0.00000000000E+00 -0.14274510584E+04  0.14274510584E+04  0.50400001928E-02 0. -1.
    10030    2    1    2    0    0  0.00000000000E+00  0.00000000000E+00  0.15018584048E+03  0.30050879573E+04  0.30013326781E+04 0.  0.
        2    1    3    3  502    0  0.11890809756E+04 -0.84159184461E+03  0.43583396321E+03  0.15205728010E+04  0.25500000920E-02 0. -1.
       -2    1    3    3    0  502 -0.11890809756E+04  0.84159184461E+03 -0.28564812273E+03  0.14845151564E+04  0.25500000920E-02 0.  1.
</event>
<event>
 5   0  0.1810055E-07  0.3000367E+04  0.7818609E-02  0.8243626E-01
       -2   -1    0    0    0  501  0.00000000000E+00  0.00000000000E+00  0.10940955911E+04  0.10940955911E+04  0.25500000920E-02 0.  1.
        2   -1    0    0  501    0  0.00000000000E+00  0.00000000000E+00 -0.20569959515E+04  0.20569959515E+04  0.25500000920E-02 0. -1.
    10030    2    1    2    0    0  0.00000000000E+00  0.00000000000E+00 -0.96290036045E+03  0.31510915426E+04  0.30003667785E+04 0.  0.
        4    1    3    3  502    0 -0.37527613797E+03 -0.10608267186E+04  0.56054169013E+03  0.12571372662E+04  0.12699999809E+01 0.  1.
       -4    1    3    3    0  502  0.37527613797E+03  0.10608267186E+04 -0.15234420506E+04  0.18939542764E+04  0.12699999809E+01 0. -1.
</event>
<event>
 5   0  0.1817566E-07  0.3001780E+04  0.7818609E-02  0.8243223E-01
       -2   -1    0    0    0  501  0.00000000000E+00  0.00000000000E+00  0.28053748629E+04  0.28053748629E+04  0.25500000920E-02 0. -1.
        2   -1    0    0  501    0  0.00000000000E+00  0.00000000000E+00 -0.80298391442E+03  0.80298391443E+03  0.25500000920E-02 0.  1.
    10030    2    1    2    0    0  0.00000000000E+00  0.00000000000E+00  0.20023909485E+04  0.36083587773E+04  0.30017800645E+04 0.  0.
        1    1    3    3  502    0 -0.74901001034E+03 -0.32591248359E+03 -0.51238387594E+03  0.96424694912E+03  0.50400001928E-02 0.  1.
       -1    1    3    3    0  502  0.74901001034E+03  0.32591248359E+03  0.25147748244E+04  0.26441118282E+04  0.50400001928E-02 0. -1.
</event>
<event>
 5   0  0.1810055E-07  0.3000021E+04  0.7818609E-02  0.8243725E-01
       -2   -1    0    0    0  501  0.00000000000E+00  0.00000000000E+00  0.84976739255E+03  0.84976739255E+03  0.25500000920E-02 0. -1.
        2   -1    0    0  501    0  0.00000000000E+00  0.00000000000E+00 -0.26478201196E+04  0.26478201196E+04  0.25500000920E-02 0.  1.
    10030    2    1    2    0    0  0.00000000000E+00  0.00000000000E+00 -0.17980527270E+04  0.34975875121E+04  0.30000207992E+04 0.  0.
        4    1    3    3  502    0  0.13958086711E+04 -0.32001231350E+03 -0.37850159788E+03  0.14812004589E+04  0.12699999809E+01 0.  1.
       -4    1    3    3    0  502 -0.13958086711E+04  0.32001231350E+03 -0.14195511292E+04  0.20163870532E+04  0.12699999809E+01 0. -1.
</event>
<event>
 5   0  0.6679022E-08  0.3000010E+04  0.7818609E-02  0.8243728E-01
       -1   -1    0    0    0  501  0.00000000000E+00  0.00000000000E+00  0.84470511976E+03  0.84470511978E+03  0.50400001928E-02 0.  1.
        1   -1    0    0  501    0  0.00000000000E+00  0.00000000000E+00 -0.26636699327E+04  0.26636699327E+04  0.50400001928E-02 0. -1.
    10030    2    1    2    0    0  0.00000000000E+00  0.00000000000E+00 -0.18189648129E+04  0.35083750525E+04  0.30000104197E+04 0.  0.
        3    1    3    3  502    0  0.77173673738E+03 -0.87680706803E+03  0.19107746944E+03  0.11835872743E+04  0.10100000352E+00 0.  1.
       -3    1    3    3    0  502 -0.77173673738E+03  0.87680706803E+03 -0.20100422824E+04  0.23247877782E+04  0.10100000352E+00 0. -1.
</event>
<event>
 5   0  0.1914439E-07  0.3000356E+04  0.7818609E-02  0.8243629E-01
        2   -1    0    0  501    0  0.00000000000E+00  0.00000000000E+00  0.29760692895E+04  0.29760692895E+04  0.25500000920E-02 0. -1.
       -2   -1    0    0    0  501  0.00000000000E+00  0.00000000000E+00 -0.75621019522E+03  0.75621019522E+03  0.25500000920E-02 0.  1.
    10030    2    1    2    0    0  0.00000000000E+00  0.00000000000E+00  0.22198590943E+04  0.37322794847E+04  0.30003559378E+04 0.  0.
        5    1    3    3  502    0  0.40986482660E+03  0.13457201514E+04  0.46169192044E+03  0.14805854995E+04  0.46999998093E+01 0.  1.
       -5    1    3    3    0  502 -0.40986482660E+03 -0.13457201514E+04  0.17581671738E+04  0.22516939852E+04  0.46999998093E+01 0. -1.
</event>
<event>
 5   0  0.6464436E-08  0.2999860E+04  0.7818609E-02  0.8243771E-01
       -1   -1    0    0    0  501  0.00000000000E+00  0.00000000000E+00  0.10605409160E+04  0.10605409160E+04  0.50400001928E-02 0.  1.
        1   -1    0    0  501    0  0.00000000000E+00  0.00000000000E+00 -0.21213608728E+04  0.21213608728E+04  0.50400001928E-02 0. -1.
    10030    2    1    2    0    0  0.00000000000E+00  0.00000000000E+00 -0.10608199568E+04  0.31819017888E+04  0.29998599988E+04 0.  0.
        5    1    3    3  502    0 -0.10599253569E+04  0.99321463334E+03 -0.92706990597E+03  0.17231940606E+04  0.46999998093E+01 0. -1.
       -5    1    3    3    0  502  0.10599253569E+04 -0.99321463334E+03 -0.13375005083E+03  0.14587077281E+04  0.46999998093E+01 0.  1.
</event>
<event>
 5   0  0.6679022E-08  0.2999607E+04  0.7818609E-02  0.8243843E-01
       -1   -1    0    0    0  501  0.00000000000E+00  0.00000000000E+00  0.15310836383E+04  0.15310836383E+04  0.50400001928E-02 0.  1.
        1   -1    0    0  501    0  0.00000000000E+00  0.00000000000E+00 -0.14691622502E+04  0.14691622503E+04  0.50400001928E-02 0. -1.
    10030    2    1    2    0    0  0.00000000000E+00  0.00000000000E+00  0.61921388092E+02  0.30002458886E+04  0.29996068299E+04 0.  0.
        3    1    3    3  502    0  0.10035150459E+04  0.96979380572E+03  0.58050272002E+03  0.15114648164E+04  0.10100000352E+00 0.  1.
       -3    1    3    3    0  502 -0.10035150459E+04 -0.96979380572E+03 -0.51858133193E+03  0.14887810722E+04  0.10100000352E+00 0. -1.
</event>
<event>
 5   0  0.1813720E-07  0.3000507E+04  0.7818609E-02  0.8243586E-01
        2   -1    0    0  501    0  0.00000000000E+00  0.00000000000E+00  0.12750051055E+04  0.12750051055E+04  0.25500000920E-02 0. -1.
       -2   -1    0    0    0  501  0.00000000000E+00  0.00000000000E+00 -0.17652948975E+04  0.17652948975E+04  0.25500000920E-02 0.  1.
    10030    2    1    2    0    0  0.00000000000E+00  0.00000000000E+00 -0.49028979204E+03  0.30403000030E+04  0.30005066286E+04 0.  0.
        3    1    3    3  502    0 -0.79628816788E+03 -0.12712096849E+04 -0.27216477442E+03  0.15245073250E+04  0.10100000352E+00 0. -1.
       -3    1    3    3    0  502  0.79628816788E+03  0.12712096849E+04 -0.21812501762E+03  0.15157926780E+04  0.10100000352E+00 0.  1.
</event>
<event>
 5   0  0.6374748E-08  0.2999685E+04  0.7818609E-02  0.8243821E-01
        1   -1    0    0  501    0  0.00000000000E+00  0.00000000000E+00  0.19001014857E+04  0.19001014857E+04  0.50400001928E-02 0.  1.
       -1   -1    0    0    0  501  0.00000000000E+00  0.00000000000E+00 -0.11838985694E+04  0.11838985694E+04  0.50400001928E-02 0. -1.
    10030    2    1    2    0    0  0.00000000000E+00  0.00000000000E+00  0.71620291626E+03  0.30840000551E+04  0.29996849373E+04 0.  0.
        1    1    3    3  502    0 -0.71387693728E+03 -0.10997941112E+04  0.11068295729E+04  0.17158785132E+04  0.50400001928E-02 0.  1.
       -1    1    3    3    0  502  0.71387693728E+03  0.10997941112E+04 -0.39062665662E+03  0.13681215419E+04  0.50400001928E-02 0. -1.
</event>
<event>
 5   0  0.6525507E-08  0.2999399E+04  0.7818609E-02  0.8243903E-01
        1   -1    0    0  501    0  0.00000000000E+00  0.00000000000E+00  0.14147711702E+04  0.14147711702E+04  0.50400001928E-02 0. -1.
       -1   -1    0    0    0  501  0.00000000000E+00  0.00000000000E+00 -0.15897255850E+04  0.15897255850E+04  0.50400001928E-02 0.  1.
    10030    2    1    2    0    0  0.00000000000E+00  0.00000000000E+00 -0.17495441478E+03  0.30044967552E+04  0.29993985571E+04 0.  0.
        4    1    3    3  502    0  0.41357755594E+02  0.13054502342E+04 -0.82574115283E+03  0.15452381183E+04  0.12699999809E+01 0.  1.
       -4    1    3    3    0  502 -0.41357755594E+02 -0.13054502342E+04  0.65078673806E+03  0.14592586369E+04  0.12699999809E+01 0. -1.
</event>
<event>
 5   0  0.6464436E-08  0.3001016E+04  0.7818609E-02  0.8243441E-01
        1   -1    0    0  501    0  0.00000000000E+00  0.00000000000E+00  0.15776969687E+04  0.15776969687E+04  0.50400001928E-02 0. -1.
       -1   -1    0    0    0  501  0.00000000000E+00  0.00000000000E+00 -0.14270954926E+04  0.14270954926E+04  0.50400001928E-02 0.  1.
    10030    2    1    2    0    0  0.00000000000E+00  0.00000000000E+00  0.15060147607E+03  0.30047924614E+04  0.30010159832E+04 0.  0.
        5    1    3    3  502    0  0.86196535706E+02 -0.89053531073E+03 -0.11307976754E+04  0.14419460653E+04  0.46999998093E+01 0.  1.
       -5    1    3    3    0  502 -0.86196535706E+02  0.89053531073E+03  0.12813991515E+04  0.15628463961E+04  0.46999998093E+01 0. -1.
</event>
<event>
 5   0  0.6374748E-08  0.3003693E+04  0.7818609E-02  0.8242677E-01
        1   -1    0    0  501    0  0.00000000000E+00  0.00000000000E+00  0.15779849938E+04  0.15779849938E+04  0.50400001928E-02 0. -1.
       -1   -1    0    0    0  501  0.00000000000E+00  0.00000000000E+00 -0.14293819387E+04  0.14293819388E+04  0.50400001928E-02 0.  1.
    10030    2    1    2    0    0  0.00000000000E+00  0.00000000000E+00  0.14860305507E+03  0.30073669326E+04  0.30036932265E+04 0.  0.
        1    1    3    3  502    0  0.86051461710E+03 -0.20870733885E+03 -0.11402357356E+04  0.14436695232E+04  0.50400001928E-02 0.  1.
       -1    1    3    3    0  502 -0.86051461710E+03  0.20870733885E+03  0.12888387907E+04  0.15636974093E+04  0.50400001928E-02 0. -1.
</event>
<event>
 5   0  0.6374748E-08  0.3000270E+04  0.7818609E-02  0.8243654E-01
        1   -1    0    0  501    0  0.00000000000E+00  0.00000000000E+00  0.21500767307E+04  0.21500767307E+04  0.50400001928E-02 0.  1.
       -1   -1    0    0    0  501  0.00000000000E+00  0.00000000000E+00 -0.10466626695E+04  0.10466626695E+04  0.50400001928E-02 0. -1.
    10030    2    1    2    0    0  0.00000000000E+00  0.00000000000E+00  0.11034140612E+04  0.31967394002E+04  0.30002700215E+04 0.  0.
        1    1    3    3  502    0  0.23059820288E+03 -0.38208978582E+03  0.20777079773E+04  0.21250973095E+04  0.50400001928E-02 0.  1.
       -1    1    3    3    0  502 -0.23059820288E+03  0.38208978582E+03 -0.97429391611E+03  0.10716420907E+04  0.50400001928E-02 0. -1.
</event>
<event>
 5   0  0.1810055E-07  0.3000502E+04  0.7818609E-02  0.8243588E-01
       -2   -1    0    0    0  501  0.00000000000E+00  0.00000000000E+00  0.11855902263E+04  0.11855902263E+04  0.25500000920E-02 0.  1.
        2   -1    0    0  501    0  0.00000000000E+00  0.00000000000E+00 -0.18984234920E+04  0.18984234920E+04  0.25500000920E-02 0. -1.
    10030    2    1    2    0    0  0.00000000000E+00  0.00000000000E+00 -0.71283326572E+03  0.30840137183E+04  0.30005015165E+04 0.  0.
        4    1    3    3  502    0  0.12001413938E+04 -0.87066464696E+03 -0.12123728768E+03  0.14876479373E+04  0.12699999809E+01 0. -1.
       -4    1    3    3    0  502 -0.12001413938E+04  0.87066464696E+03 -0.59159597804E+03  0.15963657810E+04  0.12699999809E+01 0.  1.
</event>
<event>
 5   0  0.6525507E-08  0.2999935E+04  0.7818609E-02  0.8243749E-01
        1   -1    0    0  501    0  0.00000000000E+00  0.00000000000E+00  0.20507604680E+04  0.20507604680E+04  0.50400001928E-02 0. -1.
       -1   -1    0    0    0  501  0.00000000000E+00  0.00000000000E+00 -0.10971065642E+04  0.10971065642E+04  0.50400001928E-02 0.  1.
    10030    2    1    2    0    0  0.00000000000E+00  0.00000000000E+00  0.95365390379E+03  0.31478670322E+04  0.29999351800E+04 0.  0.
        4    1    3    3  502    0 -0.26530859164E+03  0.11536305231E+04 -0.48982157243E+03  0.12810850160E+04  0.12699999809E+01 0.  1.
       -4    1    3    3    0  502  0.26530859164E+03 -0.11536305231E+04  0.14434754762E+04  0.18667820162E+04  0.12699999809E+01 0. -1.
</event>
<event>
 5   0  0.6374748E-08  0.2998095E+04  0.7818609E-02  0.8244275E-01
       -1   -1    0    0    0  501  0.00000000000E+00  0.00000000000E+00  0.16185032922E+04  0.16185032922E+04  0.50400001928E-02 0. -1.
        1   -1    0    0  501    0  0.00000000000E+00  0.00000000000E+00 -0.13884084647E+04  0.13884084648E+04  0.50400001928E-02 0.  1.
    10030    2    1    2    0    0  0.00000000000E+00  0.00000000000E+00  0.23009482743E+03  0.30069117569E+04  0.29980951760E+04 0.  0.
        1    1    3    3  502    0  0.14795288222E+04 -0.10793431771E+03 -0.10119813971E+03  0.14869083416E+04  0.50400001928E-02 0.  1.
       -1    1    3    3    0  502 -0.14795288222E+04  0.10793431771E+03  0.33129296714E+03  0.15200034154E+04  0.50400001928E-02 0. -1.
</event>
<event>
 5   0  0.6679022E-08  0.2999966E+04  0.7818609E-02  0.8243741E-01
        1   -1    0    0  501    0  0.00000000000E+00  0.00000000000E+00  0.21979770993E+04  0.21979770994E+04  0.50400001928E-02 0. -1.
       -1   -1    0    0    0  501  0.00000000000E+00  0.00000000000E+00 -0.10236452195E+04  0.10236452195E+04  0.50400001928E-02 0.  1.
    10030    2    1    2    0    0  0.00000000000E+00  0.00000000000E+00  0.11743318799E+04  0.32216223189E+04  0.29999658334E+04 0.  0.
        3    1    3    3  502    0 -0.49873435802E+03  0.37607319849E+03 -0.87733382135E+03  0.10769780196E+04  0.10100000352E+00 0.  1.
       -3    1    3    3    0  502  0.49873435802E+03 -0.37607319849E+03  0.20516657012E+04  0.21446442992E+04  0.10100000352E+00 0. -1.
</event>
<event>
 5   0  0.6679022E-08  0.3000144E+04  0.7818609E-02  0.8243690E-01
        1   -1    0    0  501    0  0.00000000000E+00  0.00000000000E+00  0.12356293686E+04  0.12356293686E+04  0.50400001928E-02 0. -1.
       -1   -1    0    0    0  501  0.00000000000E+00  0.00000000000E+00 -0.18211090851E+04  0.18211090851E+04  0.50400001928E-02 0.  1.
    10030    2    1    2    0    0  0.00000000000E+00  0.00000000000E+00 -0.58547971649E+03  0.30567384537E+04  0.30001439092E+04 0.  0.
        3    1    3    3  502    0 -0.12245177647E+04  0.29884928546E+03  0.53590489110E+03  0.13696527713E+04  0.10100000352E+00 0. -1.
       -3    1    3    3    0  502  0.12245177647E+04 -0.29884928546E+03 -0.11213846076E+04  0.16870856824E+04  0.10100000352E+00 0.  1.
</event>
<event>
 5   0  0.1810055E-07  0.2996943E+04  0.7818609E-02  0.8244604E-01
       -2   -1    0    0    0  501  0.00000000000E+00  0.00000000000E+00  0.16396324740E+04  0.16396324740E+04  0.25500000920E-02 0. -1.
        2   -1    0    0  501    0  0.00000000000E+00  0.00000000000E+00 -0.13694638735E+04  0.13694638735E+04  0.25500000920E-02 0.  1.
    10030    2    1    2    0    0  0.00000000000E+00  0.00000000000E+00  0.27016860044E+03  0.30090963475E+04  0.29969434022E+04 0.  0.
        4    1    3    3  502    0  0.41433102557E+03 -0.78912253756E+03  0.13445566237E+04  0.16131393942E+04  0.12699999809E+01 0. -1.
       -4    1    3    3    0  502 -0.41433102557E+03  0.78912253756E+03 -0.10743880232E+04  0.13959569533E+04  0.12699999809E+01 0.  1.
</event>
<event>
 5   0  0.6636007E-08  0.2999501E+04  0.7818609E-02  0.8243873E-01
       -1   -1    0    0    0  501  0.00000000000E+00  0.00000000000E+00  0.11882927619E+04  0.11882927619E+04  0.50400001928E-02 0.  1.
        1   -1    0    0  501    0  0.00000000000E+00  0.00000000000E+00 -0.18928431248E+04  0.18928431248E+04  0.50400001928E-02 0. -1.
    10030    2    1    2    0    0  0.00000000000E+00  0.00000000000E+00 -0.70455036291E+03  0.30811358866E+04  0.29995011482E+04 0.  0.
        2    1    3    3  502    0 -0.15508681034E+03 -0.35910321491E+03 -0.18395211948E+04  0.18806502237E+04  0.25500000920E-02 0. -1.
       -2    1    3    3    0  502  0.15508681034E+03  0.35910321491E+03  0.11349708319E+04  0.12004856630E+04  0.25500000920E-02 0.  1.
</event>
<event>
 5   0  0.6525507E-08  0.3002228E+04  0.7818609E-02  0.8243095E-01
        1   -1    0    0  501    0  0.00000000000E+00  0.00000000000E+00  0.12392031928E+04  0.12392031928E+04  0.50400001928E-02 0.  1.
       -1   -1    0    0    0  501  0.00000000000E+00  0.00000000000E+00 -0.18183802524E+04  0.18183802524E+04  0.50400001928E-02 0. -1.
    10030    2    1    2    0    0  0.00000000000E+00  0.00000000000E+00 -0.57917705956E+03  0.30575834452E+04  0.30022275826E+04 0.  0.
        4    1    3    3  502    0  0.12545340103E+04 -0.61444900495E+03  0.27003179440E+03  0.14227866831E+04  0.12699999809E+01 0. -1.
       -4    1    3    3    0  502 -0.12545340103E+04  0.61444900495E+03 -0.84920885397E+03  0.16347967621E+04  0.12699999809E+01 0.  1.
</event>
<event>
 5   0  0.1810055E-07  0.3004717E+04  0.7818609E-02  0.8242385E-01
        2   -1    0    0  501    0  0.00000000000E+00  0.00000000000E+00  0.26014137403E+04  0.26014137403E+04  0.25500000920E-02 0. -1.
       -2   -1    0    0    0  501  0.00000000000E+00  0.00000000000E+00 -0.86763651834E+03  0.86763651834E+03  0.25500000920E-02 0.  1.
    10030    2    1    2    0    0  0.00000000000E+00  0.00000000000E+00  0.17337772220E+04  0.34690502587E+04  0.30047173314E+04 0.  0.
        4    1    3    3  502    0  0.72255159710E+03  0.66118395752E+03 -0.44838678456E+03  0.10771709974E+04  0.12699999809E+01 0.  1.
       -4    1    3    3    0  502 -0.72255159710E+03 -0.66118395752E+03  0.21821640065E+04  0.23918792613E+04  0.12699999809E+01 0. -1.
</event>
<event>
 5   0  0.1914439E-07  0.2997116E+04  0.7818609E-02  0.8244555E-01
        2   -1    0    0  501    0  0.00000000000E+00  0.00000000000E+00  0.17686128330E+04  0.17686128330E+04  0.25500000920E-02 0.  1.
       -2   -1    0    0    0  501  0.00000000000E+00  0.00000000000E+00 -0.12697384109E+04  0.12697384109E+04  0.25500000920E-02 0. -1.
    10030    2    1    2    0    0  0.00000000000E+00  0.00000000000E+00  0.49887442209E+03  0.30383512440E+04  0.29971157122E+04 0.  0.
        5    1    3    3  502    0 -0.71510728744E+03 -0.13168363267E+04  0.26437818066E+03  0.15216288168E+04  0.46999998093E+01 0. -1.
       -5    1    3    3    0  502  0.71510728744E+03  0.13168363267E+04  0.23449624143E+03  0.15167224271E+04  0.46999998093E+01 0.  1.
</event>
<event>
 5   0  0.6525507E-08  0.3001998E+04  0.7818609E-02  0.8243161E-01
       -1   -1    0    0    0  501  0.00000000000E+00  0.00000000000E+00  0.15171084247E+04  0.15171084247E+04  0.50400001928E-02 0.  1.
        1   -1    0    0  501    0  0.00000000000E+00  0.00000000000E+00 -0.14850604438E+04  0.14850604438E+04  0.50400001928E-02 0. -1.
    10030    2    1    2    0    0  0.00000000000E+00  0.00000000000E+00  0.32047980845E+02  0.30021688685E+04  0.30019978084E+04 0.  0.
        4    1    3    3  502    0  0.10413754879E+04  0.10317817333E+04 -0.30642211910E+03  0.14976423405E+04  0.12699999809E+01 0. -1.
       -4    1    3    3    0  502 -0.10413754879E+04 -0.10317817333E+04  0.33847009994E+03  0.15045265280E+04  0.12699999809E+01 0.  1.
</event>
<event>
 5   0  0.1810055E-07  0.3001775E+04  0.7818609E-02  0.8243224E-01
       -2   -1    0    0    0  501  0.00000000000E+00  0.00000000000E+00  0.95908479620E+03  0.95908479620E+03  0.25500000920E-02 0.  1.
        2   -1    0    0  501    0  0.00000000000E+00  0.00000000000E+00 -0.23487629626E+04  0.23487629626E+04  0.25500000920E-02 0. -1.
    10030    2    1    2    0    0  0.00000000000E+00  0.00000000000E+00 -0.13896781664E+04  0.33078477588E+04  0.30017747066E+04 0.  0.
        4    1    3    3  502    0  0.61036535682E+03  0.82458092445E+03 -0.19020715683E+04  0.21611009772E+04  0.12699999809E+01 0. -1.
       -4    1    3    3    0  502 -0.61036535682E+03 -0.82458092445E+03  0.51239340194E+03  0.11467467816E+04  0.12699999809E+01 0.  1.
</event>
<event>
 5   0  0.1813720E-07  0.3000312E+04  0.7818609E-02  0.8243642E-01
       -2   -1    0    0    0  501  0.00000000000E+00  0.00000000000E+00  0.12102146727E+04  0.12102146727E+04  0.25500000920E-02 0. -1.
        2   -1    0    0  501    0  0.00000000000E+00  0.00000000000E+00 -0.18595614875E+04  0.18595614875E+04  0.25500000920E-02 0.  1.
    10030    2    1    2    0    0  0.00000000000E+00  0.00000000000E+00 -0.64934681479E+03  0.30697761602E+04  0.30003123817E+04 0.  0.
        3    1    3    3  502    0 -0.16508544402E+03  0.14071809212E+04  0.17974916648E+03  0.14281880555E+04  0.10100000352E+00 0. -1.
       -3    1    3    3    0  502  0.16508544402E+03 -0.14071809212E+04 -0.82909598127E+03  0.16415881046E+04  0.10100000352E+00 0.  1.
</event>
<event>
 5   0  0.6464436E-08  0.2999909E+04  0.7818609E-02  0.8243757E-01
        1   -1    0    0  501    0  0.00000000000E+00  0.00000000000E+00  0.12597881049E+04  0.12597881049E+04  0.50400001928E-02 0.  1.
       -1   -1    0    0    0  501  0.00000000000E+00  0.00000000000E+00 -0.17859066875E+04  0.17859066875E+04  0.50400001928E-02 0. -1.
    10030    2    1    2    0    0  0.00000000000E+00  0.00000000000E+00 -0.52611858258E+03  0.30456947924E+04  0.29999093329E+04 0.  0.
        5    1    3    3  502    0  0.13425929490E+04  0.28799178931E+03 -0.87588325532E+03  0.16287076669E+04  0.46999998093E+01 0. -1.
       -5    1    3    3    0  502 -0.13425929490E+04 -0.28799178931E+03  0.34976467273E+03  0.14169871255E+04  0.46999998093E+01 0.  1.
</event>
<event>
 5   0  0.1821305E-07  0.2999410E+04  0.7818609E-02  0.8243900E-01
       -2   -1    0    0    0  501  0.00000000000E+00  0.00000000000E+00  0.12112656822E+04  0.12112656822E+04  0.25500000920E-02 0. -1.
        2   -1    0    0  501    0  0.00000000000E+00  0.00000000000E+00 -0.18568299984E+04  0.18568299984E+04  0.25500000920E-02 0.  1.
    10030    2    1    2    0    0  0.00000000000E+00  0.00000000000E+00 -0.64556431623E+03  0.30680956807E+04  0.29994095785E+04 0.  0.
        2    1    3    3  502    0  0.38167494418E+03 -0.68403889907E+03  0.98538220224E+03  0.12587942894E+04  0.25500000920E-02 0. -1.
       -2    1    3    3    0  502 -0.38167494418E+03  0.68403889907E+03 -0.16309465185E+04  0.18093013913E+04  0.25500000920E-02 0.  1.
</event>
<event>
 5   0  0.6464436E-08  0.3001820E+04  0.7818609E-02  0.8243211E-01
       -1   -1    0    0    0  501  0.00000000000E+00  0.00000000000E+00  0.16396840333E+04  0.16396840333E+04  0.50400001928E-02 0.  1.
        1   -1    0    0  501    0  0.00000000000E+00  0.00000000000E+00 -0.13738813282E+04  0.13738813282E+04  0.50400001928E-02 0. -1.
    10030    2    1    2    0    0  0.00000000000E+00  0.00000000000E+00  0.26580270514E+03  0.30135653615E+04  0.30018202994E+04 0.  0.
        5    1    3    3  502    0  0.71598702163E+03  0.31839925524E+02 -0.11909918656E+04  0.13900125575E+04  0.46999998093E+01 0. -1.
       -5    1    3    3    0  502 -0.71598702163E+03 -0.31839925524E+02  0.14567945707E+04  0.16235528040E+04  0.46999998093E+01 0.  1.
</event>
<event>
 5   0  0.1821305E-07  0.2999238E+04  0.7818609E-02  0.8243949E-01
       -2   -1    0    0    0  501  0.00000000000E+00  0.00000000000E+00  0.16577807547E+04  0.16577807547E+04  0.25500000920E-02 0. -1.
        2   -1    0    0  501    0  0.00000000000E+00  0.00000000000E+00 -0.13565463695E+04  0.13565463695E+04  0.25500000920E-02 0.  1.
    10030    2    1    2    0    0  0.00000000000E+00  0.00000000000E+00  0.30123438512E+03  0.30143271242E+04  0.29992375459E+04 0.  0.
        2    1    3    3  502    0 -0.33015840380E+03  0.98919870842E+03  0.12336928621E+04  0.16153998682E+04  0.25500000920E-02 0. -1.
       -2    1    3    3    0  502  0.33015840380E+03 -0.98919870842E+03 -0.93245847694E+03  0.13989272560E+04  0.25500000920E-02 0.  1.
</event>
<event>
 5   0  0.6679022E-08  0.3000141E+04  0.7818609E-02  0.8243691E-01
       -1   -1    0    0    0  501  0.00000000000E+00  0.00000000000E+00  0.14279992485E+04  0.14279992485E+04  0.50400001928E-02 0. -1.
        1   -1    0    0  501    0  0.00000000000E+00  0.00000000000E+00 -0.15757795762E+04  0.15757795762E+04  0.50400001928E-02 0.  1.
    10030    2    1    2    0    0  0.00000000000E+00  0.00000000000E+00 -0.14778032767E+03  0.30037788248E+04  0.30001413638E+04 0.  0.
        3    1    3    3  502    0 -0.85572393539E+03  0.49249619190E+03  0.10568134310E+04  0.14462608999E+04  0.10100000352E+00 0. -1.
       -3    1    3    3    0  502  0.85572393539E+03 -0.49249619190E+03 -0.12045937586E+04  0.15575179248E+04  0.10100000352E+00 0.  1.
</event>
<event>
 5   0  0.1813720E-07  0.3001814E+04  0.7818609E-02  0.8243213E-01
       -2   -1    0    0    0  501  0.00000000000E+00  0.00000000000E+00  0.20679763654E+04  0.20679763654E+04  0.25500000920E-02 0. -1.
        2   -1    0    0  501    0  0.00000000000E+00  0.00000000000E+00 -0.10893361852E+04  0.10893361852E+04  0.25500000920E-02 0.  1.
    10030    2    1    2    0    0  0.00000000000E+00  0.00000000000E+00  0.97864018026E+03  0.31573125506E+04  0.30018137750E+04 0.  0.
        3    1    3    3  502    0  0.97974028025E+02 -0.84486342071E+03  0.17900412388E+04  0.19818276304E+04  0.10100000352E+00 0. -1.
       -3    1    3    3    0  502 -0.97974028025E+02  0.84486342071E+03 -0.81140105849E+03  0.11754849202E+04  0.10100000352E+00 0.  1.
</event>
<event>
 5   0  0.6525507E-08  0.2999186E+04  0.7818609E-02  0.8243963E-01
       -1   -1    0    0    0  501  0.00000000000E+00  0.00000000000E+00  0.94181040190E+03  0.94181040192E+03  0.50400001928E-02 0. -1.
        1   -1    0    0  501    0  0.00000000000E+00  0.00000000000E+00 -0.23877200225E+04  0.23877200225E+04  0.50400001928E-02 0.  1.
    10030    2    1    2    0    0  0.00000000000E+00  0.00000000000E+00 -0.14459096206E+04  0.33295304244E+04  0.29991862590E+04 0.  0.
        4    1    3    3  502    0 -0.13764136406E+04 -0.36090853156E+03 -0.19752856389E+03  0.14365892331E+04  0.12699999809E+01 0. -1.
       -4    1    3    3    0  502  0.13764136406E+04  0.36090853156E+03 -0.12483810567E+04  0.18929411913E+04  0.12699999809E+01 0.  1.
</event>
<event>
 5   0  0.6374748E-08  0.3000414E+04  0.7818609E-02  0.8243613E-01
       -1   -1    0    0    0  501  0.00000000000E+00  0.00000000000E+00  0.11275843290E+04  0.11275843290E+04  0.50400001928E-02 0. -1.
        1   -1    0    0  501    0  0.00000000000E+00  0.00000000000E+00 -0.19959667729E+04  0.19959667729E+04  0.50400001928E-02 0.  1.
    10030    2    1    2    0    0  0.00000000000E+00  0.00000000000E+00 -0.86838244392E+03  0.31235511020E+04  0.30004138744E+04 0.  0.
        1    1    3    3  502    0 -0.75608445503E+03  0.45201809482E+03  0.82999188687E+03  0.12103183852E+04  0.50400001928E-02 0. -1.
       -1    1    3    3    0  502  0.75608445503E+03 -0.45201809482E+03 -0.16983743308E+04  0.19132327168E+04  0.50400001928E-02 0.  1.
</event>
<event>
 5   0  0.1821305E-07  0.2992389E+04  0.7818609E-02  0.8245908E-01
       -2   -1    0    0    0  501  0.00000000000E+00  0.00000000000E+00  0.17259318164E+04  0.17259318164E+04  0.25500000920E-02 0. -1.
        2   -1    0    0  501    0  0.00000000000E+00  0.00000000000E+00 -0.12970372037E+04  0.12970372037E+04  0.25500000920E-02 0.  1.
    10030    2    1    2    0    0  0.00000000000E+00  0.00000000000E+00  0.42889461277E+03  0.30229690201E+04  0.29923888630E+04 0.  0.
        2    1    3    3  502    0 -0.81245284115E+03 -0.45167216642E+03 -0.96992892647E+03  0.13434468681E+04  0.25500000920E-02 0.  1.
       -2    1    3    3    0  502  0.81245284115E+03  0.45167216642E+03  0.13988235392E+04  0.16795221520E+04  0.25500000920E-02 0. -1.
</event>
<event>
 5   0  0.6679022E-08  0.3000470E+04  0.7818609E-02  0.8243597E-01
        1   -1    0    0  501    0  0.00000000000E+00  0.00000000000E+00  0.15329064555E+04  0.15329064556E+04  0.50400001928E-02 0.  1.
       -1   -1    0    0    0  501  0.00000000000E+00  0.00000000000E+00 -0.14682594205E+04  0.14682594205E+04  0.50400001928E-02 0. -1.
    10030    2    1    2    0    0  0.00000000000E+00  0.00000000000E+00  0.64647035086E+02  0.30011658760E+04  0.30004695260E+04 0.  0.
        3    1    3    3  502    0  0.96162802576E+03  0.89005998455E+03 -0.69844106920E+03  0.14848418008E+04  0.10100000352E+00 0. -1.
       -3    1    3    3    0  502 -0.96162802576E+03 -0.89005998455E+03  0.76308810429E+03  0.15163240752E+04  0.10100000352E+00 0.  1.
</event>
<event>
 5   0  0.1810055E-07  0.3004484E+04  0.7818609E-02  0.8242452E-01
       -2   -1    0    0    0  501  0.00000000000E+00  0.00000000000E+00  0.98448628069E+03  0.98448628070E+03  0.25500000920E-02 0. -1.
        2   -1    0    0  501    0  0.00000000000E+00  0.00000000000E+00 -0.22922930360E+04  0.22922930360E+04  0.25500000920E-02 0.  1.
    10030    2    1    2    0    0  0.00000000000E+00  0.00000000000E+00 -0.13078067553E+04  0.32767793167E+04  0.30044840125E+04 0.  0.
        4    1    3    3  502    0 -0.14347472452E+03  0.59742330766E+03 -0.21489930612E+04  0.22351000862E+04  0.12699999809E+01 0.  1.
       -4    1    3    3    0  502  0.14347472452E+03 -0.59742330766E+03  0.84118630593E+03  0.10416792305E+04  0.12699999809E+01 0. -1.
</event>
<event>
 5   0  0.1813720E-07  0.3000418E+04  0.7818609E-02  0.8243612E-01
       -2   -1    0    0    0  501  0.00000000000E+00  0.00000000000E+00  0.10599579617E+04  0.10599579617E+04  0.25500000920E-02 0.  1.
        2   -1    0    0  501    0  0.00000000000E+00  0.00000000000E+00 -0.21233168762E+04  0.21233168762E+04  0.25500000920E-02 0. -1.
    10030    2    1    2    0    0  0.00000000000E+00  0.00000000000E+00 -0.10633589145E+04  0.31832748379E+04  0.30004177230E+04 0.  0.
        3    1    3    3  502    0  0.14970637135E+04 -0.61044729494E+02 -0.61178175121E+03  0.16183952368E+04  0.10100000352E+00 0. -1.
       -3    1    3    3    0  502 -0.14970637135E+04  0.61044729494E+02 -0.45157716328E+03  0.15648796011E+04  0.10100000352E+00 0.  1.
</event>
<event>
 5   0  0.1914439E-07  0.2998667E+04  0.7818609E-02  0.8244112E-01
       -2   -1    0    0    0  501  0.00000000000E+00  0.00000000000E+00  0.95599565761E+03  0.95599565761E+03  0.25500000920E-02 0. -1.
        2   -1    0    0  501    0  0.00000000000E+00  0.00000000000E+00 -0.23514757870E+04  0.23514757870E+04  0.25500000920E-02 0.  1.
    10030    2    1    2    0    0  0.00000000000E+00  0.00000000000E+00 -0.13954801294E+04  0.33074714446E+04  0.29986667980E+04 0.  0.
        5    1    3    3  502    0  0.35996129285E+03 -0.49881904543E+03 -0.22058764347E+04  0.22900448703E+04  0.46999998093E+01 0.  1.
       -5    1    3    3    0  502 -0.35996129285E+03  0.49881904543E+03  0.81039630536E+03  0.10174265743E+04  0.46999998093E+01 0. -1.
</event>
<event>
 5   0  0.6525507E-08  0.3000916E+04  0.7818609E-02  0.8243469E-01
       -1   -1    0    0    0  501  0.00000000000E+00  0.00000000000E+00  0.15047696509E+04  0.15047696509E+04  0.50400001928E-02 0.  1.
        1   -1    0    0  501    0  0.00000000000E+00  0.00000000000E+00 -0.14961587051E+04  0.14961587051E+04  0.50400001928E-02 0. -1.
    10030    2    1    2    0    0  0.00000000000E+00  0.00000000000E+00  0.86109458307E+01  0.30009283560E+04  0.30009160017E+04 0.  0.
        4    1    3    3  502    0  0.34510750911E+02  0.65021664470E+03 -0.13475136602E+04  0.14965852312E+04  0.12699999809E+01 0. -1.
       -4    1    3    3    0  502 -0.34510750911E+02 -0.65021664470E+03  0.13561246061E+04  0.15043431248E+04  0.12699999809E+01 0.  1.
</event>
<event>
 5   0  0.6679022E-08  0.2999513E+04  0.7818609E-02  0.8243870E-01
        1   -1    0    0  501    0  0.00000000000E+00  0.00000000000E+00  0.26561493409E+04  0.26561493409E+04  0.50400001928E-02 0. -1.
       -1   -1    0    0    0  501  0.00000000000E+00  0.00000000000E+00 -0.84681593431E+03  0.84681593432E+03  0.50400001928E-02 0.  1.
    10030    2    1    2    0    0  0.00000000000E+00  0.00000000000E+00  0.18093334066E+04  0.35029652752E+04  0.29995130177E+04 0.  0.
        3    1    3    3  502    0 -0.68783786660E+03  0.12426529925E+04  0.14671293379E+04  0.20420029125E+04  0.10100000352E+00 0. -1.
       -3    1    3    3    0  502  0.68783786660E+03 -0.12426529925E+04  0.34220406872E+03  0.14609623627E+04  0.10100000352E+00 0.  1.
</event>
<event>
 5   0  0.6464436E-08  0.3002463E+04  0.7818609E-02  0.8243028E-01
        1   -1    0    0  501    0  0.00000000000E+00  0.00000000000E+00  0.12612400708E+04  0.12612400708E+04  0.50400001928E-02 0. -1.
       -1   -1    0    0    0  501  0.00000000000E+00  0.00000000000E+00 -0.17868886681E+04  0.17868886681E+04  0.50400001928E-02 0.  1.
    10030    2    1    2    0    0  0.00000000000E+00  0.00000000000E+00 -0.52564859725E+03  0.30481287389E+04  0.30024627160E+04 0.  0.
        5    1    3    3  502    0  0.12543108975E+04 -0.63401266315E+03  0.27284243710E+03  0.14316888524E+04  0.46999998093E+01 0. -1.
       -5    1    3    3    0  502 -0.12543108975E+04  0.63401266315E+03 -0.79849103435E+03  0.16164398865E+04  0.46999998093E+01 0.  1.
</event>
<event>
 5   0  0.1810055E-07  0.3003604E+04  0.7818609E-02  0.8242703E-01
        2   -1    0    0  501    0  0.00000000000E+00  0.00000000000E+00  0.34689557589E+04  0.34689557590E+04  0.25500000920E-02 0. -1.
       -2   -1    0    0    0  501  0.00000000000E+00  0.00000000000E+00 -0.65016931579E+03  0.65016931580E+03  0.25500000920E-02 0.  1.
    10030    2    1    2    0    0  0.00000000000E+00  0.00000000000E+00  0.28187864432E+04  0.41191250747E+04  0.30036035639E+04 0.  0.
        4    1    3    3  502    0  0.49880425921E+03  0.38271157122E+03 -0.46100630459E+03  0.77961674015E+03  0.12699999809E+01 0.  1.
       -4    1    3    3    0  502 -0.49880425921E+03 -0.38271157122E+03  0.32797927477E+04  0.33395083346E+04  0.12699999809E+01 0. -1.
</event>
<event>
 5   0  0.1817566E-07  0.2999564E+04  0.7818609E-02  0.8243855E-01
       -2   -1    0    0    0  501  0.00000000000E+00  0.00000000000E+00  0.10484109707E+04  0.10484109707E+04  0.25500000920E-02 0.  1.
        2   -1    0    0  501    0  0.00000000000E+00  0.00000000000E+00 -0.21454817585E+04  0.21454817585E+04  0.25500000920E-02 0. -1.
    10030    2    1    2    0    0  0.00000000000E+00  0.00000000000E+00 -0.10970707878E+04  0.31938927292E+04  0.29995643771E+04 0.  0.
        1    1    3    3  502    0  0.48132517269E+02 -0.10551016357E+04  0.58524391902E+03  0.12075043046E+04  0.50400001928E-02 0.  1.
       -1    1    3    3    0  502 -0.48132517269E+02  0.10551016357E+04 -0.16823147068E+04  0.19863884247E+04  0.50400001928E-02 0. -1.
</event>
<event>
 5   0  0.1914439E-07  0.2998683E+04  0.7818609E-02  0.8244107E-01
        2   -1    0    0  501    0  0.00000000000E+00  0.00000000000E+00  0.24585848392E+04  0.24585848392E+04  0.25500000920E-02 0.  1.
       -2   -1    0    0    0  501  0.00000000000E+00  0.00000000000E+00 -0.91435729609E+03  0.91435729610E+03  0.25500000920E-02 0. -1.
    10030    2    1    2    0    0  0.00000000000E+00  0.00000000000E+00  0.15442275431E+04  0.33729421353E+04  0.29986830348E+04 0.  0.
        5    1    3    3  502    0  0.91455678751E+03  0.96504824696E+03 -0.73956269294E+01  0.13295897946E+04  0.46999998093E+01 0. -1.
       -5    1    3    3    0  502 -0.91455678751E+03 -0.96504824696E+03  0.15516231700E+04  0.20433523407E+04  0.46999998093E+01 0.  1.
</event>
<event>
 5   0  0.1810055E-07  0.2993883E+04  0.7818609E-02  0.8245480E-01
       -2   -1    0    0    0  501  0.00000000000E+00  0.00000000000E+00  0.23249350167E+04  0.23249350167E+04  0.25500000920E-02 0. -1.
        2   -1    0    0  501    0  0.00000000000E+00  0.00000000000E+00 -0.96382651731E+03  0.96382651731E+03  0.25500000920E-02 0.  1.
    10030    2    1    2    0    0  0.00000000000E+00  0.00000000000E+00  0.13611084994E+04  0.32887615340E+04  0.29938831107E+04 0.  0.
        4    1    3    3  502    0 -0.39083495917E+03  0.46413874849E+03 -0.82267946689E+03  0.10222425648E+04  0.12699999809E+01 0.  1.
       -4    1    3    3    0  502  0.39083495917E+03 -0.46413874849E+03  0.21837879662E+04  0.22665189692E+04  0.12699999809E+01 0. -1.
</event>
<event>
 5   0  0.1821305E-07  0.2999133E+04  0.7818609E-02  0.8243978E-01
        2   -1    0    0  501    0  0.00000000000E+00  0.00000000000E+00  0.10901973277E+04  0.10901973277E+04  0.25500000920E-02 0. -1.
       -2   -1    0    0    0  501  0.00000000000E+00  0.00000000000E+00 -0.20626544439E+04  0.20626544439E+04  0.25500000920E-02 0.  1.
    10030    2    1    2    0    0  0.00000000000E+00  0.00000000000E+00 -0.97245711621E+03  0.31528517716E+04  0.29991334500E+04 0.  0.
        2    1    3    3  502    0  0.24093688566E+03  0.60385206492E+03  0.93433160449E+03  0.11382721319E+04  0.25500000920E-02 0. -1.
       -2    1    3    3    0  502 -0.24093688566E+03 -0.60385206492E+03 -0.19067887207E+04  0.20145796397E+04  0.25500000920E-02 0.  1.
</event>
<event>
 5   0  0.1914439E-07  0.2996773E+04  0.7818609E-02  0.8244653E-01
       -2   -1    0    0    0  501  0.00000000000E+00  0.00000000000E+00  0.16281049045E+04  0.16281049045E+04  0.25500000920E-02 0.  1.
        2   -1    0    0  501    0  0.00000000000E+00  0.00000000000E+00 -0.13790033300E+04  0.13790033300E+04  0.25500000920E-02 0. -1.
    10030    2    1    2    0    0  0.00000000000E+00  0.00000000000E+00  0.24910157445E+03  0.30071082345E+04  0.29967729877E+04 0.  0.
        5    1    3    3  502    0 -0.10497946169E+04 -0.47091385555E+03  0.10877107838E+04  0.15833399623E+04  0.46999998093E+01 0.  1.
       -5    1    3    3    0  502  0.10497946169E+04  0.47091385555E+03 -0.83860920933E+03  0.14237682722E+04  0.46999998093E+01 0. -1.
</event>
<event>
 5   0  0.1914439E-07  0.2999763E+04  0.7818609E-02  0.8243799E-01
        2   -1    0    0  501    0  0.00000000000E+00  0.00000000000E+00  0.14617832102E+04  0.14617832102E+04  0.25500000920E-02 0. -1.
       -2   -1    0    0    0  501  0.00000000000E+00  0.00000000000E+00 -0.15389723065E+04  0.15389723065E+04  0.25500000920E-02 0.  1.
    10030    2    1    2    0    0  0.00000000000E+00  0.00000000000E+00 -0.77189096322E+02  0.30007555168E+04  0.29997625764E+04 0.  0.
        5    1    3    3  502    0 -0.28110481643E+03 -0.92588841659E+03 -0.11849810875E+04  0.15298665123E+04  0.46999998093E+01 0.  1.
       -5    1    3    3    0  502  0.28110481643E+03  0.92588841659E+03  0.11077919912E+04  0.14708890045E+04  0.46999998093E+01 0. -1.
</event>
<event>
 5   0  0.6636007E-08  0.2999953E+04  0.7818609E-02  0.8243744E-01
       -1   -1    0    0    0  501  0.00000000000E+00  0.00000000000E+00  0.21831478092E+04  0.21831478092E+04  0.50400001928E-02 0. -1.
        1   -1    0    0  501    0  0.00000000000E+00  0.00000000000E+00 -0.10305898789E+04  0.10305898789E+04  0.50400001928E-02 0.  1.
    10030    2    1    2    0    0  0.00000000000E+00  0.00000000000E+00  0.11525579303E+04  0.32137376882E+04  0.29999533572E+04 0.  0.
        2    1    3    3  502    0 -0.14864740162E+04  0.17181181506E+03  0.68763739423E+03  0.16468058436E+04  0.25500000920E-02 0.  1.
       -2    1    3    3    0  502  0.14864740162E+04 -0.17181181506E+03  0.46492053610E+03  0.15669318446E+04  0.25500000920E-02 0. -1.
</event>
<event>
 5   0  0.6636007E-08  0.2998772E+04  0.7818609E-02  0.8244082E-01
       -1   -1    0    0    0  501  0.00000000000E+00  0.00000000000E+00  0.11423579155E+04  0.11423579155E+04  0.50400001928E-02 0.  1.
        1   -1    0    0  501    0  0.00000000000E+00  0.00000000000E+00 -0.19679986845E+04  0.19679986845E+04  0.50400001928E-02 0. -1.
    10030    2    1    2    0    0  0.00000000000E+00  0.00000000000E+00 -0.82564076899E+03  0.31103566001E+04  0.29987723322E+04 0.  0.
        2    1    3    3  502    0 -0.40743470385E+03 -0.89269785877E+03  0.76305116106E+03  0.12430444800E+04  0.25500000920E-02 0.  1.
       -2    1    3    3    0  502  0.40743470385E+03  0.89269785877E+03 -0.15886919300E+04  0.18673121200E+04  0.25500000920E-02 0. -1.
</event>
<event>
 5   0  0.6636007E-08  0.2999961E+04  0.7818609E-02  0.8243742E-01
       -1   -1    0    0    0  501  0.00000000000E+00  0.00000000000E+00  0.10719587539E+04  0.10719587539E+04  0.50400001928E-02 0.  1.
        1   -1    0    0  501    0  0.00000000000E+00  0.00000000000E+00 -0.20989070813E+04  0.20989070813E+04  0.50400001928E-02 0. -1.
    10030    2    1    2    0    0  0.00000000000E+00  0.00000000000E+00 -0.10269483274E+04  0.31708658351E+04  0.29999612126E+04 0.  0.
        2    1    3    3  502    0 -0.16492402920E+03 -0.58523649395E+03 -0.19628095165E+04  0.20548291626E+04  0.25500000920E-02 0. -1.
       -2    1    3    3    0  502  0.16492402920E+03  0.58523649395E+03  0.93586118909E+03  0.11160366726E+04  0.25500000920E-02 0.  1.
</event>
<event>
 5   0  0.6464436E-08  0.3000315E+04  0.7818609E-02  0.8243641E-01
        1   -1    0    0  501    0  0.00000000000E+00  0.00000000000E+00  0.24828444295E+04  0.24828444295E+04  0.50400001928E-02 0. -1.
       -1   -1    0    0    0  501  0.00000000000E+00  0.00000000000E+00 -0.90640885398E+03  0.90640885400E+03  0.50400001928E-02 0.  1.
    10030    2    1    2    0    0  0.00000000000E+00  0.00000000000E+00  0.15764355755E+04  0.33892532835E+04  0.30003147661E+04 0.  0.
        5    1    3    3  502    0 -0.61822027902E+03  0.56439894106E+03  0.21944663400E+04  0.23487117928E+04  0.46999998093E+01 0. -1.
       -5    1    3    3    0  502  0.61822027902E+03 -0.56439894106E+03 -0.61803076450E+03  0.10405414907E+04  0.46999998093E+01 0.  1.
</event>
<event>
 5   0  0.1813720E-07  0.2999574E+04  0.7818609E-02  0.8243852E-01
        2   -1    0    0  501    0  0.00000000000E+00  0.00000000000E+00  0.20195774699E+04  0.20195774699E+04  0.25500000920E-02 0. -1.
       -2   -1    0    0    0  501  0.00000000000E+00  0.00000000000E+00 -0.11137783387E+04  0.11137783387E+04  0.25500000920E-02 0.  1.
    10030    2    1    2    0    0  0.00000000000E+00  0.00000000000E+00  0.90579913118E+03  0.31333558086E+04  0.29995743960E+04 0.  0.
        3    1    3    3  502    0 -0.80758173261E+03 -0.11915553320E+04  0.12963810995E+02  0.14395000641E+04  0.10100000352E+00 0.  1.
       -3    1    3    3    0  502  0.80758173261E+03  0.11915553320E+04  0.89283532019E+03  0.16938557445E+04  0.10100000352E+00 0. -1.
</event>
<event>
 5   0  0.6374748E-08  0.3002934E+04  0.7818609E-02  0.8242894E-01
        1   -1    0    0  501    0  0.00000000000E+00  0.00000000000E+00  0.72148226105E+03  0.72148226107E+03  0.50400001928E-02 0. -1.
       -1   -1    0    0    0  501  0.00000000000E+00  0.00000000000E+00 -0.31246818602E+04  0.31246818602E+04  0.50400001928E-02 0.  1.
    10030    2    1    2    0    0  0.00000000000E+00  0.00000000000E+00 -0.24031995991E+04  0.38461641213E+04  0.30029335881E+04 0.  0.
        1    1    3    3  502    0  0.71108943328E+03 -0.11492779020E+04 -0.20394389787E+04  0.24465893047E+04  0.50400001928E-02 0. -1.
       -1    1    3    3    0  502 -0.71108943328E+03  0.11492779020E+04 -0.36376062046E+03  0.13995748166E+04  0.50400001928E-02 0.  1.
</event>
<event>
 5   0  0.6636007E-08  0.3001308E+04  0.7818609E-02  0.8243357E-01
        1   -1    0    0  501    0  0.00000000000E+00  0.00000000000E+00  0.15058543288E+04  0.15058543288E+04  0.50400001928E-02 0. -1.
       -1   -1    0    0    0  501  0.00000000000E+00  0.00000000000E+00 -0.14954715661E+04  0.14954715662E+04  0.50400001928E-02 0.  1.
    10030    2    1    2    0    0  0.00000000000E+00  0.00000000000E+00  0.10382762635E+02  0.30013258949E+04  0.30013079359E+04 0.  0.
        2    1    3    3  502    0  0.26571629826E+03  0.26663411676E+02 -0.14715185901E+04  0.14955544289E+04  0.25500000920E-02 0.  1.
       -2    1    3    3    0  502 -0.26571629826E+03 -0.26663411676E+02  0.14819013528E+04  0.15057714661E+04  0.25500000920E-02 0. -1.
</event>
<event>
 5   0  0.6464436E-08  0.3002351E+04  0.7818609E-02  0.8243060E-01
        1   -1    0    0  501    0  0.00000000000E+00  0.00000000000E+00  0.28625083010E+04  0.28625083010E+04  0.50400001928E-02 0.  1.
       -1   -1    0    0    0  501  0.00000000000E+00  0.00000000000E+00 -0.78725627925E+03  0.78725627926E+03  0.50400001928E-02 0. -1.
    10030    2    1    2    0    0  0.00000000000E+00  0.00000000000E+00  0.20752520218E+04  0.36497645803E+04  0.30023508352E+04 0.  0.
        5    1    3    3  502    0 -0.11298588870E+04 -0.85356986772E+03  0.16434260608E+04  0.21693395149E+04  0.46999998093E+01 0. -1.
       -5    1    3    3    0  502  0.11298588870E+04  0.85356986772E+03  0.43182596100E+03  0.14804250654E+04  0.46999998093E+01 0.  1.
</event>
<event>
 5   0  0.1821305E-07  0.2999343E+04  0.7818609E-02  0.8243919E-01
        2   -1    0    0  501    0  0.00000000000E+00  0.00000000000E+00  0.15538137737E+04  0.15538137737E+04  0.25500000920E-02 0.  1.
       -2   -1    0    0    0  501  0.00000000000E+00  0.00000000000E+00 -0.14474154703E+04  0.14474154703E+04  0.25500000920E-02 0. -1.
    10030    2    1    2    0    0  0.00000000000E+00  0.00000000000E+00  0.10639830342E+03  0.30012292441E+04  0.29993426574E+04 0.  0.
        2    1    3    3  502    0  0.74289939635E+03  0.33246489628E+02  0.13563275041E+04  0.15468125745E+04  0.25500000920E-02 0.  1.
       -2    1    3    3    0  502 -0.74289939635E+03 -0.33246489628E+02 -0.12499292007E+04  0.14544166696E+04  0.25500000920E-02 0. -1.
</event>
<event>
 5   0  0.1810055E-07  0.3003818E+04  0.7818609E-02  0.8242642E-01
       -2   -1    0    0    0  501  0.00000000000E+00  0.00000000000E+00  0.16190765479E+04  0.16190765479E+04  0.25500000920E-02 0.  1.
        2   -1    0    0  501    0  0.00000000000E+00  0.00000000000E+00 -0.13932201644E+04  0.13932201644E+04  0.25500000920E-02 0. -1.
    10030    2    1    2    0    0  0.00000000000E+00  0.00000000000E+00  0.22585638351E+03  0.30122967123E+04  0.30038176338E+04 0.  0.
        4    1    3    3  502    0  0.12394870402E+04  0.31814214339E+03  0.90139559821E+03  0.15652661702E+04  0.12699999809E+01 0.  1.
       -4    1    3    3    0  502 -0.12394870402E+04 -0.31814214339E+03 -0.67553921470E+03  0.14470305421E+04  0.12699999809E+01 0. -1.
</event>
<event>
 5   0  0.6679022E-08  0.3001452E+04  0.7818609E-02  0.8243316E-01
       -1   -1    0    0    0  501  0.00000000000E+00  0.00000000000E+00  0.12356457447E+04  0.12356457447E+04  0.50400001928E-02 0.  1.
        1   -1    0    0  501    0  0.00000000000E+00  0.00000000000E+00 -0.18226731083E+04  0.18226731083E+04  0.50400001928E-02 0. -1.
    10030    2    1    2    0    0  0.00000000000E+00  0.00000000000E+00 -0.58702736359E+03  0.30583188530E+04  0.30014518289E+04 0.  0.
        3    1    3    3  502    0  0.20342848348E+03  0.91469659382E+02  0.12186621229E+04  0.12389056568E+04  0.10100000352E+00 0.  1.
       -3    1    3    3    0  502 -0.20342848348E+03 -0.91469659382E+02 -0.18056894865E+04  0.18194131962E+04  0.10100000352E+00 0. -1.
</event>
<event>
 5   0  0.1821305E-07  0.2998396E+04  0.7818609E-02  0.8244189E-01
       -2   -1    0    0    0  501  0.00000000000E+00  0.00000000000E+00  0.11703950577E+04  0.11703950577E+04  0.25500000920E-02 0.  1.
        2   -1    0    0  501    0  0.00000000000E+00  0.00000000000E+00 -0.19203725949E+04  0.19203725949E+04  0.25500000920E-02 0. -1.
    10030    2    1    2    0    0  0.00000000000E+00  0.00000000000E+00 -0.74997753717E+03  0.30907676526E+04  0.29983959672E+04 0.  0.
        2    1    3    3  502    0  0.13897445001E+02  0.94168004055E+03  0.82741136352E+03  0.12536203581E+04  0.25500000920E-02 0.  1.
       -2    1    3    3    0  502 -0.13897445001E+02 -0.94168004055E+03 -0.15773889007E+04  0.18371472945E+04  0.25500000920E-02 0. -1.
</event>
<event>
 5   0  0.6464436E-08  0.2998870E+04  0.7818609E-02  0.8244054E-01
       -1   -1    0    0    0  501  0.00000000000E+00  0.00000000000E+00  0.12544144514E+04  0.12544144514E+04  0.50400001928E-02 0. -1.
        1   -1    0    0  501    0  0.00000000000E+00  0.00000000000E+00 -0.17923143690E+04  0.17923143691E+04  0.50400001928E-02 0.  1.
    10030    2    1    2    0    0  0.00000000000E+00  0.00000000000E+00 -0.53789991761E+03  0.30467288205E+04  0.29988698178E+04 0.  0.
        5    1    3    3  502    0  0.13034466339E+04 -0.31675535860E+03 -0.94970001923E+03  0.16435508210E+04  0.46999998093E+01 0.  1.
       -5    1    3    3    0  502 -0.13034466339E+04  0.31675535860E+03  0.41180010162E+03  0.14031779995E+04  0.46999998093E+01 0. -1.
</event>
<event>
 5   0  0.6525507E-08  0.3000325E+04  0.7818609E-02  0.8243638E-01
        1   -1    0    0  501    0  0.00000000000E+00  0.00000000000E+00  0.19081608596E+04  0.19081608596E+04  0.50400001928E-02 0.  1.
       -1   -1    0    0    0  501  0.00000000000E+00  0.00000000000E+00 -0.11794014908E+04  0.11794014908E+04  0.50400001928E-02 0. -1.
    10030    2    1    2    0    0  0.00000000000E+00  0.00000000000E+00  0.72875936880E+03  0.30875623504E+04  0.30003251574E+04 0.  0.
        4    1    3    3  502    0  0.20070241517E+03 -0.39192930349E+03 -0.11114013273E+04  0.11954516141E+04  0.12699999809E+01 0. -1.
       -4    1    3    3    0  502 -0.20070241517E+03  0.39192930349E+03  0.18401606961E+04  0.18921107364E+04  0.12699999809E+01 0.  1.
</event>
<event>
 5   0  0.6636007E-08  0.2999580E+04  0.7818609E-02  0.8243851E-01
       -1   -1    0    0    0  501  0.00000000000E+00  0.00000000000E+00  0.11233859931E+04  0.11233859931E+04  0.50400001928E-02 0. -1.
        1   -1    0    0  501    0  0.00000000000E+00  0.00000000000E+00 -0.20023130937E+04  0.20023130937E+04  0.50400001928E-02 0.  1.
    10030    2    1    2    0    0  0.00000000000E+00  0.00000000000E+00 -0.87892710056E+03  0.31256990868E+04  0.29995802928E+04 0.  0.
        2    1    3    3  502    0 -0.43921456655E+03 -0.45091182866E+02  0.10541289331E+04  0.11428606467E+04  0.25500000920E-02 0. -1.
       -2    1    3    3    0  502  0.43921456655E+03  0.45091182866E+02 -0.19330560337E+04  0.19828384401E+04  0.25500000920E-02 0.  1.
</event>
<event>
 5   0  0.6464436E-08  0.2999249E+04  0.7818609E-02  0.8243945E-01
        1   -1    0    0  501    0  0.00000000000E+00  0.00000000000E+00  0.28110171144E+04  0.28110171144E+04  0.50400001928E-02 0.  1.
       -1   -1    0    0    0  501  0.00000000000E+00  0.00000000000E+00 -0.80002157118E+03  0.80002157119E+03  0.50400001928E-02 0. -1.
    10030    2    1    2    0    0  0.00000000000E+00  0.00000000000E+00  0.20109955432E+04  0.36110386856E+04  0.29992494585E+04 0.  0.
        5    1    3    3  502    0  0.80745762124E+03 -0.12401824923E+04  0.71351862127E+03  0.16429154991E+04  0.46999998093E+01 0. -1.
       -5    1    3    3    0  502 -0.80745762124E+03  0.12401824923E+04  0.12974769220E+04  0.19681231865E+04  0.46999998093E+01 0.  1.
</event>
<event>
 5   0  0.6374748E-08  0.3001062E+04  0.7818609E-02  0.8243428E-01
       -1   -1    0    0    0  501  0.00000000000E+00  0.00000000000E+00  0.10223249051E+04  0.10223249051E+04  0.50400001928E-02 0.  1.
        1   -1    0    0  501    0  0.00000000000E+00  0.00000000000E+00 -0.22024241657E+04  0.22024241657E+04  0.50400001928E-02 0. -1.
    10030    2    1    2    0    0  0.00000000000E+00  0.00000000000E+00 -0.11800992606E+04  0.32247490707E+04  0.30010618628E+04 0.  0.
        1    1    3    3  502    0  0.91537723358E+02 -0.49651627988E+03  0.92831406471E+03  0.10567282403E+04  0.50400001928E-02 0.  1.
       -1    1    3    3    0  502 -0.91537723358E+02  0.49651627988E+03 -0.21084133253E+04  0.21680208305E+04  0.50400001928E-02 0. -1.
</event>
<event>
 5   0  0.1813720E-07  0.2999284E+04  0.7818609E-02  0.8243935E-01
       -2   -1    0    0    0  501  0.00000000000E+00  0.00000000000E+00  0.14530830872E+04  0.14530830872E+04  0.25500000920E-02 0.  1.
        2   -1    0    0  501    0  0.00000000000E+00  0.00000000000E+00 -0.15476925289E+04  0.15476925289E+04  0.25500000920E-02 0. -1.
    10030    2    1    2    0    0  0.00000000000E+00  0.00000000000E+00 -0.94609441732E+02  0.30007756161E+04  0.29992838065E+04 0.  0.
        3    1    3    3  502    0 -0.75332580141E+02 -0.51392229821E+02 -0.15449158622E+04  0.15476049853E+04  0.10100000352E+00 0. -1.
       -3    1    3    3    0  502  0.75332580141E+02  0.51392229821E+02  0.14503064205E+04  0.14531706309E+04  0.10100000352E+00 0.  1.
</event>
<event>
 5   0  0.1813720E-07  0.2997666E+04  0.7818609E-02  0.8244398E-01
        2   -1    0    0  501    0  0.00000000000E+00  0.00000000000E+00  0.24050636561E+04  0.24050636561E+04  0.25500000920E-02 0.  1.
       -2   -1    0    0    0  501  0.00000000000E+00  0.00000000000E+00 -0.93407094367E+03  0.93407094367E+03  0.25500000920E-02 0. -1.
    10030    2    1    2    0    0  0.00000000000E+00  0.00000000000E+00  0.14709927125E+04  0.33391345998E+04  0.29976658112E+04 0.  0.
        3    1    3    3  502    0 -0.71638290610E+03 -0.16454212595E+03 -0.71952180692E+03  0.10285865157E+04  0.10100000352E+00 0. -1.
       -3    1    3    3    0  502  0.71638290610E+03  0.16454212595E+03  0.21905145194E+04  0.23105480842E+04  0.10100000352E+00 0.  1.
</event>
<event>
 5   0  0.6464436E-08  0.3000555E+04  0.7818609E-02  0.8243572E-01
        1   -1    0    0  501    0  0.00000000000E+00  0.00000000000E+00  0.22653218127E+04  0.22653218127E+04  0.50400001928E-02 0. -1.
       -1   -1    0    0    0  501  0.00000000000E+00  0.00000000000E+00 -0.99360395193E+03  0.99360395194E+03  0.50400001928E-02 0.  1.
    10030    2    1    2    0    0  0.00000000000E+00  0.00000000000E+00  0.12717178608E+04  0.32589257647E+04  0.30005550857E+04 0.  0.
        5    1    3    3  502    0 -0.94041947353E+03 -0.76684948821E+02 -0.63100135015E+03  0.11351009477E+04  0.46999998093E+01 0.  1.
       -5    1    3    3    0  502  0.94041947353E+03  0.76684948821E+02  0.19027192109E+04  0.21238248170E+04  0.46999998093E+01 0. -1.
</event>
<event>
 5   0  0.6679022E-08  0.2999372E+04  0.7818609E-02  0.8243910E-01
       -1   -1    0    0    0  501  0.00000000000E+00  0.00000000000E+00  0.12540120538E+04  0.12540120538E+04  0.50400001928E-02 0.  1.
        1   -1    0    0  501    0  0.00000000000E+00  0.00000000000E+00 -0.17934895400E+04  0.17934895400E+04  0.50400001928E-02 0. -1.
    10030    2    1    2    0    0  0.00000000000E+00  0.00000000000E+00 -0.53947748620E+03  0.30475015939E+04  0.29993716019E+04 0.  0.
        3    1    3    3  502    0 -0.11875744165E+03 -0.14799444820E+04 -0.48459956822E+03  0.15617860774E+04  0.10100000352E+00 0.  1.
       -3    1    3    3    0  502  0.11875744165E+03  0.14799444820E+04 -0.54877917986E+02  0.14857155165E+04  0.10100000352E+00 0. -1.
</event>
<event>
 5   0  0.6679022E-08  0.2999978E+04  0.7818609E-02  0.8243737E-01
       -1   -1    0    0    0  501  0.00000000000E+00  0.00000000000E+00  0.13332915941E+04  0.13332915941E+04  0.50400001928E-02 0.  1.
        1   -1    0    0  501    0  0.00000000000E+00  0.00000000000E+00 -0.16875275361E+04  0.16875275361E+04  0.50400001928E-02 0. -1.
    10030    2    1    2    0    0  0.00000000000E+00  0.00000000000E+00 -0.35423594201E+03  0.30208191302E+04  0.29999775190E+04 0.  0.
        3    1    3    3  502    0  0.91565692026E+03  0.11718791001E+04  0.19786046334E+02  0.14873196424E+04  0.10100000352E+00 0. -1.
       -3    1    3    3    0  502 -0.91565692026E+03 -0.11718791001E+04 -0.37402198834E+03  0.15334994878E+04  0.10100000352E+00 0.  1.
</event>
<event>
 5   0  0.1821305E-07  0.2997051E+04  0.7818609E-02  0.8244574E-01
        2   -1    0    0  501    0  0.00000000000E+00  0.00000000000E+00  0.14343785673E+04  0.14343785673E+04  0.25500000920E-02 0. -1.
       -2   -1    0    0    0  501  0.00000000000E+00  0.00000000000E+00 -0.15655410409E+04  0.15655410409E+04  0.25500000920E-02 0.  1.
    10030    2    1    2    0    0  0.00000000000E+00  0.00000000000E+00 -0.13116247356E+03  0.29999196082E+04  0.29970508940E+04 0.  0.
        2    1    3    3  502    0 -0.12249514970E+04  0.84846692226E+03 -0.22440329622E+03  0.15069038216E+04  0.25500000920E-02 0.  1.
       -2    1    3    3    0  502  0.12249514970E+04 -0.84846692226E+03  0.93240822664E+02  0.14930157866E+04  0.25500000920E-02 0. -1.
</event>
<event>
 5   0  0.1821305E-07  0.3000720E+04  0.7818609E-02  0.8243525E-01
        2   -1    0    0  501    0  0.00000000000E+00  0.00000000000E+00  0.15634270627E+04  0.15634270627E+04  0.25500000920E-02 0. -1.
       -2   -1    0    0    0  501  0.00000000000E+00  0.00000000000E+00 -0.14398370736E+04  0.14398370736E+04  0.25500000920E-02 0.  1.
    10030    2    1    2    0    0  0.00000000000E+00  0.00000000000E+00  0.12358998912E+03  0.30032641362E+04  0.30007200780E+04 0.  0.
        2    1    3    3  502    0 -0.11002595555E+03  0.11140581870E+04  0.10615657649E+04  0.15427745228E+04  0.25500000920E-02 0. -1.
       -2    1    3    3    0  502  0.11002595555E+03 -0.11140581870E+04 -0.93797577581E+03  0.14604896134E+04  0.25500000920E-02 0.  1.
</event>
<event>
 5   0  0.6525507E-08  0.2999278E+04  0.7818609E-02  0.8243937E-01
        1   -1    0    0  501    0  0.00000000000E+00  0.00000000000E+00  0.12645674457E+04  0.12645674457E+04  0.50400001928E-02 0.  1.
       -1   -1    0    0    0  501  0.00000000000E+00  0.00000000000E+00 -0.17784082962E+04  0.17784082962E+04  0.50400001928E-02 0. -1.
    10030    2    1    2    0    0  0.00000000000E+00  0.00000000000E+00 -0.51384085056E+03  0.30429757419E+04  0.29992780708E+04 0.  0.
        4    1    3    3  502    0 -0.13596049531E+04  0.15228820485E+02 -0.89871723265E+03  0.16298625165E+04  0.12699999809E+01 0. -1.
       -4    1    3    3    0  502  0.13596049531E+04 -0.15228820485E+02  0.38487638210E+03  0.14131132254E+04  0.12699999809E+01 0.  1.
</event>
<event>
 5   0  0.1817566E-07  0.3006707E+04  0.7818609E-02  0.8241818E-01
       -2   -1    0    0    0  501  0.00000000000E+00  0.00000000000E+00  0.14357050787E+04  0.14357050787E+04  0.25500000920E-02 0.  1.
        2   -1    0    0  501    0  0.00000000000E+00  0.00000000000E+00 -0.15741894666E+04  0.15741894666E+04  0.25500000920E-02 0. -1.
    10030    2    1    2    0    0  0.00000000000E+00  0.00000000000E+00 -0.13848438787E+03  0.30098945452E+04  0.30067070439E+04 0.  0.
        1    1    3    3  502    0  0.26020371206E+02 -0.14157402750E+04 -0.57482634776E+03  0.15282090551E+04  0.50400001928E-02 0.  1.
       -1    1    3    3    0  502 -0.26020371206E+02  0.14157402750E+04  0.43634195989E+03  0.14816854902E+04  0.50400001928E-02 0. -1.
</event>
<event>
 5   0  0.6017625E-08  0.3000076E+04  0.7818609E-02  0.8243709E-01
       -3   -1    0    0    0  501  0.00000000000E+00  0.00000000000E+00  0.16463715421E+04  0.16463715452E+04  0.10100000352E+00 0. -1.
        3   -1    0    0  501    0  0.00000000000E+00  0.00000000000E+00 -0.13667105210E+04  0.13667105247E+04  0.10100000352E+00 0.  1.
    10030    2    1    2    0    0  0.00000000000E+00  0.00000000000E+00  0.27966102113E+03  0.30130820699E+04  0.30000755446E+04 0.  0.
        5    1    3    3  502    0 -0.43786363430E+03 -0.67684477541E+03  0.14103238479E+04  0.16244626368E+04  0.46999998093E+01 0. -1.
       -5    1    3    3    0  502  0.43786363430E+03  0.67684477541E+03 -0.11306628268E+04  0.13886194332E+04  0.46999998093E+01 0.  1.
</event>
<event>
 5   0  0.1914439E-07  0.3000498E+04  0.7818609E-02  0.8243589E-01
        2   -1    0    0  501    0  0.00000000000E+00  0.00000000000E+00  0.14492600579E+04  0.14492600579E+04  0.25500000920E-02 0.  1.
       -2   -1    0    0    0  501  0.00000000000E+00  0.00000000000E+00 -0.15530319735E+04  0.15530319735E+04  0.25500000920E-02 0. -1.
    10030    2    1    2    0    0  0.00000000000E+00  0.00000000000E+00 -0.10377191564E+03  0.30022920314E+04  0.30004980972E+04 0.  0.
        5    1    3    3  502    0  0.92035581373E+03  0.15581628114E+03 -0.12270631749E+04  0.15417651126E+04  0.46999998093E+01 0. -1.
       -5    1    3    3    0  502 -0.92035581373E+03 -0.15581628114E+03  0.11232912593E+04  0.14605269188E+04  0.46999998093E+01 0.  1.
</event>
<event>
 5   0  0.1914439E-07  0.3000266E+04  0.7818609E-02  0.8243655E-01
       -2   -1    0    0    0  501  0.00000000000E+00  0.00000000000E+00  0.10100657416E+04  0.10100657416E+04  0.25500000920E-02 0.  1.
        2   -1    0    0  501    0  0.00000000000E+00  0.00000000000E+00 -0.22279724081E+04  0.22279724081E+04  0.25500000920E-02 0. -1.
    10030    2    1    2    0    0  0.00000000000E+00  0.00000000000E+00 -0.12179066665E+04  0.32380381498E+04  0.30002657234E+04 0.  0.
        5    1    3    3  502    0 -0.13079460582E+04 -0.36726406030E+03 -0.12955896845E+04  0.18772800808E+04  0.46999998093E+01 0. -1.
       -5    1    3    3    0  502  0.13079460582E+04  0.36726406030E+03  0.77683017982E+02  0.13607580690E+04  0.46999998093E+01 0.  1.
</event>
<event>
 5   0  0.1821305E-07  0.2999553E+04  0.7818609E-02  0.8243858E-01
        2   -1    0    0  501    0  0.00000000000E+00  0.00000000000E+00  0.17769059746E+04  0.17769059746E+04  0.25500000920E-02 0. -1.
       -2   -1    0    0    0  501  0.00000000000E+00  0.00000000000E+00 -0.12658688966E+04  0.12658688966E+04  0.25500000920E-02 0.  1.
    10030    2    1    2    0    0  0.00000000000E+00  0.00000000000E+00  0.51103707809E+03  0.30427748712E+04  0.29995533037E+04 0.  0.
        2    1    3    3  502    0 -0.60029012125E+03 -0.26566154852E+03 -0.11123949466E+04  0.12916449997E+04  0.25500000920E-02 0.  1.
       -2    1    3    3    0  502  0.60029012125E+03  0.26566154852E+03  0.16234320247E+04  0.17511298715E+04  0.25500000920E-02 0. -1.
</event>
<event>
 5   0  0.6464436E-08  0.3000533E+04  0.7818609E-02  0.8243579E-01
        1   -1    0    0  501    0  0.00000000000E+00  0.00000000000E+00  0.21434555845E+04  0.21434555845E+04  0.50400001928E-02 0.  1.
       -1   -1    0    0    0  501  0.00000000000E+00  0.00000000000E+00 -0.10500798750E+04  0.10500798750E+04  0.50400001928E-02 0. -1.
    10030    2    1    2    0    0  0.00000000000E+00  0.00000000000E+00  0.10933757095E+04  0.31935354595E+04  0.30005330008E+04 0.  0.
        5    1    3    3  502    0  0.92138448832E+03 -0.10373924051E+04 -0.60671341970E+02  0.13888252155E+04  0.46999998093E+01 0. -1.
       -5    1    3    3    0  502 -0.92138448832E+03  0.10373924051E+04  0.11540470515E+04  0.18047102440E+04  0.46999998093E+01 0.  1.
</event>
<event>
 5   0  0.1813720E-07  0.2999886E+04  0.7818609E-02  0.8243763E-01
       -2   -1    0    0    0  501  0.00000000000E+00  0.00000000000E+00  0.24795853724E+04  0.24795853724E+04  0.25500000920E-02 0. -1.
        2   -1    0    0  501    0  0.00000000000E+00  0.00000000000E+00 -0.90734078318E+03  0.90734078319E+03  0.25500000920E-02 0.  1.
    10030    2    1    2    0    0  0.00000000000E+00  0.00000000000E+00  0.15722445892E+04  0.33869261556E+04  0.29998859537E+04 0.  0.
        3    1    3    3  502    0  0.14683833879E+04  0.19679125718E+03  0.52145875214E+03  0.15706036461E+04  0.10100000352E+00 0.  1.
       -3    1    3    3    0  502 -0.14683833879E+04 -0.19679125718E+03  0.10507858371E+04  0.18163225095E+04  0.10100000352E+00 0. -1.
</event>
<event>
 5   0  0.6679022E-08  0.2997935E+04  0.7818609E-02  0.8244321E-01
        1   -1    0    0  501    0  0.00000000000E+00  0.00000000000E+00  0.15195675137E+04  0.15195675137E+04  0.50400001928E-02 0.  1.
       -1   -1    0    0    0  501  0.00000000000E+00  0.00000000000E+00 -0.14786464059E+04  0.14786464059E+04  0.50400001928E-02 0. -1.
    10030    2    1    2    0    0  0.00000000000E+00  0.00000000000E+00  0.40921107825E+02  0.29982139196E+04  0.29979346508E+04 0.  0.
        3    1    3    3  502    0  0.95991526524E+03  0.36690333907E+03  0.11118218735E+04  0.15140023993E+04  0.10100000352E+00 0.  1.
       -3    1    3    3    0  502 -0.95991526524E+03 -0.36690333907E+03 -0.10709007657E+04  0.14842115202E+04  0.10100000352E+00 0. -1.
</event>
<event>
 5   0  0.1810055E-07  0.2999652E+04  0.7818609E-02  0.8243830E-01
        2   -1    0    0  501    0  0.00000000000E+00  0.00000000000E+00  0.11538226987E+04  0.11538226987E+04  0.25500000920E-02 0. -1.
       -2   -1    0    0    0  501  0.00000000000E+00  0.00000000000E+00 -0.19495876267E+04  0.19495876267E+04  0.25500000920E-02 0.  1.
    10030    2    1    2    0    0  0.00000000000E+00  0.00000000000E+00 -0.79576492798E+03  0.31034103254E+04  0.29996522844E+04 0.  0.
        4    1    3    3  502    0  0.42859251073E+03 -0.87737452928E+01  0.10890895191E+04  0.11704213397E+04  0.12699999809E+01 0. -1.
       -4    1    3    3    0  502 -0.42859251073E+03  0.87737452928E+01 -0.18848544471E+04  0.19329889856E+04  0.12699999809E+01 0.  1.
</event>
<event>
 5   0  0.6636007E-08  0.2999320E+04  0.7818609E-02  0.8243925E-01
       -1   -1    0    0    0  501  0.00000000000E+00  0.00000000000E+00  0.11679878880E+04  0.11679878880E+04  0.50400001928E-02 0.  1.
        1   -1    0    0  501    0  0.00000000000E+00  0.00000000000E+00 -0.19255165637E+04  0.19255165637E+04  0.50400001928E-02 0. -1.
    10030    2    1    2    0    0  0.00000000000E+00  0.00000000000E+00 -0.75752867568E+03  0.30935044517E+04  0.29993199393E+04 0.  0.
        2    1    3    3  502    0 -0.76353969981E+03 -0.60874506725E+03 -0.15526685980E+04  0.18342146018E+04  0.25500000920E-02 0. -1.
       -2    1    3    3    0  502  0.76353969981E+03  0.60874506725E+03  0.79513992234E+03  0.12592898500E+04  0.25500000920E-02 0.  1.
</event>
<event>
 5   0  0.6374748E-08  0.3000069E+04  0.7818609E-02  0.8243711E-01
       -1   -1    0    0    0  501  0.00000000000E+00  0.00000000000E+00  0.12997475013E+04  0.12997475013E+04  0.50400001928E-02 0.  1.
        1   -1    0    0  501    0  0.00000000000E+00  0.00000000000E+00 -0.17311849563E+04  0.17311849564E+04  0.50400001928E-02 0. -1.
    10030    2    1    2    0    0  0.00000000000E+00  0.00000000000E+00 -0.43143745502E+03  0.30309324577E+04  0.30000688801E+04 0.  0.
        1    1    3    3  502    0  0.13463412484E+04 -0.57812081375E+03  0.10890429212E+03  0.14692578321E+04  0.50400001928E-02 0.  1.
       -1    1    3    3    0  502 -0.13463412484E+04  0.57812081375E+03 -0.54034174715E+03  0.15616746256E+04  0.50400001928E-02 0. -1.
</event>
<event>
 5   0  0.1914439E-07  0.2998997E+04  0.7818609E-02  0.8244017E-01
       -2   -1    0    0    0  501  0.00000000000E+00  0.00000000000E+00  0.19455172112E+04  0.19455172112E+04  0.25500000920E-02 0.  1.
        2   -1    0    0  501    0  0.00000000000E+00  0.00000000000E+00 -0.11557313016E+04  0.11557313016E+04  0.25500000920E-02 0. -1.
    10030    2    1    2    0    0  0.00000000000E+00  0.00000000000E+00  0.78978590958E+03  0.31012485128E+04  0.29989965914E+04 0.  0.
        5    1    3    3  502    0  0.87085727410E+03  0.11907493056E+04  0.67274872177E+03  0.16213849738E+04  0.46999998093E+01 0.  1.
       -5    1    3    3    0  502 -0.87085727410E+03 -0.11907493056E+04  0.11703718781E+03  0.14798635390E+04  0.46999998093E+01 0. -1.
</event>
<event>
 5   0  0.6464436E-08  0.3001407E+04  0.7818609E-02  0.8243329E-01
        1   -1    0    0  501    0  0.00000000000E+00  0.00000000000E+00  0.21586790448E+04  0.21586790448E+04  0.50400001928E-02 0. -1.
       -1   -1    0    0    0  501  0.00000000000E+00  0.00000000000E+00 -0.10432821603E+04  0.10432821603E+04  0.50400001928E-02 0.  1.
    10030    2    1    2    0    0  0.00000000000E+00  0.00000000000E+00  0.11153968845E+04  0.32019612051E+04  0.30014072282E+04 0.  0.
        5    1    3    3  502    0 -0.14858951902E+04  0.18963092843E+03  0.46083000013E+03  0.15672366714E+04  0.46999998093E+01 0. -1.
       -5    1    3    3    0  502  0.14858951902E+04 -0.18963092843E+03  0.65456688435E+03  0.16347245337E+04  0.46999998093E+01 0.  1.
</event>
<event>
 5   0  0.1813720E-07  0.2999737E+04  0.7818609E-02  0.8243806E-01
       -2   -1    0    0    0  501  0.00000000000E+00  0.00000000000E+00  0.14397263246E+04  0.14397263246E+04  0.25500000920E-02 0. -1.
        2   -1    0    0  501    0  0.00000000000E+00  0.00000000000E+00 -0.15625232089E+04  0.15625232089E+04  0.25500000920E-02 0.  1.
    10030    2    1    2    0    0  0.00000000000E+00  0.00000000000E+00 -0.12279688434E+03  0.30022495335E+04  0.29997371863E+04 0.  0.
        3    1    3    3  502    0  0.12972451019E+04 -0.41495749594E+03  0.56727668050E+03  0.14754109327E+04  0.10100000352E+00 0. -1.
       -3    1    3    3    0  502 -0.12972451019E+04  0.41495749594E+03 -0.69007356484E+03  0.15268386008E+04  0.10100000352E+00 0.  1.
</event>
<event>
 5   0  0.1817566E-07  0.3000193E+04  0.7818609E-02  0.8243676E-01
       -2   -1    0    0    0  501  0.00000000000E+00  0.00000000000E+00  0.16890338491E+04  0.16890338491E+04  0.25500000920E-02 0.  1.
        2   -1    0    0  501    0  0.00000000000E+00  0.00000000000E+00 -0.13322939480E+04  0.13322939480E+04  0.25500000920E-02 0. -1.
    10030    2    1    2    0    0  0.00000000000E+00  0.00000000000E+00  0.35673990113E+03  0.30213277972E+04  0.30001930439E+04 0.  0.
        1    1    3    3  502    0 -0.21760634072E+03 -0.93107632033E+03  0.13423817755E+04  0.16481032932E+04  0.50400001928E-02 0.  1.
       -1    1    3    3    0  502  0.21760634072E+03  0.93107632033E+03 -0.98564187437E+03  0.13732245040E+04  0.50400001928E-02 0. -1.
</event>
<event>
 5   0  0.6636007E-08  0.2997870E+04  0.7818609E-02  0.8244339E-01
        1   -1    0    0  501    0  0.00000000000E+00  0.00000000000E+00  0.17646362944E+04  0.17646362944E+04  0.50400001928E-02 0. -1.
       -1   -1    0    0    0  501  0.00000000000E+00  0.00000000000E+00 -0.12732403254E+04  0.12732403254E+04  0.50400001928E-02 0.  1.
    10030    2    1    2    0    0  0.00000000000E+00  0.00000000000E+00  0.49139596898E+03  0.30378766198E+04  0.29978699703E+04 0.  0.
        2    1    3    3  502    0  0.38707530601E+03  0.12220154772E+03 -0.12164874586E+04  0.12824204645E+04  0.25500000920E-02 0.  1.
       -2    1    3    3    0  502 -0.38707530601E+03 -0.12220154772E+03  0.17078834276E+04  0.17554561553E+04  0.25500000920E-02 0. -1.
</event>
<event>
 5   0  0.6636007E-08  0.2999735E+04  0.7818609E-02  0.8243807E-01
       -1   -1    0    0    0  501  0.00000000000E+00  0.00000000000E+00  0.19114285452E+04  0.19114285452E+04  0.50400001928E-02 0.  1.
        1   -1    0    0  501    0  0.00000000000E+00  0.00000000000E+00 -0.11769220448E+04  0.11769220448E+04  0.50400001928E-02 0. -1.
    10030    2    1    2    0    0  0.00000000000E+00  0.00000000000E+00  0.73450650034E+03  0.30883505900E+04  0.29997349163E+04 0.  0.
        2    1    3    3  502    0 -0.11071623413E+04  0.38380365128E+03  0.13311197316E+04  0.17734129335E+04  0.25500000920E-02 0.  1.
       -2    1    3    3    0  502  0.11071623413E+04 -0.38380365128E+03 -0.59661323125E+03  0.13149376565E+04  0.25500000920E-02 0. -1.
</event>
<event>
 5   0  0.1813720E-07  0.3000401E+04  0.7818609E-02  0.8243616E-01
        2   -1    0    0  501    0  0.00000000000E+00  0.00000000000E+00  0.19499885344E+04  0.19499885344E+04  0.25500000920E-02 0.  1.
       -2   -1    0    0    0  501  0.00000000000E+00  0.00000000000E+00 -0.11541614493E+04  0.11541614493E+04  0.25500000920E-02 0. -1.
    10030    2    1    2    0    0  0.00000000000E+00  0.00000000000E+00  0.79582708510E+03  0.31041499837E+04  0.30004010352E+04 0.  0.
        3    1    3    3  502    0 -0.43735014954E+03 -0.64750769851E+03  0.17228446183E+04  0.18917544666E+04  0.10100000352E+00 0.  1.
       -3    1    3    3    0  502  0.43735014954E+03  0.64750769851E+03 -0.92701753316E+03  0.12123955171E+04  0.10100000352E+00 0. -1.
</event>
<event>
 5   0  0.1813720E-07  0.3008303E+04  0.7818609E-02  0.8241364E-01
        2   -1    0    0  501    0  0.00000000000E+00  0.00000000000E+00  0.18321847315E+04  0.18321847315E+04  0.25500000920E-02 0. -1.
       -2   -1    0    0    0  501  0.00000000000E+00  0.00000000000E+00 -0.12348491933E+04  0.12348491933E+04  0.25500000920E-02 0.  1.
    10030    2    1    2    0    0  0.00000000000E+00  0.00000000000E+00  0.59733553812E+03  0.30670339248E+04  0.30083030683E+04 0.  0.
        3    1    3    3  502    0  0.12090998940E+04 -0.51113143568E+02  0.12093801040E+04  0.17108873000E+04  0.10100000352E+00 0. -1.
       -3    1    3    3    0  502 -0.12090998940E+04  0.51113143568E+02 -0.61204456585E+03  0.13561466248E+04  0.10100000352E+00 0.  1.
</event>
<event>
 5   0  0.6525507E-08  0.3001583E+04  0.7818609E-02  0.8243279E-01
        1   -1    0    0  501    0  0.00000000000E+00  0.00000000000E+00  0.19332725770E+04  0.19332725770E+04  0.50400001928E-02 0. -1.
       -1   -1    0    0    0  501  0.00000000000E+00  0.00000000000E+00 -0.11650581061E+04  0.11650581061E+04  0.50400001928E-02 0.  1.
    10030    2    1    2    0    0  0.00000000000E+00  0.00000000000E+00  0.76821447094E+03  0.30983306831E+04  0.30015828405E+04 0.  0.
        4    1    3    3  502    0 -0.98206553296E+03 -0.75593559543E+03  0.12578428884E+04  0.17658034093E+04  0.12699999809E+01 0. -1.
       -4    1    3    3    0  502  0.98206553296E+03  0.75593559543E+03 -0.48962841743E+03  0.13325272738E+04  0.12699999809E+01 0.  1.
</event>
<event>
 5   0  0.6525507E-08  0.2994252E+04  0.7818609E-02  0.8245374E-01
        1   -1    0    0  501    0  0.00000000000E+00  0.00000000000E+00  0.10492402015E+04  0.10492402015E+04  0.50400001928E-02 0. -1.
       -1   -1    0    0    0  501  0.00000000000E+00  0.00000000000E+00 -0.21361993568E+04  0.21361993568E+04  0.50400001928E-02 0.  1.
    10030    2    1    2    0    0  0.00000000000E+00  0.00000000000E+00 -0.10869591553E+04  0.31854395584E+04  0.29942519892E+04 0.  0.
        4    1    3    3  502    0 -0.11865465568E+04  0.89271556794E+03 -0.34008959967E+03  0.15233175524E+04  0.12699999809E+01 0.  1.
       -4    1    3    3    0  502  0.11865465568E+04 -0.89271556794E+03 -0.74686955565E+03  0.16621220060E+04  0.12699999809E+01 0. -1.
</event>
<event>
 5   0  0.6374748E-08  0.2999703E+04  0.7818609E-02  0.8243816E-01
       -1   -1    0    0    0  501  0.00000000000E+00  0.00000000000E+00  0.11250778963E+04  0.11250778963E+04  0.50400001928E-02 0. -1.
        1   -1    0    0  501    0  0.00000000000E+00  0.00000000000E+00 -0.19994650404E+04  0.19994650404E+04  0.50400001928E-02 0.  1.
    10030    2    1    2    0    0  0.00000000000E+00  0.00000000000E+00 -0.87438714415E+03  0.31245429367E+04  0.29997025995E+04 0.  0.
        1    1    3    3  502    0 -0.38636939697E+03 -0.52409877894E+02 -0.19457513726E+04  0.19844335489E+04  0.50400001928E-02 0.  1.
       -1    1    3    3    0  502  0.38636939697E+03  0.52409877894E+02  0.10713642284E+04  0.11401093878E+04  0.50400001928E-02 0. -1.
</event>
<event>
 5   0  0.6374748E-08  0.2999526E+04  0.7818609E-02  0.8243866E-01
        1   -1    0    0  501    0  0.00000000000E+00  0.00000000000E+00  0.85547598266E+03  0.85547598267E+03  0.50400001928E-02 0. -1.
       -1   -1    0    0    0  501  0.00000000000E+00  0.00000000000E+00 -0.26292838083E+04  0.26292838083E+04  0.50400001928E-02 0.  1.
    10030    2    1    2    0    0  0.00000000000E+00  0.00000000000E+00 -0.17738078257E+04  0.34847597910E+04  0.29995260623E+04 0.  0.
        1    1    3    3  502    0  0.17981168910E+02 -0.13633090693E+04 -0.16127585243E+04  0.21118534510E+04  0.50400001928E-02 0.  1.
       -1    1    3    3    0  502 -0.17981168910E+02  0.13633090693E+04 -0.16104930136E+03  0.13729063400E+04  0.50400001928E-02 0. -1.
</event>
<event>
 5   0  0.6636007E-08  0.3000846E+04  0.7818609E-02  0.8243489E-01
       -1   -1    0    0    0  501  0.00000000000E+00  0.00000000000E+00  0.80406976494E+03  0.80406976495E+03  0.50400001928E-02 0. -1.
        1   -1    0    0  501    0  0.00000000000E+00  0.00000000000E+00 -0.27998432914E+04  0.27998432914E+04  0.50400001928E-02 0.  1.
    10030    2    1    2    0    0  0.00000000000E+00  0.00000000000E+00 -0.19957735265E+04  0.36039130564E+04  0.30008461055E+04 0.  0.
        2    1    3    3  502    0 -0.54708348818E+03  0.12806285985E+04 -0.16686659991E+04  0.21734203843E+04  0.25500000920E-02 0.  1.
       -2    1    3    3    0  502  0.54708348818E+03 -0.12806285985E+04 -0.32710752736E+03  0.14304926721E+04  0.25500000920E-02 0. -1.
</event>
<event>
 5   0  0.6464436E-08  0.3001759E+04  0.7818609E-02  0.8243229E-01
       -1   -1    0    0    0  501  0.00000000000E+00  0.00000000000E+00  0.21887185447E+04  0.21887185447E+04  0.50400001928E-02 0. -1.
        1   -1    0    0  501    0  0.00000000000E+00  0.00000000000E+00 -0.10292049172E+04  0.10292049172E+04  0.50400001928E-02 0.  1.
    10030    2    1    2    0    0  0.00000000000E+00  0.00000000000E+00  0.11595136275E+04  0.32179234619E+04  0.30017594098E+04 0.  0.
        5    1    3    3  502    0 -0.32657844759E+03  0.14597417860E+04  0.44794620419E+03  0.15614664441E+04  0.46999998093E+01 0.  1.
       -5    1    3    3    0  502  0.32657844759E+03 -0.14597417860E+04  0.71156742329E+03  0.16564570179E+04  0.46999998093E+01 0. -1.
</event>
<event>
 5   0  0.6636007E-08  0.3007236E+04  0.7818609E-02  0.8241668E-01
        1   -1    0    0  501    0  0.00000000000E+00  0.00000000000E+00  0.17522238441E+04  0.17522238441E+04  0.50400001928E-02 0.  1.
       -1   -1    0    0    0  501  0.00000000000E+00  0.00000000000E+00 -0.12902840534E+04  0.12902840534E+04  0.50400001928E-02 0. -1.
    10030    2    1    2    0    0  0.00000000000E+00  0.00000000000E+00  0.46193979071E+03  0.30425078974E+04  0.30072355970E+04 0.  0.
        2    1    3    3  502    0 -0.63710516115E+03  0.90901116527E+03  0.12570957988E+04  0.16770492338E+04  0.25500000920E-02 0. -1.
       -2    1    3    3    0  502  0.63710516115E+03 -0.90901116527E+03 -0.79515600813E+03  0.13654586637E+04  0.25500000920E-02 0.  1.
</event>
<event>
 5   0  0.1817566E-07  0.2999157E+04  0.7818609E-02  0.8243972E-01
        2   -1    0    0  501    0  0.00000000000E+00  0.00000000000E+00  0.84867516365E+03  0.84867516365E+03  0.25500000920E-02 0.  1.
       -2   -1    0    0    0  501  0.00000000000E+00  0.00000000000E+00 -0.26497015468E+04  0.26497015468E+04  0.25500000920E-02 0. -1.
    10030    2    1    2    0    0  0.00000000000E+00  0.00000000000E+00 -0.18010263832E+04  0.34983767105E+04  0.29991571442E+04 0.  0.
        1    1    3    3  502    0 -0.68024433656E+03  0.12891999086E+04 -0.13112093386E+04  0.19606220165E+04  0.50400001928E-02 0. -1.
       -1    1    3    3    0  502  0.68024433656E+03 -0.12891999086E+04 -0.48981704456E+03  0.15377546940E+04  0.50400001928E-02 0.  1.
</event>
<event>
 5   0  0.1817566E-07  0.3000075E+04  0.7818609E-02  0.8243710E-01
       -2   -1    0    0    0  501  0.00000000000E+00  0.00000000000E+00  0.10531160582E+04  0.10531160582E+04  0.25500000920E-02 0.  1.
        2   -1    0    0  501    0  0.00000000000E+00  0.00000000000E+00 -0.21366229067E+04  0.21366229067E+04  0.25500000920E-02 0. -1.
    10030    2    1    2    0    0  0.00000000000E+00  0.00000000000E+00 -0.10835068485E+04  0.31897389649E+04  0.30000745946E+04 0.  0.
        1    1    3    3  502    0  0.56980129908E+03  0.10991914025E+04  0.35867307341E+03  0.12890080036E+04  0.50400001928E-02 0.  1.
       -1    1    3    3    0  502 -0.56980129908E+03 -0.10991914025E+04 -0.14421799219E+04  0.19007309613E+04  0.50400001928E-02 0. -1.
</event>
<event>
 5   0  0.1821305E-07  0.3000027E+04  0.7818609E-02  0.8243723E-01
        2   -1    0    0  501    0  0.00000000000E+00  0.00000000000E+00  0.10592897544E+04  0.10592897544E+04  0.25500000920E-02 0. -1.
       -2   -1    0    0    0  501  0.00000000000E+00  0.00000000000E+00 -0.21241036413E+04  0.21241036413E+04  0.25500000920E-02 0.  1.
    10030    2    1    2    0    0  0.00000000000E+00  0.00000000000E+00 -0.10648138869E+04  0.31833933956E+04  0.30000274828E+04 0.  0.
        2    1    3    3  502    0 -0.95644834764E+03 -0.11262926636E+04 -0.25833216476E+03  0.15000213709E+04  0.25500000920E-02 0. -1.
       -2    1    3    3    0  502  0.95644834764E+03  0.11262926636E+04 -0.80648172214E+03  0.16833720248E+04  0.25500000920E-02 0.  1.
</event>
<event>
 5   0  0.6525507E-08  0.3001320E+04  0.7818609E-02  0.8243354E-01
       -1   -1    0    0    0  501  0.00000000000E+00  0.00000000000E+00  0.13136196668E+04  0.13136196668E+04  0.50400001928E-02 0. -1.
        1   -1    0    0  501    0  0.00000000000E+00  0.00000000000E+00 -0.17143321860E+04  0.17143321860E+04  0.50400001928E-02 0.  1.
    10030    2    1    2    0    0  0.00000000000E+00  0.00000000000E+00 -0.40071251927E+03  0.30279518528E+04  0.30013200262E+04 0.  0.
        4    1    3    3  502    0  0.97424074150E+03 -0.95974702813E+03  0.42296052520E+03  0.14314875477E+04  0.12699999809E+01 0. -1.
       -4    1    3    3    0  502 -0.97424074150E+03  0.95974702813E+03 -0.82367304447E+03  0.15964643051E+04  0.12699999809E+01 0.  1.
</event>
<event>
 5   0  0.6525507E-08  0.2999305E+04  0.7818609E-02  0.8243929E-01
       -1   -1    0    0    0  501  0.00000000000E+00  0.00000000000E+00  0.90256495237E+03  0.90256495239E+03  0.50400001928E-02 0.  1.
        1   -1    0    0  501    0  0.00000000000E+00  0.00000000000E+00 -0.24917409633E+04  0.24917409633E+04  0.50400001928E-02 0. -1.
    10030    2    1    2    0    0  0.00000000000E+00  0.00000000000E+00 -0.15891760110E+04  0.33943059157E+04  0.29993052955E+04 0.  0.
        4    1    3    3  502    0  0.84587023326E+03 -0.11358295025E+04 -0.13528617175E+04  0.19585304568E+04  0.12699999809E+01 0.  1.
       -4    1    3    3    0  502 -0.84587023326E+03  0.11358295025E+04 -0.23631429342E+03  0.14357754590E+04  0.12699999809E+01 0. -1.
</event>
<event>
 5   0  0.6374748E-08  0.3001105E+04  0.7818609E-02  0.8243415E-01
        1   -1    0    0  501    0  0.00000000000E+00  0.00000000000E+00  0.17130705981E+04  0.17130705981E+04  0.50400001928E-02 0.  1.
       -1   -1    0    0    0  501  0.00000000000E+00  0.00000000000E+00 -0.13143984670E+04  0.13143984670E+04  0.50400001928E-02 0. -1.
    10030    2    1    2    0    0  0.00000000000E+00  0.00000000000E+00  0.39867213105E+03  0.30274690651E+04  0.30011047086E+04 0.  0.
        1    1    3    3  502    0  0.13528177688E+04  0.16545656399E+03 -0.43400538647E+03  0.14303329912E+04  0.50400001928E-02 0. -1.
       -1    1    3    3    0  502 -0.13528177688E+04 -0.16545656399E+03  0.83267751752E+03  0.15971360739E+04  0.50400001928E-02 0.  1.
</event>
<event>
 5   0  0.6636007E-08  0.2997845E+04  0.7818609E-02  0.8244347E-01
        1   -1    0    0  501    0  0.00000000000E+00  0.00000000000E+00  0.25788493979E+04  0.25788493979E+04  0.50400001928E-02 0.  1.
       -1   -1    0    0    0  501  0.00000000000E+00  0.00000000000E+00 -0.87122907178E+03  0.87122907180E+03  0.50400001928E-02 0. -1.
    10030    2    1    2    0    0  0.00000000000E+00  0.00000000000E+00  0.17076203261E+04  0.34500784697E+04  0.29978449374E+04 0.  0.
        2    1    3    3  502    0 -0.59222478587E+03  0.27417227454E+03  0.24067657358E+04  0.24936763905E+04  0.25500000920E-02 0.  1.
       -2    1    3    3    0  502  0.59222478587E+03 -0.27417227454E+03 -0.69914540975E+03  0.95640207921E+03  0.25500000920E-02 0. -1.
</event>
<event>
 5   0  0.6636007E-08  0.2999701E+04  0.7818609E-02  0.8243816E-01
        1   -1    0    0  501    0  0.00000000000E+00  0.00000000000E+00  0.22210911419E+04  0.22210911419E+04  0.50400001928E-02 0.  1.
       -1   -1    0    0    0  501  0.00000000000E+00  0.00000000000E+00 -0.10128139188E+04  0.10128139188E+04  0.50400001928E-02 0. -1.
    10030    2    1    2    0    0  0.00000000000E+00  0.00000000000E+00  0.12082772231E+04  0.32339050607E+04  0.29997013341E+04 0.  0.
        2    1    3    3  502    0 -0.28181363068E+03 -0.57002808005E+01  0.21922800732E+04  0.22103265222E+04  0.25500000920E-02 0.  1.
       -2    1    3    3    0  502  0.28181363068E+03  0.57002808005E+01 -0.98400285003E+03  0.10235785385E+04  0.25500000920E-02 0. -1.
</event>
<event>
 5   0  0.1813720E-07  0.2998764E+04  0.7818609E-02  0.8244084E-01
       -2   -1    0    0    0  501  0.00000000000E+00  0.00000000000E+00  0.16074259626E+04  0.16074259626E+04  0.25500000920E-02 0.  1.
        2   -1    0    0  501    0  0.00000000000E+00  0.00000000000E+00 -0.13986006912E+04  0.13986006912E+04  0.25500000920E-02 0. -1.
    10030    2    1    2    0    0  0.00000000000E+00  0.00000000000E+00  0.20882527149E+03  0.30060266538E+04  0.29987644538E+04 0.  0.
        3    1    3    3  502    0 -0.70235401361E+03  0.11634223798E+04  0.73942465505E+03  0.15471268936E+04  0.10100000352E+00 0.  1.
       -3    1    3    3    0  502  0.70235401361E+03 -0.11634223798E+04 -0.53059938356E+03  0.14588997602E+04  0.10100000352E+00 0. -1.
</event>
<event>
 5   0  0.1817566E-07  0.3004553E+04  0.7818609E-02  0.8242432E-01
       -2   -1    0    0    0  501  0.00000000000E+00  0.00000000000E+00  0.10402300432E+04  0.10402300432E+04  0.25500000920E-02 0.  1.
        2   -1    0    0  501    0  0.00000000000E+00  0.00000000000E+00 -0.21695539663E+04  0.21695539663E+04  0.25500000920E-02 0. -1.
    10030    2    1    2    0    0  0.00000000000E+00  0.00000000000E+00 -0.11293239231E+04  0.32097840094E+04  0.30045533552E+04 0.  0.
        1    1    3    3  502    0  0.64145052699E+03 -0.56216016280E+03 -0.18858044850E+04  0.20697201219E+04  0.50400001928E-02 0. -1.
       -1    1    3    3    0  502 -0.64145052699E+03  0.56216016280E+03  0.75648056188E+03  0.11400638876E+04  0.50400001928E-02 0.  1.
</event>
<event>
 5   0  0.1813720E-07  0.3001856E+04  0.7818609E-02  0.8243201E-01
       -2   -1    0    0    0  501  0.00000000000E+00  0.00000000000E+00  0.17672653476E+04  0.17672653476E+04  0.25500000920E-02 0.  1.
        2   -1    0    0  501    0  0.00000000000E+00  0.00000000000E+00 -0.12747293913E+04  0.12747293913E+04  0.25500000920E-02 0. -1.
    10030    2    1    2    0    0  0.00000000000E+00  0.00000000000E+00  0.49253595638E+03  0.30419947389E+04  0.30018561463E+04 0.  0.
        3    1    3    3  502    0 -0.31492570604E+03 -0.37392588056E+03  0.16843222414E+04  0.17538358497E+04  0.10100000352E+00 0.  1.
       -3    1    3    3    0  502  0.31492570604E+03  0.37392588056E+03 -0.11917862850E+04  0.12881588892E+04  0.10100000352E+00 0. -1.
</event>
<event>
 5   0  0.6374748E-08  0.3000131E+04  0.7818609E-02  0.8243694E-01
       -1   -1    0    0    0  501  0.00000000000E+00  0.00000000000E+00  0.97237534645E+03  0.97237534646E+03  0.50400001928E-02 0. -1.
        1   -1    0    0  501    0  0.00000000000E+00  0.00000000000E+00 -0.23141231295E+04  0.23141231296E+04  0.50400001928E-02 0.  1.
    10030    2    1    2    0    0  0.00000000000E+00  0.00000000000E+00 -0.13417477831E+04  0.32864984760E+04  0.30001308504E+04 0.  0.
        1    1    3    3  502    0 -0.35540745737E+03  0.16565108114E+03  0.91524090449E+03  0.99570108703E+03  0.50400001928E-02 0. -1.
       -1    1    3    3    0  502  0.35540745737E+03 -0.16565108114E+03 -0.22569886876E+04  0.22907973890E+04  0.50400001928E-02 0.  1.
</event>
<event>
 5   0  0.1821305E-07  0.2997555E+04  0.7818609E-02  0.8244429E-01
        2   -1    0    0  501    0  0.00000000000E+00  0.00000000000E+00  0.27537559271E+04  0.27537559271E+04  0.25500000920E-02 0.  1.
       -2   -1    0    0    0  501  0.00000000000E+00  0.00000000000E+00 -0.81573478807E+03  0.81573478808E+03  0.25500000920E-02 0. -1.
    10030    2    1    2    0    0  0.00000000000E+00  0.00000000000E+00  0.19380211390E+04  0.35694907152E+04  0.29975553423E+04 0.  0.
        2    1    3    3  502    0  0.14811653357E+02  0.34499209195E+03  0.27057415405E+04  0.27276869711E+04  0.25500000920E-02 0.  1.
       -2    1    3    3    0  502 -0.14811653357E+02 -0.34499209195E+03 -0.76772040148E+03  0.84180374402E+03  0.25500000920E-02 0. -1.
</event>
<event>
 5   0  0.1821305E-07  0.2998389E+04  0.7818609E-02  0.8244191E-01
       -2   -1    0    0    0  501  0.00000000000E+00  0.00000000000E+00  0.12890184620E+04  0.12890184620E+04  0.25500000920E-02 0. -1.
        2   -1    0    0  501    0  0.00000000000E+00  0.00000000000E+00 -0.17436399596E+04  0.17436399596E+04  0.25500000920E-02 0.  1.
    10030    2    1    2    0    0  0.00000000000E+00  0.00000000000E+00 -0.45462149760E+03  0.30326584217E+04  0.29983889668E+04 0.  0.
        2    1    3    3  502    0  0.12740526037E+04  0.40753505161E+03  0.45739718177E+03  0.14136856218E+04  0.25500000920E-02 0. -1.
       -2    1    3    3    0  502 -0.12740526037E+04 -0.40753505161E+03 -0.91201867937E+03  0.16189727999E+04  0.25500000920E-02 0.  1.
</event>
<event>
 5   0  0.6374748E-08  0.2999978E+04  0.7818609E-02  0.8243737E-01
       -1   -1    0    0    0  501  0.00000000000E+00  0.00000000000E+00  0.12393132102E+04  0.12393132102E+04  0.50400001928E-02 0. -1.
        1   -1    0    0  501    0  0.00000000000E+00  0.00000000000E+00 -0.18154953377E+04  0.18154953377E+04  0.50400001928E-02 0.  1.
    10030    2    1    2    0    0  0.00000000000E+00  0.00000000000E+00 -0.57618212753E+03  0.30548085479E+04  0.29999782366E+04 0.  0.
        1    1    3    3  502    0 -0.19316698524E+03  0.14000702878E+04 -0.79972536523E+03  0.16239060794E+04  0.50400001928E-02 0. -1.
       -1    1    3    3    0  502  0.19316698524E+03 -0.14000702878E+04  0.22354323770E+03  0.14309024684E+04  0.50400001928E-02 0.  1.
</event>
<event>
 5   0  0.6525507E-08  0.2997564E+04  0.7818609E-02  0.8244427E-01
        1   -1    0    0  501    0  0.00000000000E+00  0.00000000000E+00  0.27294440568E+04  0.27294440568E+04  0.50400001928E-02 0. -1.
       -1   -1    0    0    0  501  0.00000000000E+00  0.00000000000E+00 -0.82300556483E+03  0.82300556484E+03  0.50400001928E-02 0.  1.
    10030    2    1    2    0    0  0.00000000000E+00  0.00000000000E+00  0.19064384920E+04  0.35524496217E+04  0.29975641095E+04 0.  0.
        4    1    3    3  502    0  0.55799387169E+01  0.10253460157E+04 -0.34228800230E+03  0.10809848644E+04  0.12699999809E+01 0.  1.
       -4    1    3    3    0  502 -0.55799387169E+01 -0.10253460157E+04  0.22487264943E+04  0.24714647573E+04  0.12699999809E+01 0. -1.
</event>
<event>
 5   0  0.6464436E-08  0.3000257E+04  0.7818609E-02  0.8243658E-01
       -1   -1    0    0    0  501  0.00000000000E+00  0.00000000000E+00  0.12332996452E+04  0.12332996452E+04  0.50400001928E-02 0. -1.
        1   -1    0    0  501    0  0.00000000000E+00  0.00000000000E+00 -0.18246863098E+04  0.18246863098E+04  0.50400001928E-02 0.  1.
    10030    2    1    2    0    0  0.00000000000E+00  0.00000000000E+00 -0.59138666459E+03  0.30579859550E+04  0.30002566414E+04 0.  0.
        5    1    3    3  502    0 -0.89450648360E+03 -0.11528754356E+04 -0.65038243188E+03  0.15975866227E+04  0.46999998093E+01 0.  1.
       -5    1    3    3    0  502  0.89450648360E+03  0.11528754356E+04  0.58995767292E+02  0.14603993323E+04  0.46999998093E+01 0. -1.
</event>
<event>
 5   0  0.1810055E-07  0.3001390E+04  0.7818609E-02  0.8243334E-01
       -2   -1    0    0    0  501  0.00000000000E+00  0.00000000000E+00  0.99674824581E+03  0.99674824582E+03  0.25500000920E-02 0. -1.
        2   -1    0    0  501    0  0.00000000000E+00  0.00000000000E+00 -0.22594323661E+04  0.22594323661E+04  0.25500000920E-02 0.  1.
    10030    2    1    2    0    0  0.00000000000E+00  0.00000000000E+00 -0.12626841203E+04  0.32561806119E+04  0.30013898430E+04 0.  0.
        4    1    3    3  502    0 -0.96175110036E+03  0.49280386490E+03 -0.17610166437E+04  0.20661563495E+04  0.12699999809E+01 0. -1.
       -4    1    3    3    0  502  0.96175110036E+03 -0.49280386490E+03  0.49833252342E+03  0.11900242624E+04  0.12699999809E+01 0.  1.
</event>
<event>
 5   0  0.6464436E-08  0.3000787E+04  0.7818609E-02  0.8243506E-01
        1   -1    0    0  501    0  0.00000000000E+00  0.00000000000E+00  0.22037477852E+04  0.22037477852E+04  0.50400001928E-02 0. -1.
       -1   -1    0    0    0  501  0.00000000000E+00  0.00000000000E+00 -0.10215239368E+04  0.10215239368E+04  0.50400001928E-02 0.  1.
    10030    2    1    2    0    0  0.00000000000E+00  0.00000000000E+00  0.11822238484E+04  0.32252717220E+04  0.30007873055E+04 0.  0.
        5    1    3    3  502    0 -0.83310004126E+03  0.12469517883E+04  0.64169170976E+03  0.16311758892E+04  0.46999998093E+01 0. -1.
       -5    1    3    3    0  502  0.83310004126E+03 -0.12469517883E+04  0.54053213869E+03  0.15940958328E+04  0.46999998093E+01 0.  1.
</event>
<event>
 5   0  0.1817566E-07  0.2999996E+04  0.7818609E-02  0.8243732E-01
       -2   -1    0    0    0  501  0.00000000000E+00  0.00000000000E+00  0.88598469262E+03  0.88598469262E+03  0.25500000920E-02 0. -1.
        2   -1    0    0  501    0  0.00000000000E+00  0.00000000000E+00 -0.25395405798E+04  0.25395405798E+04  0.25500000920E-02 0.  1.
    10030    2    1    2    0    0  0.00000000000E+00  0.00000000000E+00 -0.16535558871E+04  0.34255252724E+04  0.29999960533E+04 0.  0.
        1    1    3    3  502    0 -0.10288834552E+04  0.30001947881E+03  0.37154900924E+03  0.11343110324E+04  0.50400001928E-02 0. -1.
       -1    1    3    3    0  502  0.10288834552E+04 -0.30001947881E+03 -0.20251048964E+04  0.22912142400E+04  0.50400001928E-02 0.  1.
</event>
<event>
 5   0  0.6464436E-08  0.3000300E+04  0.7818609E-02  0.8243645E-01
        1   -1    0    0  501    0  0.00000000000E+00  0.00000000000E+00  0.12812292763E+04  0.12812292763E+04  0.50400001928E-02 0.  1.
       -1   -1    0    0    0  501  0.00000000000E+00  0.00000000000E+00 -0.17564774423E+04  0.17564774423E+04  0.50400001928E-02 0. -1.
    10030    2    1    2    0    0  0.00000000000E+00  0.00000000000E+00 -0.47524816603E+03  0.30377067186E+04  0.30003001998E+04 0.  0.
        5    1    3    3  502    0 -0.78888543550E+03  0.23331525316E+03 -0.15077169562E+04  0.17175589503E+04  0.46999998093E+01 0. -1.
       -5    1    3    3    0  502  0.78888543550E+03 -0.23331525316E+03  0.10324687901E+04  0.13201477684E+04  0.46999998093E+01 0.  1.
</event>
<event>
 5   0  0.6679022E-08  0.3000927E+04  0.7818609E-02  0.8243466E-01
       -1   -1    0    0    0  501  0.00000000000E+00  0.00000000000E+00  0.91478728471E+03  0.91478728472E+03  0.50400001928E-02 0. -1.
        1   -1    0    0  501    0  0.00000000000E+00  0.00000000000E+00 -0.24611091745E+04  0.24611091745E+04  0.50400001928E-02 0.  1.
    10030    2    1    2    0    0  0.00000000000E+00  0.00000000000E+00 -0.15463218898E+04  0.33758964592E+04  0.30009274427E+04 0.  0.
        3    1    3    3  502    0  0.66664180670E+03  0.90234293985E+03 -0.18940307381E+04  0.22013601537E+04  0.10100000352E+00 0.  1.
       -3    1    3    3    0  502 -0.66664180670E+03 -0.90234293985E+03  0.34770884828E+03  0.11745363055E+04  0.10100000352E+00 0. -1.
</event>
<event>
 5   0  0.6679022E-08  0.3000625E+04  0.7818609E-02  0.8243553E-01
       -1   -1    0    0    0  501  0.00000000000E+00  0.00000000000E+00  0.11231419109E+04  0.11231419109E+04  0.50400001928E-02 0.  1.
        1   -1    0    0  501    0  0.00000000000E+00  0.00000000000E+00 -0.20041432097E+04  0.20041432097E+04  0.50400001928E-02 0. -1.
    10030    2    1    2    0    0  0.00000000000E+00  0.00000000000E+00 -0.88100129875E+03  0.31272851206E+04  0.30006247578E+04 0.  0.
        3    1    3    3  502    0  0.26101967444E+03 -0.12979378032E+04 -0.11761006217E+04  0.17708716763E+04  0.10100000352E+00 0. -1.
       -3    1    3    3    0  502 -0.26101967444E+03  0.12979378032E+04  0.29509932294E+03  0.13564134443E+04  0.10100000352E+00 0.  1.
</event>
<event>
 5   0  0.6464436E-08  0.3000772E+04  0.7818609E-02  0.8243511E-01
       -1   -1    0    0    0  501  0.00000000000E+00  0.00000000000E+00  0.12123612798E+04  0.12123612798E+04  0.50400001928E-02 0. -1.
        1   -1    0    0  501    0  0.00000000000E+00  0.00000000000E+00 -0.18568374808E+04  0.18568374808E+04  0.50400001928E-02 0.  1.
    10030    2    1    2    0    0  0.00000000000E+00  0.00000000000E+00 -0.64447620102E+03  0.30691987606E+04  0.30007718105E+04 0.  0.
        5    1    3    3  502    0 -0.73101451550E+02 -0.76724580266E+03  0.99441021029E+03  0.12581270605E+04  0.46999998093E+01 0. -1.
       -5    1    3    3    0  502  0.73101451550E+02  0.76724580266E+03 -0.16388864113E+04  0.18110717002E+04  0.46999998093E+01 0.  1.
</event>
<event>
 5   0  0.1810055E-07  0.2999593E+04  0.7818609E-02  0.8243847E-01
       -2   -1    0    0    0  501  0.00000000000E+00  0.00000000000E+00  0.21910688833E+04  0.21910688833E+04  0.25500000920E-02 0.  1.
        2   -1    0    0  501    0  0.00000000000E+00  0.00000000000E+00 -0.10266175520E+04  0.10266175520E+04  0.25500000920E-02 0. -1.
    10030    2    1    2    0    0  0.00000000000E+00  0.00000000000E+00  0.11644513313E+04  0.32176864353E+04  0.29995931546E+04 0.  0.
        4    1    3    3  502    0  0.13712909934E+04  0.19687486990E+02 -0.69007325034E+02  0.13731679465E+04  0.12699999809E+01 0. -1.
       -4    1    3    3    0  502 -0.13712909934E+04 -0.19687486990E+02  0.12334586563E+04  0.18445184888E+04  0.12699999809E+01 0.  1.
</event>
<event>
 5   0  0.1813720E-07  0.3000137E+04  0.7818609E-02  0.8243692E-01
        2   -1    0    0  501    0  0.00000000000E+00  0.00000000000E+00  0.14865409009E+04  0.14865409009E+04  0.25500000920E-02 0. -1.
       -2   -1    0    0    0  501  0.00000000000E+00  0.00000000000E+00 -0.15137191170E+04  0.15137191170E+04  0.25500000920E-02 0.  1.
    10030    2    1    2    0    0  0.00000000000E+00  0.00000000000E+00 -0.27178216100E+02  0.30002600179E+04  0.30001369168E+04 0.  0.
        3    1    3    3  502    0  0.42444184040E+03  0.10183750472E+04  0.10028023164E+04  0.14909229050E+04  0.10100000352E+00 0. -1.
       -3    1    3    3    0  502 -0.42444184040E+03 -0.10183750472E+04 -0.10299805325E+04  0.15093371129E+04  0.10100000352E+00 0.  1.
</event>
<event>
 5   0  0.1821305E-07  0.3000087E+04  0.7818609E-02  0.8243706E-01
        2   -1    0    0  501    0  0.00000000000E+00  0.00000000000E+00  0.11030962608E+04  0.11030962608E+04  0.25500000920E-02 0.  1.
       -2   -1    0    0    0  501  0.00000000000E+00  0.00000000000E+00 -0.20398310028E+04  0.20398310028E+04  0.25500000920E-02 0. -1.
    10030    2    1    2    0    0  0.00000000000E+00  0.00000000000E+00 -0.93673474198E+03  0.31429272635E+04  0.30000866332E+04 0.  0.
        2    1    3    3  502    0 -0.14243208892E+04 -0.45715989128E+03 -0.58523502416E+03  0.16062954881E+04  0.25500000920E-02 0. -1.
       -2    1    3    3    0  502  0.14243208892E+04  0.45715989128E+03 -0.35149971783E+03  0.15366317754E+04  0.25500000920E-02 0.  1.
</event>
<event>
 5   0  0.1817566E-07  0.3002093E+04  0.7818609E-02  0.8243133E-01
       -2   -1    0    0    0  501  0.00000000000E+00  0.00000000000E+00  0.19378189515E+04  0.19378189515E+04  0.25500000920E-02 0. -1.
        2   -1    0    0  501    0  0.00000000000E+00  0.00000000000E+00 -0.11627200657E+04  0.11627200657E+04  0.25500000920E-02 0.  1.
    10030    2    1    2    0    0  0.00000000000E+00  0.00000000000E+00  0.77509888574E+03  0.31005390172E+04  0.30020932555E+04 0.  0.
        1    1    3    3  502    0  0.25138375796E+03  0.11644611856E+04  0.13307198053E+04  0.17860511882E+04  0.50400001928E-02 0. -1.
       -1    1    3    3    0  502 -0.25138375796E+03 -0.11644611856E+04 -0.55562091954E+03  0.13144878291E+04  0.50400001928E-02 0.  1.
</event>
<event>
 5   0  0.1914439E-07  0.2999959E+04  0.7818609E-02  0.8243742E-01
       -2   -1    0    0    0  501  0.00000000000E+00  0.00000000000E+00  0.10240982922E+04  0.10240982922E+04  0.25500000920E-02 0.  1.
        2   -1    0    0  501    0  0.00000000000E+00  0.00000000000E+00 -0.21969952620E+04  0.21969952620E+04  0.25500000920E-02 0. -1.
    10030    2    1    2    0    0  0.00000000000E+00  0.00000000000E+00 -0.11728969697E+04  0.32210935542E+04  0.29999593969E+04 0.  0.
        5    1    3    3  502    0 -0.92868493504E+03  0.94500719186E+03 -0.13414314714E+04  0.18854587727E+04  0.46999998093E+01 0.  1.
       -5    1    3    3    0  502  0.92868493504E+03 -0.94500719186E+03  0.16853450165E+03  0.13356347815E+04  0.46999998093E+01 0. -1.
</event>
<event>
 5   0  0.1813720E-07  0.3000737E+04  0.7818609E-02  0.8243521E-01
        2   -1    0    0  501    0  0.00000000000E+00  0.00000000000E+00  0.22243646974E+04  0.22243646974E+04  0.25500000920E-02 0. -1.
       -2   -1    0    0    0  501  0.00000000000E+00  0.00000000000E+00 -0.10120217328E+04  0.10120217329E+04  0.25500000920E-02 0.  1.
    10030    2    1    2    0    0  0.00000000000E+00  0.00000000000E+00  0.12123429646E+04  0.32363864303E+04  0.30007368532E+04 0.  0.
        3    1    3    3  502    0 -0.93570436437E+03 -0.17053695989E+03 -0.64533296080E+03  0.11493825093E+04  0.10100000352E+00 0. -1.
       -3    1    3    3    0  502  0.93570436437E+03  0.17053695989E+03  0.18576759254E+04  0.20870039210E+04  0.10100000352E+00 0.  1.
</event>
<event>
 5   0  0.6374748E-08  0.3001350E+04  0.7818609E-02  0.8243345E-01
        1   -1    0    0  501    0  0.00000000000E+00  0.00000000000E+00  0.13869198524E+04  0.13869198524E+04  0.50400001928E-02 0. -1.
       -1   -1    0    0    0  501  0.00000000000E+00  0.00000000000E+00 -0.16237608179E+04  0.16237608179E+04  0.50400001928E-02 0.  1.
    10030    2    1    2    0    0  0.00000000000E+00  0.00000000000E+00 -0.23684096552E+03  0.30106806703E+04  0.30013504386E+04 0.  0.
        1    1    3    3  502    0  0.24289195655E+03 -0.84591004225E+02  0.13646457509E+04  0.13886720873E+04  0.50400001928E-02 0. -1.
       -1    1    3    3    0  502 -0.24289195655E+03  0.84591004225E+02 -0.16014867164E+04  0.16220085830E+04  0.50400001928E-02 0.  1.
</event>
<event>
 5   0  0.6679022E-08  0.2999650E+04  0.7818609E-02  0.8243831E-01
        1   -1    0    0  501    0  0.00000000000E+00  0.00000000000E+00  0.11743823832E+04  0.11743823832E+04  0.50400001928E-02 0. -1.
       -1   -1    0    0    0  501  0.00000000000E+00  0.00000000000E+00 -0.19154534466E+04  0.19154534466E+04  0.50400001928E-02 0.  1.
    10030    2    1    2    0    0  0.00000000000E+00  0.00000000000E+00 -0.74107106343E+03  0.30898358299E+04  0.29996498353E+04 0.  0.
        3    1    3    3  502    0  0.26215259386E+03 -0.21699038684E+03  0.11340887263E+04  0.11840464770E+04  0.10100000352E+00 0. -1.
       -3    1    3    3    0  502 -0.26215259386E+03  0.21699038684E+03 -0.18751597897E+04  0.19057893529E+04  0.10100000352E+00 0.  1.
</event>
<event>
 5   0  0.6464436E-08  0.3000322E+04  0.7818609E-02  0.8243639E-01
        1   -1    0    0  501    0  0.00000000000E+00  0.00000000000E+00  0.19393472669E+04  0.19393472669E+04  0.50400001928E-02 0. -1.
       -1   -1    0    0    0  501  0.00000000000E+00  0.00000000000E+00 -0.11604331505E+04  0.11604331505E+04  0.50400001928E-02 0.  1.
    10030    2    1    2    0    0  0.00000000000E+00  0.00000000000E+00  0.77891411636E+03  0.30997804174E+04  0.30003218886E+04 0.  0.
        5    1    3    3  502    0 -0.13255789339E+04 -0.55829452906E+03  0.82973926925E+03  0.16605245064E+04  0.46999998093E+01 0. -1.
       -5    1    3    3    0  502  0.13255789339E+04  0.55829452906E+03 -0.50825152889E+02  0.14392559110E+04  0.46999998093E+01 0.  1.
</event>
<event>
 5   0  0.6679022E-08  0.3001178E+04  0.7818609E-02  0.8243395E-01
        1   -1    0    0  501    0  0.00000000000E+00  0.00000000000E+00  0.10642206911E+04  0.10642206911E+04  0.50400001928E-02 0. -1.
       -1   -1    0    0    0  501  0.00000000000E+00  0.00000000000E+00 -0.21158835486E+04  0.21158835486E+04  0.50400001928E-02 0.  1.
    10030    2    1    2    0    0  0.00000000000E+00  0.00000000000E+00 -0.10516628575E+04  0.31801042397E+04  0.30011778037E+04 0.  0.
        3    1    3    3  502    0  0.25205362009E+03  0.11010470403E+04 -0.15726207471E+04  0.19362261326E+04  0.10100000352E+00 0.  1.
       -3    1    3    3    0  502 -0.25205362009E+03 -0.11010470403E+04  0.52095788960E+03  0.12438781071E+04  0.10100000352E+00 0. -1.
</event>
<event>
 5   0  0.1821305E-07  0.3000594E+04  0.7818609E-02  0.8243561E-01
       -2   -1    0    0    0  501  0.00000000000E+00  0.00000000000E+00  0.15301915022E+04  0.15301915022E+04  0.25500000920E-02 0. -1.
        2   -1    0    0  501    0  0.00000000000E+00  0.00000000000E+00 -0.14709861212E+04  0.14709861212E+04  0.25500000920E-02 0.  1.
    10030    2    1    2    0    0  0.00000000000E+00  0.00000000000E+00  0.59205381055E+02  0.30011776234E+04  0.30005935830E+04 0.  0.
        2    1    3    3  502    0 -0.13783453787E+04 -0.62114480809E+02 -0.55974562884E+03  0.14889625116E+04  0.25500000920E-02 0.  1.
       -2    1    3    3    0  502  0.13783453787E+04  0.62114480809E+02  0.61895100989E+03  0.15122151118E+04  0.25500000920E-02 0. -1.
</event>
<event>
 5   0  0.1813720E-07  0.3000255E+04  0.7818609E-02  0.8243658E-01
        2   -1    0    0  501    0  0.00000000000E+00  0.00000000000E+00  0.14910911292E+04  0.14910911292E+04  0.25500000920E-02 0. -1.
       -2   -1    0    0    0  501  0.00000000000E+00  0.00000000000E+00 -0.15092187265E+04  0.15092187265E+04  0.25500000920E-02 0.  1.
    10030    2    1    2    0    0  0.00000000000E+00  0.00000000000E+00 -0.18127597290E+02  0.30003098557E+04  0.30002550926E+04 0.  0.
        3    1    3    3  502    0 -0.19887259999E+03 -0.13469573958E+04 -0.63878801127E+03  0.15039596639E+04  0.10100000352E+00 0.  1.
       -3    1    3    3    0  502  0.19887259999E+03  0.13469573958E+04  0.62066041398E+03  0.14963501919E+04  0.10100000352E+00 0. -1.
</event>
<event>
 5   0  0.6679022E-08  0.3001692E+04  0.7818609E-02  0.8243248E-01
       -1   -1    0    0    0  501  0.00000000000E+00  0.00000000000E+00  0.17445537058E+04  0.17445537058E+04  0.50400001928E-02 0.  1.
        1   -1    0    0  501    0  0.00000000000E+00  0.00000000000E+00 -0.12911835295E+04  0.12911835295E+04  0.50400001928E-02 0. -1.
    10030    2    1    2    0    0  0.00000000000E+00  0.00000000000E+00  0.45337017623E+03  0.30357372353E+04  0.30016921970E+04 0.  0.
        3    1    3    3  502    0 -0.60717708139E+03  0.25048741564E+03  0.15914838523E+04  0.17216935894E+04  0.10100000352E+00 0.  1.
       -3    1    3    3    0  502  0.60717708139E+03 -0.25048741564E+03 -0.11381136760E+04  0.13140436459E+04  0.10100000352E+00 0. -1.
</event>
<event>
 5   0  0.6636007E-08  0.2999671E+04  0.7818609E-02  0.8243825E-01
       -1   -1    0    0    0  501  0.00000000000E+00  0.00000000000E+00  0.17912842833E+04  0.17912842833E+04  0.50400001928E-02 0. -1.
        1   -1    0    0  501    0  0.00000000000E+00  0.00000000000E+00 -0.12558069522E+04  0.12558069522E+04  0.50400001928E-02 0.  1.
    10030    2    1    2    0    0  0.00000000000E+00  0.00000000000E+00  0.53547733109E+03  0.30470912355E+04  0.29996714862E+04 0.  0.
        2    1    3    3  502    0  0.90727166982E+01 -0.14996307932E+04  0.24429953835E+03  0.15194265677E+04  0.25500000920E-02 0.  1.
       -2    1    3    3    0  502 -0.90727166982E+01  0.14996307932E+04  0.29117779274E+03  0.15276646678E+04  0.25500000920E-02 0. -1.
</event>
<event>
 5   0  0.1821305E-07  0.3000957E+04  0.7818609E-02  0.8243458E-01
       -2   -1    0    0    0  501  0.00000000000E+00  0.00000000000E+00  0.15152104066E+04  0.15152104066E+04  0.25500000920E-02 0. -1.
        2   -1    0    0  501    0  0.00000000000E+00  0.00000000000E+00 -0.14858896513E+04  0.14858896513E+04  0.25500000920E-02 0.  1.
    10030    2    1    2    0    0  0.00000000000E+00  0.00000000000E+00  0.29320755357E+02  0.30011000579E+04  0.30009568226E+04 0.  0.
        2    1    3    3  502    0  0.13167944441E+04  0.71328222076E+03  0.10802611171E+03  0.15014622124E+04  0.25500000920E-02 0.  1.
       -2    1    3    3    0  502 -0.13167944441E+04 -0.71328222076E+03 -0.78705356350E+02  0.14996378455E+04  0.25500000920E-02 0. -1.
</event>
<event>
 5   0  0.6525507E-08  0.2997765E+04  0.7818609E-02  0.8244369E-01
        1   -1    0    0  501    0  0.00000000000E+00  0.00000000000E+00  0.15815317390E+04  0.15815317390E+04  0.50400001928E-02 0.  1.
       -1   -1    0    0    0  501  0.00000000000E+00  0.00000000000E+00 -0.14205523624E+04  0.14205523624E+04  0.50400001928E-02 0. -1.
    10030    2    1    2    0    0  0.00000000000E+00  0.00000000000E+00  0.16097937662E+03  0.30020841015E+04  0.29977649328E+04 0.  0.
        4    1    3    3  502    0  0.64301628925E+03 -0.13345162164E+04 -0.14840812365E+03  0.14887679685E+04  0.12699999809E+01 0. -1.
       -4    1    3    3    0  502 -0.64301628925E+03  0.13345162164E+04  0.30938750027E+03  0.15133161329E+04  0.12699999809E+01 0.  1.
</event>
<event>
 5   0  0.1817566E-07  0.3001165E+04  0.7818609E-02  0.8243398E-01
       -2   -1    0    0    0  501  0.00000000000E+00  0.00000000000E+00  0.72224985723E+03  0.72224985723E+03  0.25500000920E-02 0.  1.
        2   -1    0    0  501    0  0.00000000000E+00  0.00000000000E+00 -0.31176862931E+04  0.31176862931E+04  0.25500000920E-02 0. -1.
    10030    2    1    2    0    0  0.00000000000E+00  0.00000000000E+00 -0.23954364358E+04  0.38399361503E+04  0.30011654270E+04 0.  0.
        1    1    3    3  502    0  0.18485505700E+03  0.31314230972E+03  0.66502385305E+03  0.75794869443E+03  0.50400001928E-02 0.  1.
       -1    1    3    3    0  502 -0.18485505700E+03 -0.31314230972E+03 -0.30604602889E+04  0.30819874559E+04  0.50400001928E-02 0. -1.
</event>
<event>
 5   0  0.6525507E-08  0.3000040E+04  0.7818609E-02  0.8243719E-01
       -1   -1    0    0    0  501  0.00000000000E+00  0.00000000000E+00  0.21353498514E+04  0.21353498514E+04  0.50400001928E-02 0. -1.
        1   -1    0    0  501    0  0.00000000000E+00  0.00000000000E+00 -0.10537195550E+04  0.10537195550E+04  0.50400001928E-02 0.  1.
    10030    2    1    2    0    0  0.00000000000E+00  0.00000000000E+00  0.10816302964E+04  0.31890694064E+04  0.30000399298E+04 0.  0.
        4    1    3    3  502    0  0.12229856871E+04 -0.67526941604E+03  0.11214706176E+04  0.17914744582E+04  0.12699999809E+01 0. -1.
       -4    1    3    3    0  502 -0.12229856871E+04  0.67526941604E+03 -0.39840321202E+02  0.13975949482E+04  0.12699999809E+01 0.  1.
</event>
<event>
 5   0  0.6679022E-08  0.3001986E+04  0.7818609E-02  0.8243164E-01
       -1   -1    0    0    0  501  0.00000000000E+00  0.00000000000E+00  0.15610681071E+04  0.15610681071E+04  0.50400001928E-02 0.  1.
        1   -1    0    0  501    0  0.00000000000E+00  0.00000000000E+00 -0.14432301691E+04  0.14432301691E+04  0.50400001928E-02 0. -1.
    10030    2    1    2    0    0  0.00000000000E+00  0.00000000000E+00  0.11783793798E+03  0.30042982762E+04  0.30019864011E+04 0.  0.
        3    1    3    3  502    0  0.14794188943E+04 -0.25141398936E+03  0.91979530508E+02  0.15034458763E+04  0.10100000352E+00 0.  1.
       -3    1    3    3    0  502 -0.14794188943E+04  0.25141398936E+03  0.25858407472E+02  0.15008523999E+04  0.10100000352E+00 0. -1.
</event>
<event>
 5   0  0.6636007E-08  0.3000575E+04  0.7818609E-02  0.8243567E-01
        1   -1    0    0  501    0  0.00000000000E+00  0.00000000000E+00  0.11482208384E+04  0.11482208384E+04  0.50400001928E-02 0.  1.
       -1   -1    0    0    0  501  0.00000000000E+00  0.00000000000E+00 -0.19603046207E+04  0.19603046207E+04  0.50400001928E-02 0. -1.
    10030    2    1    2    0    0  0.00000000000E+00  0.00000000000E+00 -0.81208378233E+03  0.31085254591E+04  0.30005750216E+04 0.  0.
        2    1    3    3  502    0  0.30382904658E+03 -0.12678484536E+04 -0.11751181579E+04  0.17551793287E+04  0.25500000920E-02 0. -1.
       -2    1    3    3    0  502 -0.30382904658E+03  0.12678484536E+04  0.36303437556E+03  0.13533461304E+04  0.25500000920E-02 0.  1.
</event>
<event>
 5   0  0.1817566E-07  0.3000549E+04  0.7818609E-02  0.8243574E-01
        2   -1    0    0  501    0  0.00000000000E+00  0.00000000000E+00  0.13830434328E+04  0.13830434328E+04  0.25500000920E-02 0. -1.
       -2   -1    0    0    0  501  0.00000000000E+00  0.00000000000E+00 -0.16274421799E+04  0.16274421799E+04  0.25500000920E-02 0.  1.
    10030    2    1    2    0    0  0.00000000000E+00  0.00000000000E+00 -0.24439874717E+03  0.30104856127E+04  0.30005487626E+04 0.  0.
        1    1    3    3  502    0  0.94155978012E+01  0.76028005110E+03 -0.14198149172E+04  0.16105864798E+04  0.50400001928E-02 0.  1.
       -1    1    3    3    0  502 -0.94155978012E+01 -0.76028005110E+03  0.11754161701E+04  0.13998991329E+04  0.50400001928E-02 0. -1.
</event>
<event>
 5   0  0.1914439E-07  0.2999889E+04  0.7818609E-02  0.8243762E-01
        2   -1    0    0  501    0  0.00000000000E+00  0.00000000000E+00  0.88732427063E+03  0.88732427063E+03  0.25500000920E-02 0. -1.
       -2   -1    0    0    0  501  0.00000000000E+00  0.00000000000E+00 -0.25355264642E+04  0.25355264642E+04  0.25500000920E-02 0.  1.
    10030    2    1    2    0    0  0.00000000000E+00  0.00000000000E+00 -0.16482021936E+04  0.34228507348E+04  0.29998894450E+04 0.  0.
        5    1    3    3  502    0  0.14446009807E+04  0.34349688714E+03 -0.10660075428E+04  0.18279103578E+04  0.46999998093E+01 0.  1.
       -5    1    3    3    0  502 -0.14446009807E+04 -0.34349688714E+03 -0.58219465071E+03  0.15949403770E+04  0.46999998093E+01 0. -1.
</event>
<event>
 5   0  0.6464436E-08  0.3000228E+04  0.7818609E-02  0.8243666E-01
       -1   -1    0    0    0  501  0.00000000000E+00  0.00000000000E+00  0.18098348096E+04  0.18098348096E+04  0.50400001928E-02 0.  1.
        1   -1    0    0  501    0  0.00000000000E+00  0.00000000000E+00 -0.12433961091E+04  0.12433961091E+04  0.50400001928E-02 0. -1.
    10030    2    1    2    0    0  0.00000000000E+00  0.00000000000E+00  0.56643870053E+03  0.30532309188E+04  0.30002276983E+04 0.  0.
        5    1    3    3  502    0  0.30711999567E+03  0.28905095573E+03  0.17482512496E+04  0.17984097610E+04  0.46999998093E+01 0.  1.
       -5    1    3    3    0  502 -0.30711999567E+03 -0.28905095573E+03 -0.11818125491E+04  0.12548211577E+04  0.46999998093E+01 0. -1.
</event>
<event>
 5   0  0.1810055E-07  0.2999811E+04  0.7818609E-02  0.8243785E-01
        2   -1    0    0  501    0  0.00000000000E+00  0.00000000000E+00  0.13037470793E+04  0.13037470793E+04  0.25500000920E-02 0. -1.
       -2   -1    0    0    0  501  0.00000000000E+00  0.00000000000E+00 -0.17255777837E+04  0.17255777837E+04  0.25500000920E-02 0.  1.
    10030    2    1    2    0    0  0.00000000000E+00  0.00000000000E+00 -0.42183070437E+03  0.30293248630E+04  0.29998113245E+04 0.  0.
        4    1    3    3  502    0 -0.52639208918E+03  0.39319783781E+03  0.11506907888E+04  0.13250600272E+04  0.12699999809E+01 0. -1.
       -4    1    3    3    0  502  0.52639208918E+03 -0.39319783781E+03 -0.15725214932E+04  0.17042648358E+04  0.12699999809E+01 0.  1.
</event>
<event>
 5   0  0.6374748E-08  0.3000230E+04  0.7818609E-02  0.8243665E-01
       -1   -1    0    0    0  501  0.00000000000E+00  0.00000000000E+00  0.11494401801E+04  0.11494401801E+04  0.50400001928E-02 0. -1.
        1   -1    0    0  501    0  0.00000000000E+00  0.00000000000E+00 -0.19577749674E+04  0.19577749674E+04  0.50400001928E-02 0.  1.
    10030    2    1    2    0    0  0.00000000000E+00  0.00000000000E+00 -0.80833478731E+03  0.31072151475E+04  0.30002301319E+04 0.  0.
        1    1    3    3  502    0 -0.17902452343E+03  0.11946820837E+04  0.51694637772E+03  0.13139819704E+04  0.50400001928E-02 0. -1.
       -1    1    3    3    0  502  0.17902452343E+03 -0.11946820837E+04 -0.13252811650E+04  0.17932331771E+04  0.50400001928E-02 0.  1.
</event>
<event>
 5   0  0.6464436E-08  0.2999766E+04  0.7818609E-02  0.8243798E-01
        1   -1    0    0  501    0  0.00000000000E+00  0.00000000000E+00  0.14972611432E+04  0.14972611432E+04  0.50400001928E-02 0. -1.
       -1   -1    0    0    0  501  0.00000000000E+00  0.00000000000E+00 -0.15025093336E+04  0.15025093336E+04  0.50400001928E-02 0.  1.
    10030    2    1    2    0    0  0.00000000000E+00  0.00000000000E+00 -0.52481903652E+01  0.29997704768E+04  0.29997658859E+04 0.  0.
        5    1    3    3  502    0  0.34859270842E+03  0.13362374094E+04 -0.58792787145E+03  0.15009092453E+04  0.46999998093E+01 0.  1.
       -5    1    3    3    0  502 -0.34859270842E+03 -0.13362374094E+04  0.58267968108E+03  0.14988612315E+04  0.46999998093E+01 0. -1.
</event>
<event>
 5   0  0.6636007E-08  0.3000076E+04  0.7818609E-02  0.8243709E-01
        1   -1    0    0  501    0  0.00000000000E+00  0.00000000000E+00  0.14897402160E+04  0.14897402160E+04  0.50400001928E-02 0. -1.
       -1   -1    0    0    0  501  0.00000000000E+00  0.00000000000E+00 -0.15104074098E+04  0.15104074099E+04  0.50400001928E-02 0.  1.
    10030    2    1    2    0    0  0.00000000000E+00  0.00000000000E+00 -0.20667193855E+02  0.30001476258E+04  0.30000764397E+04 0.  0.
        2    1    3    3  502    0 -0.13032396411E+04  0.24798900151E+03 -0.71048059331E+03  0.15048969335E+04  0.25500000920E-02 0.  1.
       -2    1    3    3    0  502  0.13032396411E+04 -0.24798900151E+03  0.68981339945E+03  0.14952506924E+04  0.25500000920E-02 0. -1.
</event>
<event>
 5   0  0.6636007E-08  0.2999573E+04  0.7818609E-02  0.8243853E-01
       -1   -1    0    0    0  501  0.00000000000E+00  0.00000000000E+00  0.13282156594E+04  0.13282156594E+04  0.50400001928E-02 0.  1.
        1   -1    0    0  501    0  0.00000000000E+00  0.00000000000E+00 -0.16935195710E+04  0.16935195710E+04  0.50400001928E-02 0. -1.
    10030    2    1    2    0    0  0.00000000000E+00  0.00000000000E+00 -0.36530391162E+03  0.30217352304E+04  0.29995727787E+04 0.  0.
        2    1    3    3  502    0  0.10154328879E+04  0.98278471178E+03  0.32344371660E+03  0.14496846476E+04  0.25500000920E-02 0. -1.
       -2    1    3    3    0  502 -0.10154328879E+04 -0.98278471178E+03 -0.68874762821E+03  0.15720505828E+04  0.25500000920E-02 0.  1.
</event>
<event>
 5   0  0.6464436E-08  0.2992108E+04  0.7818609E-02  0.8245988E-01
       -1   -1    0    0    0  501  0.00000000000E+00  0.00000000000E+00  0.18279101536E+04  0.18279101536E+04  0.50400001928E-02 0.  1.
        1   -1    0    0  501    0  0.00000000000E+00  0.00000000000E+00 -0.12244465144E+04  0.12244465144E+04  0.50400001928E-02 0. -1.
    10030    2    1    2    0    0  0.00000000000E+00  0.00000000000E+00  0.60346363926E+03  0.30523566680E+04  0.29921084313E+04 0.  0.
        5    1    3    3  502    0 -0.13740474395E+04 -0.21985480669E+03 -0.25870591871E+03  0.14153774565E+04  0.46999998093E+01 0. -1.
       -5    1    3    3    0  502  0.13740474395E+04  0.21985480669E+03  0.86216955797E+03  0.16369792115E+04  0.46999998093E+01 0.  1.
</event>
<event>
 5   0  0.6464436E-08  0.3000141E+04  0.7818609E-02  0.8243691E-01
       -1   -1    0    0    0  501  0.00000000000E+00  0.00000000000E+00  0.95504932139E+03  0.95504932140E+03  0.50400001928E-02 0.  1.
        1   -1    0    0  501    0  0.00000000000E+00  0.00000000000E+00 -0.23561209034E+04  0.23561209034E+04  0.50400001928E-02 0. -1.
    10030    2    1    2    0    0  0.00000000000E+00  0.00000000000E+00 -0.14010715820E+04  0.33111702248E+04  0.30001411100E+04 0.  0.
        5    1    3    3  502    0  0.56794714033E+03  0.12993421876E+04 -0.16059841517E+03  0.14271187812E+04  0.46999998093E+01 0. -1.
       -5    1    3    3    0  502 -0.56794714033E+03 -0.12993421876E+04 -0.12404731668E+04  0.18840514436E+04  0.46999998093E+01 0.  1.
</event>
<event>
 5   0  0.6636007E-08  0.3000200E+04  0.7818609E-02  0.8243674E-01
       -1   -1    0    0    0  501  0.00000000000E+00  0.00000000000E+00  0.13246962993E+04  0.13246962993E+04  0.50400001928E-02 0. -1.
        1   -1    0    0  501    0  0.00000000000E+00  0.00000000000E+00 -0.16987288489E+04  0.16987288489E+04  0.50400001928E-02 0.  1.
    10030    2    1    2    0    0  0.00000000000E+00  0.00000000000E+00 -0.37403254957E+03  0.30234251482E+04  0.30001998731E+04 0.  0.
        2    1    3    3  502    0  0.38002605521E+03  0.14507138754E+04 -0.22348019978E+03  0.15162235820E+04  0.25500000920E-02 0.  1.
       -2    1    3    3    0  502 -0.38002605521E+03 -0.14507138754E+04 -0.15055234979E+03  0.15072015661E+04  0.25500000920E-02 0. -1.
</event>
<event>
 5   0  0.6636007E-08  0.2995060E+04  0.7818609E-02  0.8245143E-01
        1   -1    0    0  501    0  0.00000000000E+00  0.00000000000E+00  0.22989986816E+04  0.22989986817E+04  0.50400001928E-02 0. -1.
       -1   -1    0    0    0  501  0.00000000000E+00  0.00000000000E+00 -0.97546617658E+03  0.97546617659E+03  0.50400001928E-02 0.  1.
    10030    2    1    2    0    0  0.00000000000E+00  0.00000000000E+00  0.13235325051E+04  0.32744648582E+04  0.29950595680E+04 0.  0.
        2    1    3    3  502    0 -0.89166928551E+03 -0.10572647384E+04  0.33993228708E+02  0.13834877597E+04  0.25500000920E-02 0.  1.
       -2    1    3    3    0  502  0.89166928551E+03  0.10572647384E+04  0.12895392764E+04  0.18909770985E+04  0.25500000920E-02 0. -1.
</event>
<event>
 5   0  0.6636007E-08  0.3000615E+04  0.7818609E-02  0.8243555E-01
       -1   -1    0    0    0  501  0.00000000000E+00  0.00000000000E+00  0.24817494743E+04  0.24817494743E+04  0.50400001928E-02 0. -1.
        1   -1    0    0  501    0  0.00000000000E+00  0.00000000000E+00 -0.90698995557E+03  0.90698995559E+03  0.50400001928E-02 0.  1.
    10030    2    1    2    0    0  0.00000000000E+00  0.00000000000E+00  0.15747595187E+04  0.33887394299E+04  0.30006145007E+04 0.  0.
        2    1    3    3  502    0 -0.12451141482E+04  0.18794929833E+02  0.17324355155E+04  0.21335405566E+04  0.25500000920E-02 0. -1.
       -2    1    3    3    0  502  0.12451141482E+04 -0.18794929833E+02 -0.15767599677E+03  0.12551988733E+04  0.25500000920E-02 0.  1.
</event>
<event>
 5   0  0.1817566E-07  0.2999694E+04  0.7818609E-02  0.8243818E-01
       -2   -1    0    0    0  501  0.00000000000E+00  0.00000000000E+00  0.92277320595E+03  0.92277320595E+03  0.25500000920E-02 0. -1.
        2   -1    0    0  501    0  0.00000000000E+00  0.00000000000E+00 -0.24378047409E+04  0.24378047409E+04  0.25500000920E-02 0.  1.
    10030    2    1    2    0    0  0.00000000000E+00  0.00000000000E+00 -0.15150315350E+04  0.33605779469E+04  0.29996939152E+04 0.  0.
        1    1    3    3  502    0 -0.10486770719E+04 -0.19793053988E+03 -0.19381730275E+04  0.22125584251E+04  0.50400001928E-02 0.  1.
       -1    1    3    3    0  502  0.10486770719E+04  0.19793053988E+03  0.42314149248E+03  0.11480195218E+04  0.50400001928E-02 0. -1.
</event>
<event>
 5   0  0.6464436E-08  0.3003071E+04  0.7818609E-02  0.8242855E-01
       -1   -1    0    0    0  501  0.00000000000E+00  0.00000000000E+00  0.12889632754E+04  0.12889632754E+04  0.50400001928E-02 0.  1.
        1   -1    0    0  501    0  0.00000000000E+00  0.00000000000E+00 -0.17491641729E+04  0.17491641729E+04  0.50400001928E-02 0. -1.
    10030    2    1    2    0    0  0.00000000000E+00  0.00000000000E+00 -0.46020089753E+03  0.30381274483E+04  0.30030706828E+04 0.  0.
        5    1    3    3  502    0 -0.10679984172E+04  0.49990714601E+03 -0.11704991313E+04  0.16615107825E+04  0.46999998093E+01 0. -1.
       -5    1    3    3    0  502  0.10679984172E+04 -0.49990714601E+03  0.71029823381E+03  0.13766166658E+04  0.46999998093E+01 0.  1.
</event>
<event>
 5   0  0.6636007E-08  0.3000316E+04  0.7818609E-02  0.8243641E-01
        1   -1    0    0  501    0  0.00000000000E+00  0.00000000000E+00  0.13975810360E+04  0.13975810360E+04  0.50400001928E-02 0. -1.
       -1   -1    0    0    0  501  0.00000000000E+00  0.00000000000E+00 -0.16102639331E+04  0.16102639331E+04  0.50400001928E-02 0.  1.
    10030    2    1    2    0    0  0.00000000000E+00  0.00000000000E+00 -0.21268289705E+03  0.30078449691E+04  0.30003162073E+04 0.  0.
        2    1    3    3  502    0 -0.47469932333E+03 -0.89694618720E+03  0.10012487207E+04  0.14256054542E+04  0.25500000920E-02 0. -1.
       -2    1    3    3    0  502  0.47469932333E+03  0.89694618720E+03 -0.12139316177E+04  0.15822395150E+04  0.25500000920E-02 0.  1.
</event>
<event>
 5   0  0.6374748E-08  0.2992665E+04  0.7818609E-02  0.8245829E-01
        1   -1    0    0  501    0  0.00000000000E+00  0.00000000000E+00  0.12063488925E+04  0.12063488925E+04  0.50400001928E-02 0. -1.
       -1   -1    0    0    0  501  0.00000000000E+00  0.00000000000E+00 -0.18560222962E+04  0.18560222962E+04  0.50400001928E-02 0.  1.
    10030    2    1    2    0    0  0.00000000000E+00  0.00000000000E+00 -0.64967340374E+03  0.30623711888E+04  0.29926646598E+04 0.  0.
        1    1    3    3  502    0  0.49547716618E+03 -0.10103496817E+04 -0.13340678560E+04  0.17452911350E+04  0.50400001928E-02 0.  1.
       -1    1    3    3    0  502 -0.49547716618E+03  0.10103496817E+04  0.68439445225E+03  0.13170800537E+04  0.50400001928E-02 0. -1.
</event>
<event>
 5   0  0.1914439E-07  0.2999907E+04  0.7818609E-02  0.8243757E-01
       -2   -1    0    0    0  501  0.00000000000E+00  0.00000000000E+00  0.84978152989E+03  0.84978152990E+03  0.25500000920E-02 0. -1.
        2   -1    0    0  501    0  0.00000000000E+00  0.00000000000E+00 -0.26475758803E+04  0.26475758803E+04  0.25500000920E-02 0.  1.
    10030    2    1    2    0    0  0.00000000000E+00  0.00000000000E+00 -0.17977943504E+04  0.34973574102E+04  0.29999073866E+04 0.  0.
        5    1    3    3  502    0 -0.10657488542E+03 -0.14683711777E+04 -0.56431064612E+03  0.15766866262E+04  0.46999998093E+01 0. -1.
       -5    1    3    3    0  502  0.10657488542E+03  0.14683711777E+04 -0.12334837043E+04  0.19206707840E+04  0.46999998093E+01 0.  1.
</event>
<event>
 5   0  0.1914439E-07  0.3000062E+04  0.7818609E-02  0.8243713E-01
       -2   -1    0    0    0  501  0.00000000000E+00  0.00000000000E+00  0.34078248012E+04  0.34078248012E+04  0.25500000920E-02 0.  1.
        2   -1    0    0  501    0  0.00000000000E+00  0.00000000000E+00 -0.66027238267E+03  0.66027238267E+03  0.25500000920E-02 0. -1.
    10030    2    1    2    0    0  0.00000000000E+00  0.00000000000E+00  0.27475524185E+04  0.40680971839E+04  0.30000617335E+04 0.  0.
        5    1    3    3  502    0 -0.38373652356E+03  0.12806266292E+04  0.45128222988E+03  0.14110053239E+04  0.46999998093E+01 0. -1.
       -5    1    3    3    0  502  0.38373652356E+03 -0.12806266292E+04  0.22962701887E+04  0.26570918600E+04  0.46999998093E+01 0.  1.
</event>
<event>
 5   0  0.1810055E-07  0.2999335E+04  0.7818609E-02  0.8243921E-01
       -2   -1    0    0    0  501  0.00000000000E+00  0.00000000000E+00  0.11865026014E+04  0.11865026014E+04  0.25500000920E-02 0.  1.
        2   -1    0    0  501    0  0.00000000000E+00  0.00000000000E+00 -0.18954888606E+04  0.18954888606E+04  0.25500000920E-02 0. -1.
    10030    2    1    2    0    0  0.00000000000E+00  0.00000000000E+00 -0.70898625921E+03  0.30819914620E+04  0.29993349023E+04 0.  0.
        4    1    3    3  502    0  0.12571990391E+04 -0.10830731465E+03  0.47822286464E+03  0.13494364081E+04  0.12699999809E+01 0.  1.
       -4    1    3    3    0  502 -0.12571990391E+04  0.10830731465E+03 -0.11872091238E+04  0.17325550539E+04  0.12699999809E+01 0. -1.
</event>
<event>
 5   0  0.6464436E-08  0.3005152E+04  0.7818609E-02  0.8242261E-01
       -1   -1    0    0    0  501  0.00000000000E+00  0.00000000000E+00  0.17842292325E+04  0.17842292325E+04  0.50400001928E-02 0. -1.
        1   -1    0    0  501    0  0.00000000000E+00  0.00000000000E+00 -0.12653836911E+04  0.12653836911E+04  0.50400001928E-02 0.  1.
    10030    2    1    2    0    0  0.00000000000E+00  0.00000000000E+00  0.51884554139E+03  0.30496129236E+04  0.30051519576E+04 0.  0.
        5    1    3    3  502    0 -0.10051653285E+04 -0.92528956290E+03  0.89413165836E+03  0.16327925849E+04  0.46999998093E+01 0. -1.
       -5    1    3    3    0  502  0.10051653285E+04  0.92528956290E+03 -0.37528611698E+03  0.14168203388E+04  0.46999998093E+01 0.  1.
</event>
<event>
 5   0  0.1821305E-07  0.3000334E+04  0.7818609E-02  0.8243636E-01
       -2   -1    0    0    0  501  0.00000000000E+00  0.00000000000E+00  0.11058380865E+04  0.11058380865E+04  0.25500000920E-02 0.  1.
        2   -1    0    0  501    0  0.00000000000E+00  0.00000000000E+00 -0.20351090479E+04  0.20351090479E+04  0.25500000920E-02 0. -1.
    10030    2    1    2    0    0  0.00000000000E+00  0.00000000000E+00 -0.92927096137E+03  0.31409471344E+04  0.30003340450E+04 0.  0.
        2    1    3    3  502    0  0.10335870262E+04  0.10240844504E+04 -0.82206941477E+02  0.14573294355E+04  0.25500000920E-02 0.  1.
       -2    1    3    3    0  502 -0.10335870262E+04 -0.10240844504E+04 -0.84706401989E+03  0.16836176989E+04  0.25500000920E-02 0. -1.
</event>
<event>
 5   0  0.6636007E-08  0.2999709E+04  0.7818609E-02  0.8243814E-01
       -1   -1    0    0    0  501  0.00000000000E+00  0.00000000000E+00  0.85214690637E+03  0.85214690639E+03  0.50400001928E-02 0.  1.
        1   -1    0    0  501    0  0.00000000000E+00  0.00000000000E+00 -0.26398767475E+04  0.26398767475E+04  0.50400001928E-02 0. -1.
    10030    2    1    2    0    0  0.00000000000E+00  0.00000000000E+00 -0.17877298411E+04  0.34920236539E+04  0.29997085216E+04 0.  0.
        2    1    3    3  502    0  0.51242445747E+01  0.35431242624E+03 -0.25904486571E+04  0.26145722017E+04  0.25500000920E-02 0. -1.
       -2    1    3    3    0  502 -0.51242445747E+01 -0.35431242624E+03  0.80271881598E+03  0.87745145211E+03  0.25500000920E-02 0.  1.
</event>
<event>
 5   0  0.1821305E-07  0.3000094E+04  0.7818609E-02  0.8243704E-01
       -2   -1    0    0    0  501  0.00000000000E+00  0.00000000000E+00  0.20972223067E+04  0.20972223067E+04  0.25500000920E-02 0.  1.
        2   -1    0    0  501    0  0.00000000000E+00  0.00000000000E+00 -0.10729146957E+04  0.10729146957E+04  0.25500000920E-02 0. -1.
    10030    2    1    2    0    0  0.00000000000E+00  0.00000000000E+00  0.10243076110E+04  0.31701370024E+04  0.30000937538E+04 0.  0.
        2    1    3    3  502    0  0.83666890417E+03  0.61149236111E+03 -0.63384541430E+03  0.12147830144E+04  0.25500000920E-02 0. -1.
       -2    1    3    3    0  502 -0.83666890417E+03 -0.61149236111E+03  0.16581530253E+04  0.19553539879E+04  0.25500000920E-02 0.  1.
</event>
<event>
 5   0  0.6464436E-08  0.3002697E+04  0.7818609E-02  0.8242961E-01
       -1   -1    0    0    0  501  0.00000000000E+00  0.00000000000E+00  0.23230867719E+04  0.23230867719E+04  0.50400001928E-02 0. -1.
        1   -1    0    0  501    0  0.00000000000E+00  0.00000000000E+00 -0.97028096327E+03  0.97028096328E+03  0.50400001928E-02 0.  1.
    10030    2    1    2    0    0  0.00000000000E+00  0.00000000000E+00  0.13528058087E+04  0.32933677352E+04  0.30026967019E+04 0.  0.
        5    1    3    3  502    0 -0.61198560224E+03 -0.13704009777E+04  0.63393006965E+03  0.16292374413E+04  0.46999998093E+01 0. -1.
       -5    1    3    3    0  502  0.61198560224E+03  0.13704009777E+04  0.71887573900E+03  0.16641302939E+04  0.46999998093E+01 0.  1.
</event>
<event>
 5   0  0.1810055E-07  0.2990954E+04  0.7818609E-02  0.8246319E-01
       -2   -1    0    0    0  501  0.00000000000E+00  0.00000000000E+00  0.11791581150E+04  0.11791581150E+04  0.25500000920E-02 0.  1.
        2   -1    0    0  501    0  0.00000000000E+00  0.00000000000E+00 -0.18966504837E+04  0.18966504837E+04  0.25500000920E-02 0. -1.
    10030    2    1    2    0    0  0.00000000000E+00  0.00000000000E+00 -0.71749236872E+03  0.30758085987E+04  0.29909535664E+04 0.  0.
        4    1    3    3  502    0 -0.95792668799E+03  0.10201810138E+04 -0.90101677184E+03  0.16643994943E+04  0.12699999809E+01 0. -1.
       -4    1    3    3    0  502  0.95792668799E+03 -0.10201810138E+04  0.18352440311E+03  0.14114091044E+04  0.12699999809E+01 0.  1.
</event>
<event>
 5   0  0.6374748E-08  0.2998616E+04  0.7818609E-02  0.8244126E-01
        1   -1    0    0  501    0  0.00000000000E+00  0.00000000000E+00  0.19081254982E+04  0.19081254982E+04  0.50400001928E-02 0.  1.
       -1   -1    0    0    0  501  0.00000000000E+00  0.00000000000E+00 -0.11780800562E+04  0.11780800562E+04  0.50400001928E-02 0. -1.
    10030    2    1    2    0    0  0.00000000000E+00  0.00000000000E+00  0.73004544199E+03  0.30862055544E+04  0.29986160769E+04 0.  0.
        1    1    3    3  502    0 -0.50110847867E+03 -0.11095939263E+04 -0.53553082811E+03  0.13300758086E+04  0.50400001928E-02 0. -1.
       -1    1    3    3    0  502  0.50110847867E+03  0.11095939263E+04  0.12655762701E+04  0.17561297458E+04  0.50400001928E-02 0.  1.
</event>
<event>
 5   0  0.6464436E-08  0.2984802E+04  0.7818609E-02  0.8248084E-01
        1   -1    0    0  501    0  0.00000000000E+00  0.00000000000E+00  0.17785514824E+04  0.17785514824E+04  0.50400001928E-02 0. -1.
       -1   -1    0    0    0  501  0.00000000000E+00  0.00000000000E+00 -0.12522895655E+04  0.12522895655E+04  0.50400001928E-02 0.  1.
    10030    2    1    2    0    0  0.00000000000E+00  0.00000000000E+00  0.52626191696E+03  0.30308410479E+04  0.29848024813E+04 0.  0.
        5    1    3    3  502    0 -0.14933818859E+03 -0.10144586028E+04 -0.83794267672E+03  0.13242349379E+04  0.46999998093E+01 0.  1.
       -5    1    3    3    0  502  0.14933818859E+03  0.10144586028E+04  0.13642045937E+04  0.17066061100E+04  0.46999998093E+01 0. -1.
</event>
<event>
 5   0  0.6374748E-08  0.2999882E+04  0.7818609E-02  0.8243765E-01
       -1   -1    0    0    0  501  0.00000000000E+00  0.00000000000E+00  0.15529001720E+04  0.15529001720E+04  0.50400001928E-02 0.  1.
        1   -1    0    0  501    0  0.00000000000E+00  0.00000000000E+00 -0.14487874825E+04  0.14487874825E+04  0.50400001928E-02 0. -1.
    10030    2    1    2    0    0  0.00000000000E+00  0.00000000000E+00  0.10411268955E+03  0.30016876545E+04  0.29998815515E+04 0.  0.
        1    1    3    3  502    0 -0.77083636439E+03  0.46879636542E+03 -0.11469403462E+04  0.14592569652E+04  0.50400001928E-02 0. -1.
       -1    1    3    3    0  502  0.77083636439E+03 -0.46879636542E+03  0.12510530357E+04  0.15424306892E+04  0.50400001928E-02 0.  1.
</event>
<event>
 5   0  0.1821305E-07  0.2999611E+04  0.7818609E-02  0.8243842E-01
        2   -1    0    0  501    0  0.00000000000E+00  0.00000000000E+00  0.22936564765E+04  0.22936564765E+04  0.25500000920E-02 0.  1.
       -2   -1    0    0    0  501  0.00000000000E+00  0.00000000000E+00 -0.98071210537E+03  0.98071210538E+03  0.25500000920E-02 0. -1.
    10030    2    1    2    0    0  0.00000000000E+00  0.00000000000E+00  0.13129443711E+04  0.32743685819E+04  0.29996110895E+04 0.  0.
        2    1    3    3  502    0  0.75064402044E+03  0.29775885084E+03 -0.72313194470E+03  0.10839956587E+04  0.25500000920E-02 0. -1.
       -2    1    3    3    0  502 -0.75064402044E+03 -0.29775885084E+03  0.20360763158E+04  0.21903729232E+04  0.25500000920E-02 0.  1.
</event>
<event>
 5   0  0.1813720E-07  0.3001872E+04  0.7818609E-02  0.8243197E-01
       -2   -1    0    0    0  501  0.00000000000E+00  0.00000000000E+00  0.12813952666E+04  0.12813952666E+04  0.25500000920E-02 0. -1.
        2   -1    0    0  501    0  0.00000000000E+00  0.00000000000E+00 -0.17580904142E+04  0.17580904142E+04  0.25500000920E-02 0.  1.
    10030    2    1    2    0    0  0.00000000000E+00  0.00000000000E+00 -0.47669514761E+03  0.30394856807E+04  0.30018719059E+04 0.  0.
        3    1    3    3  502    0 -0.14604007899E+04 -0.33567799414E+02  0.11080866108E+03  0.14649832197E+04  0.10100000352E+00 0. -1.
       -3    1    3    3    0  502  0.14604007899E+04  0.33567799414E+02 -0.58750380868E+03  0.15745024610E+04  0.10100000352E+00 0.  1.
</event>
<event>
 5   0  0.6464436E-08  0.3001488E+04  0.7818609E-02  0.8243306E-01
        1   -1    0    0  501    0  0.00000000000E+00  0.00000000000E+00  0.99546087572E+03  0.99546087573E+03  0.50400001928E-02 0.  1.
       -1   -1    0    0    0  501  0.00000000000E+00  0.00000000000E+00 -0.22625026116E+04  0.22625026116E+04  0.50400001928E-02 0. -1.
    10030    2    1    2    0    0  0.00000000000E+00  0.00000000000E+00 -0.12670417359E+04  0.32579634873E+04  0.30014881849E+04 0.  0.
        5    1    3    3  502    0  0.14487728938E+04 -0.24045935361E+03 -0.29817648190E+03  0.14985642805E+04  0.46999998093E+01 0.  1.
       -5    1    3    3    0  502 -0.14487728938E+04  0.24045935361E+03 -0.96886525398E+03  0.17593992068E+04  0.46999998093E+01 0. -1.
</event>
<event>
 5   0  0.1914439E-07  0.3001721E+04  0.7818609E-02  0.8243240E-01
        2   -1    0    0  501    0  0.00000000000E+00  0.00000000000E+00  0.15191200218E+04  0.15191200218E+04  0.25500000920E-02 0. -1.
       -2   -1    0    0    0  501  0.00000000000E+00  0.00000000000E+00 -0.14828206857E+04  0.14828206857E+04  0.25500000920E-02 0.  1.
    10030    2    1    2    0    0  0.00000000000E+00  0.00000000000E+00  0.36299336131E+02  0.30019407074E+04  0.30017212344E+04 0.  0.
        5    1    3    3  502    0  0.70292877831E+03 -0.68259798658E+03 -0.11188202684E+04  0.14872221628E+04  0.46999998093E+01 0.  1.
       -5    1    3    3    0  502 -0.70292877831E+03  0.68259798658E+03  0.11551196045E+04  0.15147185446E+04  0.46999998093E+01 0. -1.
</event>
<event>
 5   0  0.1914439E-07  0.2999866E+04  0.7818609E-02  0.8243769E-01
       -2   -1    0    0    0  501  0.00000000000E+00  0.00000000000E+00  0.10808688177E+04  0.10808688177E+04  0.25500000920E-02 0.  1.
        2   -1    0    0  501    0  0.00000000000E+00  0.00000000000E+00 -0.20814727413E+04  0.20814727413E+04  0.25500000920E-02 0. -1.
    10030    2    1    2    0    0  0.00000000000E+00  0.00000000000E+00 -0.10006039237E+04  0.31623415590E+04  0.29998659843E+04 0.  0.
        5    1    3    3  502    0 -0.93206744203E+03  0.14134633589E+03  0.72952413559E+03  0.11920386141E+04  0.46999998093E+01 0.  1.
       -5    1    3    3    0  502  0.93206744203E+03 -0.14134633589E+03 -0.17301280592E+04  0.19703029449E+04  0.46999998093E+01 0. -1.
</event>
<event>
 5   0  0.1914439E-07  0.3000122E+04  0.7818609E-02  0.8243696E-01
        2   -1    0    0  501    0  0.00000000000E+00  0.00000000000E+00  0.17073576157E+04  0.17073576157E+04  0.25500000920E-02 0. -1.
       -2   -1    0    0    0  501  0.00000000000E+00  0.00000000000E+00 -0.13179326675E+04  0.13179326675E+04  0.25500000920E-02 0.  1.
    10030    2    1    2    0    0  0.00000000000E+00  0.00000000000E+00  0.38942494827E+03  0.30252902832E+04  0.30001215821E+04 0.  0.
        5    1    3    3  502    0 -0.39780485087E+03 -0.93467324045E+03  0.13077373673E+04  0.16559172315E+04  0.46999998093E+01 0. -1.
       -5    1    3    3    0  502  0.39780485087E+03  0.93467324045E+03 -0.91831241904E+03  0.13693730517E+04  0.46999998093E+01 0.  1.
</event>
<event>
 5   0  0.6374748E-08  0.2995707E+04  0.7818609E-02  0.8244958E-01
        1   -1    0    0  501    0  0.00000000000E+00  0.00000000000E+00  0.19652295263E+04  0.19652295263E+04  0.50400001928E-02 0.  1.
       -1   -1    0    0    0  501  0.00000000000E+00  0.00000000000E+00 -0.11416297157E+04  0.11416297157E+04  0.50400001928E-02 0. -1.
    10030    2    1    2    0    0  0.00000000000E+00  0.00000000000E+00  0.82359981057E+03  0.31068592420E+04  0.29957065447E+04 0.  0.
        1    1    3    3  502    0  0.11624995713E+03  0.14918462276E+04  0.48094609551E+03  0.15717596401E+04  0.50400001928E-02 0. -1.
       -1    1    3    3    0  502 -0.11624995713E+03 -0.14918462276E+04  0.34265371506E+03  0.15350996019E+04  0.50400001928E-02 0.  1.
</event>
<event>
 5   0  0.1810055E-07  0.3000626E+04  0.7818609E-02  0.8243552E-01
        2   -1    0    0  501    0  0.00000000000E+00  0.00000000000E+00  0.18248133391E+04  0.18248133391E+04  0.25500000920E-02 0. -1.
       -2   -1    0    0    0  501  0.00000000000E+00  0.00000000000E+00 -0.12335178550E+04  0.12335178550E+04  0.25500000920E-02 0.  1.
    10030    2    1    2    0    0  0.00000000000E+00  0.00000000000E+00  0.59129548407E+03  0.30583311941E+04  0.30006264918E+04 0.  0.
        4    1    3    3  502    0  0.87187406155E+03 -0.17067293655E+03 -0.93658705114E+03  0.12909262364E+04  0.12699999809E+01 0.  1.
       -4    1    3    3    0  502 -0.87187406155E+03  0.17067293655E+03  0.15278825352E+04  0.17674049578E+04  0.12699999809E+01 0. -1.
</event>
<event>
 5   0  0.6374748E-08  0.3000065E+04  0.7818609E-02  0.8243712E-01
        1   -1    0    0  501    0  0.00000000000E+00  0.00000000000E+00  0.21333250866E+04  0.21333250866E+04  0.50400001928E-02 0.  1.
       -1   -1    0    0    0  501  0.00000000000E+00  0.00000000000E+00 -0.10547371983E+04  0.10547371983E+04  0.50400001928E-02 0. -1.
    10030    2    1    2    0    0  0.00000000000E+00  0.00000000000E+00  0.10785878883E+04  0.31880622849E+04  0.30000648826E+04 0.  0.
        1    1    3    3  502    0 -0.10073193253E+03  0.88912829840E+03  0.18186471722E+04  0.20268629924E+04  0.50400001928E-02 0.  1.
       -1    1    3    3    0  502  0.10073193253E+03 -0.88912829840E+03 -0.74005928385E+03  0.11611992925E+04  0.50400001928E-02 0. -1.
</event>
<event>
 5   0  0.6679022E-08  0.3000126E+04  0.7818609E-02  0.8243695E-01
       -1   -1    0    0    0  501  0.00000000000E+00  0.00000000000E+00  0.12514045948E+04  0.12514045948E+04  0.50400001928E-02 0. -1.
        1   -1    0    0  501    0  0.00000000000E+00  0.00000000000E+00 -0.17981306213E+04  0.17981306213E+04  0.50400001928E-02 0.  1.
    10030    2    1    2    0    0  0.00000000000E+00  0.00000000000E+00 -0.54672602651E+03  0.30495352161E+04  0.30001259450E+04 0.  0.
        3    1    3    3  502    0 -0.11526124399E+04  0.86363009261E+03  0.15284737240E+03  0.14483558620E+04  0.10100000352E+00 0.  1.
       -3    1    3    3    0  502  0.11526124399E+04 -0.86363009261E+03 -0.69957339891E+03  0.16011793541E+04  0.10100000352E+00 0. -1.
</event>
<event>
 5   0  0.6636007E-08  0.2999706E+04  0.7818609E-02  0.8243815E-01
        1   -1    0    0  501    0  0.00000000000E+00  0.00000000000E+00  0.27678191776E+04  0.27678191776E+04  0.50400001928E-02 0.  1.
       -1   -1    0    0    0  501  0.00000000000E+00  0.00000000000E+00 -0.81275506040E+03  0.81275506042E+03  0.50400001928E-02 0. -1.
    10030    2    1    2    0    0  0.00000000000E+00  0.00000000000E+00  0.19550641172E+04  0.35805742380E+04  0.29997060142E+04 0.  0.
        2    1    3    3  502    0 -0.51539087148E+03  0.56239015713E+03  0.25189707675E+04  0.26319430402E+04  0.25500000920E-02 0.  1.
       -2    1    3    3    0  502  0.51539087148E+03 -0.56239015713E+03 -0.56390665030E+03  0.94863119783E+03  0.25500000920E-02 0. -1.
</event>
<event>
 5   0  0.1810055E-07  0.2990649E+04  0.7818609E-02  0.8246406E-01
        2   -1    0    0  501    0  0.00000000000E+00  0.00000000000E+00  0.14723492661E+04  0.14723492661E+04  0.25500000920E-02 0.  1.
       -2   -1    0    0    0  501  0.00000000000E+00  0.00000000000E+00 -0.15186586462E+04  0.15186586462E+04  0.25500000920E-02 0. -1.
    10030    2    1    2    0    0  0.00000000000E+00  0.00000000000E+00 -0.46309380108E+02  0.29910079123E+04  0.29906493898E+04 0.  0.
        4    1    3    3  502    0 -0.24323398323E+03 -0.11634470364E+04  0.88427020637E+03  0.14814544164E+04  0.12699999809E+01 0.  1.
       -4    1    3    3    0  502  0.24323398323E+03  0.11634470364E+04 -0.93057958648E+03  0.15095534959E+04  0.12699999809E+01 0. -1.
</event>
<event>
 5   0  0.6525507E-08  0.3002849E+04  0.7818609E-02  0.8242918E-01
       -1   -1    0    0    0  501  0.00000000000E+00  0.00000000000E+00  0.11957127903E+04  0.11957127903E+04  0.50400001928E-02 0. -1.
        1   -1    0    0  501    0  0.00000000000E+00  0.00000000000E+00 -0.18852987345E+04  0.18852987345E+04  0.50400001928E-02 0.  1.
    10030    2    1    2    0    0  0.00000000000E+00  0.00000000000E+00 -0.68958594425E+03  0.30810115248E+04  0.30028491872E+04 0.  0.
        4    1    3    3  502    0 -0.55949193493E+03  0.80860157082E+03 -0.15089663020E+04  0.18010687491E+04  0.12699999809E+01 0.  1.
       -4    1    3    3    0  502  0.55949193493E+03 -0.80860157082E+03  0.81938035770E+03  0.12799427757E+04  0.12699999809E+01 0. -1.
</event>
<event>
 5   0  0.6679022E-08  0.3000450E+04  0.7818609E-02  0.8243602E-01
       -1   -1    0    0    0  501  0.00000000000E+00  0.00000000000E+00  0.11274814425E+04  0.11274814425E+04  0.50400001928E-02 0.  1.
        1   -1    0    0  501    0  0.00000000000E+00  0.00000000000E+00 -0.19961965983E+04  0.19961965983E+04  0.50400001928E-02 0. -1.
    10030    2    1    2    0    0  0.00000000000E+00  0.00000000000E+00 -0.86871515577E+03  0.31236780409E+04  0.30004497131E+04 0.  0.
        3    1    3    3  502    0 -0.12724353910E+04  0.40553443754E+03  0.27717744928E+03  0.13639565070E+04  0.10100000352E+00 0. -1.
       -3    1    3    3    0  502  0.12724353910E+04 -0.40553443754E+03 -0.11458926051E+04  0.17597215339E+04  0.10100000352E+00 0.  1.
</event>
<event>
 5   0  0.1817566E-07  0.3017465E+04  0.7818609E-02  0.8238761E-01
       -2   -1    0    0    0  501  0.00000000000E+00  0.00000000000E+00  0.10735206997E+04  0.10735206997E+04  0.25500000920E-02 0. -1.
        2   -1    0    0  501    0  0.00000000000E+00  0.00000000000E+00 -0.21203813958E+04  0.21203813958E+04  0.25500000920E-02 0.  1.
    10030    2    1    2    0    0  0.00000000000E+00  0.00000000000E+00 -0.10468606961E+04  0.31939020955E+04  0.30174647104E+04 0.  0.
        1    1    3    3  502    0 -0.56840576194E+03 -0.45115525012E+03  0.87665540533E+03  0.11380469541E+04  0.50400001928E-02 0. -1.
       -1    1    3    3    0  502  0.56840576194E+03  0.45115525012E+03 -0.19235161015E+04  0.20558551414E+04  0.50400001928E-02 0.  1.
</event>
<event>
 5   0  0.1914439E-07  0.2999171E+04  0.7818609E-02  0.8243968E-01
        2   -1    0    0  501    0  0.00000000000E+00  0.00000000000E+00  0.25606320972E+04  0.25606320972E+04  0.25500000920E-02 0. -1.
       -2   -1    0    0    0  501  0.00000000000E+00  0.00000000000E+00 -0.87820351416E+03  0.87820351417E+03  0.25500000920E-02 0.  1.
    10030    2    1    2    0    0  0.00000000000E+00  0.00000000000E+00  0.16824285831E+04  0.34388356114E+04  0.29991706229E+04 0.  0.
        5    1    3    3  502    0 -0.76358376692E+03 -0.56483709480E+03  0.21717754851E+04  0.23703864580E+04  0.46999998093E+01 0.  1.
       -5    1    3    3    0  502  0.76358376692E+03  0.56483709480E+03 -0.48934690204E+03  0.10684491534E+04  0.46999998093E+01 0. -1.
</event>
<event>
 5   0  0.6525507E-08  0.2999876E+04  0.7818609E-02  0.8243766E-01
       -1   -1    0    0    0  501  0.00000000000E+00  0.00000000000E+00  0.10079805607E+04  0.10079805607E+04  0.50400001928E-02 0. -1.
        1   -1    0    0  501    0  0.00000000000E+00  0.00000000000E+00 -0.22320017759E+04  0.22320017759E+04  0.50400001928E-02 0.  1.
    10030    2    1    2    0    0  0.00000000000E+00  0.00000000000E+00 -0.12240212152E+04  0.32399823366E+04  0.29998762652E+04 0.  0.
        4    1    3    3  502    0 -0.10763334897E+04  0.88858458823E+03 -0.12052816893E+04  0.18441209057E+04  0.12699999809E+01 0.  1.
       -4    1    3    3    0  502  0.10763334897E+04 -0.88858458823E+03 -0.18739525900E+02  0.13958614309E+04  0.12699999809E+01 0. -1.
</event>
<event>
 5   0  0.1810055E-07  0.3000247E+04  0.7818609E-02  0.8243660E-01
        2   -1    0    0  501    0  0.00000000000E+00  0.00000000000E+00  0.93990612232E+03  0.93990612232E+03  0.25500000920E-02 0.  1.
       -2   -1    0    0    0  501  0.00000000000E+00  0.00000000000E+00 -0.23942495744E+04  0.23942495744E+04  0.25500000920E-02 0. -1.
    10030    2    1    2    0    0  0.00000000000E+00  0.00000000000E+00 -0.14543434521E+04  0.33341556967E+04  0.30002465455E+04 0.  0.
        4    1    3    3  502    0  0.92168903041E+03 -0.55982132530E+02 -0.20410029344E+04  0.22401650071E+04  0.12699999809E+01 0. -1.
       -4    1    3    3    0  502 -0.92168903041E+03  0.55982132530E+02  0.58665948230E+03  0.10939906896E+04  0.12699999809E+01 0.  1.
</event>
<event>
 5   0  0.1821305E-07  0.3000811E+04  0.7818609E-02  0.8243499E-01
       -2   -1    0    0    0  501  0.00000000000E+00  0.00000000000E+00  0.18726106790E+04  0.18726106790E+04  0.25500000920E-02 0. -1.
        2   -1    0    0  501    0  0.00000000000E+00  0.00000000000E+00 -0.12021811871E+04  0.12021811871E+04  0.25500000920E-02 0.  1.
    10030    2    1    2    0    0  0.00000000000E+00  0.00000000000E+00  0.67042949189E+03  0.30747918660E+04  0.30008114429E+04 0.  0.
        2    1    3    3  502    0  0.18236137391E+03 -0.10062033909E+04  0.14602433815E+04  0.17826978622E+04  0.25500000920E-02 0. -1.
       -2    1    3    3    0  502 -0.18236137391E+03  0.10062033909E+04 -0.78981388963E+03  0.12920940039E+04  0.25500000920E-02 0.  1.
</event>
<event>
 5   0  0.6374748E-08  0.2999252E+04  0.7818609E-02  0.8243945E-01
        1   -1    0    0  501    0  0.00000000000E+00  0.00000000000E+00  0.14554798522E+04  0.14554798522E+04  0.50400001928E-02 0. -1.
       -1   -1    0    0    0  501  0.00000000000E+00  0.00000000000E+00 -0.15451110945E+04  0.15451110945E+04  0.50400001928E-02 0.  1.
    10030    2    1    2    0    0  0.00000000000E+00  0.00000000000E+00 -0.89631242248E+02  0.30005909467E+04  0.29992519517E+04 0.  0.
        1    1    3    3  502    0  0.41578208168E+03 -0.90552490178E+03  0.10764112606E+04  0.14668030847E+04  0.50400001928E-02 0. -1.
       -1    1    3    3    0  502 -0.41578208168E+03  0.90552490178E+03 -0.11660425029E+04  0.15337878620E+04  0.50400001928E-02 0.  1.
</event>
<event>
 5   0  0.1821305E-07  0.3000689E+04  0.7818609E-02  0.8243534E-01
       -2   -1    0    0    0  501  0.00000000000E+00  0.00000000000E+00  0.12226899675E+04  0.12226899675E+04  0.25500000920E-02 0.  1.
        2   -1    0    0  501    0  0.00000000000E+00  0.00000000000E+00 -0.18410499907E+04  0.18410499907E+04  0.25500000920E-02 0. -1.
    10030    2    1    2    0    0  0.00000000000E+00  0.00000000000E+00 -0.61836002319E+03  0.30637399581E+04  0.30006888230E+04 0.  0.
        2    1    3    3  502    0  0.87287997067E+03  0.39881548769E+03  0.86833533392E+03  0.12942099863E+04  0.25500000920E-02 0.  1.
       -2    1    3    3    0  502 -0.87287997067E+03 -0.39881548769E+03 -0.14866953571E+04  0.17695299718E+04  0.25500000920E-02 0. -1.
</event>
<event>
 5   0  0.6636007E-08  0.2997684E+04  0.7818609E-02  0.8244393E-01
       -1   -1    0    0    0  501  0.00000000000E+00  0.00000000000E+00  0.17941746939E+04  0.17941746940E+04  0.50400001928E-02 0.  1.
        1   -1    0    0  501    0  0.00000000000E+00  0.00000000000E+00 -0.12521227261E+04  0.12521227261E+04  0.50400001928E-02 0. -1.
    10030    2    1    2    0    0  0.00000000000E+00  0.00000000000E+00  0.54205196789E+03  0.30462974200E+04  0.29976837117E+04 0.  0.
        2    1    3    3  502    0  0.40836540004E+02  0.12631410726E+04  0.10899065011E+04  0.16688586439E+04  0.25500000920E-02 0.  1.
       -2    1    3    3    0  502 -0.40836540004E+02 -0.12631410726E+04 -0.54785453318E+03  0.13774387761E+04  0.25500000920E-02 0. -1.
</event>
<event>
 5   0  0.6525507E-08  0.3002372E+04  0.7818609E-02  0.8243054E-01
        1   -1    0    0  501    0  0.00000000000E+00  0.00000000000E+00  0.85004730245E+03  0.85004730246E+03  0.50400001928E-02 0.  1.
       -1   -1    0    0    0  501  0.00000000000E+00  0.00000000000E+00 -0.26510986037E+04  0.26510986037E+04  0.50400001928E-02 0. -1.
    10030    2    1    2    0    0  0.00000000000E+00  0.00000000000E+00 -0.18010513013E+04  0.35011459062E+04  0.30023718735E+04 0.  0.
        4    1    3    3  502    0  0.53062507843E+03  0.11836504450E+04 -0.19373415279E+02  0.12972926778E+04  0.12699999809E+01 0.  1.
       -4    1    3    3    0  502 -0.53062507843E+03 -0.11836504450E+04 -0.17816778860E+04  0.22038532283E+04  0.12699999809E+01 0. -1.
</event>
<event>
 5   0  0.1817566E-07  0.3001246E+04  0.7818609E-02  0.8243375E-01
        2   -1    0    0  501    0  0.00000000000E+00  0.00000000000E+00  0.14929841247E+04  0.14929841248E+04  0.25500000920E-02 0. -1.
       -2   -1    0    0    0  501  0.00000000000E+00  0.00000000000E+00 -0.15083012460E+04  0.15083012460E+04  0.25500000920E-02 0.  1.
    10030    2    1    2    0    0  0.00000000000E+00  0.00000000000E+00 -0.15317121224E+02  0.30012853707E+04  0.30012462849E+04 0.  0.
        1    1    3    3  502    0 -0.41638071229E+03 -0.79684027286E+03 -0.12091493416E+04  0.15067745181E+04  0.50400001928E-02 0.  1.
       -1    1    3    3    0  502  0.41638071229E+03  0.79684027286E+03  0.11938322204E+04  0.14945108526E+04  0.50400001928E-02 0. -1.
</event>
<event>
 5   0  0.1821305E-07  0.2998550E+04  0.7818609E-02  0.8244145E-01
        2   -1    0    0  501    0  0.00000000000E+00  0.00000000000E+00  0.14269729571E+04  0.14269729571E+04  0.25500000920E-02 0.  1.
       -2   -1    0    0    0  501  0.00000000000E+00  0.00000000000E+00 -0.15752407194E+04  0.15752407194E+04  0.25500000920E-02 0. -1.
    10030    2    1    2    0    0  0.00000000000E+00  0.00000000000E+00 -0.14826776226E+03  0.30022136765E+04  0.29985502548E+04 0.  0.
        2    1    3    3  502    0  0.77739564134E+03 -0.10150897674E+04 -0.85808134639E+03  0.15398229821E+04  0.25500000920E-02 0. -1.
       -2    1    3    3    0  502 -0.77739564134E+03  0.10150897674E+04  0.70981358413E+03  0.14623906945E+04  0.25500000920E-02 0.  1.
</event>
<event>
 5   0  0.6374748E-08  0.2997791E+04  0.7818609E-02  0.8244362E-01
        1   -1    0    0  501    0  0.00000000000E+00  0.00000000000E+00  0.23486601624E+04  0.23486601624E+04  0.50400001928E-02 0.  1.
       -1   -1    0    0    0  501  0.00000000000E+00  0.00000000000E+00 -0.95658281571E+03  0.95658281573E+03  0.50400001928E-02 0. -1.
    10030    2    1    2    0    0  0.00000000000E+00  0.00000000000E+00  0.13920773467E+04  0.33052429781E+04  0.29977911544E+04 0.  0.
        1    1    3    3  502    0 -0.32318734387E+03  0.83293544175E+03 -0.63091187201E+03  0.10937464513E+04  0.50400001928E-02 0. -1.
       -1    1    3    3    0  502  0.32318734387E+03 -0.83293544175E+03  0.20229892187E+04  0.22114965269E+04  0.50400001928E-02 0.  1.
</event>
<event>
 5   0  0.6636007E-08  0.2999596E+04  0.7818609E-02  0.8243846E-01
       -1   -1    0    0    0  501  0.00000000000E+00  0.00000000000E+00  0.18307221891E+04  0.18307221891E+04  0.50400001928E-02 0.  1.
        1   -1    0    0  501    0  0.00000000000E+00  0.00000000000E+00 -0.12286918203E+04  0.12286918204E+04  0.50400001928E-02 0. -1.
    10030    2    1    2    0    0  0.00000000000E+00  0.00000000000E+00  0.60203036879E+03  0.30594140095E+04  0.29995955588E+04 0.  0.
        2    1    3    3  502    0 -0.10410151012E+04  0.10749398168E+04  0.19808018391E+03  0.15094514930E+04  0.25500000920E-02 0.  1.
       -2    1    3    3    0  502  0.10410151012E+04 -0.10749398168E+04  0.40395018488E+03  0.15499625165E+04  0.25500000920E-02 0. -1.
</event>
<event>
 5   0  0.1817566E-07  0.3000484E+04  0.7818609E-02  0.8243593E-01
       -2   -1    0    0    0  501  0.00000000000E+00  0.00000000000E+00  0.99945422383E+03  0.99945422383E+03  0.25500000920E-02 0.  1.
        2   -1    0    0  501    0  0.00000000000E+00  0.00000000000E+00 -0.22519557900E+04  0.22519557900E+04  0.25500000920E-02 0. -1.
    10030    2    1    2    0    0  0.00000000000E+00  0.00000000000E+00 -0.12525015662E+04  0.32514100139E+04  0.30004844450E+04 0.  0.
        1    1    3    3  502    0 -0.13989021915E+04  0.53133707491E+03 -0.51014417554E+03  0.15809786552E+04  0.50400001928E-02 0.  1.
       -1    1    3    3    0  502  0.13989021915E+04 -0.53133707491E+03 -0.74235739067E+03  0.16704313586E+04  0.50400001928E-02 0. -1.
</event>
<event>
 5   0  0.6636007E-08  0.3000973E+04  0.7818609E-02  0.8243453E-01
        1   -1    0    0  501    0  0.00000000000E+00  0.00000000000E+00  0.10627844598E+04  0.10627844598E+04  0.50400001928E-02 0. -1.
       -1   -1    0    0    0  501  0.00000000000E+00  0.00000000000E+00 -0.21184531403E+04  0.21184531403E+04  0.50400001928E-02 0.  1.
    10030    2    1    2    0    0  0.00000000000E+00  0.00000000000E+00 -0.10556686806E+04  0.31812376001E+04  0.30009725599E+04 0.  0.
        2    1    3    3  502    0 -0.28542160211E+03  0.53843456578E+03 -0.19813591721E+04  0.20729595851E+04  0.25500000920E-02 0.  1.
       -2    1    3    3    0  502  0.28542160211E+03 -0.53843456578E+03  0.92569049151E+03  0.11082780151E+04  0.25500000920E-02 0. -1.
</event>
<event>
 5   0  0.6679022E-08  0.2998809E+04  0.7818609E-02  0.8244071E-01
       -1   -1    0    0    0  501  0.00000000000E+00  0.00000000000E+00  0.16224516370E+04  0.16224516370E+04  0.50400001928E-02 0.  1.
        1   -1    0    0  501    0  0.00000000000E+00  0.00000000000E+00 -0.13856891265E+04  0.13856891265E+04  0.50400001928E-02 0. -1.
    10030    2    1    2    0    0  0.00000000000E+00  0.00000000000E+00  0.23676251056E+03  0.30081407635E+04  0.29988088246E+04 0.  0.
        3    1    3    3  502    0  0.21096039560E+03 -0.11112618597E+04  0.11057238381E+04  0.15817814089E+04  0.10100000352E+00 0.  1.
       -3    1    3    3    0  502 -0.21096039560E+03  0.11112618597E+04 -0.86896132758E+03  0.14263593545E+04  0.10100000352E+00 0. -1.
</event>
<event>
 5   0  0.1810055E-07  0.2999991E+04  0.7818609E-02  0.8243733E-01
       -2   -1    0    0    0  501  0.00000000000E+00  0.00000000000E+00  0.13309337313E+04  0.13309337313E+04  0.25500000920E-02 0. -1.
        2   -1    0    0  501    0  0.00000000000E+00  0.00000000000E+00 -0.16905325481E+04  0.16905325481E+04  0.25500000920E-02 0.  1.
    10030    2    1    2    0    0  0.00000000000E+00  0.00000000000E+00 -0.35959881681E+03  0.30214662794E+04  0.29999911947E+04 0.  0.
        4    1    3    3  502    0 -0.35569471975E+03 -0.16222069894E+03  0.12787213389E+04  0.13371477720E+04  0.12699999809E+01 0. -1.
       -4    1    3    3    0  502  0.35569471975E+03  0.16222069894E+03 -0.16383201557E+04  0.16843185074E+04  0.12699999809E+01 0.  1.
</event>
<event>
 5   0  0.1810055E-07  0.3000359E+04  0.7818609E-02  0.8243628E-01
        2   -1    0    0  501    0  0.00000000000E+00  0.00000000000E+00  0.22089330192E+04  0.22089330192E+04  0.25500000920E-02 0. -1.
       -2   -1    0    0    0  501  0.00000000000E+00  0.00000000000E+00 -0.10188352222E+04  0.10188352222E+04  0.25500000920E-02 0.  1.
    10030    2    1    2    0    0  0.00000000000E+00  0.00000000000E+00  0.11900977971E+04  0.32277682414E+04  0.30003591541E+04 0.  0.
        4    1    3    3  502    0 -0.78827363187E+03  0.10194510812E+04  0.14212988048E+04  0.19185274903E+04  0.12699999809E+01 0. -1.
       -4    1    3    3    0  502  0.78827363187E+03 -0.10194510812E+04 -0.23120100770E+03  0.13092407511E+04  0.12699999809E+01 0.  1.
</event>
<event>
 5   0  0.1810055E-07  0.2999973E+04  0.7818609E-02  0.8243739E-01
        2   -1    0    0  501    0  0.00000000000E+00  0.00000000000E+00  0.30210959222E+04  0.30210959222E+04  0.25500000920E-02 0.  1.
       -2   -1    0    0    0  501  0.00000000000E+00  0.00000000000E+00 -0.74474925890E+03  0.74474925890E+03  0.25500000920E-02 0. -1.
    10030    2    1    2    0    0  0.00000000000E+00  0.00000000000E+00  0.22763466633E+04  0.37658451811E+04  0.29999726326E+04 0.  0.
        4    1    3    3  502    0  0.20848363762E+03 -0.14431967764E+02  0.30027310849E+04  0.30099948986E+04  0.12699999809E+01 0.  1.
       -4    1    3    3    0  502 -0.20848363762E+03  0.14431967764E+02 -0.72638442152E+03  0.75585028251E+03  0.12699999809E+01 0. -1.
</event>
<event>
 5   0  0.1813720E-07  0.2998934E+04  0.7818609E-02  0.8244035E-01
       -2   -1    0    0    0  501  0.00000000000E+00  0.00000000000E+00  0.19497193928E+04  0.19497193928E+04  0.25500000920E-02 0.  1.
        2   -1    0    0  501    0  0.00000000000E+00  0.00000000000E+00 -0.11531923952E+04  0.11531923952E+04  0.25500000920E-02 0. -1.
    10030    2    1    2    0    0  0.00000000000E+00  0.00000000000E+00  0.79652699756E+03  0.31029117881E+04  0.29989341951E+04 0.  0.
        3    1    3    3  502    0  0.45044252410E+03 -0.30735463185E+03  0.18434874822E+04  0.19224493347E+04  0.10100000352E+00 0.  1.
       -3    1    3    3    0  502 -0.45044252410E+03  0.30735463185E+03 -0.10469604846E+04  0.11804624534E+04  0.10100000352E+00 0. -1.
</event>
<event>
 5   0  0.6374748E-08  0.2998533E+04  0.7818609E-02  0.8244150E-01
       -1   -1    0    0    0  501  0.00000000000E+00  0.00000000000E+00  0.10309566309E+04  0.10309566309E+04  0.50400001928E-02 0. -1.
        1   -1    0    0  501    0  0.00000000000E+00  0.00000000000E+00 -0.21803046011E+04  0.21803046011E+04  0.50400001928E-02 0.  1.
    10030    2    1    2    0    0  0.00000000000E+00  0.00000000000E+00 -0.11493479703E+04  0.32112612320E+04  0.29985326317E+04 0.  0.
        1    1    3    3  502    0 -0.21646237389E+03  0.14096321967E+04 -0.79391978892E+02  0.14283633906E+04  0.50400001928E-02 0. -1.
       -1    1    3    3    0  502  0.21646237389E+03 -0.14096321967E+04 -0.10699559914E+04  0.17828978414E+04  0.50400001928E-02 0.  1.
</event>
<event>
 5   0  0.1821305E-07  0.3000051E+04  0.7818609E-02  0.8243716E-01
        2   -1    0    0  501    0  0.00000000000E+00  0.00000000000E+00  0.85065481856E+03  0.85065481857E+03  0.25500000920E-02 0. -1.
       -2   -1    0    0    0  501  0.00000000000E+00  0.00000000000E+00 -0.26451111147E+04  0.26451111147E+04  0.25500000920E-02 0.  1.
    10030    2    1    2    0    0  0.00000000000E+00  0.00000000000E+00 -0.17944562961E+04  0.34957659332E+04  0.30000510098E+04 0.  0.
        2    1    3    3  502    0 -0.21710532797E+03 -0.33740149462E+03  0.78697134211E+03  0.88334499790E+03  0.25500000920E-02 0. -1.
       -2    1    3    3    0  502  0.21710532797E+03  0.33740149462E+03 -0.25814276382E+04  0.26124209353E+04  0.25500000920E-02 0.  1.
</event>
<event>
 5   0  0.1817566E-07  0.2997592E+04  0.7818609E-02  0.8244419E-01
       -2   -1    0    0    0  501  0.00000000000E+00  0.00000000000E+00  0.15059447569E+04  0.15059447569E+04  0.25500000920E-02 0. -1.
        2   -1    0    0  501    0  0.00000000000E+00  0.00000000000E+00 -0.14916815918E+04  0.14916815918E+04  0.25500000920E-02 0.  1.
    10030    2    1    2    0    0  0.00000000000E+00  0.00000000000E+00  0.14263165110E+02  0.29976263487E+04  0.29975924154E+04 0.  0.
        1    1    3    3  502    0 -0.55416424575E+02 -0.13205596339E+04  0.71385122504E+03  0.15021758546E+04  0.50400001928E-02 0. -1.
       -1    1    3    3    0  502  0.55416424575E+02  0.13205596339E+04 -0.69958805993E+03  0.14954504941E+04  0.50400001928E-02 0.  1.
</event>
<event>
 5   0  0.6636007E-08  0.2999125E+04  0.7818609E-02  0.8243981E-01
        1   -1    0    0  501    0  0.00000000000E+00  0.00000000000E+00  0.19396140308E+04  0.19396140308E+04  0.50400001928E-02 0.  1.
       -1   -1    0    0    0  501  0.00000000000E+00  0.00000000000E+00 -0.11593483929E+04  0.11593483929E+04  0.50400001928E-02 0. -1.
    10030    2    1    2    0    0  0.00000000000E+00  0.00000000000E+00  0.78026563790E+03  0.30989624238E+04  0.29991254789E+04 0.  0.
        2    1    3    3  502    0  0.10004889204E+04  0.67854747599E+03 -0.52669396203E+03  0.13186399382E+04  0.25500000920E-02 0. -1.
       -2    1    3    3    0  502 -0.10004889204E+04 -0.67854747599E+03  0.13069595999E+04  0.17803224856E+04  0.25500000920E-02 0.  1.
</event>
<event>
 5   0  0.6636007E-08  0.3000225E+04  0.7818609E-02  0.8243667E-01
       -1   -1    0    0    0  501  0.00000000000E+00  0.00000000000E+00  0.10963402145E+04  0.10963402145E+04  0.50400001928E-02 0. -1.
        1   -1    0    0  501    0  0.00000000000E+00  0.00000000000E+00 -0.20525911394E+04  0.20525911394E+04  0.50400001928E-02 0.  1.
    10030    2    1    2    0    0  0.00000000000E+00  0.00000000000E+00 -0.95625092486E+03  0.31489313539E+04  0.30002254649E+04 0.  0.
        2    1    3    3  502    0  0.35641496809E+03  0.61714198274E+03  0.90731704983E+03  0.11537417758E+04  0.25500000920E-02 0. -1.
       -2    1    3    3    0  502 -0.35641496809E+03 -0.61714198274E+03 -0.18635679747E+04  0.19951895781E+04  0.25500000920E-02 0.  1.
</event>
<event>
 5   0  0.1810055E-07  0.3003936E+04  0.7818609E-02  0.8242608E-01
       -2   -1    0    0    0  501  0.00000000000E+00  0.00000000000E+00  0.79372864792E+03  0.79372864793E+03  0.25500000920E-02 0.  1.
        2   -1    0    0  501    0  0.00000000000E+00  0.00000000000E+00 -0.28421654046E+04  0.28421654046E+04  0.25500000920E-02 0. -1.
    10030    2    1    2    0    0  0.00000000000E+00  0.00000000000E+00 -0.20484367566E+04  0.36358940525E+04  0.30039361536E+04 0.  0.
        4    1    3    3  502    0  0.72848633925E+03 -0.68632869269E+03  0.33127755391E+03  0.10542702934E+04  0.12699999809E+01 0.  1.
       -4    1    3    3    0  502 -0.72848633925E+03  0.68632869269E+03 -0.23797143105E+04  0.25816237591E+04  0.12699999809E+01 0. -1.
</event>
<event>
 5   0  0.1810055E-07  0.2999096E+04  0.7818609E-02  0.8243989E-01
       -2   -1    0    0    0  501  0.00000000000E+00  0.00000000000E+00  0.18235631939E+04  0.18235631939E+04  0.25500000920E-02 0. -1.
        2   -1    0    0  501    0  0.00000000000E+00  0.00000000000E+00 -0.12331047418E+04  0.12331047418E+04  0.25500000920E-02 0.  1.
    10030    2    1    2    0    0  0.00000000000E+00  0.00000000000E+00  0.59045845211E+03  0.30566679357E+04  0.29990961447E+04 0.  0.
        4    1    3    3  502    0  0.95779126337E+03  0.10994362304E+04  0.65197515544E+03  0.15972468016E+04  0.12699999809E+01 0.  1.
       -4    1    3    3    0  502 -0.95779126337E+03 -0.10994362304E+04 -0.61516703322E+02  0.14594211341E+04  0.12699999809E+01 0. -1.
</event>
<event>
 5   0  0.1810055E-07  0.3002947E+04  0.7818609E-02  0.8242890E-01
       -2   -1    0    0    0  501  0.00000000000E+00  0.00000000000E+00  0.11775653650E+04  0.11775653650E+04  0.25500000920E-02 0.  1.
        2   -1    0    0  501    0  0.00000000000E+00  0.00000000000E+00 -0.19144775621E+04  0.19144775621E+04  0.25500000920E-02 0. -1.
    10030    2    1    2    0    0  0.00000000000E+00  0.00000000000E+00 -0.73691219717E+03  0.30920429271E+04  0.30029468655E+04 0.  0.
        4    1    3    3  502    0 -0.47499400628E+03  0.23489708322E+03  0.10780829972E+04  0.12012745346E+04  0.12699999809E+01 0.  1.
       -4    1    3    3    0  502  0.47499400628E+03 -0.23489708322E+03 -0.18149951944E+04  0.18907683925E+04  0.12699999809E+01 0. -1.
</event>
<event>
 5   0  0.6679022E-08  0.3000076E+04  0.7818609E-02  0.8243709E-01
       -1   -1    0    0    0  501  0.00000000000E+00  0.00000000000E+00  0.95257529603E+03  0.95257529605E+03  0.50400001928E-02 0. -1.
        1   -1    0    0  501    0  0.00000000000E+00  0.00000000000E+00 -0.23621381934E+04  0.23621381934E+04  0.50400001928E-02 0.  1.
    10030    2    1    2    0    0  0.00000000000E+00  0.00000000000E+00 -0.14095628974E+04  0.33147134895E+04  0.30000763250E+04 0.  0.
        3    1    3    3  502    0 -0.41626444214E+03 -0.22280809934E+03 -0.22778999874E+04  0.23263163795E+04  0.10100000352E+00 0.  1.
       -3    1    3    3    0  502  0.41626444214E+03  0.22280809934E+03  0.86833708999E+03  0.98839710996E+03  0.10100000352E+00 0. -1.
</event>
<event>
 5   0  0.6464436E-08  0.3000772E+04  0.7818609E-02  0.8243511E-01
        1   -1    0    0  501    0  0.00000000000E+00  0.00000000000E+00  0.11918044197E+04  0.11918044197E+04  0.50400001928E-02 0.  1.
       -1   -1    0    0    0  501  0.00000000000E+00  0.00000000000E+00 -0.18888650352E+04  0.18888650352E+04  0.50400001928E-02 0. -1.
    10030    2    1    2    0    0  0.00000000000E+00  0.00000000000E+00 -0.69706061559E+03  0.30806694549E+04  0.30007716988E+04 0.  0.
        5    1    3    3  502    0 -0.41866216032E+03 -0.13845922481E+04 -0.75758869694E+03  0.16328920423E+04  0.46999998093E+01 0. -1.
       -5    1    3    3    0  502  0.41866216032E+03  0.13845922481E+04  0.60528081348E+02  0.14477774127E+04  0.46999998093E+01 0.  1.
</event>
<event>
 5   0  0.1821305E-07  0.2999980E+04  0.7818609E-02  0.8243737E-01
        2   -1    0    0  501    0  0.00000000000E+00  0.00000000000E+00  0.14156606425E+04  0.14156606425E+04  0.25500000920E-02 0. -1.
       -2   -1    0    0    0  501  0.00000000000E+00  0.00000000000E+00 -0.15893423703E+04  0.15893423703E+04  0.25500000920E-02 0.  1.
    10030    2    1    2    0    0  0.00000000000E+00  0.00000000000E+00 -0.17368172785E+03  0.30050030128E+04  0.29999796274E+04 0.  0.
        2    1    3    3  502    0 -0.19144782760E+03  0.14407626644E+04 -0.45829886757E+03  0.15239708586E+04  0.25500000920E-02 0.  1.
       -2    1    3    3    0  502  0.19144782760E+03 -0.14407626644E+04  0.28461713971E+03  0.14810321543E+04  0.25500000920E-02 0. -1.
</event>
<event>
 5   0  0.6636007E-08  0.2997928E+04  0.7818609E-02  0.8244323E-01
       -1   -1    0    0    0  501  0.00000000000E+00  0.00000000000E+00  0.10582748290E+04  0.10582748290E+04  0.50400001928E-02 0.  1.
        1   -1    0    0  501    0  0.00000000000E+00  0.00000000000E+00 -0.21231662103E+04  0.21231662103E+04  0.50400001928E-02 0. -1.
    10030    2    1    2    0    0  0.00000000000E+00  0.00000000000E+00 -0.10648913813E+04  0.31814410393E+04  0.29979281900E+04 0.  0.
        2    1    3    3  502    0  0.28637581634E+03  0.14505156667E+04 -0.79430217809E+03  0.16783690767E+04  0.25500000920E-02 0. -1.
       -2    1    3    3    0  502 -0.28637581634E+03 -0.14505156667E+04 -0.27058920318E+03  0.15030719625E+04  0.25500000920E-02 0.  1.
</event>
<event>
 5   0  0.6636007E-08  0.3002943E+04  0.7818609E-02  0.8242891E-01
        1   -1    0    0  501    0  0.00000000000E+00  0.00000000000E+00  0.13246981342E+04  0.13246981342E+04  0.50400001928E-02 0. -1.
       -1   -1    0    0    0  501  0.00000000000E+00  0.00000000000E+00 -0.17018346413E+04  0.17018346413E+04  0.50400001928E-02 0.  1.
    10030    2    1    2    0    0  0.00000000000E+00  0.00000000000E+00 -0.37713650711E+03  0.30265327756E+04  0.30029433389E+04 0.  0.
        2    1    3    3  502    0 -0.69680681373E+03  0.92910640818E+03 -0.11476944102E+04  0.16327831799E+04  0.25500000920E-02 0.  1.
       -2    1    3    3    0  502  0.69680681373E+03 -0.92910640818E+03  0.77055790311E+03  0.13937495957E+04  0.25500000920E-02 0. -1.
</event>
<event>
 5   0  0.6374748E-08  0.3000751E+04  0.7818609E-02  0.8243516E-01
        1   -1    0    0  501    0  0.00000000000E+00  0.00000000000E+00  0.21650446486E+04  0.21650446486E+04  0.50400001928E-02 0.  1.
       -1   -1    0    0    0  501  0.00000000000E+00  0.00000000000E+00 -0.10397600430E+04  0.10397600430E+04  0.50400001928E-02 0. -1.
    10030    2    1    2    0    0  0.00000000000E+00  0.00000000000E+00  0.11252846056E+04  0.32048046916E+04  0.30007511839E+04 0.  0.
        1    1    3    3  502    0 -0.67462850375E+03  0.50519586367E+03 -0.76304763400E+03  0.11369204768E+04  0.50400001928E-02 0. -1.
       -1    1    3    3    0  502  0.67462850375E+03 -0.50519586367E+03  0.18883322396E+04  0.20678842148E+04  0.50400001928E-02 0.  1.
</event>
<event>
 5   0  0.1821305E-07  0.2999735E+04  0.7818609E-02  0.8243807E-01
       -2   -1    0    0    0  501  0.00000000000E+00  0.00000000000E+00  0.14942393961E+04  0.14942393961E+04  0.25500000920E-02 0.  1.
        2   -1    0    0  501    0  0.00000000000E+00  0.00000000000E+00 -0.15055169379E+04  0.15055169379E+04  0.25500000920E-02 0. -1.
    10030    2    1    2    0    0  0.00000000000E+00  0.00000000000E+00 -0.11277541828E+02  0.29997563339E+04  0.29997351350E+04 0.  0.
        2    1    3    3  502    0  0.15242763177E+03 -0.14847843955E+04 -0.15323329595E+03  0.15004330465E+04  0.25500000920E-02 0. -1.
       -2    1    3    3    0  502 -0.15242763177E+03  0.14847843955E+04  0.14195575412E+03  0.14993232874E+04  0.25500000920E-02 0.  1.
</event>
<event>
 5   0  0.1810055E-07  0.3001213E+04  0.7818609E-02  0.8243385E-01
       -2   -1    0    0    0  501  0.00000000000E+00  0.00000000000E+00  0.10455627913E+04  0.10455627913E+04  0.25500000920E-02 0.  1.
        2   -1    0    0  501    0  0.00000000000E+00  0.00000000000E+00 -0.21536920772E+04  0.21536920772E+04  0.25500000920E-02 0. -1.
    10030    2    1    2    0    0  0.00000000000E+00  0.00000000000E+00 -0.11081292859E+04  0.31992548684E+04  0.30012132878E+04 0.  0.
        4    1    3    3  502    0 -0.12956702414E+04  0.22622657681E+01  0.25288989619E+03  0.13201217387E+04  0.12699999809E+01 0.  1.
       -4    1    3    3    0  502  0.12956702414E+04 -0.22622657681E+01 -0.13610191821E+04  0.18791331298E+04  0.12699999809E+01 0. -1.
</event>
<event>
 5   0  0.6374748E-08  0.3004047E+04  0.7818609E-02  0.8242576E-01
       -1   -1    0    0    0  501  0.00000000000E+00  0.00000000000E+00  0.89740016907E+03  0.89740016909E+03  0.50400001928E-02 0.  1.
        1   -1    0    0  501    0  0.00000000000E+00  0.00000000000E+00 -0.25140114057E+04  0.25140114057E+04  0.50400001928E-02 0. -1.
    10030    2    1    2    0    0  0.00000000000E+00  0.00000000000E+00 -0.16166112367E+04  0.34114115748E+04  0.30040467777E+04 0.  0.
        1    1    3    3  502    0 -0.37687943637E+03  0.14464944416E+04 -0.64105912653E+03  0.16264504551E+04  0.50400001928E-02 0.  1.
       -1    1    3    3    0  502  0.37687943637E+03 -0.14464944416E+04 -0.97555211013E+03  0.17849611197E+04  0.50400001928E-02 0. -1.
</event>
<event>
 5   0  0.1817566E-07  0.2999366E+04  0.7818609E-02  0.8243912E-01
       -2   -1    0    0    0  501  0.00000000000E+00  0.00000000000E+00  0.10156759684E+04  0.10156759684E+04  0.25500000920E-02 0. -1.
        2   -1    0    0  501    0  0.00000000000E+00  0.00000000000E+00 -0.22143372203E+04  0.22143372203E+04  0.25500000920E-02 0.  1.
    10030    2    1    2    0    0  0.00000000000E+00  0.00000000000E+00 -0.11986612520E+04  0.32300131887E+04  0.29993660000E+04 0.  0.
        1    1    3    3  502    0 -0.85062235128E+02  0.11026500008E+04  0.49146537379E+03  0.12102110649E+04  0.50400001928E-02 0. -1.
       -1    1    3    3    0  502  0.85062235128E+02 -0.11026500008E+04 -0.16901266258E+04  0.20198021238E+04  0.50400001928E-02 0.  1.
</event>
<event>
 5   0  0.6636007E-08  0.2989629E+04  0.7818609E-02  0.8246698E-01
        1   -1    0    0  501    0  0.00000000000E+00  0.00000000000E+00  0.21745734070E+04  0.21745734070E+04  0.50400001928E-02 0. -1.
       -1   -1    0    0    0  501  0.00000000000E+00  0.00000000000E+00 -0.10275445434E+04  0.10275445434E+04  0.50400001928E-02 0.  1.
    10030    2    1    2    0    0  0.00000000000E+00  0.00000000000E+00  0.11470288636E+04  0.32021179505E+04  0.29896294344E+04 0.  0.
        2    1    3    3  502    0 -0.16223998355E+03  0.90348076467E+03 -0.69011453292E+03  0.11484151570E+04  0.25500000920E-02 0.  1.
       -2    1    3    3    0  502  0.16223998355E+03 -0.90348076467E+03  0.18371433965E+04  0.20537027934E+04  0.25500000920E-02 0. -1.
</event>
<event>
 5   0  0.6374748E-08  0.3002011E+04  0.7818609E-02  0.8243157E-01
       -1   -1    0    0    0  501  0.00000000000E+00  0.00000000000E+00  0.16129018691E+04  0.16129018691E+04  0.50400001928E-02 0. -1.
        1   -1    0    0  501    0  0.00000000000E+00  0.00000000000E+00 -0.13968719377E+04  0.13968719377E+04  0.50400001928E-02 0.  1.
    10030    2    1    2    0    0  0.00000000000E+00  0.00000000000E+00  0.21602993139E+03  0.30097738068E+04  0.30020108988E+04 0.  0.
        1    1    3    3  502    0  0.28860373417E+03 -0.11366438144E+02  0.15847787532E+04  0.16108833005E+04  0.50400001928E-02 0. -1.
       -1    1    3    3    0  502 -0.28860373417E+03  0.11366438144E+02 -0.13687488218E+04  0.13988905063E+04  0.50400001928E-02 0.  1.
</event>
<event>
 5   0  0.6374748E-08  0.3002156E+04  0.7818609E-02  0.8243115E-01
        1   -1    0    0  501    0  0.00000000000E+00  0.00000000000E+00  0.15295008144E+04  0.15295008144E+04  0.50400001928E-02 0. -1.
       -1   -1    0    0    0  501  0.00000000000E+00  0.00000000000E+00 -0.14731834036E+04  0.14731834036E+04  0.50400001928E-02 0.  1.
    10030    2    1    2    0    0  0.00000000000E+00  0.00000000000E+00  0.56317410799E+02  0.30026842180E+04  0.30021560356E+04 0.  0.
        1    1    3    3  502    0 -0.35762921448E+03 -0.28311293441E+03  0.14585094758E+04  0.15281693229E+04  0.50400001928E-02 0. -1.
       -1    1    3    3    0  502  0.35762921448E+03  0.28311293441E+03 -0.14021920650E+04  0.14745148951E+04  0.50400001928E-02 0.  1.
</event>
<event>
 5   0  0.6374748E-08  0.2999618E+04  0.7818609E-02  0.8243840E-01
        1   -1    0    0  501    0  0.00000000000E+00  0.00000000000E+00  0.25475632302E+04  0.25475632302E+04  0.50400001928E-02 0.  1.
       -1   -1    0    0    0  501  0.00000000000E+00  0.00000000000E+00 -0.88297222311E+03  0.88297222312E+03  0.50400001928E-02 0. -1.
    10030    2    1    2    0    0  0.00000000000E+00  0.00000000000E+00  0.16645910071E+04  0.34305354533E+04  0.29996183550E+04 0.  0.
        1    1    3    3  502    0 -0.37647275563E+02 -0.37771683790E+03 -0.82712730606E+03  0.91006972669E+03  0.50400001928E-02 0. -1.
       -1    1    3    3    0  502  0.37647275563E+02  0.37771683790E+03  0.24917183132E+04  0.25204657266E+04  0.50400001928E-02 0.  1.
</event>
<event>
 5   0  0.6374748E-08  0.2999647E+04  0.7818609E-02  0.8243832E-01
       -1   -1    0    0    0  501  0.00000000000E+00  0.00000000000E+00  0.86454098372E+03  0.86454098374E+03  0.50400001928E-02 0. -1.
        1   -1    0    0  501    0  0.00000000000E+00  0.00000000000E+00 -0.26019240428E+04  0.26019240429E+04  0.50400001928E-02 0.  1.
    10030    2    1    2    0    0  0.00000000000E+00  0.00000000000E+00 -0.17373830591E+04  0.34664650266E+04  0.29996466269E+04 0.  0.
        1    1    3    3  502    0 -0.14405129990E+03 -0.13871338685E+04 -0.23091786662E+03  0.14135820483E+04  0.50400001928E-02 0.  1.
       -1    1    3    3    0  502  0.14405129990E+03  0.13871338685E+04 -0.15064651925E+04  0.20528829783E+04  0.50400001928E-02 0. -1.
</event>
<event>
 5   0  0.6636007E-08  0.2997625E+04  0.7818609E-02  0.8244409E-01
       -1   -1    0    0    0  501  0.00000000000E+00  0.00000000000E+00  0.13085128732E+04  0.13085128732E+04  0.50400001928E-02 0.  1.
        1   -1    0    0  501    0  0.00000000000E+00  0.00000000000E+00 -0.17167881652E+04  0.17167881652E+04  0.50400001928E-02 0. -1.
    10030    2    1    2    0    0  0.00000000000E+00  0.00000000000E+00 -0.40827529205E+03  0.30253010384E+04  0.29976253366E+04 0.  0.
        2    1    3    3  502    0  0.51601536928E+03 -0.71563776951E+03  0.10186716484E+04  0.13476279924E+04  0.25500000920E-02 0.  1.
       -2    1    3    3    0  502 -0.51601536928E+03  0.71563776951E+03 -0.14269469405E+04  0.16776730460E+04  0.25500000920E-02 0. -1.
</event>
<event>
 5   0  0.6374748E-08  0.3001199E+04  0.7818609E-02  0.8243388E-01
       -1   -1    0    0    0  501  0.00000000000E+00  0.00000000000E+00  0.14491057209E+04  0.14491057209E+04  0.50400001928E-02 0. -1.
        1   -1    0    0  501    0  0.00000000000E+00  0.00000000000E+00 -0.15539235424E+04  0.15539235424E+04  0.50400001928E-02 0.  1.
    10030    2    1    2    0    0  0.00000000000E+00  0.00000000000E+00 -0.10481782153E+03  0.30030292633E+04  0.30011994237E+04 0.  0.
        1    1    3    3  502    0  0.10129749679E+04 -0.10954685740E+04  0.10778183684E+03  0.14959233291E+04  0.50400001928E-02 0. -1.
       -1    1    3    3    0  502 -0.10129749679E+04  0.10954685740E+04 -0.21259965836E+03  0.15071059342E+04  0.50400001928E-02 0.  1.
</event>
<event>
 5   0  0.1821305E-07  0.2999409E+04  0.7818609E-02  0.8243900E-01
       -2   -1    0    0    0  501  0.00000000000E+00  0.00000000000E+00  0.14804277248E+04  0.14804277248E+04  0.25500000920E-02 0.  1.
        2   -1    0    0  501    0  0.00000000000E+00  0.00000000000E+00 -0.15192327322E+04  0.15192327322E+04  0.25500000920E-02 0. -1.
    10030    2    1    2    0    0  0.00000000000E+00  0.00000000000E+00 -0.38805007325E+02  0.29996604570E+04  0.29994094467E+04 0.  0.
        2    1    3    3  502    0 -0.14742380675E+04  0.20742984278E+03 -0.20027459336E+03  0.15021700743E+04  0.25500000920E-02 0. -1.
       -2    1    3    3    0  502  0.14742380675E+04 -0.20742984278E+03  0.16146958603E+03  0.14974903828E+04  0.25500000920E-02 0.  1.
</event>
<event>
 5   0  0.6636007E-08  0.2999989E+04  0.7818609E-02  0.8243734E-01
       -1   -1    0    0    0  501  0.00000000000E+00  0.00000000000E+00  0.91560529188E+03  0.91560529190E+03  0.50400001928E-02 0.  1.
        1   -1    0    0  501    0  0.00000000000E+00  0.00000000000E+00 -0.24573730495E+04  0.24573730495E+04  0.50400001928E-02 0. -1.
    10030    2    1    2    0    0  0.00000000000E+00  0.00000000000E+00 -0.15417677577E+04  0.33729783414E+04  0.29999891789E+04 0.  0.
        2    1    3    3  502    0 -0.72188683074E+03 -0.10766796279E+04  0.77686878416E+02  0.12986126707E+04  0.25500000920E-02 0.  1.
       -2    1    3    3    0  502  0.72188683074E+03  0.10766796279E+04 -0.16194546361E+04  0.20743656707E+04  0.25500000920E-02 0. -1.
</event>
<event>
 5   0  0.6464436E-08  0.3004506E+04  0.7818609E-02  0.8242445E-01
       -1   -1    0    0    0  501  0.00000000000E+00  0.00000000000E+00  0.69337679292E+03  0.69337679294E+03  0.50400001928E-02 0.  1.
        1   -1    0    0  501    0  0.00000000000E+00  0.00000000000E+00 -0.32547436268E+04  0.32547436268E+04  0.50400001928E-02 0. -1.
    10030    2    1    2    0    0  0.00000000000E+00  0.00000000000E+00 -0.25613668339E+04  0.39481204198E+04  0.30045057482E+04 0.  0.
        5    1    3    3  502    0  0.86521682057E+03 -0.79542998211E+03 -0.51182916284E+02  0.11764143760E+04  0.46999998093E+01 0.  1.
       -5    1    3    3    0  502 -0.86521682057E+03  0.79542998211E+03 -0.25101839176E+04  0.27717060438E+04  0.46999998093E+01 0. -1.
</event>
<event>
 5   0  0.1817566E-07  0.3000249E+04  0.7818609E-02  0.8243660E-01
       -2   -1    0    0    0  501  0.00000000000E+00  0.00000000000E+00  0.12738378133E+04  0.12738378133E+04  0.25500000920E-02 0. -1.
        2   -1    0    0  501    0  0.00000000000E+00  0.00000000000E+00 -0.17666091669E+04  0.17666091669E+04  0.25500000920E-02 0.  1.
    10030    2    1    2    0    0  0.00000000000E+00  0.00000000000E+00 -0.49277135363E+03  0.30404469802E+04  0.30002490284E+04 0.  0.
        1    1    3    3  502    0  0.45987671979E+03 -0.14258192369E+04 -0.32440065017E+03  0.15328675336E+04  0.50400001928E-02 0. -1.
       -1    1    3    3    0  502 -0.45987671979E+03  0.14258192369E+04 -0.16837070346E+03  0.15075794465E+04  0.50400001928E-02 0.  1.
</event>
<event>
 5   0  0.1817566E-07  0.3001122E+04  0.7818609E-02  0.8243411E-01
       -2   -1    0    0    0  501  0.00000000000E+00  0.00000000000E+00  0.10052650854E+04  0.10052650854E+04  0.25500000920E-02 0. -1.
        2   -1    0    0  501    0  0.00000000000E+00  0.00000000000E+00 -0.22398899748E+04  0.22398899748E+04  0.25500000920E-02 0.  1.
    10030    2    1    2    0    0  0.00000000000E+00  0.00000000000E+00 -0.12346248894E+04  0.32451550602E+04  0.30011219147E+04 0.  0.
        1    1    3    3  502    0  0.77726331431E+03 -0.11754711707E+04 -0.59819369581E+02  0.14104783196E+04  0.50400001928E-02 0. -1.
       -1    1    3    3    0  502 -0.77726331431E+03  0.11754711707E+04 -0.11748055198E+04  0.18346767406E+04  0.50400001928E-02 0.  1.
</event>
<event>
 5   0  0.1821305E-07  0.2999531E+04  0.7818609E-02  0.8243865E-01
       -2   -1    0    0    0  501  0.00000000000E+00  0.00000000000E+00  0.10825654587E+04  0.10825654587E+04  0.25500000920E-02 0. -1.
        2   -1    0    0  501    0  0.00000000000E+00  0.00000000000E+00 -0.20777459502E+04  0.20777459502E+04  0.25500000920E-02 0.  1.
    10030    2    1    2    0    0  0.00000000000E+00  0.00000000000E+00 -0.99518049158E+03  0.31603114089E+04  0.29995306283E+04 0.  0.
        2    1    3    3  502    0 -0.13487065849E+04 -0.56145515697E+03 -0.85496895031E+03  0.16926940808E+04  0.25500000920E-02 0.  1.
       -2    1    3    3    0  502  0.13487065849E+04  0.56145515697E+03 -0.14021154127E+03  0.14676173281E+04  0.25500000920E-02 0. -1.
</event>
<event>
 5   0  0.1914439E-07  0.2999648E+04  0.7818609E-02  0.8243832E-01
       -2   -1    0    0    0  501  0.00000000000E+00  0.00000000000E+00  0.98919963330E+03  0.98919963331E+03  0.25500000920E-02 0. -1.
        2   -1    0    0  501    0  0.00000000000E+00  0.00000000000E+00 -0.22740318012E+04  0.22740318012E+04  0.25500000920E-02 0.  1.
    10030    2    1    2    0    0  0.00000000000E+00  0.00000000000E+00 -0.12848321679E+04  0.32632314345E+04  0.29996475952E+04 0.  0.
        5    1    3    3  502    0 -0.66488750498E+03 -0.12010887966E+04 -0.12994397761E+04  0.18903056667E+04  0.46999998093E+01 0.  1.
       -5    1    3    3    0  502  0.66488750498E+03  0.12010887966E+04  0.14607608265E+02  0.13729257678E+04  0.46999998093E+01 0. -1.
</event>
<event>
 5   0  0.6525507E-08  0.3000559E+04  0.7818609E-02  0.8243571E-01
       -1   -1    0    0    0  501  0.00000000000E+00  0.00000000000E+00  0.11989000007E+04  0.11989000007E+04  0.50400001928E-02 0.  1.
        1   -1    0    0  501    0  0.00000000000E+00  0.00000000000E+00 -0.18774195084E+04  0.18774195084E+04  0.50400001928E-02 0. -1.
    10030    2    1    2    0    0  0.00000000000E+00  0.00000000000E+00 -0.67851950771E+03  0.30763195091E+04  0.30005587813E+04 0.  0.
        4    1    3    3  502    0  0.67031377995E+03  0.99245262153E+03 -0.12657091886E+04  0.17424993924E+04  0.12699999809E+01 0. -1.
       -4    1    3    3    0  502 -0.67031377995E+03 -0.99245262153E+03  0.58718968085E+03  0.13338201167E+04  0.12699999809E+01 0.  1.
</event>
<event>
 5   0  0.1817566E-07  0.2999748E+04  0.7818609E-02  0.8243803E-01
        2   -1    0    0  501    0  0.00000000000E+00  0.00000000000E+00  0.26153108409E+04  0.26153108409E+04  0.25500000920E-02 0.  1.
       -2   -1    0    0    0  501  0.00000000000E+00  0.00000000000E+00 -0.86017407882E+03  0.86017407882E+03  0.25500000920E-02 0. -1.
    10030    2    1    2    0    0  0.00000000000E+00  0.00000000000E+00  0.17551367621E+04  0.34754849197E+04  0.29997483851E+04 0.  0.
        1    1    3    3  502    0 -0.12467940418E+02  0.27938502563E+03  0.25848360347E+04  0.25999209158E+04  0.50400001928E-02 0.  1.
       -1    1    3    3    0  502  0.12467940418E+02 -0.27938502563E+03 -0.82969927259E+03  0.87556400396E+03  0.50400001928E-02 0. -1.
</event>
<event>
 5   0  0.6374748E-08  0.3000026E+04  0.7818609E-02  0.8243723E-01
        1   -1    0    0  501    0  0.00000000000E+00  0.00000000000E+00  0.18820330554E+04  0.18820330554E+04  0.50400001928E-02 0. -1.
       -1   -1    0    0    0  501  0.00000000000E+00  0.00000000000E+00 -0.11955365810E+04  0.11955365810E+04  0.50400001928E-02 0.  1.
    10030    2    1    2    0    0  0.00000000000E+00  0.00000000000E+00  0.68649647437E+03  0.30775696364E+04  0.30000262428E+04 0.  0.
        1    1    3    3  502    0 -0.97755544143E+03 -0.37660981295E+03  0.14445852008E+04  0.17844539767E+04  0.50400001928E-02 0. -1.
       -1    1    3    3    0  502  0.97755544143E+03  0.37660981295E+03 -0.75808872647E+03  0.12931156598E+04  0.50400001928E-02 0.  1.
</event>
<event>
 5   0  0.6636007E-08  0.2999207E+04  0.7818609E-02  0.8243957E-01
       -1   -1    0    0    0  501  0.00000000000E+00  0.00000000000E+00  0.76768226649E+03  0.76768226650E+03  0.50400001928E-02 0.  1.
        1   -1    0    0  501    0  0.00000000000E+00  0.00000000000E+00 -0.29293503327E+04  0.29293503327E+04  0.50400001928E-02 0. -1.
    10030    2    1    2    0    0  0.00000000000E+00  0.00000000000E+00 -0.21616680662E+04  0.36970325992E+04  0.29992067636E+04 0.  0.
        2    1    3    3  502    0  0.13270917067E+04 -0.37825691600E+03 -0.35726652423E+03  0.14254438122E+04  0.25500000920E-02 0. -1.
       -2    1    3    3    0  502 -0.13270917067E+04  0.37825691600E+03 -0.18044015419E+04  0.22715887869E+04  0.25500000920E-02 0.  1.
</event>
<event>
 5   0  0.6374748E-08  0.2999092E+04  0.7818609E-02  0.8243990E-01
       -1   -1    0    0    0  501  0.00000000000E+00  0.00000000000E+00  0.13204797504E+04  0.13204797504E+04  0.50400001928E-02 0.  1.
        1   -1    0    0  501    0  0.00000000000E+00  0.00000000000E+00 -0.17028947470E+04  0.17028947470E+04  0.50400001928E-02 0. -1.
    10030    2    1    2    0    0  0.00000000000E+00  0.00000000000E+00 -0.38241499663E+03  0.30233744974E+04  0.29990918828E+04 0.  0.
        1    1    3    3  502    0  0.12114206486E+04 -0.67453132042E+03  0.38447266197E+03  0.14388716822E+04  0.50400001928E-02 0.  1.
       -1    1    3    3    0  502 -0.12114206486E+04  0.67453132042E+03 -0.76688765861E+03  0.15845028151E+04  0.50400001928E-02 0. -1.
</event>
<event>
 5   0  0.6464436E-08  0.3000103E+04  0.7818609E-02  0.8243701E-01
        1   -1    0    0  501    0  0.00000000000E+00  0.00000000000E+00  0.77433926040E+03  0.77433926042E+03  0.50400001928E-02 0.  1.
       -1   -1    0    0    0  501  0.00000000000E+00  0.00000000000E+00 -0.29059028435E+04  0.29059028435E+04  0.50400001928E-02 0. -1.
    10030    2    1    2    0    0  0.00000000000E+00  0.00000000000E+00 -0.21315635831E+04  0.36802421039E+04  0.30001031040E+04 0.  0.
        5    1    3    3  502    0 -0.12167014767E+04  0.10916484980E+03 -0.21336870646E+04  0.24586423139E+04  0.46999998093E+01 0. -1.
       -5    1    3    3    0  502  0.12167014767E+04 -0.10916484980E+03  0.21234815693E+01  0.12215997900E+04  0.46999998093E+01 0.  1.
</event>
<event>
 5   0  0.6636007E-08  0.3001628E+04  0.7818609E-02  0.8243266E-01
       -1   -1    0    0    0  501  0.00000000000E+00  0.00000000000E+00  0.12106378928E+04  0.12106378928E+04  0.50400001928E-02 0. -1.
        1   -1    0    0  501    0  0.00000000000E+00  0.00000000000E+00 -0.18605416069E+04  0.18605416069E+04  0.50400001928E-02 0.  1.
    10030    2    1    2    0    0  0.00000000000E+00  0.00000000000E+00 -0.64990371414E+03  0.30711794997E+04  0.30016276721E+04 0.  0.
        2    1    3    3  502    0  0.70525519977E+03 -0.13198127639E+04 -0.44228932598E+03  0.15604199680E+04  0.25500000920E-02 0.  1.
       -2    1    3    3    0  502 -0.70525519977E+03  0.13198127639E+04 -0.20761438816E+03  0.15107595317E+04  0.25500000920E-02 0. -1.
</event>
<event>
 5   0  0.1817566E-07  0.2998798E+04  0.7818609E-02  0.8244074E-01
        2   -1    0    0  501    0  0.00000000000E+00  0.00000000000E+00  0.28128695564E+04  0.28128695564E+04  0.25500000920E-02 0.  1.
       -2   -1    0    0    0  501  0.00000000000E+00  0.00000000000E+00 -0.79925426269E+03  0.79925426269E+03  0.25500000920E-02 0. -1.
    10030    2    1    2    0    0  0.00000000000E+00  0.00000000000E+00  0.20136152937E+04  0.36121238191E+04  0.29987984149E+04 0.  0.
        1    1    3    3  502    0 -0.94461129563E+03 -0.29914357501E+02  0.24089335917E+04  0.25876913297E+04  0.50400001928E-02 0.  1.
       -1    1    3    3    0  502  0.94461129563E+03  0.29914357501E+02 -0.39531829796E+03  0.10244324894E+04  0.50400001928E-02 0. -1.
</event>
<event>
 5   0  0.1813720E-07  0.3001572E+04  0.7818609E-02  0.8243282E-01
       -2   -1    0    0    0  501  0.00000000000E+00  0.00000000000E+00  0.27863998217E+04  0.27863998217E+04  0.25500000920E-02 0. -1.
        2   -1    0    0  501    0  0.00000000000E+00  0.00000000000E+00 -0.80834032136E+03  0.80834032137E+03  0.25500000920E-02 0.  1.
    10030    2    1    2    0    0  0.00000000000E+00  0.00000000000E+00  0.19780595004E+04  0.35947401431E+04  0.30015724728E+04 0.  0.
        3    1    3    3  502    0 -0.61250288587E+03 -0.13615992144E+04  0.80642874447E+03  0.16968911385E+04  0.10100000352E+00 0. -1.
       -3    1    3    3    0  502  0.61250288587E+03  0.13615992144E+04  0.11716307559E+04  0.18978490046E+04  0.10100000352E+00 0.  1.
</event>
<event>
 5   0  0.6374748E-08  0.3001712E+04  0.7818609E-02  0.8243242E-01
        1   -1    0    0  501    0  0.00000000000E+00  0.00000000000E+00  0.22539552153E+04  0.22539552153E+04  0.50400001928E-02 0. -1.
       -1   -1    0    0    0  501  0.00000000000E+00  0.00000000000E+00 -0.99938454215E+03  0.99938454216E+03  0.50400001928E-02 0.  1.
    10030    2    1    2    0    0  0.00000000000E+00  0.00000000000E+00  0.12545706731E+04  0.32533397574E+04  0.30017115124E+04 0.  0.
        1    1    3    3  502    0 -0.16356133363E+02 -0.93664520024E+03 -0.64361421360E+03  0.11365786423E+04  0.50400001928E-02 0. -1.
       -1    1    3    3    0  502  0.16356133363E+02  0.93664520024E+03  0.18981848867E+04  0.21167611151E+04  0.50400001928E-02 0.  1.
</event>
<event>
 5   0  0.6636007E-08  0.2999347E+04  0.7818609E-02  0.8243917E-01
        1   -1    0    0  501    0  0.00000000000E+00  0.00000000000E+00  0.14627165564E+04  0.14627165564E+04  0.50400001928E-02 0. -1.
       -1   -1    0    0    0  501  0.00000000000E+00  0.00000000000E+00 -0.15375638191E+04  0.15375638191E+04  0.50400001928E-02 0.  1.
    10030    2    1    2    0    0  0.00000000000E+00  0.00000000000E+00 -0.74847262719E+02  0.30002803756E+04  0.29993466321E+04 0.  0.
        2    1    3    3  502    0 -0.59288515236E+03 -0.11720160977E+04  0.68660106149E+03  0.14820781204E+04  0.25500000920E-02 0. -1.
       -2    1    3    3    0  502  0.59288515236E+03  0.11720160977E+04 -0.76144832421E+03  0.15182022552E+04  0.25500000920E-02 0.  1.
</event>
<event>
 5   0  0.6374748E-08  0.2999293E+04  0.7818609E-02  0.8243933E-01
        1   -1    0    0  501    0  0.00000000000E+00  0.00000000000E+00  0.21120159969E+04  0.21120159969E+04  0.50400001928E-02 0.  1.
       -1   -1    0    0    0  501  0.00000000000E+00  0.00000000000E+00 -0.10648306915E+04  0.10648306916E+04  0.50400001928E-02 0. -1.
    10030    2    1    2    0    0  0.00000000000E+00  0.00000000000E+00  0.10471853053E+04  0.31768466884E+04  0.29992928864E+04 0.  0.
        1    1    3    3  502    0 -0.13298920860E+04  0.55270586506E+03  0.80697265281E+02  0.14424315521E+04  0.50400001928E-02 0.  1.
       -1    1    3    3    0  502  0.13298920860E+04 -0.55270586506E+03  0.96648804005E+03  0.17344151364E+04  0.50400001928E-02 0. -1.
</event>
<event>
 5   0  0.6525507E-08  0.2999413E+04  0.7818609E-02  0.8243899E-01
       -1   -1    0    0    0  501  0.00000000000E+00  0.00000000000E+00  0.15971150271E+04  0.15971150271E+04  0.50400001928E-02 0.  1.
        1   -1    0    0  501    0  0.00000000000E+00  0.00000000000E+00 -0.14082389002E+04  0.14082389003E+04  0.50400001928E-02 0. -1.
    10030    2    1    2    0    0  0.00000000000E+00  0.00000000000E+00  0.18887612680E+03  0.30053539273E+04  0.29994129488E+04 0.  0.
        4    1    3    3  502    0  0.10400356271E+02 -0.37044637231E+03  0.15505126355E+04  0.15941862275E+04  0.12699999809E+01 0.  1.
       -4    1    3    3    0  502 -0.10400356271E+02  0.37044637231E+03 -0.13616365087E+04  0.14111676998E+04  0.12699999809E+01 0. -1.
</event>
<event>
 5   0  0.6679022E-08  0.3001559E+04  0.7818609E-02  0.8243286E-01
        1   -1    0    0  501    0  0.00000000000E+00  0.00000000000E+00  0.83259909759E+03  0.83259909760E+03  0.50400001928E-02 0. -1.
       -1   -1    0    0    0  501  0.00000000000E+00  0.00000000000E+00 -0.27051906175E+04  0.27051906175E+04  0.50400001928E-02 0.  1.
    10030    2    1    2    0    0  0.00000000000E+00  0.00000000000E+00 -0.18725915200E+04  0.35377897151E+04  0.30015591062E+04 0.  0.
        3    1    3    3  502    0 -0.63078070598E+02 -0.31443307414E+03 -0.26643328412E+04  0.26835641412E+04  0.10100000352E+00 0.  1.
       -3    1    3    3    0  502  0.63078070598E+02  0.31443307414E+03  0.79174132128E+03  0.85422557391E+03  0.10100000352E+00 0. -1.
</event>
<event>
 5   0  0.1817566E-07  0.3001325E+04  0.7818609E-02  0.8243353E-01
       -2   -1    0    0    0  501  0.00000000000E+00  0.00000000000E+00  0.19500819980E+04  0.19500819980E+04  0.25500000920E-02 0. -1.
        2   -1    0    0  501    0  0.00000000000E+00  0.00000000000E+00 -0.11548167319E+04  0.11548167319E+04  0.25500000920E-02 0.  1.
    10030    2    1    2    0    0  0.00000000000E+00  0.00000000000E+00  0.79526526612E+03  0.31048987299E+04  0.30013245875E+04 0.  0.
        1    1    3    3  502    0  0.10286193802E+04 -0.35469472297E+03 -0.67153235814E+03  0.12786015344E+04  0.50400001928E-02 0.  1.
       -1    1    3    3    0  502 -0.10286193802E+04  0.35469472297E+03  0.14667976243E+04  0.18262971955E+04  0.50400001928E-02 0. -1.
</event>
<event>
 5   0  0.6464436E-08  0.3000227E+04  0.7818609E-02  0.8243666E-01
        1   -1    0    0  501    0  0.00000000000E+00  0.00000000000E+00  0.87137052273E+03  0.87137052274E+03  0.50400001928E-02 0. -1.
       -1   -1    0    0    0  501  0.00000000000E+00  0.00000000000E+00 -0.25825298215E+04  0.25825298215E+04  0.50400001928E-02 0.  1.
    10030    2    1    2    0    0  0.00000000000E+00  0.00000000000E+00 -0.17111592988E+04  0.34539003443E+04  0.30002268985E+04 0.  0.
        5    1    3    3  502    0 -0.14640100288E+04 -0.30771019466E+03 -0.72786584454E+03  0.16636771640E+04  0.46999998093E+01 0.  1.
       -5    1    3    3    0  502  0.14640100288E+04  0.30771019466E+03 -0.98329345426E+03  0.17902231803E+04  0.46999998093E+01 0. -1.
</event>
<event>
 5   0  0.1821305E-07  0.2999779E+04  0.7818609E-02  0.8243794E-01
        2   -1    0    0  501    0  0.00000000000E+00  0.00000000000E+00  0.11778034814E+04  0.11778034814E+04  0.25500000920E-02 0.  1.
       -2   -1    0    0    0  501  0.00000000000E+00  0.00000000000E+00 -0.19100544522E+04  0.19100544522E+04  0.25500000920E-02 0. -1.
    10030    2    1    2    0    0  0.00000000000E+00  0.00000000000E+00 -0.73225097085E+03  0.30878579336E+04  0.29997791809E+04 0.  0.
        2    1    3    3  502    0  0.53402952004E+03  0.94011800877E+03  0.70394513184E+03  0.12901736888E+04  0.25500000920E-02 0.  1.
       -2    1    3    3    0  502 -0.53402952004E+03 -0.94011800877E+03 -0.14361961027E+04  0.17976842448E+04  0.25500000920E-02 0. -1.
</event>
<event>
 5   0  0.6525507E-08  0.2994587E+04  0.7818609E-02  0.8245278E-01
        1   -1    0    0  501    0  0.00000000000E+00  0.00000000000E+00  0.21946692332E+04  0.21946692332E+04  0.50400001928E-02 0.  1.
       -1   -1    0    0    0  501  0.00000000000E+00  0.00000000000E+00 -0.10215153924E+04  0.10215153924E+04  0.50400001928E-02 0. -1.
    10030    2    1    2    0    0  0.00000000000E+00  0.00000000000E+00  0.11731538408E+04  0.32161846256E+04  0.29945873859E+04 0.  0.
        4    1    3    3  502    0  0.43777677136E+02 -0.13827961988E+04 -0.28370873905E+02  0.13837804493E+04  0.12699999809E+01 0. -1.
       -4    1    3    3    0  502 -0.43777677136E+02  0.13827961988E+04  0.12015247147E+04  0.18324041763E+04  0.12699999809E+01 0.  1.
</event>
<event>
 5   0  0.1813720E-07  0.2999812E+04  0.7818609E-02  0.8243785E-01
        2   -1    0    0  501    0  0.00000000000E+00  0.00000000000E+00  0.17629357647E+04  0.17629357647E+04  0.25500000920E-02 0. -1.
       -2   -1    0    0    0  501  0.00000000000E+00  0.00000000000E+00 -0.12761203498E+04  0.12761203498E+04  0.25500000920E-02 0.  1.
    10030    2    1    2    0    0  0.00000000000E+00  0.00000000000E+00  0.48681541494E+03  0.30390561145E+04  0.29998121306E+04 0.  0.
        3    1    3    3  502    0  0.56633196087E+03 -0.45908181151E+01 -0.11636336463E+04  0.12941391882E+04  0.10100000352E+00 0.  1.
       -3    1    3    3    0  502 -0.56633196087E+03  0.45908181151E+01  0.16504490612E+04  0.17449169262E+04  0.10100000352E+00 0. -1.
</event>
<event>
 5   0  0.6374748E-08  0.3000166E+04  0.7818609E-02  0.8243683E-01
        1   -1    0    0  501    0  0.00000000000E+00  0.00000000000E+00  0.12074779436E+04  0.12074779436E+04  0.50400001928E-02 0. -1.
       -1   -1    0    0    0  501  0.00000000000E+00  0.00000000000E+00 -0.18635946337E+04  0.18635946337E+04  0.50400001928E-02 0.  1.
    10030    2    1    2    0    0  0.00000000000E+00  0.00000000000E+00 -0.65611669016E+03  0.30710725773E+04  0.30001662727E+04 0.  0.
        1    1    3    3  502    0 -0.10429101942E+04 -0.98528516974E+03  0.12024300834E+03  0.14397593271E+04  0.50400001928E-02 0. -1.
       -1    1    3    3    0  502  0.10429101942E+04  0.98528516974E+03 -0.77635969849E+03  0.16313132502E+04  0.50400001928E-02 0.  1.
</event>
<event>
 5   0  0.1813720E-07  0.3002509E+04  0.7818609E-02  0.8243015E-01
        2   -1    0    0  501    0  0.00000000000E+00  0.00000000000E+00  0.14520672044E+04  0.14520672044E+04  0.25500000920E-02 0.  1.
       -2   -1    0    0    0  501  0.00000000000E+00  0.00000000000E+00 -0.15521078562E+04  0.15521078562E+04  0.25500000920E-02 0. -1.
    10030    2    1    2    0    0  0.00000000000E+00  0.00000000000E+00 -0.10004065180E+03  0.30041750606E+04  0.30025088947E+04 0.  0.
        3    1    3    3  502    0  0.36303823680E+03  0.41729836910E+02  0.14068875468E+04  0.14535717114E+04  0.10100000352E+00 0.  1.
       -3    1    3    3    0  502 -0.36303823680E+03 -0.41729836910E+02 -0.15069281986E+04  0.15506033492E+04  0.10100000352E+00 0. -1.
</event>
<event>
 5   0  0.6679022E-08  0.2989775E+04  0.7818609E-02  0.8246657E-01
        1   -1    0    0  501    0  0.00000000000E+00  0.00000000000E+00  0.13141310378E+04  0.13141310378E+04  0.50400001928E-02 0. -1.
       -1   -1    0    0    0  501  0.00000000000E+00  0.00000000000E+00 -0.17005065726E+04  0.17005065726E+04  0.50400001928E-02 0.  1.
    10030    2    1    2    0    0  0.00000000000E+00  0.00000000000E+00 -0.38637553480E+03  0.30146376105E+04  0.29897748859E+04 0.  0.
        3    1    3    3  502    0  0.10402271025E+04 -0.33599782018E+03 -0.12213345843E+04  0.16390927786E+04  0.10100000352E+00 0.  1.
       -3    1    3    3    0  502 -0.10402271025E+04  0.33599782018E+03  0.83495904949E+03  0.13755448319E+04  0.10100000352E+00 0. -1.
</event>
<event>
 5   0  0.6464436E-08  0.2999610E+04  0.7818609E-02  0.8243842E-01
       -1   -1    0    0    0  501  0.00000000000E+00  0.00000000000E+00  0.20060102271E+04  0.20060102272E+04  0.50400001928E-02 0. -1.
        1   -1    0    0  501    0  0.00000000000E+00  0.00000000000E+00 -0.11213377464E+04  0.11213377464E+04  0.50400001928E-02 0.  1.
    10030    2    1    2    0    0  0.00000000000E+00  0.00000000000E+00  0.88467248079E+03  0.31273479735E+04  0.29996099662E+04 0.  0.
        5    1    3    3  502    0 -0.12269847669E+04  0.85653857998E+03  0.54785355672E+03  0.15935230048E+04  0.46999998093E+01 0.  1.
       -5    1    3    3    0  502  0.12269847669E+04 -0.85653857998E+03  0.33681892406E+03  0.15338249687E+04  0.46999998093E+01 0. -1.
</event>
<event>
 5   0  0.6679022E-08  0.3000161E+04  0.7818609E-02  0.8243685E-01
        1   -1    0    0  501    0  0.00000000000E+00  0.00000000000E+00  0.22745357476E+04  0.22745357476E+04  0.50400001928E-02 0.  1.
       -1   -1    0    0    0  501  0.00000000000E+00  0.00000000000E+00 -0.98931920787E+03  0.98931920788E+03  0.50400001928E-02 0. -1.
    10030    2    1    2    0    0  0.00000000000E+00  0.00000000000E+00  0.12852165397E+04  0.32638549555E+04  0.30001612651E+04 0.  0.
        3    1    3    3  502    0  0.13169915989E+03  0.99232731896E+03  0.18580258321E+04  0.21105255696E+04  0.10100000352E+00 0.  1.
       -3    1    3    3    0  502 -0.13169915989E+03 -0.99232731896E+03 -0.57280929244E+03  0.11533293859E+04  0.10100000352E+00 0. -1.
</event>
<event>
 5   0  0.1914439E-07  0.2999553E+04  0.7818609E-02  0.8243858E-01
        2   -1    0    0  501    0  0.00000000000E+00  0.00000000000E+00  0.13935198361E+04  0.13935198361E+04  0.25500000920E-02 0.  1.
       -2   -1    0    0    0  501  0.00000000000E+00  0.00000000000E+00 -0.16141356940E+04  0.16141356940E+04  0.25500000920E-02 0. -1.
    10030    2    1    2    0    0  0.00000000000E+00  0.00000000000E+00 -0.22061585794E+03  0.30076555301E+04  0.29995533719E+04 0.  0.
        5    1    3    3  502    0 -0.12944771706E+04 -0.75190091312E+03 -0.20155863047E+03  0.15105211352E+04  0.46999998093E+01 0. -1.
       -5    1    3    3    0  502  0.12944771706E+04  0.75190091312E+03 -0.19057227466E+02  0.14971343949E+04  0.46999998093E+01 0.  1.
</event>
<event>
 5   0  0.1817566E-07  0.3001200E+04  0.7818609E-02  0.8243388E-01
        2   -1    0    0  501    0  0.00000000000E+00  0.00000000000E+00  0.23543536310E+04  0.23543536310E+04  0.25500000920E-02 0. -1.
       -2   -1    0    0    0  501  0.00000000000E+00  0.00000000000E+00 -0.95644124484E+03  0.95644124484E+03  0.25500000920E-02 0.  1.
    10030    2    1    2    0    0  0.00000000000E+00  0.00000000000E+00  0.13979123861E+04  0.33107948758E+04  0.30012003716E+04 0.  0.
        1    1    3    3  502    0 -0.37161405268E+03  0.34656122298E+03  0.22565571727E+04  0.23130611664E+04  0.50400001928E-02 0. -1.
       -1    1    3    3    0  502  0.37161405268E+03 -0.34656122298E+03 -0.85864478660E+03  0.99773370947E+03  0.50400001928E-02 0.  1.
</event>
<event>
 5   0  0.1817566E-07  0.3003393E+04  0.7818609E-02  0.8242763E-01
       -2   -1    0    0    0  501  0.00000000000E+00  0.00000000000E+00  0.12283403116E+04  0.12283403116E+04  0.25500000920E-02 0.  1.
        2   -1    0    0  501    0  0.00000000000E+00  0.00000000000E+00 -0.18358858452E+04  0.18358858452E+04  0.25500000920E-02 0. -1.
    10030    2    1    2    0    0  0.00000000000E+00  0.00000000000E+00 -0.60754553355E+03  0.30642261568E+04  0.30033931418E+04 0.  0.
        1    1    3    3  502    0 -0.95110576218E+03  0.10171696688E+04 -0.87716709433E+03  0.16458002362E+04  0.50400001928E-02 0. -1.
       -1    1    3    3    0  502  0.95110576218E+03 -0.10171696688E+04  0.26962156078E+03  0.14184259206E+04  0.50400001928E-02 0.  1.
</event>
<event>
 5   0  0.6636007E-08  0.3001886E+04  0.7818609E-02  0.8243193E-01
       -1   -1    0    0    0  501  0.00000000000E+00  0.00000000000E+00  0.13270466374E+04  0.13270466374E+04  0.50400001928E-02 0.  1.
        1   -1    0    0  501    0  0.00000000000E+00  0.00000000000E+00 -0.16976264192E+04  0.16976264193E+04  0.50400001928E-02 0. -1.
    10030    2    1    2    0    0  0.00000000000E+00  0.00000000000E+00 -0.37057978181E+03  0.30246730567E+04  0.30018856949E+04 0.  0.
        2    1    3    3  502    0  0.90433021198E+03 -0.28386942390E+03  0.98734626884E+03  0.13686663716E+04  0.25500000920E-02 0.  1.
       -2    1    3    3    0  502 -0.90433021198E+03  0.28386942390E+03 -0.13579260506E+04  0.16560066851E+04  0.25500000920E-02 0. -1.
</event>
<event>
 5   0  0.6636007E-08  0.2998436E+04  0.7818609E-02  0.8244178E-01
       -1   -1    0    0    0  501  0.00000000000E+00  0.00000000000E+00  0.11320530754E+04  0.11320530754E+04  0.50400001928E-02 0. -1.
        1   -1    0    0  501    0  0.00000000000E+00  0.00000000000E+00 -0.19854680778E+04  0.19854680778E+04  0.50400001928E-02 0.  1.
    10030    2    1    2    0    0  0.00000000000E+00  0.00000000000E+00 -0.85341500241E+03  0.31175211531E+04  0.29984364215E+04 0.  0.
        2    1    3    3  502    0  0.21695985414E+03 -0.12692211974E+04 -0.12250988947E+04  0.17773185781E+04  0.25500000920E-02 0.  1.
       -2    1    3    3    0  502 -0.21695985414E+03  0.12692211974E+04  0.37168389231E+03  0.13402025750E+04  0.25500000920E-02 0. -1.
</event>
<event>
 5   0  0.1821305E-07  0.2999649E+04  0.7818609E-02  0.8243831E-01
       -2   -1    0    0    0  501  0.00000000000E+00  0.00000000000E+00  0.24780719918E+04  0.24780719918E+04  0.25500000920E-02 0. -1.
        2   -1    0    0  501    0  0.00000000000E+00  0.00000000000E+00 -0.90775161807E+03  0.90775161808E+03  0.25500000920E-02 0.  1.
    10030    2    1    2    0    0  0.00000000000E+00  0.00000000000E+00  0.15703203737E+04  0.33858236098E+04  0.29996492196E+04 0.  0.
        2    1    3    3  502    0 -0.67298796647E+03  0.79125906068E+03 -0.43600391885E+03  0.11265447711E+04  0.25500000920E-02 0.  1.
       -2    1    3    3    0  502  0.67298796647E+03 -0.79125906068E+03  0.20063242925E+04  0.22592788387E+04  0.25500000920E-02 0. -1.
</event>
<event>
 5   0  0.6464436E-08  0.3000124E+04  0.7818609E-02  0.8243696E-01
        1   -1    0    0  501    0  0.00000000000E+00  0.00000000000E+00  0.14862272398E+04  0.14862272398E+04  0.50400001928E-02 0. -1.
       -1   -1    0    0    0  501  0.00000000000E+00  0.00000000000E+00 -0.15140250909E+04  0.15140250909E+04  0.50400001928E-02 0.  1.
    10030    2    1    2    0    0  0.00000000000E+00  0.00000000000E+00 -0.27797851103E+02  0.30002523308E+04  0.30001235521E+04 0.  0.
        5    1    3    3  502    0 -0.80992558672E+03 -0.10691231311E+04 -0.68561184706E+03  0.15063497005E+04  0.46999998093E+01 0. -1.
       -5    1    3    3    0  502  0.80992558672E+03  0.10691231311E+04  0.65781399596E+03  0.14939026303E+04  0.46999998093E+01 0.  1.
</event>
<event>
 5   0  0.6525507E-08  0.2990587E+04  0.7818609E-02  0.8246424E-01
        1   -1    0    0  501    0  0.00000000000E+00  0.00000000000E+00  0.17035077479E+04  0.17035077479E+04  0.50400001928E-02 0.  1.
       -1   -1    0    0    0  501  0.00000000000E+00  0.00000000000E+00 -0.13125283381E+04  0.13125283381E+04  0.50400001928E-02 0. -1.
    10030    2    1    2    0    0  0.00000000000E+00  0.00000000000E+00  0.39097940986E+03  0.30160360860E+04  0.29905866938E+04 0.  0.
        4    1    3    3  502    0  0.26216335718E+03 -0.17904082270E+03 -0.12781482784E+04  0.13169851466E+04  0.12699999809E+01 0. -1.
       -4    1    3    3    0  502 -0.26216335718E+03  0.17904082270E+03  0.16691276882E+04  0.16990509394E+04  0.12699999809E+01 0.  1.
</event>
<event>
 5   0  0.6679022E-08  0.2988455E+04  0.7818609E-02  0.8247035E-01
       -1   -1    0    0    0  501  0.00000000000E+00  0.00000000000E+00  0.13805326149E+04  0.13805326149E+04  0.50400001928E-02 0.  1.
        1   -1    0    0  501    0  0.00000000000E+00  0.00000000000E+00 -0.16172862666E+04  0.16172862666E+04  0.50400001928E-02 0. -1.
    10030    2    1    2    0    0  0.00000000000E+00  0.00000000000E+00 -0.23675365175E+03  0.29978188815E+04  0.29884554128E+04 0.  0.
        3    1    3    3  502    0  0.61766642577E+03  0.89952096682E+03  0.90563826659E+03  0.14180375395E+04  0.10100000352E+00 0.  1.
       -3    1    3    3    0  502 -0.61766642577E+03 -0.89952096682E+03 -0.11423919183E+04  0.15797813420E+04  0.10100000352E+00 0. -1.
</event>
<event>
 5   0  0.6464436E-08  0.3000259E+04  0.7818609E-02  0.8243657E-01
        1   -1    0    0  501    0  0.00000000000E+00  0.00000000000E+00  0.20558765285E+04  0.20558765285E+04  0.50400001928E-02 0.  1.
       -1   -1    0    0    0  501  0.00000000000E+00  0.00000000000E+00 -0.10946128548E+04  0.10946128548E+04  0.50400001928E-02 0. -1.
    10030    2    1    2    0    0  0.00000000000E+00  0.00000000000E+00  0.96126367378E+03  0.31504893833E+04  0.30002592394E+04 0.  0.
        5    1    3    3  502    0  0.84922421995E+03 -0.89115650232E+02 -0.81451376083E+03  0.11800754770E+04  0.46999998093E+01 0. -1.
       -5    1    3    3    0  502 -0.84922421995E+03  0.89115650232E+02  0.17757774346E+04  0.19704139063E+04  0.46999998093E+01 0.  1.
</event>
<event>
 5   0  0.1821305E-07  0.3000115E+04  0.7818609E-02  0.8243698E-01
        2   -1    0    0  501    0  0.00000000000E+00  0.00000000000E+00  0.13730071384E+04  0.13730071384E+04  0.25500000920E-02 0. -1.
       -2   -1    0    0    0  501  0.00000000000E+00  0.00000000000E+00 -0.16388647393E+04  0.16388647393E+04  0.25500000920E-02 0.  1.
    10030    2    1    2    0    0  0.00000000000E+00  0.00000000000E+00 -0.26585760094E+03  0.30118718777E+04  0.30001153217E+04 0.  0.
        2    1    3    3  502    0  0.33518947862E+02 -0.67584130472E+03 -0.14769386228E+04  0.16245715387E+04  0.25500000920E-02 0.  1.
       -2    1    3    3    0  502 -0.33518947862E+02  0.67584130472E+03  0.12110810218E+04  0.13873003390E+04  0.25500000920E-02 0. -1.
</event>
<event>
 5   0  0.1821305E-07  0.3000736E+04  0.7818609E-02  0.8243521E-01
       -2   -1    0    0    0  501  0.00000000000E+00  0.00000000000E+00  0.10281850417E+04  0.10281850417E+04  0.25500000920E-02 0.  1.
        2   -1    0    0  501    0  0.00000000000E+00  0.00000000000E+00 -0.21893952587E+04  0.21893952587E+04  0.25500000920E-02 0. -1.
    10030    2    1    2    0    0  0.00000000000E+00  0.00000000000E+00 -0.11612102170E+04  0.32175803004E+04  0.30007355467E+04 0.  0.
        2    1    3    3  502    0  0.78162040744E+03 -0.76566134461E+03 -0.16814058895E+04  0.20060641867E+04  0.25500000920E-02 0. -1.
       -2    1    3    3    0  502 -0.78162040744E+03  0.76566134461E+03  0.52019567251E+03  0.12115161137E+04  0.25500000920E-02 0.  1.
</event>
<event>
 5   0  0.6525507E-08  0.2995996E+04  0.7818609E-02  0.8244875E-01
       -1   -1    0    0    0  501  0.00000000000E+00  0.00000000000E+00  0.99022059430E+03  0.99022059431E+03  0.50400001928E-02 0.  1.
        1   -1    0    0  501    0  0.00000000000E+00  0.00000000000E+00 -0.22661591902E+04  0.22661591902E+04  0.50400001928E-02 0. -1.
    10030    2    1    2    0    0  0.00000000000E+00  0.00000000000E+00 -0.12759385959E+04  0.32563797846E+04  0.29959956610E+04 0.  0.
        4    1    3    3  502    0 -0.90654637035E+03  0.17234518673E+03  0.64461606488E+03  0.11256378943E+04  0.12699999809E+01 0.  1.
       -4    1    3    3    0  502  0.90654637035E+03 -0.17234518673E+03 -0.19205546608E+04  0.21307418903E+04  0.12699999809E+01 0. -1.
</event>
<event>
 5   0  0.6374748E-08  0.2991511E+04  0.7818609E-02  0.8246159E-01
       -1   -1    0    0    0  501  0.00000000000E+00  0.00000000000E+00  0.13922284372E+04  0.13922284372E+04  0.50400001928E-02 0.  1.
        1   -1    0    0  501    0  0.00000000000E+00  0.00000000000E+00 -0.16069804822E+04  0.16069804822E+04  0.50400001928E-02 0. -1.
    10030    2    1    2    0    0  0.00000000000E+00  0.00000000000E+00 -0.21475204500E+03  0.29992089194E+04  0.29915106052E+04 0.  0.
        1    1    3    3  502    0  0.93625267259E+03 -0.21873367232E+03  0.10413781637E+04  0.14173503329E+04  0.50400001928E-02 0.  1.
       -1    1    3    3    0  502 -0.93625267259E+03  0.21873367232E+03 -0.12561302087E+04  0.15818585865E+04  0.50400001928E-02 0. -1.
</event>
<event>
 5   0  0.6374748E-08  0.2999558E+04  0.7818609E-02  0.8243857E-01
        1   -1    0    0  501    0  0.00000000000E+00  0.00000000000E+00  0.14662040934E+04  0.14662040934E+04  0.50400001928E-02 0. -1.
       -1   -1    0    0    0  501  0.00000000000E+00  0.00000000000E+00 -0.15341230991E+04  0.15341230991E+04  0.50400001928E-02 0.  1.
    10030    2    1    2    0    0  0.00000000000E+00  0.00000000000E+00 -0.67919005664E+02  0.30003271926E+04  0.29995583460E+04 0.  0.
        1    1    3    3  502    0  0.41023101108E+03  0.34880697269E+03  0.13661784786E+04  0.14684683933E+04  0.50400001928E-02 0. -1.
       -1    1    3    3    0  502 -0.41023101108E+03 -0.34880697269E+03 -0.14340974842E+04  0.15318587993E+04  0.50400001928E-02 0.  1.
</event>
<event>
 5   0  0.6464436E-08  0.2998749E+04  0.7818609E-02  0.8244088E-01
       -1   -1    0    0    0  501  0.00000000000E+00  0.00000000000E+00  0.18786644049E+04  0.18786644049E+04  0.50400001928E-02 0.  1.
        1   -1    0    0  501    0  0.00000000000E+00  0.00000000000E+00 -0.11966608530E+04  0.11966608530E+04  0.50400001928E-02 0. -1.
    10030    2    1    2    0    0  0.00000000000E+00  0.00000000000E+00  0.68200355192E+03  0.30753252579E+04  0.29987491721E+04 0.  0.
        5    1    3    3  502    0 -0.77240153530E+03 -0.12295737170E+04  0.72423732644E+03  0.16226513650E+04  0.46999998093E+01 0. -1.
       -5    1    3    3    0  502  0.77240153530E+03  0.12295737170E+04 -0.42233774519E+02  0.14526738929E+04  0.46999998093E+01 0.  1.
</event>
<event>
 5   0  0.1810055E-07  0.2998499E+04  0.7818609E-02  0.8244160E-01
       -2   -1    0    0    0  501  0.00000000000E+00  0.00000000000E+00  0.11811794903E+04  0.11811794903E+04  0.25500000920E-02 0.  1.
        2   -1    0    0  501    0  0.00000000000E+00  0.00000000000E+00 -0.19029695837E+04  0.19029695837E+04  0.25500000920E-02 0. -1.
    10030    2    1    2    0    0  0.00000000000E+00  0.00000000000E+00 -0.72179009338E+03  0.30841490740E+04  0.29984987196E+04 0.  0.
        4    1    3    3  502    0  0.99104914061E+03 -0.11114569698E+03 -0.15123430529E+04  0.18115504099E+04  0.12699999809E+01 0. -1.
       -4    1    3    3    0  502 -0.99104914061E+03  0.11114569698E+03  0.79055295953E+03  0.12725986641E+04  0.12699999809E+01 0.  1.
</event>
<event>
 5   0  0.1813720E-07  0.2999805E+04  0.7818609E-02  0.8243787E-01
       -2   -1    0    0    0  501  0.00000000000E+00  0.00000000000E+00  0.16983667366E+04  0.16983667366E+04  0.25500000920E-02 0.  1.
        2   -1    0    0  501    0  0.00000000000E+00  0.00000000000E+00 -0.13246301641E+04  0.13246301641E+04  0.25500000920E-02 0. -1.
    10030    2    1    2    0    0  0.00000000000E+00  0.00000000000E+00  0.37373657249E+03  0.30229969006E+04  0.29998051996E+04 0.  0.
        3    1    3    3  502    0  0.67182761044E+03  0.63435663833E+03 -0.10037680469E+04  0.13642987155E+04  0.10100000352E+00 0. -1.
       -3    1    3    3    0  502 -0.67182761044E+03 -0.63435663833E+03  0.13775046194E+04  0.16586981852E+04  0.10100000352E+00 0.  1.
</event>
<event>
 5   0  0.1817566E-07  0.3002210E+04  0.7818609E-02  0.8243100E-01
       -2   -1    0    0    0  501  0.00000000000E+00  0.00000000000E+00  0.15568044396E+04  0.15568044396E+04  0.25500000920E-02 0. -1.
        2   -1    0    0  501    0  0.00000000000E+00  0.00000000000E+00 -0.14473980975E+04  0.14473980975E+04  0.25500000920E-02 0.  1.
    10030    2    1    2    0    0  0.00000000000E+00  0.00000000000E+00  0.10940634206E+03  0.30042025371E+04  0.30022097089E+04 0.  0.
        1    1    3    3  502    0  0.99290676223E+02 -0.93195419627E+03  0.12280507044E+04  0.15448319633E+04  0.50400001928E-02 0. -1.
       -1    1    3    3    0  502 -0.99290676223E+02  0.93195419627E+03 -0.11186443623E+04  0.14593705738E+04  0.50400001928E-02 0.  1.
</event>
<event>
 5   0  0.1813720E-07  0.2998512E+04  0.7818609E-02  0.8244156E-01
        2   -1    0    0  501    0  0.00000000000E+00  0.00000000000E+00  0.12145436391E+04  0.12145436391E+04  0.25500000920E-02 0. -1.
       -2   -1    0    0    0  501  0.00000000000E+00  0.00000000000E+00 -0.18507101532E+04  0.18507101532E+04  0.25500000920E-02 0.  1.
    10030    2    1    2    0    0  0.00000000000E+00  0.00000000000E+00 -0.63616651405E+03  0.30652537923E+04  0.29985117938E+04 0.  0.
        3    1    3    3  502    0 -0.81955801009E+03  0.10999344777E+04  0.30056217975E+03  0.14042324669E+04  0.10100000352E+00 0. -1.
       -3    1    3    3    0  502  0.81955801009E+03 -0.10999344777E+04 -0.93672869380E+03  0.16610213253E+04  0.10100000352E+00 0.  1.
</event>
<event>
 5   0  0.1914439E-07  0.2999605E+04  0.7818609E-02  0.8243844E-01
        2   -1    0    0  501    0  0.00000000000E+00  0.00000000000E+00  0.18303074869E+04  0.18303074869E+04  0.25500000920E-02 0.  1.
       -2   -1    0    0    0  501  0.00000000000E+00  0.00000000000E+00 -0.12289780919E+04  0.12289780919E+04  0.25500000920E-02 0. -1.
    10030    2    1    2    0    0  0.00000000000E+00  0.00000000000E+00  0.60132939504E+03  0.30592855788E+04  0.29996051759E+04 0.  0.
        5    1    3    3  502    0 -0.14599836695E+04  0.16393587710E+03  0.60825836697E+03  0.15901030212E+04  0.46999998093E+01 0.  1.
       -5    1    3    3    0  502  0.14599836695E+04 -0.16393587710E+03 -0.69289719308E+01  0.14691825576E+04  0.46999998093E+01 0. -1.
</event>
<event>
 5   0  0.6017625E-08  0.2993734E+04  0.7818609E-02  0.8245523E-01
        4   -1    0    0  501    0  0.00000000000E+00  0.00000000000E+00  0.19876580012E+04  0.19876584069E+04  0.12699999809E+01 0.  1.
       -4   -1    0    0    0  501  0.00000000000E+00  0.00000000000E+00 -0.11272605011E+04  0.11272612165E+04  0.12699999809E+01 0. -1.
    10030    2    1    2    0    0  0.00000000000E+00  0.00000000000E+00  0.86039750004E+03  0.31149196234E+04  0.29937335223E+04 0.  0.
        3    1    3    3  502    0 -0.65374174766E+03 -0.12897606751E+04  0.83283788755E+03  0.16686760706E+04  0.10100000352E+00 0.  1.
       -3    1    3    3    0  502  0.65374174766E+03  0.12897606751E+04  0.27559612488E+02  0.14462435528E+04  0.10100000352E+00 0. -1.
</event>
<event>
 5   0  0.6679022E-08  0.2999970E+04  0.7818609E-02  0.8243739E-01
        1   -1    0    0  501    0  0.00000000000E+00  0.00000000000E+00  0.13066464421E+04  0.13066464421E+04  0.50400001928E-02 0. -1.
       -1   -1    0    0    0  501  0.00000000000E+00  0.00000000000E+00 -0.17219315229E+04  0.17219315229E+04  0.50400001928E-02 0.  1.
    10030    2    1    2    0    0  0.00000000000E+00  0.00000000000E+00 -0.41528508079E+03  0.30285779649E+04  0.29999704651E+04 0.  0.
        3    1    3    3  502    0 -0.92832618208E+03 -0.55849853442E+03 -0.12549578895E+04  0.16578991006E+04  0.10100000352E+00 0.  1.
       -3    1    3    3    0  502  0.92832618208E+03  0.55849853442E+03  0.83967280867E+03  0.13706788643E+04  0.10100000352E+00 0. -1.
</event>
<event>
 5   0  0.1817566E-07  0.3000615E+04  0.7818609E-02  0.8243555E-01
       -2   -1    0    0    0  501  0.00000000000E+00  0.00000000000E+00  0.10510836442E+04  0.10510836442E+04  0.25500000920E-02 0. -1.
        2   -1    0    0  501    0  0.00000000000E+00  0.00000000000E+00 -0.21415254006E+04  0.21415254006E+04  0.25500000920E-02 0.  1.
    10030    2    1    2    0    0  0.00000000000E+00  0.00000000000E+00 -0.10904417565E+04  0.31926090448E+04  0.30006148185E+04 0.  0.
        1    1    3    3  502    0 -0.19928456619E+03  0.63122316553E+03 -0.19777593022E+04  0.20855907749E+04  0.50400001928E-02 0.  1.
       -1    1    3    3    0  502  0.19928456619E+03 -0.63122316553E+03  0.88731754568E+03  0.11070182699E+04  0.50400001928E-02 0. -1.
</event>
<event>
 5   0  0.6679022E-08  0.3001296E+04  0.7818609E-02  0.8243361E-01
        1   -1    0    0  501    0  0.00000000000E+00  0.00000000000E+00  0.17147299245E+04  0.17147299245E+04  0.50400001928E-02 0.  1.
       -1   -1    0    0    0  501  0.00000000000E+00  0.00000000000E+00 -0.13132936054E+04  0.13132936054E+04  0.50400001928E-02 0. -1.
    10030    2    1    2    0    0  0.00000000000E+00  0.00000000000E+00  0.40143631906E+03  0.30280235299E+04  0.30012956168E+04 0.  0.
        3    1    3    3  502    0 -0.12301721623E+03 -0.24827304524E+03  0.16886984659E+04  0.17112788374E+04  0.10100000352E+00 0.  1.
       -3    1    3    3    0  502  0.12301721623E+03  0.24827304524E+03 -0.12872621468E+04  0.13167446925E+04  0.10100000352E+00 0. -1.
</event>
<event>
 5   0  0.6636007E-08  0.2998749E+04  0.7818609E-02  0.8244088E-01
        1   -1    0    0  501    0  0.00000000000E+00  0.00000000000E+00  0.11441550032E+04  0.11441550032E+04  0.50400001928E-02 0. -1.
       -1   -1    0    0    0  501  0.00000000000E+00  0.00000000000E+00 -0.19648768898E+04  0.19648768899E+04  0.50400001928E-02 0.  1.
    10030    2    1    2    0    0  0.00000000000E+00  0.00000000000E+00 -0.82072188670E+03  0.31090318930E+04  0.29987488885E+04 0.  0.
        2    1    3    3  502    0 -0.63871872441E+03  0.60876638783E+03  0.84647781742E+03  0.12227357929E+04  0.25500000920E-02 0. -1.
       -2    1    3    3    0  502  0.63871872441E+03 -0.60876638783E+03 -0.16671997041E+04  0.18862961001E+04  0.25500000920E-02 0.  1.
</event>
<event>
 5   0  0.6525507E-08  0.3000411E+04  0.7818609E-02  0.8243614E-01
       -1   -1    0    0    0  501  0.00000000000E+00  0.00000000000E+00  0.15036971107E+04  0.15036971107E+04  0.50400001928E-02 0.  1.
        1   -1    0    0  501    0  0.00000000000E+00  0.00000000000E+00 -0.14967218316E+04  0.14967218316E+04  0.50400001928E-02 0. -1.
    10030    2    1    2    0    0  0.00000000000E+00  0.00000000000E+00  0.69752791165E+01  0.30004189424E+04  0.30004108344E+04 0.  0.
        4    1    3    3  502    0 -0.68170011224E+03  0.52515651682E+03  0.12323564007E+04  0.15030663064E+04  0.12699999809E+01 0.  1.
       -4    1    3    3    0  502  0.68170011224E+03 -0.52515651682E+03 -0.12253811216E+04  0.14973526359E+04  0.12699999809E+01 0. -1.
</event>
<event>
 5   0  0.1810055E-07  0.3000185E+04  0.7818609E-02  0.8243678E-01
       -2   -1    0    0    0  501  0.00000000000E+00  0.00000000000E+00  0.13768741828E+04  0.13768741828E+04  0.25500000920E-02 0.  1.
        2   -1    0    0  501    0  0.00000000000E+00  0.00000000000E+00 -0.16343380729E+04  0.16343380729E+04  0.25500000920E-02 0. -1.
    10030    2    1    2    0    0  0.00000000000E+00  0.00000000000E+00 -0.25746389013E+03  0.30112122557E+04  0.30001852600E+04 0.  0.
        4    1    3    3  502    0  0.91106369085E+02 -0.14577953674E+04  0.21429692462E+03  0.14762765623E+04  0.12699999809E+01 0.  1.
       -4    1    3    3    0  502 -0.91106369085E+02  0.14577953674E+04 -0.47176081475E+03  0.15349356934E+04  0.12699999809E+01 0. -1.
</event>
<event>
 5   0  0.6464436E-08  0.2999035E+04  0.7818609E-02  0.8244006E-01
        1   -1    0    0  501    0  0.00000000000E+00  0.00000000000E+00  0.13840364706E+04  0.13840364706E+04  0.50400001928E-02 0. -1.
       -1   -1    0    0    0  501  0.00000000000E+00  0.00000000000E+00 -0.16246344212E+04  0.16246344212E+04  0.50400001928E-02 0.  1.
    10030    2    1    2    0    0  0.00000000000E+00  0.00000000000E+00 -0.24059795062E+03  0.30086708919E+04  0.29990353719E+04 0.  0.
        5    1    3    3  502    0  0.79696648277E+03 -0.39430966096E+03  0.10910137972E+04  0.14074689620E+04  0.46999998093E+01 0. -1.
       -5    1    3    3    0  502 -0.79696648277E+03  0.39430966096E+03 -0.13316117478E+04  0.16012019299E+04  0.46999998093E+01 0.  1.
</event>
<event>
 5   0  0.6464436E-08  0.2999999E+04  0.7818609E-02  0.8243731E-01
       -1   -1    0    0    0  501  0.00000000000E+00  0.00000000000E+00  0.14804644727E+04  0.14804644727E+04  0.50400001928E-02 0.  1.
        1   -1    0    0  501    0  0.00000000000E+00  0.00000000000E+00 -0.15197927729E+04  0.15197927730E+04  0.50400001928E-02 0. -1.
    10030    2    1    2    0    0  0.00000000000E+00  0.00000000000E+00 -0.39328300277E+02  0.30002572456E+04  0.29999994708E+04 0.  0.
        5    1    3    3  502    0  0.77629310624E+03 -0.13253877649E+03  0.12570737602E+04  0.14833927473E+04  0.46999998093E+01 0.  1.
       -5    1    3    3    0  502 -0.77629310624E+03  0.13253877649E+03 -0.12964020605E+04  0.15168644984E+04  0.46999998093E+01 0. -1.
</event>
<event>
 5   0  0.6464436E-08  0.3002727E+04  0.7818609E-02  0.8242953E-01
        1   -1    0    0  501    0  0.00000000000E+00  0.00000000000E+00  0.11950061988E+04  0.11950061988E+04  0.50400001928E-02 0. -1.
       -1   -1    0    0    0  501  0.00000000000E+00  0.00000000000E+00 -0.18862604271E+04  0.18862604271E+04  0.50400001928E-02 0.  1.
    10030    2    1    2    0    0  0.00000000000E+00  0.00000000000E+00 -0.69125422832E+03  0.30812666259E+04  0.30027273622E+04 0.  0.
        5    1    3    3  502    0  0.90310671734E+03 -0.94721198251E+03  0.40931865477E+03  0.13712680751E+04  0.46999998093E+01 0. -1.
       -5    1    3    3    0  502 -0.90310671734E+03  0.94721198251E+03 -0.11005728831E+04  0.17099985508E+04  0.46999998093E+01 0.  1.
</event>
<event>
 5   0  0.1914439E-07  0.2981496E+04  0.7818609E-02  0.8249035E-01
        2   -1    0    0  501    0  0.00000000000E+00  0.00000000000E+00  0.32334443921E+04  0.32334443921E+04  0.25500000920E-02 0.  1.
       -2   -1    0    0    0  501  0.00000000000E+00  0.00000000000E+00 -0.68729459968E+03  0.68729459968E+03  0.25500000920E-02 0. -1.
    10030    2    1    2    0    0  0.00000000000E+00  0.00000000000E+00  0.25461497924E+04  0.39207389917E+04  0.29814955100E+04 0.  0.
        5    1    3    3  502    0 -0.44133667343E+03  0.14231430840E+04  0.12115002675E+04  0.19203825882E+04  0.46999998093E+01 0. -1.
       -5    1    3    3    0  502  0.44133667343E+03 -0.14231430840E+04  0.13346495249E+04  0.20003564035E+04  0.46999998093E+01 0.  1.
</event>
<event>
 5   0  0.1817566E-07  0.2998740E+04  0.7818609E-02  0.8244091E-01
        2   -1    0    0  501    0  0.00000000000E+00  0.00000000000E+00  0.30497170526E+04  0.30497170526E+04  0.25500000920E-02 0. -1.
       -2   -1    0    0    0  501  0.00000000000E+00  0.00000000000E+00 -0.73715386359E+03  0.73715386360E+03  0.25500000920E-02 0.  1.
    10030    2    1    2    0    0  0.00000000000E+00  0.00000000000E+00  0.23125631890E+04  0.37868709162E+04  0.29987402076E+04 0.  0.
        1    1    3    3  502    0 -0.78133932417E+02 -0.14781206958E+04  0.85435123522E+03  0.17090528768E+04  0.50400001928E-02 0. -1.
       -1    1    3    3    0  502  0.78133932417E+02  0.14781206958E+04  0.14582119538E+04  0.20778180394E+04  0.50400001928E-02 0.  1.
</event>
<event>
 5   0  0.6636007E-08  0.3008933E+04  0.7818609E-02  0.8241185E-01
       -1   -1    0    0    0  501  0.00000000000E+00  0.00000000000E+00  0.68576368588E+03  0.68576368590E+03  0.50400001928E-02 0.  1.
        1   -1    0    0  501    0  0.00000000000E+00  0.00000000000E+00 -0.33005818278E+04  0.33005818278E+04  0.50400001928E-02 0. -1.
    10030    2    1    2    0    0  0.00000000000E+00  0.00000000000E+00 -0.26148181419E+04  0.39863455137E+04  0.30089328074E+04 0.  0.
        2    1    3    3  502    0  0.46111715542E+03  0.12469740011E+04 -0.22403106803E+04  0.26051036706E+04  0.25500000920E-02 0. -1.
       -2    1    3    3    0  502 -0.46111715542E+03 -0.12469740011E+04 -0.37450746164E+03  0.13812418431E+04  0.25500000920E-02 0.  1.
</event>
<event>
 5   0  0.6017625E-08  0.2998805E+04  0.7818609E-02  0.8244072E-01
        4   -1    0    0  501    0  0.00000000000E+00  0.00000000000E+00  0.13115247279E+04  0.13115253428E+04  0.12699999809E+01 0. -1.
       -4   -1    0    0    0  501  0.00000000000E+00  0.00000000000E+00 -0.17141930871E+04  0.17141935576E+04  0.12699999809E+01 0.  1.
    10030    2    1    2    0    0  0.00000000000E+00  0.00000000000E+00 -0.40266835922E+03  0.30257189004E+04  0.29988052716E+04 0.  0.
        4    1    3    3  502    0  0.29707877399E+03  0.14610308022E+04 -0.40720578818E+02  0.14914846903E+04  0.12699999809E+01 0. -1.
       -4    1    3    3    0  502 -0.29707877399E+03 -0.14610308022E+04 -0.36194778040E+03  0.15342342101E+04  0.12699999809E+01 0.  1.
</event>
<event>
 5   0  0.1817566E-07  0.3000845E+04  0.7818609E-02  0.8243490E-01
       -2   -1    0    0    0  501  0.00000000000E+00  0.00000000000E+00  0.14032729479E+04  0.14032729479E+04  0.25500000920E-02 0.  1.
        2   -1    0    0  501    0  0.00000000000E+00  0.00000000000E+00 -0.16042976026E+04  0.16042976026E+04  0.25500000920E-02 0. -1.
    10030    2    1    2    0    0  0.00000000000E+00  0.00000000000E+00 -0.20102465472E+03  0.30075705504E+04  0.30008448317E+04 0.  0.
        1    1    3    3  502    0 -0.41157171717E+03 -0.11930547492E+04 -0.91380905333E+03  0.15581456604E+04  0.50400001928E-02 0.  1.
       -1    1    3    3    0  502  0.41157171717E+03  0.11930547492E+04  0.71278439862E+03  0.14494248901E+04  0.50400001928E-02 0. -1.
</event>
<event>
 5   0  0.1817566E-07  0.2999606E+04  0.7818609E-02  0.8243844E-01
        2   -1    0    0  501    0  0.00000000000E+00  0.00000000000E+00  0.25366971173E+04  0.25366971173E+04  0.25500000920E-02 0.  1.
       -2   -1    0    0    0  501  0.00000000000E+00  0.00000000000E+00 -0.88674697261E+03  0.88674697261E+03  0.25500000920E-02 0. -1.
    10030    2    1    2    0    0  0.00000000000E+00  0.00000000000E+00  0.16499501447E+04  0.34234440899E+04  0.29996056335E+04 0.  0.
        1    1    3    3  502    0 -0.44745633874E+03 -0.40475184925E+03 -0.74212618458E+03  0.95644785975E+03  0.50400001928E-02 0. -1.
       -1    1    3    3    0  502  0.44745633874E+03  0.40475184925E+03  0.23920763293E+04  0.24669962302E+04  0.50400001928E-02 0.  1.
</event>
<event>
 5   0  0.1813720E-07  0.2994833E+04  0.7818609E-02  0.8245208E-01
       -2   -1    0    0    0  501  0.00000000000E+00  0.00000000000E+00  0.13607749206E+04  0.13607749206E+04  0.25500000920E-02 0. -1.
        2   -1    0    0  501    0  0.00000000000E+00  0.00000000000E+00 -0.16477784911E+04  0.16477784911E+04  0.25500000920E-02 0.  1.
    10030    2    1    2    0    0  0.00000000000E+00  0.00000000000E+00 -0.28700357046E+03  0.30085534117E+04  0.29948326467E+04 0.  0.
        3    1    3    3  502    0 -0.12462275986E+04  0.67331258074E+03 -0.63134229095E+03  0.15508146754E+04  0.10100000352E+00 0.  1.
       -3    1    3    3    0  502  0.12462275986E+04 -0.67331258074E+03  0.34433872049E+03  0.14577387364E+04  0.10100000352E+00 0. -1.
</event>
<event>
 5   0  0.6525507E-08  0.2999533E+04  0.7818609E-02  0.8243864E-01
        1   -1    0    0  501    0  0.00000000000E+00  0.00000000000E+00  0.11362149909E+04  0.11362149909E+04  0.50400001928E-02 0. -1.
       -1   -1    0    0    0  501  0.00000000000E+00  0.00000000000E+00 -0.19796421174E+04  0.19796421174E+04  0.50400001928E-02 0.  1.
    10030    2    1    2    0    0  0.00000000000E+00  0.00000000000E+00 -0.84342712654E+03  0.31158571083E+04  0.29995326638E+04 0.  0.
        4    1    3    3  502    0  0.29366589362E+03  0.13327289454E+04  0.22441425702E+03  0.13830290925E+04  0.12699999809E+01 0. -1.
       -4    1    3    3    0  502 -0.29366589362E+03 -0.13327289454E+04 -0.10678413836E+04  0.17328280158E+04  0.12699999809E+01 0.  1.
</event>
<event>
 5   0  0.6525507E-08  0.2999207E+04  0.7818609E-02  0.8243957E-01
        1   -1    0    0  501    0  0.00000000000E+00  0.00000000000E+00  0.14656561723E+04  0.14656561723E+04  0.50400001928E-02 0. -1.
       -1   -1    0    0    0  501  0.00000000000E+00  0.00000000000E+00 -0.15343370669E+04  0.15343370669E+04  0.50400001928E-02 0.  1.
    10030    2    1    2    0    0  0.00000000000E+00  0.00000000000E+00 -0.68680894559E+02  0.29999932392E+04  0.29992069568E+04 0.  0.
        4    1    3    3  502    0  0.26081309790E+03 -0.35617446469E+03  0.13991874832E+04  0.14671778854E+04  0.12699999809E+01 0. -1.
       -4    1    3    3    0  502 -0.26081309790E+03  0.35617446469E+03 -0.14678683778E+04  0.15328153538E+04  0.12699999809E+01 0.  1.
</event>
<event>
 5   0  0.6374748E-08  0.3000127E+04  0.7818609E-02  0.8243695E-01
       -1   -1    0    0    0  501  0.00000000000E+00  0.00000000000E+00  0.16137147592E+04  0.16137147592E+04  0.50400001928E-02 0.  1.
        1   -1    0    0  501    0  0.00000000000E+00  0.00000000000E+00 -0.13944161436E+04  0.13944161436E+04  0.50400001928E-02 0. -1.
    10030    2    1    2    0    0  0.00000000000E+00  0.00000000000E+00  0.21929861561E+03  0.30081309029E+04  0.30001266050E+04 0.  0.
        1    1    3    3  502    0 -0.58499202188E+03 -0.73408415961E+03 -0.10635556575E+04  0.14185365190E+04  0.50400001928E-02 0.  1.
       -1    1    3    3    0  502  0.58499202188E+03  0.73408415961E+03  0.12828542731E+04  0.15895943839E+04  0.50400001928E-02 0. -1.
</event>
<event>
 5   0  0.1914439E-07  0.3016026E+04  0.7818609E-02  0.8239169E-01
        2   -1    0    0  501    0  0.00000000000E+00  0.00000000000E+00  0.18218104168E+04  0.18218104168E+04  0.25500000920E-02 0. -1.
       -2   -1    0    0    0  501  0.00000000000E+00  0.00000000000E+00 -0.12482657885E+04  0.12482657885E+04  0.25500000920E-02 0.  1.
    10030    2    1    2    0    0  0.00000000000E+00  0.00000000000E+00  0.57354462834E+03  0.30700762053E+04  0.30160262708E+04 0.  0.
        5    1    3    3  502    0  0.17762542522E+03 -0.35681512655E+03  0.17672135078E+04  0.18116107469E+04  0.46999998093E+01 0. -1.
       -5    1    3    3    0  502 -0.17762542522E+03  0.35681512655E+03 -0.11936688795E+04  0.12584654584E+04  0.46999998093E+01 0.  1.
</event>
<event>
 5   0  0.6374748E-08  0.3000236E+04  0.7818609E-02  0.8243664E-01
       -1   -1    0    0    0  501  0.00000000000E+00  0.00000000000E+00  0.87826063446E+03  0.87826063447E+03  0.50400001928E-02 0. -1.
        1   -1    0    0  501    0  0.00000000000E+00  0.00000000000E+00 -0.25622847411E+04  0.25622847411E+04  0.50400001928E-02 0.  1.
    10030    2    1    2    0    0  0.00000000000E+00  0.00000000000E+00 -0.16840241066E+04  0.34405453756E+04  0.30002358723E+04 0.  0.
        1    1    3    3  502    0  0.21542728439E+03  0.13237502413E+04 -0.16126730521E+04  0.20974837280E+04  0.50400001928E-02 0.  1.
       -1    1    3    3    0  502 -0.21542728439E+03 -0.13237502413E+04 -0.71351054535E+02  0.13430616476E+04  0.50400001928E-02 0. -1.
</event>
<event>
 5   0  0.1914439E-07  0.2997643E+04  0.7818609E-02  0.8244404E-01
       -2   -1    0    0    0  501  0.00000000000E+00  0.00000000000E+00  0.15371764855E+04  0.15371764855E+04  0.25500000920E-02 0. -1.
        2   -1    0    0  501    0  0.00000000000E+00  0.00000000000E+00 -0.14614232396E+04  0.14614232396E+04  0.25500000920E-02 0.  1.
    10030    2    1    2    0    0  0.00000000000E+00  0.00000000000E+00  0.75753245910E+02  0.29985997251E+04  0.29976427000E+04 0.  0.
        5    1    3    3  502    0 -0.57048918971E+03 -0.11105278698E+04  0.86742618257E+03  0.15202566682E+04  0.46999998093E+01 0.  1.
       -5    1    3    3    0  502  0.57048918971E+03  0.11105278698E+04 -0.79167293666E+03  0.14783430568E+04  0.46999998093E+01 0. -1.
</event>
<event>
 5   0  0.1817566E-07  0.3000281E+04  0.7818609E-02  0.8243651E-01
       -2   -1    0    0    0  501  0.00000000000E+00  0.00000000000E+00  0.13174330919E+04  0.13174330919E+04  0.25500000920E-02 0.  1.
        2   -1    0    0  501    0  0.00000000000E+00  0.00000000000E+00 -0.17081863006E+04  0.17081863006E+04  0.25500000920E-02 0. -1.
    10030    2    1    2    0    0  0.00000000000E+00  0.00000000000E+00 -0.39075320876E+03  0.30256193925E+04  0.30002807599E+04 0.  0.
        1    1    3    3  502    0 -0.23265637833E+03  0.16765812561E+03  0.12895341677E+04  0.13210361869E+04  0.50400001928E-02 0.  1.
       -1    1    3    3    0  502  0.23265637833E+03 -0.16765812561E+03 -0.16802873764E+04  0.17045832056E+04  0.50400001928E-02 0. -1.
</event>
<event>
 5   0  0.1810055E-07  0.3011216E+04  0.7818609E-02  0.8240535E-01
        2   -1    0    0  501    0  0.00000000000E+00  0.00000000000E+00  0.16565474970E+04  0.16565474970E+04  0.25500000920E-02 0. -1.
       -2   -1    0    0    0  501  0.00000000000E+00  0.00000000000E+00 -0.13684212869E+04  0.13684212869E+04  0.25500000920E-02 0.  1.
    10030    2    1    2    0    0  0.00000000000E+00  0.00000000000E+00  0.28812621010E+03  0.30249687838E+04  0.30112156067E+04 0.  0.
        4    1    3    3  502    0 -0.31825300133E+03 -0.13560384022E+04  0.71827515765E+03  0.15671776976E+04  0.12699999809E+01 0. -1.
       -4    1    3    3    0  502  0.31825300133E+03  0.13560384022E+04 -0.43014894755E+03  0.14577910862E+04  0.12699999809E+01 0.  1.
</event>
<event>
 5   0  0.1914439E-07  0.3000884E+04  0.7818609E-02  0.8243479E-01
        2   -1    0    0  501    0  0.00000000000E+00  0.00000000000E+00  0.24067453477E+04  0.24067453477E+04  0.25500000920E-02 0. -1.
       -2   -1    0    0    0  501  0.00000000000E+00  0.00000000000E+00 -0.93542335668E+03  0.93542335668E+03  0.25500000920E-02 0.  1.
    10030    2    1    2    0    0  0.00000000000E+00  0.00000000000E+00  0.14713219911E+04  0.33421687044E+04  0.30008837444E+04 0.  0.
        5    1    3    3  502    0 -0.11609160184E+04 -0.43330046211E+03 -0.20662702214E+03  0.12562611626E+04  0.46999998093E+01 0.  1.
       -5    1    3    3    0  502  0.11609160184E+04  0.43330046211E+03  0.16779490132E+04  0.20859075419E+04  0.46999998093E+01 0. -1.
</event>
<event>
 5   0  0.6525507E-08  0.2988671E+04  0.7818609E-02  0.8246973E-01
        1   -1    0    0  501    0  0.00000000000E+00  0.00000000000E+00  0.16233493847E+04  0.16233493848E+04  0.50400001928E-02 0. -1.
       -1   -1    0    0    0  501  0.00000000000E+00  0.00000000000E+00 -0.13755744108E+04  0.13755744108E+04  0.50400001928E-02 0.  1.
    10030    2    1    2    0    0  0.00000000000E+00  0.00000000000E+00  0.24777497395E+03  0.29989237956E+04  0.29886705228E+04 0.  0.
        4    1    3    3  502    0  0.10332251087E+04 -0.57495630332E+03 -0.79297993396E+03  0.14237091222E+04  0.12699999809E+01 0.  1.
       -4    1    3    3    0  502 -0.10332251087E+04  0.57495630332E+03  0.10407549079E+04  0.15752146734E+04  0.12699999809E+01 0. -1.
</event>
<event>
 5   0  0.1817566E-07  0.3000704E+04  0.7818609E-02  0.8243530E-01
       -2   -1    0    0    0  501  0.00000000000E+00  0.00000000000E+00  0.10644786335E+04  0.10644786335E+04  0.25500000920E-02 0. -1.
        2   -1    0    0  501    0  0.00000000000E+00  0.00000000000E+00 -0.21147025840E+04  0.21147025840E+04  0.25500000920E-02 0.  1.
    10030    2    1    2    0    0  0.00000000000E+00  0.00000000000E+00 -0.10502239505E+04  0.31791812175E+04  0.30007037287E+04 0.  0.
        1    1    3    3  502    0 -0.58752921750E+03  0.13522264696E+04 -0.81977029251E+03  0.16869292632E+04  0.50400001928E-02 0. -1.
       -1    1    3    3    0  502  0.58752921750E+03 -0.13522264696E+04 -0.23045365803E+03  0.14922519543E+04  0.50400001928E-02 0.  1.
</event>
<event>
 5   0  0.6525507E-08  0.2999760E+04  0.7818609E-02  0.8243799E-01
        1   -1    0    0  501    0  0.00000000000E+00  0.00000000000E+00  0.15885481397E+04  0.15885481397E+04  0.50400001928E-02 0.  1.
       -1   -1    0    0    0  501  0.00000000000E+00  0.00000000000E+00 -0.14161608882E+04  0.14161608882E+04  0.50400001928E-02 0. -1.
    10030    2    1    2    0    0  0.00000000000E+00  0.00000000000E+00  0.17238725153E+03  0.30047090279E+04  0.29997598200E+04 0.  0.
        4    1    3    3  502    0 -0.10207771367E+04 -0.79067004627E+02 -0.10116989704E+04  0.14393658234E+04  0.12699999809E+01 0. -1.
       -4    1    3    3    0  502  0.10207771367E+04  0.79067004627E+02  0.11840862219E+04  0.15653432045E+04  0.12699999809E+01 0.  1.
</event>
<event>
 5   0  0.6636007E-08  0.3006439E+04  0.7818609E-02  0.8241895E-01
        1   -1    0    0  501    0  0.00000000000E+00  0.00000000000E+00  0.16480899529E+04  0.16480899529E+04  0.50400001928E-02 0. -1.
       -1   -1    0    0    0  501  0.00000000000E+00  0.00000000000E+00 -0.13710836891E+04  0.13710836891E+04  0.50400001928E-02 0.  1.
    10030    2    1    2    0    0  0.00000000000E+00  0.00000000000E+00  0.27700626374E+03  0.30191736420E+04  0.30064392577E+04 0.  0.
        2    1    3    3  502    0  0.27683879975E+03  0.32999698196E+03  0.15847878710E+04  0.16422820480E+04  0.25500000920E-02 0. -1.
       -2    1    3    3    0  502 -0.27683879975E+03 -0.32999698196E+03 -0.13077816073E+04  0.13768915940E+04  0.25500000920E-02 0.  1.
</event>
<event>
 5   0  0.6636007E-08  0.2999543E+04  0.7818609E-02  0.8243861E-01
       -1   -1    0    0    0  501  0.00000000000E+00  0.00000000000E+00  0.13063612779E+04  0.13063612779E+04  0.50400001928E-02 0. -1.
        1   -1    0    0  501    0  0.00000000000E+00  0.00000000000E+00 -0.17218166739E+04  0.17218166740E+04  0.50400001928E-02 0.  1.
    10030    2    1    2    0    0  0.00000000000E+00  0.00000000000E+00 -0.41545539606E+03  0.30281779518E+04  0.29995430522E+04 0.  0.
        2    1    3    3  502    0  0.46565392619E+03  0.11102289150E+04  0.69516628689E+03  0.13902150874E+04  0.25500000920E-02 0. -1.
       -2    1    3    3    0  502 -0.46565392619E+03 -0.11102289150E+04 -0.11106216830E+04  0.16379628645E+04  0.25500000920E-02 0.  1.
</event>
<event>
 5   0  0.6374748E-08  0.3000770E+04  0.7818609E-02  0.8243511E-01
       -1   -1    0    0    0  501  0.00000000000E+00  0.00000000000E+00  0.14022041983E+04  0.14022041983E+04  0.50400001928E-02 0.  1.
        1   -1    0    0  501    0  0.00000000000E+00  0.00000000000E+00 -0.16054399350E+04  0.16054399350E+04  0.50400001928E-02 0. -1.
    10030    2    1    2    0    0  0.00000000000E+00  0.00000000000E+00 -0.20323573670E+03  0.30076441333E+04  0.30007696459E+04 0.  0.
        1    1    3    3  502    0  0.62156532529E+03  0.13068102963E+04  0.29559548477E+03  0.14769811424E+04  0.50400001928E-02 0.  1.
       -1    1    3    3    0  502 -0.62156532529E+03 -0.13068102963E+04 -0.49883122147E+03  0.15306629909E+04  0.50400001928E-02 0. -1.
</event>
<event>
 5   0  0.6525507E-08  0.2993883E+04  0.7818609E-02  0.8245480E-01
        1   -1    0    0  501    0  0.00000000000E+00  0.00000000000E+00  0.23821299003E+04  0.23821299003E+04  0.50400001928E-02 0.  1.
       -1   -1    0    0    0  501  0.00000000000E+00  0.00000000000E+00 -0.94068513496E+03  0.94068513497E+03  0.50400001928E-02 0. -1.
    10030    2    1    2    0    0  0.00000000000E+00  0.00000000000E+00  0.14414447653E+04  0.33228150353E+04  0.29938832220E+04 0.  0.
        4    1    3    3  502    0 -0.12497017966E+04  0.82079837591E+03  0.63940594214E+03  0.16261322597E+04  0.12699999809E+01 0.  1.
       -4    1    3    3    0  502  0.12497017966E+04 -0.82079837591E+03  0.80203882321E+03  0.16966827756E+04  0.12699999809E+01 0. -1.
</event>
<event>
 5   0  0.1810055E-07  0.2999899E+04  0.7818609E-02  0.8243760E-01
        2   -1    0    0  501    0  0.00000000000E+00  0.00000000000E+00  0.16123633136E+04  0.16123633136E+04  0.25500000920E-02 0.  1.
       -2   -1    0    0    0  501  0.00000000000E+00  0.00000000000E+00 -0.13953728862E+04  0.13953728862E+04  0.25500000920E-02 0. -1.
    10030    2    1    2    0    0  0.00000000000E+00  0.00000000000E+00  0.21699042738E+03  0.30077361999E+04  0.29998986987E+04 0.  0.
        4    1    3    3  502    0 -0.14823706803E+04 -0.10879014600E+03 -0.93496533915E+02  0.14892955867E+04  0.12699999809E+01 0.  1.
       -4    1    3    3    0  502  0.14823706803E+04  0.10879014600E+03  0.31048696130E+03  0.15184406132E+04  0.12699999809E+01 0. -1.
</event>
<event>
 5   0  0.1810055E-07  0.3001492E+04  0.7818609E-02  0.8243305E-01
       -2   -1    0    0    0  501  0.00000000000E+00  0.00000000000E+00  0.13300655539E+04  0.13300655539E+04  0.25500000920E-02 0. -1.
        2   -1    0    0  501    0  0.00000000000E+00  0.00000000000E+00 -0.16933293046E+04  0.16933293046E+04  0.25500000920E-02 0.  1.
    10030    2    1    2    0    0  0.00000000000E+00  0.00000000000E+00 -0.36326375074E+03  0.30233948585E+04  0.30014922818E+04 0.  0.
        4    1    3    3  502    0  0.47586854472E+03  0.10649672616E+04 -0.11327846392E+04  0.16259793331E+04  0.12699999809E+01 0.  1.
       -4    1    3    3    0  502 -0.47586854472E+03 -0.10649672616E+04  0.76952088843E+03  0.13974155254E+04  0.12699999809E+01 0. -1.
</event>
<event>
 5   0  0.6464436E-08  0.2999394E+04  0.7818609E-02  0.8243904E-01
       -1   -1    0    0    0  501  0.00000000000E+00  0.00000000000E+00  0.96777642511E+03  0.96777642512E+03  0.50400001928E-02 0.  1.
        1   -1    0    0  501    0  0.00000000000E+00  0.00000000000E+00 -0.23239787233E+04  0.23239787233E+04  0.50400001928E-02 0. -1.
    10030    2    1    2    0    0  0.00000000000E+00  0.00000000000E+00 -0.13562022982E+04  0.32917551484E+04  0.29993944862E+04 0.  0.
        5    1    3    3  502    0 -0.55839797176E+03 -0.30848789953E+03  0.81143189223E+03  0.10321903336E+04  0.46999998093E+01 0.  1.
       -5    1    3    3    0  502  0.55839797176E+03  0.30848789953E+03 -0.21676341904E+04  0.22595648148E+04  0.46999998093E+01 0. -1.
</event>
<event>
 5   0  0.1821305E-07  0.2999594E+04  0.7818609E-02  0.8243847E-01
        2   -1    0    0  501    0  0.00000000000E+00  0.00000000000E+00  0.23124593695E+04  0.23124593695E+04  0.25500000920E-02 0. -1.
       -2   -1    0    0    0  501  0.00000000000E+00  0.00000000000E+00 -0.97272673677E+03  0.97272673677E+03  0.25500000920E-02 0.  1.
    10030    2    1    2    0    0  0.00000000000E+00  0.00000000000E+00  0.13397326328E+04  0.32851861063E+04  0.29995940102E+04 0.  0.
        2    1    3    3  502    0 -0.25781899124E+03  0.10215529750E+04  0.18388974228E+04  0.21193359442E+04  0.25500000920E-02 0. -1.
       -2    1    3    3    0  502  0.25781899124E+03 -0.10215529750E+04 -0.49916479000E+03  0.11658501621E+04  0.25500000920E-02 0.  1.
</event>
<event>
 5   0  0.6464436E-08  0.3002201E+04  0.7818609E-02  0.8243103E-01
        1   -1    0    0  501    0  0.00000000000E+00  0.00000000000E+00  0.19327955140E+04  0.19327955140E+04  0.50400001928E-02 0.  1.
       -1   -1    0    0    0  501  0.00000000000E+00  0.00000000000E+00 -0.11658255608E+04  0.11658255608E+04  0.50400001928E-02 0. -1.
    10030    2    1    2    0    0  0.00000000000E+00  0.00000000000E+00  0.76696995325E+03  0.30986210748E+04  0.30022008021E+04 0.  0.
        5    1    3    3  502    0 -0.34698896256E+03  0.38963196819E+03  0.18361925359E+04  0.19088843678E+04  0.46999998093E+01 0.  1.
       -5    1    3    3    0  502  0.34698896256E+03 -0.38963196819E+03 -0.10692225826E+04  0.11897367070E+04  0.46999998093E+01 0. -1.
</event>
<event>
 5   0  0.1817566E-07  0.3001483E+04  0.7818609E-02  0.8243307E-01
        2   -1    0    0  501    0  0.00000000000E+00  0.00000000000E+00  0.21639189788E+04  0.21639189788E+04  0.25500000920E-02 0.  1.
       -2   -1    0    0    0  501  0.00000000000E+00  0.00000000000E+00 -0.10408086222E+04  0.10408086222E+04  0.25500000920E-02 0. -1.
    10030    2    1    2    0    0  0.00000000000E+00  0.00000000000E+00  0.11231103566E+04  0.32047276010E+04  0.30014833205E+04 0.  0.
        1    1    3    3  502    0 -0.76182761345E+03 -0.18370302709E+03  0.19281036761E+04  0.20812765075E+04  0.50400001928E-02 0.  1.
       -1    1    3    3    0  502  0.76182761345E+03  0.18370302709E+03 -0.80499331958E+03  0.11234510934E+04  0.50400001928E-02 0. -1.
</event>
<event>
 5   0  0.1810055E-07  0.2999439E+04  0.7818609E-02  0.8243891E-01
       -2   -1    0    0    0  501  0.00000000000E+00  0.00000000000E+00  0.12456772741E+04  0.12456772741E+04  0.25500000920E-02 0. -1.
        2   -1    0    0  501    0  0.00000000000E+00  0.00000000000E+00 -0.18055706858E+04  0.18055706858E+04  0.25500000920E-02 0.  1.
    10030    2    1    2    0    0  0.00000000000E+00  0.00000000000E+00 -0.55989341165E+03  0.30512479599E+04  0.29994388609E+04 0.  0.
        4    1    3    3  502    0 -0.70803324269E+03  0.11799273159E+04  0.32669026668E+03  0.14143082008E+04  0.12699999809E+01 0.  1.
       -4    1    3    3    0  502  0.70803324269E+03 -0.11799273159E+04 -0.88658367833E+03  0.16369397591E+04  0.12699999809E+01 0. -1.
</event>
<event>
 5   0  0.6464436E-08  0.3000852E+04  0.7818609E-02  0.8243488E-01
       -1   -1    0    0    0  501  0.00000000000E+00  0.00000000000E+00  0.14276773206E+04  0.14276773206E+04  0.50400001928E-02 0.  1.
        1   -1    0    0  501    0  0.00000000000E+00  0.00000000000E+00 -0.15768820322E+04  0.15768820322E+04  0.50400001928E-02 0. -1.
    10030    2    1    2    0    0  0.00000000000E+00  0.00000000000E+00 -0.14920471158E+03  0.30045593528E+04  0.30008523553E+04 0.  0.
        5    1    3    3  502    0  0.88475602187E+03  0.10798247867E+04  0.47602412355E+03  0.14749358781E+04  0.46999998093E+01 0.  1.
       -5    1    3    3    0  502 -0.88475602187E+03 -0.10798247867E+04 -0.62522883513E+03  0.15296234747E+04  0.46999998093E+01 0. -1.
</event>
<event>
 5   0  0.1810055E-07  0.2997215E+04  0.7818609E-02  0.8244527E-01
       -2   -1    0    0    0  501  0.00000000000E+00  0.00000000000E+00  0.17971053696E+04  0.17971053696E+04  0.25500000920E-02 0. -1.
        2   -1    0    0  501    0  0.00000000000E+00  0.00000000000E+00 -0.12496901640E+04  0.12496901640E+04  0.25500000920E-02 0.  1.
    10030    2    1    2    0    0  0.00000000000E+00  0.00000000000E+00  0.54741520566E+03  0.30467955336E+04  0.29972153103E+04 0.  0.
        4    1    3    3  502    0 -0.10666122683E+04 -0.11215350814E+03  0.13377233125E+04  0.17145685796E+04  0.12699999809E+01 0. -1.
       -4    1    3    3    0  502  0.10666122683E+04  0.11215350814E+03 -0.79030810687E+03  0.13322269540E+04  0.12699999809E+01 0.  1.
</event>
<event>
 5   0  0.1914439E-07  0.3004665E+04  0.7818609E-02  0.8242400E-01
        2   -1    0    0  501    0  0.00000000000E+00  0.00000000000E+00  0.80143187393E+03  0.80143187393E+03  0.25500000920E-02 0. -1.
       -2   -1    0    0    0  501  0.00000000000E+00  0.00000000000E+00 -0.28162136166E+04  0.28162136166E+04  0.25500000920E-02 0.  1.
    10030    2    1    2    0    0  0.00000000000E+00  0.00000000000E+00 -0.20147817426E+04  0.36176454905E+04  0.30046652766E+04 0.  0.
        5    1    3    3  502    0 -0.78628977173E+03  0.20695930100E+03  0.51362030910E+03  0.96172328105E+03  0.46999998093E+01 0. -1.
       -5    1    3    3    0  502  0.78628977173E+03 -0.20695930100E+03 -0.25284020517E+04  0.26559222094E+04  0.46999998093E+01 0.  1.
</event>
<event>
 5   0  0.1817566E-07  0.2998913E+04  0.7818609E-02  0.8244041E-01
        2   -1    0    0  501    0  0.00000000000E+00  0.00000000000E+00  0.22660464554E+04  0.22660464554E+04  0.25500000920E-02 0.  1.
       -2   -1    0    0    0  501  0.00000000000E+00  0.00000000000E+00 -0.99219916872E+03  0.99219916873E+03  0.25500000920E-02 0. -1.
    10030    2    1    2    0    0  0.00000000000E+00  0.00000000000E+00  0.12738472867E+04  0.32582456242E+04  0.29989127426E+04 0.  0.
        1    1    3    3  502    0 -0.35144760950E+03  0.14407382993E+04  0.39611019749E+03  0.15349741229E+04  0.50400001928E-02 0.  1.
       -1    1    3    3    0  502  0.35144760950E+03 -0.14407382993E+04  0.87773708922E+03  0.17232715013E+04  0.50400001928E-02 0. -1.
</event>
<event>
 5   0  0.6525507E-08  0.3001127E+04  0.7818609E-02  0.8243409E-01
        1   -1    0    0  501    0  0.00000000000E+00  0.00000000000E+00  0.18805289445E+04  0.18805289446E+04  0.50400001928E-02 0.  1.
       -1   -1    0    0    0  501  0.00000000000E+00  0.00000000000E+00 -0.11973711834E+04  0.11973711834E+04  0.50400001928E-02 0. -1.
    10030    2    1    2    0    0  0.00000000000E+00  0.00000000000E+00  0.68315776117E+03  0.30779001279E+04  0.30011272334E+04 0.  0.
        4    1    3    3  502    0  0.75211678672E+03  0.12936931737E+04  0.22752304619E+03  0.15136347109E+04  0.12699999809E+01 0.  1.
       -4    1    3    3    0  502 -0.75211678672E+03 -0.12936931737E+04  0.45563471497E+03  0.15642654170E+04  0.12699999809E+01 0. -1.
</event>
<event>
 5   0  0.1817566E-07  0.3001182E+04  0.7818609E-02  0.8243393E-01
        2   -1    0    0  501    0  0.00000000000E+00  0.00000000000E+00  0.23282972216E+04  0.23282972216E+04  0.25500000920E-02 0. -1.
       -2   -1    0    0    0  501  0.00000000000E+00  0.00000000000E+00 -0.96713336978E+03  0.96713336978E+03  0.25500000920E-02 0.  1.
    10030    2    1    2    0    0  0.00000000000E+00  0.00000000000E+00  0.13611638518E+04  0.32954305914E+04  0.30011823922E+04 0.  0.
        1    1    3    3  502    0 -0.12900863626E+04  0.38161584848E+03  0.14104471821E+04  0.19491830936E+04  0.50400001928E-02 0. -1.
       -1    1    3    3    0  502  0.12900863626E+04 -0.38161584848E+03 -0.49283330255E+02  0.13462474978E+04  0.50400001928E-02 0.  1.
</event>
<event>
 5   0  0.6636007E-08  0.3003155E+04  0.7818609E-02  0.8242831E-01
       -1   -1    0    0    0  501  0.00000000000E+00  0.00000000000E+00  0.97642902291E+03  0.97642902292E+03  0.50400001928E-02 0.  1.
        1   -1    0    0  501    0  0.00000000000E+00  0.00000000000E+00 -0.23091644134E+04  0.23091644134E+04  0.50400001928E-02 0. -1.
    10030    2    1    2    0    0  0.00000000000E+00  0.00000000000E+00 -0.13327353905E+04  0.32855934363E+04  0.30031551088E+04 0.  0.
        2    1    3    3  502    0  0.23918094667E+03 -0.14200559319E+04 -0.11317800250E+04  0.18315819392E+04  0.25500000920E-02 0. -1.
       -2    1    3    3    0  502 -0.23918094667E+03  0.14200559319E+04 -0.20095536548E+03  0.14540114971E+04  0.25500000920E-02 0.  1.
</event>
<event>
 5   0  0.1813720E-07  0.2999255E+04  0.7818609E-02  0.8243944E-01
       -2   -1    0    0    0  501  0.00000000000E+00  0.00000000000E+00  0.75859058432E+03  0.75859058432E+03  0.25500000920E-02 0. -1.
        2   -1    0    0  501    0  0.00000000000E+00  0.00000000000E+00 -0.29645540639E+04  0.29645540640E+04  0.25500000920E-02 0.  1.
    10030    2    1    2    0    0  0.00000000000E+00  0.00000000000E+00 -0.22059634796E+04  0.37231446483E+04  0.29992551073E+04 0.  0.
        3    1    3    3  502    0 -0.69361995102E+03  0.20633371559E+03  0.52750134019E+03  0.89551097857E+03  0.10100000352E+00 0. -1.
       -3    1    3    3    0  502  0.69361995102E+03 -0.20633371559E+03 -0.27334648198E+04  0.28276336697E+04  0.10100000352E+00 0.  1.
</event>
<event>
 5   0  0.6525507E-08  0.2995599E+04  0.7818609E-02  0.8244989E-01
       -1   -1    0    0    0  501  0.00000000000E+00  0.00000000000E+00  0.15113040324E+04  0.15113040324E+04  0.50400001928E-02 0. -1.
        1   -1    0    0  501    0  0.00000000000E+00  0.00000000000E+00 -0.14844159523E+04  0.14844159523E+04  0.50400001928E-02 0.  1.
    10030    2    1    2    0    0  0.00000000000E+00  0.00000000000E+00  0.26888080136E+02  0.29957199847E+04  0.29955993153E+04 0.  0.
        4    1    3    3  502    0 -0.94923707286E+03 -0.29287329527E+03 -0.11075723075E+04  0.14877983118E+04  0.12699999809E+01 0.  1.
       -4    1    3    3    0  502  0.94923707286E+03  0.29287329527E+03  0.11344603876E+04  0.15079216729E+04  0.12699999809E+01 0. -1.
</event>
<event>
 5   0  0.6374748E-08  0.3000383E+04  0.7818609E-02  0.8243621E-01
        1   -1    0    0  501    0  0.00000000000E+00  0.00000000000E+00  0.19804032336E+04  0.19804032336E+04  0.50400001928E-02 0.  1.
       -1   -1    0    0    0  501  0.00000000000E+00  0.00000000000E+00 -0.11364226674E+04  0.11364226674E+04  0.50400001928E-02 0. -1.
    10030    2    1    2    0    0  0.00000000000E+00  0.00000000000E+00  0.84398056624E+03  0.31168259011E+04  0.30003833924E+04 0.  0.
        1    1    3    3  502    0  0.40745790753E+03  0.12903757106E+04  0.10948016786E+04  0.17405982123E+04  0.50400001928E-02 0. -1.
       -1    1    3    3    0  502 -0.40745790753E+03 -0.12903757106E+04 -0.25082111237E+03  0.13762276888E+04  0.50400001928E-02 0.  1.
</event>
<event>
 5   0  0.1817566E-07  0.2998921E+04  0.7818609E-02  0.8244039E-01
       -2   -1    0    0    0  501  0.00000000000E+00  0.00000000000E+00  0.13427619496E+04  0.13427619496E+04  0.25500000920E-02 0.  1.
        2   -1    0    0  501    0  0.00000000000E+00  0.00000000000E+00 -0.16744461101E+04  0.16744461101E+04  0.25500000920E-02 0. -1.
    10030    2    1    2    0    0  0.00000000000E+00  0.00000000000E+00 -0.33168416050E+03  0.30172080596E+04  0.29989214883E+04 0.  0.
        1    1    3    3  502    0  0.71972849196E+03 -0.62404457686E+03  0.99920942524E+03  0.13805289608E+04  0.50400001928E-02 0.  1.
       -1    1    3    3    0  502 -0.71972849196E+03  0.62404457686E+03 -0.13308935857E+04  0.16366790989E+04  0.50400001928E-02 0. -1.
</event>
<event>
 5   0  0.1810055E-07  0.3000617E+04  0.7818609E-02  0.8243555E-01
       -2   -1    0    0    0  501  0.00000000000E+00  0.00000000000E+00  0.10737174122E+04  0.10737174122E+04  0.25500000920E-02 0.  1.
        2   -1    0    0  501    0  0.00000000000E+00  0.00000000000E+00 -0.20963857455E+04  0.20963857455E+04  0.25500000920E-02 0. -1.
    10030    2    1    2    0    0  0.00000000000E+00  0.00000000000E+00 -0.10226683333E+04  0.31701031578E+04  0.30006171883E+04 0.  0.
        4    1    3    3  502    0  0.13532239727E+04  0.51902850576E+03 -0.92094279627E+03  0.17171904254E+04  0.12699999809E+01 0.  1.
       -4    1    3    3    0  502 -0.13532239727E+04 -0.51902850576E+03 -0.10172553701E+03  0.14529127324E+04  0.12699999809E+01 0. -1.
</event>
<event>
 5   0  0.6464436E-08  0.3000368E+04  0.7818609E-02  0.8243626E-01
        1   -1    0    0  501    0  0.00000000000E+00  0.00000000000E+00  0.14288901995E+04  0.14288901995E+04  0.50400001928E-02 0. -1.
       -1   -1    0    0    0  501  0.00000000000E+00  0.00000000000E+00 -0.15750346112E+04  0.15750346112E+04  0.50400001928E-02 0.  1.
    10030    2    1    2    0    0  0.00000000000E+00  0.00000000000E+00 -0.14614441174E+03  0.30039248107E+04  0.30003676574E+04 0.  0.
        5    1    3    3  502    0 -0.23317137393E+03 -0.18441659416E+02 -0.15566591229E+04  0.15741406225E+04  0.46999998093E+01 0.  1.
       -5    1    3    3    0  502  0.23317137393E+03  0.18441659416E+02  0.14105147112E+04  0.14297841882E+04  0.46999998093E+01 0. -1.
</event>
<event>
 5   0  0.1817566E-07  0.3000143E+04  0.7818609E-02  0.8243690E-01
        2   -1    0    0  501    0  0.00000000000E+00  0.00000000000E+00  0.20989952808E+04  0.20989952808E+04  0.25500000920E-02 0.  1.
       -2   -1    0    0    0  501  0.00000000000E+00  0.00000000000E+00 -0.10720432715E+04  0.10720432715E+04  0.25500000920E-02 0. -1.
    10030    2    1    2    0    0  0.00000000000E+00  0.00000000000E+00  0.10269520093E+04  0.31710385523E+04  0.30001425084E+04 0.  0.
        1    1    3    3  502    0  0.20186357398E+03  0.66663387683E+02  0.20829928764E+04  0.20938128458E+04  0.50400001928E-02 0.  1.
       -1    1    3    3    0  502 -0.20186357398E+03 -0.66663387683E+02 -0.10560408671E+04  0.10772257065E+04  0.50400001928E-02 0. -1.
</event>
<event>
 5   0  0.1813720E-07  0.3000438E+04  0.7818609E-02  0.8243606E-01
        2   -1    0    0  501    0  0.00000000000E+00  0.00000000000E+00  0.26124223637E+04  0.26124223637E+04  0.25500000920E-02 0. -1.
       -2   -1    0    0    0  501  0.00000000000E+00  0.00000000000E+00 -0.86152101694E+03  0.86152101694E+03  0.25500000920E-02 0.  1.
    10030    2    1    2    0    0  0.00000000000E+00  0.00000000000E+00  0.17509013468E+04  0.34739433807E+04  0.30004378157E+04 0.  0.
        3    1    3    3  502    0 -0.11988781628E+04  0.18850279420E+03 -0.14566784722E+03  0.12223179965E+04  0.10100000352E+00 0.  1.
       -3    1    3    3    0  502  0.11988781628E+04 -0.18850279420E+03  0.18965691940E+04  0.22516253842E+04  0.10100000352E+00 0. -1.
</event>
<event>
 5   0  0.6374748E-08  0.3000427E+04  0.7818609E-02  0.8243609E-01
       -1   -1    0    0    0  501  0.00000000000E+00  0.00000000000E+00  0.11125176280E+04  0.11125176280E+04  0.50400001928E-02 0.  1.
        1   -1    0    0  501    0  0.00000000000E+00  0.00000000000E+00 -0.20230159705E+04  0.20230159705E+04  0.50400001928E-02 0. -1.
    10030    2    1    2    0    0  0.00000000000E+00  0.00000000000E+00 -0.91049834249E+03  0.31355335985E+04  0.30004272555E+04 0.  0.
        1    1    3    3  502    0  0.11449359036E+03 -0.51715632245E+03  0.10115493100E+04  0.11418368757E+04  0.50400001928E-02 0.  1.
       -1    1    3    3    0  502 -0.11449359036E+03  0.51715632245E+03 -0.19220476525E+04  0.19936967228E+04  0.50400001928E-02 0. -1.
</event>
<event>
 5   0  0.6374748E-08  0.2998395E+04  0.7818609E-02  0.8244189E-01
        1   -1    0    0  501    0  0.00000000000E+00  0.00000000000E+00  0.78840271957E+03  0.78840271959E+03  0.50400001928E-02 0. -1.
       -1   -1    0    0    0  501  0.00000000000E+00  0.00000000000E+00 -0.28508183564E+04  0.28508183564E+04  0.50400001928E-02 0.  1.
    10030    2    1    2    0    0  0.00000000000E+00  0.00000000000E+00 -0.20624156368E+04  0.36392210760E+04  0.29983948674E+04 0.  0.
        1    1    3    3  502    0  0.49858823548E+02  0.14519204660E+04 -0.58191054223E+03  0.15649852463E+04  0.50400001928E-02 0.  1.
       -1    1    3    3    0  502 -0.49858823548E+02 -0.14519204660E+04 -0.14805050946E+04  0.20742358297E+04  0.50400001928E-02 0. -1.
</event>
<event>
 5   0  0.6679022E-08  0.3000522E+04  0.7818609E-02  0.8243582E-01
        1   -1    0    0  501    0  0.00000000000E+00  0.00000000000E+00  0.17439610611E+04  0.17439610611E+04  0.50400001928E-02 0. -1.
       -1   -1    0    0    0  501  0.00000000000E+00  0.00000000000E+00 -0.12906151288E+04  0.12906151288E+04  0.50400001928E-02 0.  1.
    10030    2    1    2    0    0  0.00000000000E+00  0.00000000000E+00  0.45334593230E+03  0.30345761900E+04  0.30005216411E+04 0.  0.
        3    1    3    3  502    0  0.11160243811E+04  0.81516788069E+03  0.81705637340E+03  0.16054875335E+04  0.10100000352E+00 0. -1.
       -3    1    3    3    0  502 -0.11160243811E+04 -0.81516788069E+03 -0.36371044111E+03  0.14290886565E+04  0.10100000352E+00 0.  1.
</event>
<event>
 5   0  0.6464436E-08  0.3011752E+04  0.7818609E-02  0.8240383E-01
        1   -1    0    0  501    0  0.00000000000E+00  0.00000000000E+00  0.25393625825E+04  0.25393625825E+04  0.50400001928E-02 0.  1.
       -1   -1    0    0    0  501  0.00000000000E+00  0.00000000000E+00 -0.89300434935E+03  0.89300434936E+03  0.50400001928E-02 0. -1.
    10030    2    1    2    0    0  0.00000000000E+00  0.00000000000E+00  0.16463582331E+04  0.34323669319E+04  0.30117515374E+04 0.  0.
        5    1    3    3  502    0  0.30724952927E+03  0.21408620794E+03 -0.83908339977E+03  0.91886790097E+03  0.46999998093E+01 0. -1.
       -5    1    3    3    0  502 -0.30724952927E+03 -0.21408620794E+03  0.24854416329E+04  0.25134990309E+04  0.46999998093E+01 0.  1.
</event>
<event>
 5   0  0.6679022E-08  0.3000331E+04  0.7818609E-02  0.8243636E-01
       -1   -1    0    0    0  501  0.00000000000E+00  0.00000000000E+00  0.15799900656E+04  0.15799900656E+04  0.50400001928E-02 0.  1.
        1   -1    0    0  501    0  0.00000000000E+00  0.00000000000E+00 -0.14243741911E+04  0.14243741912E+04  0.50400001928E-02 0. -1.
    10030    2    1    2    0    0  0.00000000000E+00  0.00000000000E+00  0.15561587444E+03  0.30043642567E+04  0.30003313628E+04 0.  0.
        3    1    3    3  502    0  0.75099337180E+03 -0.11685346992E+04  0.64516698193E+03  0.15315694018E+04  0.10100000352E+00 0. -1.
       -3    1    3    3    0  502 -0.75099337180E+03  0.11685346992E+04 -0.48955110749E+03  0.14727948550E+04  0.10100000352E+00 0.  1.
</event>
<event>
 5   0  0.1810055E-07  0.2999492E+04  0.7818609E-02  0.8243876E-01
       -2   -1    0    0    0  501  0.00000000000E+00  0.00000000000E+00  0.12852828251E+04  0.12852828251E+04  0.25500000920E-02 0.  1.
        2   -1    0    0  501    0  0.00000000000E+00  0.00000000000E+00 -0.17499950913E+04  0.17499950913E+04  0.25500000920E-02 0. -1.
    10030    2    1    2    0    0  0.00000000000E+00  0.00000000000E+00 -0.46471226617E+03  0.30352779164E+04  0.29994923803E+04 0.  0.
        4    1    3    3  502    0 -0.12234282249E+04 -0.13354662014E+03  0.63497264810E+03  0.13848477165E+04  0.12699999809E+01 0.  1.
       -4    1    3    3    0  502  0.12234282249E+04  0.13354662014E+03 -0.10996849143E+04  0.16504301999E+04  0.12699999809E+01 0. -1.
</event>
<event>
 5   0  0.1817566E-07  0.2996071E+04  0.7818609E-02  0.8244854E-01
       -2   -1    0    0    0  501  0.00000000000E+00  0.00000000000E+00  0.86674354458E+03  0.86674354458E+03  0.25500000920E-02 0. -1.
        2   -1    0    0  501    0  0.00000000000E+00  0.00000000000E+00 -0.25891286871E+04  0.25891286871E+04  0.25500000920E-02 0.  1.
    10030    2    1    2    0    0  0.00000000000E+00  0.00000000000E+00 -0.17223851426E+04  0.34558722317E+04  0.29960711445E+04 0.  0.
        1    1    3    3  502    0 -0.91248900593E+03 -0.72242288066E+02  0.50665487439E+03  0.10462094895E+04  0.50400001928E-02 0. -1.
       -1    1    3    3    0  502  0.91248900593E+03  0.72242288066E+02 -0.22290400169E+04  0.24096627422E+04  0.50400001928E-02 0.  1.
</event>
<event>
 5   0  0.6636007E-08  0.2999486E+04  0.7818609E-02  0.8243878E-01
        1   -1    0    0  501    0  0.00000000000E+00  0.00000000000E+00  0.20065983564E+04  0.20065983565E+04  0.50400001928E-02 0.  1.
       -1   -1    0    0    0  501  0.00000000000E+00  0.00000000000E+00 -0.11209167627E+04  0.11209167628E+04  0.50400001928E-02 0. -1.
    10030    2    1    2    0    0  0.00000000000E+00  0.00000000000E+00  0.88568159370E+03  0.31275151192E+04  0.29994864453E+04 0.  0.
        2    1    3    3  502    0 -0.84115134204E+03  0.65079873347E+03  0.15454041433E+04  0.18759926807E+04  0.25500000920E-02 0.  1.
       -2    1    3    3    0  502  0.84115134204E+03 -0.65079873347E+03 -0.65972254962E+03  0.12515224386E+04  0.25500000920E-02 0. -1.
</event>
<event>
 5   0  0.1914439E-07  0.2999370E+04  0.7818609E-02  0.8243911E-01
       -2   -1    0    0    0  501  0.00000000000E+00  0.00000000000E+00  0.20415094506E+04  0.20415094506E+04  0.25500000920E-02 0.  1.
        2   -1    0    0  501    0  0.00000000000E+00  0.00000000000E+00 -0.11016630848E+04  0.11016630848E+04  0.25500000920E-02 0. -1.
    10030    2    1    2    0    0  0.00000000000E+00  0.00000000000E+00  0.93984636580E+03  0.31431725354E+04  0.29993703333E+04 0.  0.
        5    1    3    3  502    0 -0.96126427159E+03  0.31391656694E+03  0.16304761942E+04  0.19186055667E+04  0.46999998093E+01 0.  1.
       -5    1    3    3    0  502  0.96126427159E+03 -0.31391656694E+03 -0.69062982843E+03  0.12245669687E+04  0.46999998093E+01 0. -1.
</event>
<event>
 5   0  0.6636007E-08  0.3000169E+04  0.7818609E-02  0.8243683E-01
       -1   -1    0    0    0  501  0.00000000000E+00  0.00000000000E+00  0.20772720654E+04  0.20772720654E+04  0.50400001928E-02 0.  1.
        1   -1    0    0  501    0  0.00000000000E+00  0.00000000000E+00 -0.10832734982E+04  0.10832734982E+04  0.50400001928E-02 0. -1.
    10030    2    1    2    0    0  0.00000000000E+00  0.00000000000E+00  0.99399856719E+03  0.31605455635E+04  0.30001691798E+04 0.  0.
        2    1    3    3  502    0  0.11834085822E+03 -0.56206825556E+02 -0.10772352123E+04  0.10851725524E+04  0.25500000920E-02 0. -1.
       -2    1    3    3    0  502 -0.11834085822E+03  0.56206825556E+02  0.20712337795E+04  0.20753730111E+04  0.25500000920E-02 0.  1.
</event>
<event>
 5   0  0.1821305E-07  0.2999261E+04  0.7818609E-02  0.8243942E-01
       -2   -1    0    0    0  501  0.00000000000E+00  0.00000000000E+00  0.25860975620E+04  0.25860975620E+04  0.25500000920E-02 0. -1.
        2   -1    0    0  501    0  0.00000000000E+00  0.00000000000E+00 -0.86960820290E+03  0.86960820290E+03  0.25500000920E-02 0.  1.
    10030    2    1    2    0    0  0.00000000000E+00  0.00000000000E+00  0.17164893591E+04  0.34557057649E+04  0.29992610113E+04 0.  0.
        2    1    3    3  502    0  0.54815803028E+03 -0.93621387526E+03 -0.33465323367E+03  0.11353265756E+04  0.25500000920E-02 0.  1.
       -2    1    3    3    0  502 -0.54815803028E+03  0.93621387526E+03  0.20511425928E+04  0.23203791894E+04  0.25500000920E-02 0. -1.
</event>
<event>
 5   0  0.1813720E-07  0.2995466E+04  0.7818609E-02  0.8245027E-01
       -2   -1    0    0    0  501  0.00000000000E+00  0.00000000000E+00  0.11058304077E+04  0.11058304077E+04  0.25500000920E-02 0.  1.
        2   -1    0    0  501    0  0.00000000000E+00  0.00000000000E+00 -0.20285250873E+04  0.20285250873E+04  0.25500000920E-02 0. -1.
    10030    2    1    2    0    0  0.00000000000E+00  0.00000000000E+00 -0.92269467956E+03  0.31343554950E+04  0.29954663906E+04 0.  0.
        3    1    3    3  502    0 -0.44064120399E+03 -0.11210800001E+04  0.46998913823E+03  0.12930099913E+04  0.10100000352E+00 0.  1.
       -3    1    3    3    0  502  0.44064120399E+03  0.11210800001E+04 -0.13926838178E+04  0.18413455037E+04  0.10100000352E+00 0. -1.
</event>
<event>
 5   0  0.1817566E-07  0.2995518E+04  0.7818609E-02  0.8245012E-01
       -2   -1    0    0    0  501  0.00000000000E+00  0.00000000000E+00  0.21695291538E+04  0.21695291538E+04  0.25500000920E-02 0.  1.
        2   -1    0    0  501    0  0.00000000000E+00  0.00000000000E+00 -0.10339951339E+04  0.10339951339E+04  0.25500000920E-02 0. -1.
    10030    2    1    2    0    0  0.00000000000E+00  0.00000000000E+00  0.11355340200E+04  0.32035242877E+04  0.29955183778E+04 0.  0.
        1    1    3    3  502    0  0.22535784980E+03  0.14614026206E+04  0.31289294638E+03  0.15114184648E+04  0.50400001928E-02 0. -1.
       -1    1    3    3    0  502 -0.22535784980E+03 -0.14614026206E+04  0.82264107358E+03  0.16921058229E+04  0.50400001928E-02 0.  1.
</event>
<event>
 5   0  0.1810055E-07  0.3000530E+04  0.7818609E-02  0.8243580E-01
        2   -1    0    0  501    0  0.00000000000E+00  0.00000000000E+00  0.12768460375E+04  0.12768460375E+04  0.25500000920E-02 0. -1.
       -2   -1    0    0    0  501  0.00000000000E+00  0.00000000000E+00 -0.17627766180E+04  0.17627766180E+04  0.25500000920E-02 0.  1.
    10030    2    1    2    0    0  0.00000000000E+00  0.00000000000E+00 -0.48593058046E+03  0.30396226556E+04  0.30005295131E+04 0.  0.
        4    1    3    3  502    0 -0.42562623198E+02  0.54056007434E+03 -0.16600386110E+04  0.17463523624E+04  0.12699999809E+01 0.  1.
       -4    1    3    3    0  502  0.42562623198E+02 -0.54056007434E+03  0.11741080305E+04  0.12932702931E+04  0.12699999809E+01 0. -1.
</event>
<event>
 5   0  0.6464436E-08  0.3008980E+04  0.7818609E-02  0.8241171E-01
        1   -1    0    0  501    0  0.00000000000E+00  0.00000000000E+00  0.15707423510E+04  0.15707423510E+04  0.50400001928E-02 0.  1.
       -1   -1    0    0    0  501  0.00000000000E+00  0.00000000000E+00 -0.14410322089E+04  0.14410322089E+04  0.50400001928E-02 0. -1.
    10030    2    1    2    0    0  0.00000000000E+00  0.00000000000E+00  0.12971014210E+03  0.30117745599E+04  0.30089801061E+04 0.  0.
        5    1    3    3  502    0  0.63922961663E+03  0.61442414425E+03  0.12814412748E+04  0.15582828249E+04  0.46999998093E+01 0.  1.
       -5    1    3    3    0  502 -0.63922961663E+03 -0.61442414425E+03 -0.11517311327E+04  0.14534917350E+04  0.46999998093E+01 0. -1.
</event>
<event>
 5   0  0.6525507E-08  0.3005659E+04  0.7818609E-02  0.8242117E-01
        1   -1    0    0  501    0  0.00000000000E+00  0.00000000000E+00  0.26073079239E+04  0.26073079239E+04  0.50400001928E-02 0.  1.
       -1   -1    0    0    0  501  0.00000000000E+00  0.00000000000E+00 -0.86621780996E+03  0.86621780998E+03  0.50400001928E-02 0. -1.
    10030    2    1    2    0    0  0.00000000000E+00  0.00000000000E+00  0.17410901139E+04  0.34735257339E+04  0.30056590357E+04 0.  0.
        4    1    3    3  502    0 -0.34537775430E+03 -0.14625235035E+04  0.88822915414E+03  0.17456269460E+04  0.12699999809E+01 0.  1.
       -4    1    3    3    0  502  0.34537775430E+03  0.14625235035E+04  0.85286095980E+03  0.17278987879E+04  0.12699999809E+01 0. -1.
</event>
<event>
 5   0  0.6464436E-08  0.3000216E+04  0.7818609E-02  0.8243669E-01
       -1   -1    0    0    0  501  0.00000000000E+00  0.00000000000E+00  0.77479446937E+03  0.77479446939E+03  0.50400001928E-02 0.  1.
        1   -1    0    0  501    0  0.00000000000E+00  0.00000000000E+00 -0.29044139272E+04  0.29044139272E+04  0.50400001928E-02 0. -1.
    10030    2    1    2    0    0  0.00000000000E+00  0.00000000000E+00 -0.21296194578E+04  0.36792083966E+04  0.30002158906E+04 0.  0.
        5    1    3    3  502    0  0.10029468353E+04 -0.87357306408E+03 -0.19155481614E+04  0.23320332548E+04  0.46999998093E+01 0. -1.
       -5    1    3    3    0  502 -0.10029468353E+04  0.87357306408E+03 -0.21407129640E+03  0.13471751418E+04  0.46999998093E+01 0.  1.
</event>
<event>
 5   0  0.1813720E-07  0.3002314E+04  0.7818609E-02  0.8243071E-01
       -2   -1    0    0    0  501  0.00000000000E+00  0.00000000000E+00  0.11200762400E+04  0.11200762400E+04  0.25500000920E-02 0.  1.
        2   -1    0    0  501    0  0.00000000000E+00  0.00000000000E+00 -0.20118914871E+04  0.20118914871E+04  0.25500000920E-02 0. -1.
    10030    2    1    2    0    0  0.00000000000E+00  0.00000000000E+00 -0.89181524706E+03  0.31319677271E+04  0.30023136760E+04 0.  0.
        3    1    3    3  502    0 -0.68807668509E+03  0.82902225854E+03  0.64457942260E+03  0.12554720515E+04  0.10100000352E+00 0.  1.
       -3    1    3    3    0  502  0.68807668509E+03 -0.82902225854E+03 -0.15363946697E+04  0.18764956757E+04  0.10100000352E+00 0. -1.
</event>
<event>
 5   0  0.1821305E-07  0.3000160E+04  0.7818609E-02  0.8243685E-01
       -2   -1    0    0    0  501  0.00000000000E+00  0.00000000000E+00  0.68830884229E+03  0.68830884229E+03  0.25500000920E-02 0. -1.
        2   -1    0    0  501    0  0.00000000000E+00  0.00000000000E+00 -0.32692297079E+04  0.32692297079E+04  0.25500000920E-02 0.  1.
    10030    2    1    2    0    0  0.00000000000E+00  0.00000000000E+00 -0.25809208656E+04  0.39575385502E+04  0.30001598060E+04 0.  0.
        2    1    3    3  502    0 -0.36196082654E+03 -0.18824014762E+03 -0.31946391704E+04  0.32205852608E+04  0.25500000920E-02 0.  1.
       -2    1    3    3    0  502  0.36196082654E+03  0.18824014762E+03  0.61371830477E+03  0.73695328939E+03  0.25500000920E-02 0. -1.
</event>
<event>
 5   0  0.1914439E-07  0.3000538E+04  0.7818609E-02  0.8243577E-01
        2   -1    0    0  501    0  0.00000000000E+00  0.00000000000E+00  0.12798404246E+04  0.12798404246E+04  0.25500000920E-02 0.  1.
       -2   -1    0    0    0  501  0.00000000000E+00  0.00000000000E+00 -0.17586625467E+04  0.17586625467E+04  0.25500000920E-02 0. -1.
    10030    2    1    2    0    0  0.00000000000E+00  0.00000000000E+00 -0.47882212206E+03  0.30385029713E+04  0.30005382320E+04 0.  0.
        5    1    3    3  502    0  0.13368282420E+04  0.62623806056E+03  0.31369819562E+02  0.14765805134E+04  0.46999998093E+01 0.  1.
       -5    1    3    3    0  502 -0.13368282420E+04 -0.62623806056E+03 -0.51019194162E+03  0.15619224578E+04  0.46999998093E+01 0. -1.
</event>
<event>
 5   0  0.6525507E-08  0.3000108E+04  0.7818609E-02  0.8243700E-01
        1   -1    0    0  501    0  0.00000000000E+00  0.00000000000E+00  0.12526729051E+04  0.12526729051E+04  0.50400001928E-02 0. -1.
       -1   -1    0    0    0  501  0.00000000000E+00  0.00000000000E+00 -0.17962884037E+04  0.17962884037E+04  0.50400001928E-02 0.  1.
    10030    2    1    2    0    0  0.00000000000E+00  0.00000000000E+00 -0.54361549862E+03  0.30489613087E+04  0.30001078734E+04 0.  0.
        4    1    3    3  502    0  0.80557172814E+03 -0.12610599954E+04 -0.16549999062E+03  0.15055264797E+04  0.12699999809E+01 0.  1.
       -4    1    3    3    0  502 -0.80557172814E+03  0.12610599954E+04 -0.37811550799E+03  0.15434348291E+04  0.12699999809E+01 0. -1.
</event>
<event>
 5   0  0.6374748E-08  0.2993568E+04  0.7818609E-02  0.8245570E-01
        1   -1    0    0  501    0  0.00000000000E+00  0.00000000000E+00  0.22273670604E+04  0.22273670604E+04  0.50400001928E-02 0. -1.
       -1   -1    0    0    0  501  0.00000000000E+00  0.00000000000E+00 -0.10058341179E+04  0.10058341179E+04  0.50400001928E-02 0.  1.
    10030    2    1    2    0    0  0.00000000000E+00  0.00000000000E+00  0.12215329425E+04  0.32332011782E+04  0.29935676256E+04 0.  0.
        1    1    3    3  502    0 -0.12988341230E+04 -0.65959116835E+03  0.98229595000E+03  0.17569678203E+04  0.50400001928E-02 0. -1.
       -1    1    3    3    0  502  0.12988341230E+04  0.65959116835E+03  0.23923699249E+03  0.14762333579E+04  0.50400001928E-02 0.  1.
</event>
<event>
 5   0  0.1821305E-07  0.2999893E+04  0.7818609E-02  0.8243761E-01
        2   -1    0    0  501    0  0.00000000000E+00  0.00000000000E+00  0.24123509498E+04  0.24123509498E+04  0.25500000920E-02 0.  1.
       -2   -1    0    0    0  501  0.00000000000E+00  0.00000000000E+00 -0.93263384745E+03  0.93263384746E+03  0.25500000920E-02 0. -1.
    10030    2    1    2    0    0  0.00000000000E+00  0.00000000000E+00  0.14797171024E+04  0.33449847973E+04  0.29998934299E+04 0.  0.
        2    1    3    3  502    0  0.46505090016E+02  0.13183810720E+04  0.15358001474E+04  0.20245921730E+04  0.25500000920E-02 0.  1.
       -2    1    3    3    0  502 -0.46505090016E+02 -0.13183810720E+04 -0.56083044993E+02  0.13203926243E+04  0.25500000920E-02 0. -1.
</event>
<event>
 5   0  0.6017625E-08  0.3003168E+04  0.7818609E-02  0.8242827E-01
       -3   -1    0    0    0  501  0.00000000000E+00  0.00000000000E+00  0.19125449967E+04  0.19125449993E+04  0.10100000352E+00 0.  1.
        3   -1    0    0  501    0  0.00000000000E+00  0.00000000000E+00 -0.11789285302E+04  0.11789285345E+04  0.10100000352E+00 0. -1.
    10030    2    1    2    0    0  0.00000000000E+00  0.00000000000E+00  0.73361646650E+03  0.30914735338E+04  0.30031675762E+04 0.  0.
        5    1    3    3  502    0 -0.12217961707E+04  0.59710186445E+03 -0.28863640346E+03  0.13901976775E+04  0.46999998093E+01 0. -1.
       -5    1    3    3    0  502  0.12217961707E+04 -0.59710186445E+03  0.10222528700E+04  0.17012758563E+04  0.46999998093E+01 0.  1.
</event>
<event>
 5   0  0.6525507E-08  0.2999588E+04  0.7818609E-02  0.8243849E-01
        1   -1    0    0  501    0  0.00000000000E+00  0.00000000000E+00  0.14544197518E+04  0.14544197518E+04  0.50400001928E-02 0.  1.
       -1   -1    0    0    0  501  0.00000000000E+00  0.00000000000E+00 -0.15465838072E+04  0.15465838072E+04  0.50400001928E-02 0. -1.
    10030    2    1    2    0    0  0.00000000000E+00  0.00000000000E+00 -0.92164055353E+02  0.30010035590E+04  0.29995879964E+04 0.  0.
        4    1    3    3  502    0 -0.19345545349E+03 -0.93194166107E+03 -0.12056976713E+04  0.15361148263E+04  0.12699999809E+01 0. -1.
       -4    1    3    3    0  502  0.19345545349E+03  0.93194166107E+03  0.11135336160E+04  0.14648887326E+04  0.12699999809E+01 0.  1.
</event>
<event>
 5   0  0.1810055E-07  0.3000684E+04  0.7818609E-02  0.8243536E-01
        2   -1    0    0  501    0  0.00000000000E+00  0.00000000000E+00  0.24164724662E+04  0.24164724662E+04  0.25500000920E-02 0. -1.
       -2   -1    0    0    0  501  0.00000000000E+00  0.00000000000E+00 -0.93153370339E+03  0.93153370339E+03  0.25500000920E-02 0.  1.
    10030    2    1    2    0    0  0.00000000000E+00  0.00000000000E+00  0.14849387628E+04  0.33480061696E+04  0.30006836192E+04 0.  0.
        4    1    3    3  502    0 -0.71557338724E+03  0.76332462245E+03 -0.45731711067E+03  0.11418626469E+04  0.12699999809E+01 0.  1.
       -4    1    3    3    0  502  0.71557338724E+03 -0.76332462245E+03  0.19422558735E+04  0.22061435227E+04  0.12699999809E+01 0. -1.
</event>
<event>
 5   0  0.6464436E-08  0.2994766E+04  0.7818609E-02  0.8245227E-01
       -1   -1    0    0    0  501  0.00000000000E+00  0.00000000000E+00  0.18848950077E+04  0.18848950077E+04  0.50400001928E-02 0. -1.
        1   -1    0    0  501    0  0.00000000000E+00  0.00000000000E+00 -0.11895387712E+04  0.11895387712E+04  0.50400001928E-02 0.  1.
    10030    2    1    2    0    0  0.00000000000E+00  0.00000000000E+00  0.69535623650E+03  0.30744337789E+04  0.29947658949E+04 0.  0.
        5    1    3    3  502    0 -0.73634968838E+03  0.92127772370E+03 -0.59945373439E+03  0.13230005206E+04  0.46999998093E+01 0. -1.
       -5    1    3    3    0  502  0.73634968838E+03 -0.92127772370E+03  0.12948099709E+04  0.17514332584E+04  0.46999998093E+01 0.  1.
</event>
<event>
 5   0  0.1813720E-07  0.2999934E+04  0.7818609E-02  0.8243750E-01
        2   -1    0    0  501    0  0.00000000000E+00  0.00000000000E+00  0.15639277137E+04  0.15639277137E+04  0.25500000920E-02 0. -1.
       -2   -1    0    0    0  501  0.00000000000E+00  0.00000000000E+00 -0.14386219134E+04  0.14386219134E+04  0.25500000920E-02 0.  1.
    10030    2    1    2    0    0  0.00000000000E+00  0.00000000000E+00  0.12530580036E+03  0.30025496271E+04  0.29999337858E+04 0.  0.
        3    1    3    3  502    0  0.11321923324E+03  0.31340943245E+03 -0.14011053622E+04  0.14401875965E+04  0.10100000352E+00 0.  1.
       -3    1    3    3    0  502 -0.11321923324E+03 -0.31340943245E+03  0.15264111625E+04  0.15623620305E+04  0.10100000352E+00 0. -1.
</event>
<event>
 5   0  0.1817566E-07  0.2983820E+04  0.7818609E-02  0.8248366E-01
       -2   -1    0    0    0  501  0.00000000000E+00  0.00000000000E+00  0.12476277884E+04  0.12476277884E+04  0.25500000920E-02 0.  1.
        2   -1    0    0  501    0  0.00000000000E+00  0.00000000000E+00 -0.17840225829E+04  0.17840225829E+04  0.25500000920E-02 0. -1.
    10030    2    1    2    0    0  0.00000000000E+00  0.00000000000E+00 -0.53639479447E+03  0.30316503713E+04  0.29838204702E+04 0.  0.
        1    1    3    3  502    0  0.61639653119E+03  0.10896386668E+03  0.11077553718E+04  0.12723756409E+04  0.50400001928E-02 0.  1.
       -1    1    3    3    0  502 -0.61639653119E+03 -0.10896386668E+03 -0.16441501662E+04  0.17592747304E+04  0.50400001928E-02 0. -1.
</event>
<event>
 5   0  0.6679022E-08  0.3001513E+04  0.7818609E-02  0.8243299E-01
        1   -1    0    0  501    0  0.00000000000E+00  0.00000000000E+00  0.16656778898E+04  0.16656778898E+04  0.50400001928E-02 0.  1.
       -1   -1    0    0    0  501  0.00000000000E+00  0.00000000000E+00 -0.13521646405E+04  0.13521646405E+04  0.50400001928E-02 0. -1.
    10030    2    1    2    0    0  0.00000000000E+00  0.00000000000E+00  0.31351324928E+03  0.30178425303E+04  0.30015134483E+04 0.  0.
        3    1    3    3  502    0  0.35682836956E+03 -0.14094247266E+04 -0.21737821510E+03  0.14700536874E+04  0.10100000352E+00 0. -1.
       -3    1    3    3    0  502 -0.35682836956E+03  0.14094247266E+04  0.53089146438E+03  0.15477888430E+04  0.10100000352E+00 0.  1.
</event>
<event>
 5   0  0.6525507E-08  0.3000047E+04  0.7818609E-02  0.8243718E-01
        1   -1    0    0  501    0  0.00000000000E+00  0.00000000000E+00  0.14672842663E+04  0.14672842663E+04  0.50400001928E-02 0.  1.
       -1   -1    0    0    0  501  0.00000000000E+00  0.00000000000E+00 -0.15334929734E+04  0.15334929735E+04  0.50400001928E-02 0. -1.
    10030    2    1    2    0    0  0.00000000000E+00  0.00000000000E+00 -0.66208707181E+02  0.30007772397E+04  0.30000467412E+04 0.  0.
        4    1    3    3  502    0  0.12901987224E+04 -0.75351796951E+03  0.99843117894E+02  0.14974552864E+04  0.12699999809E+01 0.  1.
       -4    1    3    3    0  502 -0.12901987224E+04  0.75351796951E+03 -0.16605182507E+03  0.15033219533E+04  0.12699999809E+01 0. -1.
</event>
<event>
 5   0  0.6525507E-08  0.2999766E+04  0.7818609E-02  0.8243798E-01
        1   -1    0    0  501    0  0.00000000000E+00  0.00000000000E+00  0.14491020156E+04  0.14491020156E+04  0.50400001928E-02 0. -1.
       -1   -1    0    0    0  501  0.00000000000E+00  0.00000000000E+00 -0.15524437310E+04  0.15524437310E+04  0.50400001928E-02 0.  1.
    10030    2    1    2    0    0  0.00000000000E+00  0.00000000000E+00 -0.10334171538E+03  0.30015457467E+04  0.29997662174E+04 0.  0.
        4    1    3    3  502    0 -0.10608394786E+04 -0.46203814951E+03  0.90324746162E+03  0.14678955143E+04  0.12699999809E+01 0. -1.
       -4    1    3    3    0  502  0.10608394786E+04  0.46203814951E+03 -0.10065891770E+04  0.15336502324E+04  0.12699999809E+01 0.  1.
</event>
<event>
 5   0  0.6525507E-08  0.3000707E+04  0.7818609E-02  0.8243529E-01
       -1   -1    0    0    0  501  0.00000000000E+00  0.00000000000E+00  0.19086913325E+04  0.19086913325E+04  0.50400001928E-02 0.  1.
        1   -1    0    0  501    0  0.00000000000E+00  0.00000000000E+00 -0.11793740877E+04  0.11793740877E+04  0.50400001928E-02 0. -1.
    10030    2    1    2    0    0  0.00000000000E+00  0.00000000000E+00  0.72931724479E+03  0.30880654202E+04  0.30007073160E+04 0.  0.
        4    1    3    3  502    0  0.38994101301E+02  0.14824991419E+04  0.59873419290E+03  0.15993150073E+04  0.12699999809E+01 0.  1.
       -4    1    3    3    0  502 -0.38994101301E+02 -0.14824991419E+04  0.13058305190E+03  0.14887504130E+04  0.12699999809E+01 0. -1.
</event>
<event>
 5   0  0.6679022E-08  0.2998853E+04  0.7818609E-02  0.8244059E-01
        1   -1    0    0  501    0  0.00000000000E+00  0.00000000000E+00  0.20135595765E+04  0.20135595765E+04  0.50400001928E-02 0. -1.
       -1   -1    0    0    0  501  0.00000000000E+00  0.00000000000E+00 -0.11165694937E+04  0.11165694937E+04  0.50400001928E-02 0.  1.
    10030    2    1    2    0    0  0.00000000000E+00  0.00000000000E+00  0.89699008281E+03  0.31301290703E+04  0.29988525785E+04 0.  0.
        3    1    3    3  502    0  0.45996217233E+03 -0.22306061071E+03 -0.10228057463E+04  0.11434390412E+04  0.10100000352E+00 0.  1.
       -3    1    3    3    0  502 -0.45996217233E+03  0.22306061071E+03  0.19197958291E+04  0.19866900291E+04  0.10100000352E+00 0. -1.
</event>
<event>
 5   0  0.1914439E-07  0.2999650E+04  0.7818609E-02  0.8243831E-01
        2   -1    0    0  501    0  0.00000000000E+00  0.00000000000E+00  0.26174046310E+04  0.26174046310E+04  0.25500000920E-02 0.  1.
       -2   -1    0    0    0  501  0.00000000000E+00  0.00000000000E+00 -0.85942951725E+03  0.85942951726E+03  0.25500000920E-02 0. -1.
    10030    2    1    2    0    0  0.00000000000E+00  0.00000000000E+00  0.17579751138E+04  0.34768341483E+04  0.29996498452E+04 0.  0.
        5    1    3    3  502    0 -0.56398827272E+03 -0.10733101579E+04  0.19022492486E+04  0.22558040165E+04  0.46999998093E+01 0.  1.
       -5    1    3    3    0  502  0.56398827272E+03  0.10733101579E+04 -0.14427413481E+03  0.12210301318E+04  0.46999998093E+01 0. -1.
</event>
<event>
 5   0  0.1821305E-07  0.2998897E+04  0.7818609E-02  0.8244046E-01
       -2   -1    0    0    0  501  0.00000000000E+00  0.00000000000E+00  0.20506465689E+04  0.20506465689E+04  0.25500000920E-02 0. -1.
        2   -1    0    0  501    0  0.00000000000E+00  0.00000000000E+00 -0.10964079319E+04  0.10964079319E+04  0.25500000920E-02 0.  1.
    10030    2    1    2    0    0  0.00000000000E+00  0.00000000000E+00  0.95423863698E+03  0.31470545008E+04  0.29988965729E+04 0.  0.
        2    1    3    3  502    0 -0.13776334221E+03 -0.11885087240E+04  0.14255469829E+04  0.18611061028E+04  0.25500000920E-02 0. -1.
       -2    1    3    3    0  502  0.13776334221E+03  0.11885087240E+04 -0.47130834591E+03  0.12859483980E+04  0.25500000920E-02 0.  1.
</event>
<event>
 5   0  0.6636007E-08  0.2999702E+04  0.7818609E-02  0.8243816E-01
       -1   -1    0    0    0  501  0.00000000000E+00  0.00000000000E+00  0.13534660151E+04  0.13534660151E+04  0.50400001928E-02 0. -1.
        1   -1    0    0  501    0  0.00000000000E+00  0.00000000000E+00 -0.16620688055E+04  0.16620688056E+04  0.50400001928E-02 0.  1.
    10030    2    1    2    0    0  0.00000000000E+00  0.00000000000E+00 -0.30860279041E+03  0.30155348207E+04  0.29997024140E+04 0.  0.
        2    1    3    3  502    0  0.87839106030E+03  0.61629347089E+03 -0.12077661324E+04  0.16155765311E+04  0.25500000920E-02 0.  1.
       -2    1    3    3    0  502 -0.87839106030E+03 -0.61629347089E+03  0.89916334202E+03  0.13999582896E+04  0.25500000920E-02 0. -1.
</event>
<event>
 5   0  0.6374748E-08  0.2999245E+04  0.7818609E-02  0.8243947E-01
        1   -1    0    0  501    0  0.00000000000E+00  0.00000000000E+00  0.21418489369E+04  0.21418489369E+04  0.50400001928E-02 0.  1.
       -1   -1    0    0    0  501  0.00000000000E+00  0.00000000000E+00 -0.10499652771E+04  0.10499652771E+04  0.50400001928E-02 0. -1.
    10030    2    1    2    0    0  0.00000000000E+00  0.00000000000E+00  0.10918836598E+04  0.31918142140E+04  0.29992445799E+04 0.  0.
        1    1    3    3  502    0 -0.13535919527E+04  0.54927771540E+03  0.90675292794E+03  0.17193365160E+04  0.50400001928E-02 0.  1.
       -1    1    3    3    0  502  0.13535919527E+04 -0.54927771540E+03  0.18513073184E+03  0.14724776979E+04  0.50400001928E-02 0. -1.
</event>
<event>
 5   0  0.6679022E-08  0.3000415E+04  0.7818609E-02  0.8243613E-01
        1   -1    0    0  501    0  0.00000000000E+00  0.00000000000E+00  0.16283302166E+04  0.16283302166E+04  0.50400001928E-02 0. -1.
       -1   -1    0    0    0  501  0.00000000000E+00  0.00000000000E+00 -0.13821654917E+04  0.13821654917E+04  0.50400001928E-02 0.  1.
    10030    2    1    2    0    0  0.00000000000E+00  0.00000000000E+00  0.24616472497E+03  0.30104957083E+04  0.30004145277E+04 0.  0.
        3    1    3    3  502    0  0.13280533815E+04 -0.11886479226E+03  0.81297327209E+03  0.15616594297E+04  0.10100000352E+00 0.  1.
       -3    1    3    3    0  502 -0.13280533815E+04  0.11886479226E+03 -0.56680854712E+03  0.14488362786E+04  0.10100000352E+00 0. -1.
</event>
<event>
 5   0  0.6374748E-08  0.3003090E+04  0.7818609E-02  0.8242849E-01
       -1   -1    0    0    0  501  0.00000000000E+00  0.00000000000E+00  0.14940558850E+04  0.14940558850E+04  0.50400001928E-02 0. -1.
        1   -1    0    0  501    0  0.00000000000E+00  0.00000000000E+00 -0.15090717292E+04  0.15090717292E+04  0.50400001928E-02 0.  1.
    10030    2    1    2    0    0  0.00000000000E+00  0.00000000000E+00 -0.15015844163E+02  0.30031276142E+04  0.30030900739E+04 0.  0.
        1    1    3    3  502    0 -0.62382335791E+03 -0.34855809705E+03 -0.13281262511E+04  0.15081669894E+04  0.50400001928E-02 0.  1.
       -1    1    3    3    0  502  0.62382335791E+03  0.34855809705E+03  0.13131104070E+04  0.14949606248E+04  0.50400001928E-02 0. -1.
</event>
<event>
 5   0  0.6525507E-08  0.3000194E+04  0.7818609E-02  0.8243676E-01
        1   -1    0    0  501    0  0.00000000000E+00  0.00000000000E+00  0.18211006142E+04  0.18211006142E+04  0.50400001928E-02 0. -1.
       -1   -1    0    0    0  501  0.00000000000E+00  0.00000000000E+00 -0.12356760133E+04  0.12356760133E+04  0.50400001928E-02 0.  1.
    10030    2    1    2    0    0  0.00000000000E+00  0.00000000000E+00  0.58542460093E+03  0.30567766275E+04  0.30001935583E+04 0.  0.
        4    1    3    3  502    0 -0.62366067592E+03 -0.80176530844E+03 -0.83196701710E+03  0.13129931374E+04  0.12699999809E+01 0.  1.
       -4    1    3    3    0  502  0.62366067592E+03  0.80176530844E+03  0.14173916180E+04  0.17437834901E+04  0.12699999809E+01 0. -1.
</event>
<event>
 5   0  0.6525507E-08  0.3000102E+04  0.7818609E-02  0.8243702E-01
       -1   -1    0    0    0  501  0.00000000000E+00  0.00000000000E+00  0.14747970707E+04  0.14747970708E+04  0.50400001928E-02 0.  1.
        1   -1    0    0  501    0  0.00000000000E+00  0.00000000000E+00 -0.15257377177E+04  0.15257377177E+04  0.50400001928E-02 0. -1.
    10030    2    1    2    0    0  0.00000000000E+00  0.00000000000E+00 -0.50940646976E+02  0.30005347885E+04  0.30001023428E+04 0.  0.
        4    1    3    3  502    0 -0.95081481300E+03  0.70133529106E+03 -0.94985021659E+03  0.15159607666E+04  0.12699999809E+01 0. -1.
       -4    1    3    3    0  502  0.95081481300E+03 -0.70133529106E+03  0.89890956961E+03  0.14845740218E+04  0.12699999809E+01 0.  1.
</event>
<event>
 5   0  0.6679022E-08  0.3000639E+04  0.7818609E-02  0.8243548E-01
       -1   -1    0    0    0  501  0.00000000000E+00  0.00000000000E+00  0.92837708493E+03  0.92837708494E+03  0.50400001928E-02 0. -1.
        1   -1    0    0  501    0  0.00000000000E+00  0.00000000000E+00 -0.24246165612E+04  0.24246165612E+04  0.50400001928E-02 0.  1.
    10030    2    1    2    0    0  0.00000000000E+00  0.00000000000E+00 -0.14962394763E+04  0.33529936461E+04  0.30006389021E+04 0.  0.
        3    1    3    3  502    0 -0.38518289916E+03 -0.84366860935E+02 -0.23656790624E+04  0.23983162989E+04  0.10100000352E+00 0.  1.
       -3    1    3    3    0  502  0.38518289916E+03  0.84366860935E+02  0.86943958619E+03  0.95467734720E+03  0.10100000352E+00 0. -1.
</event>
<event>
 5   0  0.1821305E-07  0.3000453E+04  0.7818609E-02  0.8243601E-01
       -2   -1    0    0    0  501  0.00000000000E+00  0.00000000000E+00  0.29617006645E+04  0.29617006645E+04  0.25500000920E-02 0. -1.
        2   -1    0    0  501    0  0.00000000000E+00  0.00000000000E+00 -0.75992832073E+03  0.75992832074E+03  0.25500000920E-02 0.  1.
    10030    2    1    2    0    0  0.00000000000E+00  0.00000000000E+00  0.22017723437E+04  0.37216289852E+04  0.30004534407E+04 0.  0.
        2    1    3    3  502    0 -0.48648091972E+03 -0.68302519127E+03  0.26438670580E+04  0.27736654661E+04  0.25500000920E-02 0. -1.
       -2    1    3    3    0  502  0.48648091972E+03  0.68302519127E+03 -0.44209471430E+03  0.94796351912E+03  0.25500000920E-02 0.  1.
</event>
<event>
 5   0  0.6464436E-08  0.2999600E+04  0.7818609E-02  0.8243845E-01
       -1   -1    0    0    0  501  0.00000000000E+00  0.00000000000E+00  0.10119750159E+04  0.10119750159E+04  0.50400001928E-02 0. -1.
        1   -1    0    0  501    0  0.00000000000E+00  0.00000000000E+00 -0.22227826207E+04  0.22227826207E+04  0.50400001928E-02 0.  1.
    10030    2    1    2    0    0  0.00000000000E+00  0.00000000000E+00 -0.12108076048E+04  0.32347576367E+04  0.29996002921E+04 0.  0.
        5    1    3    3  502    0  0.48830468717E+03 -0.15746404184E+03  0.91438593253E+03  0.10485037509E+04  0.46999998093E+01 0. -1.
       -5    1    3    3    0  502 -0.48830468717E+03  0.15746404184E+03 -0.21251935373E+04  0.21862538858E+04  0.46999998093E+01 0.  1.
</event>
<event>
 5   0  0.1817566E-07  0.3002674E+04  0.7818609E-02  0.8242968E-01
       -2   -1    0    0    0  501  0.00000000000E+00  0.00000000000E+00  0.25769660728E+04  0.25769660728E+04  0.25500000920E-02 0.  1.
        2   -1    0    0  501    0  0.00000000000E+00  0.00000000000E+00 -0.87467673794E+03  0.87467673794E+03  0.25500000920E-02 0. -1.
    10030    2    1    2    0    0  0.00000000000E+00  0.00000000000E+00  0.17022893349E+04  0.34516428108E+04  0.30026736608E+04 0.  0.
        1    1    3    3  502    0  0.41995774647E+03 -0.41514403500E+03  0.24378627129E+04  0.25083627500E+04  0.50400001928E-02 0.  1.
       -1    1    3    3    0  502 -0.41995774647E+03  0.41514403500E+03 -0.73557337800E+03  0.94328006078E+03  0.50400001928E-02 0. -1.
</event>
<event>
 5   0  0.6679022E-08  0.3001066E+04  0.7818609E-02  0.8243426E-01
       -1   -1    0    0    0  501  0.00000000000E+00  0.00000000000E+00  0.10517574051E+04  0.10517574051E+04  0.50400001928E-02 0.  1.
        1   -1    0    0  501    0  0.00000000000E+00  0.00000000000E+00 -0.21407976030E+04  0.21407976031E+04  0.50400001928E-02 0. -1.
    10030    2    1    2    0    0  0.00000000000E+00  0.00000000000E+00 -0.10890401980E+04  0.31925550081E+04  0.30010662984E+04 0.  0.
        3    1    3    3  502    0  0.13123307714E+04  0.38489240485E+03  0.11232832916E+03  0.13722142255E+04  0.10100000352E+00 0. -1.
       -3    1    3    3    0  502 -0.13123307714E+04 -0.38489240485E+03 -0.12013685271E+04  0.18203407827E+04  0.10100000352E+00 0.  1.
</event>
<event>
 5   0  0.1817566E-07  0.3001118E+04  0.7818609E-02  0.8243412E-01
        2   -1    0    0  501    0  0.00000000000E+00  0.00000000000E+00  0.15881550034E+04  0.15881550034E+04  0.25500000920E-02 0. -1.
       -2   -1    0    0    0  501  0.00000000000E+00  0.00000000000E+00 -0.14177947054E+04  0.14177947054E+04  0.25500000920E-02 0.  1.
    10030    2    1    2    0    0  0.00000000000E+00  0.00000000000E+00  0.17036029800E+03  0.30059497088E+04  0.30011182950E+04 0.  0.
        1    1    3    3  502    0  0.96379667733E+03  0.73701740534E+02 -0.10644226905E+04  0.14378218408E+04  0.50400001928E-02 0.  1.
       -1    1    3    3    0  502 -0.96379667733E+03 -0.73701740534E+02  0.12347829885E+04  0.15681278680E+04  0.50400001928E-02 0. -1.
</event>
<event>
 5   0  0.6374748E-08  0.2991585E+04  0.7818609E-02  0.8246138E-01
       -1   -1    0    0    0  501  0.00000000000E+00  0.00000000000E+00  0.19840985287E+04  0.19840985287E+04  0.50400001928E-02 0. -1.
        1   -1    0    0  501    0  0.00000000000E+00  0.00000000000E+00 -0.11276635471E+04  0.11276635471E+04  0.50400001928E-02 0.  1.
    10030    2    1    2    0    0  0.00000000000E+00  0.00000000000E+00  0.85643498167E+03  0.31117620758E+04  0.29915852551E+04 0.  0.
        1    1    3    3  502    0  0.85948320216E+03  0.29843943764E+03 -0.80675059656E+03  0.12159868411E+04  0.50400001928E-02 0.  1.
       -1    1    3    3    0  502 -0.85948320216E+03 -0.29843943764E+03  0.16631855782E+04  0.18957752347E+04  0.50400001928E-02 0. -1.
</event>
<event>
 5   0  0.1914439E-07  0.3000543E+04  0.7818609E-02  0.8243576E-01
       -2   -1    0    0    0  501  0.00000000000E+00  0.00000000000E+00  0.11469652659E+04  0.11469652659E+04  0.25500000920E-02 0. -1.
        2   -1    0    0  501    0  0.00000000000E+00  0.00000000000E+00 -0.19624090655E+04  0.19624090655E+04  0.25500000920E-02 0.  1.
    10030    2    1    2    0    0  0.00000000000E+00  0.00000000000E+00 -0.81544379966E+03  0.31093743314E+04  0.30005433079E+04 0.  0.
        5    1    3    3  502    0 -0.13314678066E+04  0.49671510215E+03  0.90615946145E+02  0.14239964018E+04  0.46999998093E+01 0. -1.
       -5    1    3    3    0  502  0.13314678066E+04 -0.49671510215E+03 -0.90605974580E+03  0.16853779296E+04  0.46999998093E+01 0.  1.
</event>
<event>
 5   0  0.6636007E-08  0.2998542E+04  0.7818609E-02  0.8244147E-01
       -1   -1    0    0    0  501  0.00000000000E+00  0.00000000000E+00  0.13488496545E+04  0.13488496545E+04  0.50400001928E-02 0.  1.
        1   -1    0    0  501    0  0.00000000000E+00  0.00000000000E+00 -0.16664670287E+04  0.16664670287E+04  0.50400001928E-02 0. -1.
    10030    2    1    2    0    0  0.00000000000E+00  0.00000000000E+00 -0.31761737426E+03  0.30153166832E+04  0.29985419630E+04 0.  0.
        2    1    3    3  502    0 -0.12146119697E+04 -0.16998049327E+03  0.70835992343E+03  0.14163154261E+04  0.25500000920E-02 0.  1.
       -2    1    3    3    0  502  0.12146119697E+04  0.16998049327E+03 -0.10259772977E+04  0.15990012572E+04  0.25500000920E-02 0. -1.
</event>
<event>
 5   0  0.1813720E-07  0.3000785E+04  0.7818609E-02  0.8243507E-01
        2   -1    0    0  501    0  0.00000000000E+00  0.00000000000E+00  0.20503233163E+04  0.20503233163E+04  0.25500000920E-02 0.  1.
       -2   -1    0    0    0  501  0.00000000000E+00  0.00000000000E+00 -0.10979621255E+04  0.10979621255E+04  0.25500000920E-02 0. -1.
    10030    2    1    2    0    0  0.00000000000E+00  0.00000000000E+00  0.95236119078E+03  0.31482854418E+04  0.30007847949E+04 0.  0.
        3    1    3    3  502    0  0.13872994412E+03 -0.45043388124E+03 -0.10182805397E+04  0.11220659278E+04  0.10100000352E+00 0. -1.
       -3    1    3    3    0  502 -0.13872994412E+03  0.45043388124E+03  0.19706417304E+04  0.20262195139E+04  0.10100000352E+00 0.  1.
</event>
<event>
 5   0  0.1821305E-07  0.2999691E+04  0.7818609E-02  0.8243819E-01
        2   -1    0    0  501    0  0.00000000000E+00  0.00000000000E+00  0.19566020780E+04  0.19566020780E+04  0.25500000920E-02 0.  1.
       -2   -1    0    0    0  501  0.00000000000E+00  0.00000000000E+00 -0.11497161804E+04  0.11497161804E+04  0.25500000920E-02 0. -1.
    10030    2    1    2    0    0  0.00000000000E+00  0.00000000000E+00  0.80688589763E+03  0.31063182584E+04  0.29996913626E+04 0.  0.
        2    1    3    3  502    0  0.11927426590E+04 -0.12982065960E+03  0.13354622758E+04  0.17952570692E+04  0.25500000920E-02 0.  1.
       -2    1    3    3    0  502 -0.11927426590E+04  0.12982065960E+03 -0.52857637819E+03  0.13110611892E+04  0.25500000920E-02 0. -1.
</event>
<event>
 5   0  0.6636007E-08  0.3004620E+04  0.7818609E-02  0.8242413E-01
        1   -1    0    0  501    0  0.00000000000E+00  0.00000000000E+00  0.20987542792E+04  0.20987542792E+04  0.50400001928E-02 0.  1.
       -1   -1    0    0    0  501  0.00000000000E+00  0.00000000000E+00 -0.10753688286E+04  0.10753688286E+04  0.50400001928E-02 0. -1.
    10030    2    1    2    0    0  0.00000000000E+00  0.00000000000E+00  0.10233854506E+04  0.31741231079E+04  0.30046197302E+04 0.  0.
        2    1    3    3  502    0  0.11320509664E+04  0.85415567159E+03 -0.12073188048E+02  0.14181914764E+04  0.25500000920E-02 0. -1.
       -2    1    3    3    0  502 -0.11320509664E+04 -0.85415567159E+03  0.10354586387E+04  0.17559316315E+04  0.25500000920E-02 0.  1.
</event>
<event>
 5   0  0.1914439E-07  0.2999119E+04  0.7818609E-02  0.8243982E-01
        2   -1    0    0  501    0  0.00000000000E+00  0.00000000000E+00  0.23609552928E+04  0.23609552928E+04  0.25500000920E-02 0.  1.
       -2   -1    0    0    0  501  0.00000000000E+00  0.00000000000E+00 -0.95244446751E+03  0.95244446751E+03  0.25500000920E-02 0. -1.
    10030    2    1    2    0    0  0.00000000000E+00  0.00000000000E+00  0.14085108252E+04  0.33133997603E+04  0.29991190751E+04 0.  0.
        5    1    3    3  502    0 -0.46733790691E+03  0.13667783103E+04  0.25935366592E+03  0.14675742171E+04  0.46999998093E+01 0. -1.
       -5    1    3    3    0  502  0.46733790691E+03 -0.13667783103E+04  0.11491571593E+04  0.18458255431E+04  0.46999998093E+01 0.  1.
</event>
<event>
 5   0  0.1914439E-07  0.3000477E+04  0.7818609E-02  0.8243595E-01
        2   -1    0    0  501    0  0.00000000000E+00  0.00000000000E+00  0.22380765388E+04  0.22380765388E+04  0.25500000920E-02 0. -1.
       -2   -1    0    0    0  501  0.00000000000E+00  0.00000000000E+00 -0.10056473318E+04  0.10056473318E+04  0.25500000920E-02 0.  1.
    10030    2    1    2    0    0  0.00000000000E+00  0.00000000000E+00  0.12324292070E+04  0.32437238706E+04  0.30004770952E+04 0.  0.
        5    1    3    3  502    0 -0.27100927062E+03  0.43789615739E+03 -0.90709405129E+03  0.10430919314E+04  0.46999998093E+01 0.  1.
       -5    1    3    3    0  502  0.27100927062E+03 -0.43789615739E+03  0.21395232583E+04  0.22006319393E+04  0.46999998093E+01 0. -1.
</event>
<event>
 5   0  0.1813720E-07  0.3000193E+04  0.7818609E-02  0.8243676E-01
       -2   -1    0    0    0  501  0.00000000000E+00  0.00000000000E+00  0.99911564129E+03  0.99911564129E+03  0.25500000920E-02 0. -1.
        2   -1    0    0  501    0  0.00000000000E+00  0.00000000000E+00 -0.22522812093E+04  0.22522812093E+04  0.25500000920E-02 0.  1.
    10030    2    1    2    0    0  0.00000000000E+00  0.00000000000E+00 -0.12531655680E+04  0.32513968506E+04  0.30001929170E+04 0.  0.
        3    1    3    3  502    0  0.11416066109E+03  0.13057147520E+04  0.16414287938E+03  0.13209339746E+04  0.10100000352E+00 0. -1.
       -3    1    3    3    0  502 -0.11416066109E+03 -0.13057147520E+04 -0.14173084474E+04  0.19304628760E+04  0.10100000352E+00 0.  1.
</event>
<event>
 5   0  0.1817566E-07  0.2996551E+04  0.7818609E-02  0.8244716E-01
        2   -1    0    0  501    0  0.00000000000E+00  0.00000000000E+00  0.18043099807E+04  0.18043099807E+04  0.25500000920E-02 0.  1.
       -2   -1    0    0    0  501  0.00000000000E+00  0.00000000000E+00 -0.12441487481E+04  0.12441487481E+04  0.25500000920E-02 0. -1.
    10030    2    1    2    0    0  0.00000000000E+00  0.00000000000E+00  0.56016123262E+03  0.30484587288E+04  0.29965513536E+04 0.  0.
        1    1    3    3  502    0  0.99175368289E+03 -0.54808959690E+03  0.12772913427E+04  0.17074691060E+04  0.50400001928E-02 0.  1.
       -1    1    3    3    0  502 -0.99175368289E+03  0.54808959690E+03 -0.71713011005E+03  0.13409896228E+04  0.50400001928E-02 0. -1.
</event>
<event>
 5   0  0.6464436E-08  0.2999537E+04  0.7818609E-02  0.8243863E-01
       -1   -1    0    0    0  501  0.00000000000E+00  0.00000000000E+00  0.13556617032E+04  0.13556617032E+04  0.50400001928E-02 0.  1.
        1   -1    0    0  501    0  0.00000000000E+00  0.00000000000E+00 -0.16591938748E+04  0.16591938748E+04  0.50400001928E-02 0. -1.
    10030    2    1    2    0    0  0.00000000000E+00  0.00000000000E+00 -0.30353217160E+03  0.30148555780E+04  0.29995370272E+04 0.  0.
        5    1    3    3  502    0  0.86250686093E+03  0.10933855691E+04  0.40773952436E+03  0.14510974115E+04  0.46999998093E+01 0.  1.
       -5    1    3    3    0  502 -0.86250686093E+03 -0.10933855691E+04 -0.71127169596E+03  0.15637581665E+04  0.46999998093E+01 0. -1.
</event>
<event>
 5   0  0.6374748E-08  0.3003351E+04  0.7818609E-02  0.8242775E-01
       -1   -1    0    0    0  501  0.00000000000E+00  0.00000000000E+00  0.28022194240E+04  0.28022194240E+04  0.50400001928E-02 0.  1.
        1   -1    0    0  501    0  0.00000000000E+00  0.00000000000E+00 -0.80472988565E+03  0.80472988566E+03  0.50400001928E-02 0. -1.
    10030    2    1    2    0    0  0.00000000000E+00  0.00000000000E+00  0.19974895384E+04  0.36069493097E+04  0.30033512726E+04 0.  0.
        1    1    3    3  502    0 -0.71345552483E+03 -0.32051332843E+03  0.25382812197E+04  0.26560532995E+04  0.50400001928E-02 0.  1.
       -1    1    3    3    0  502  0.71345552483E+03  0.32051332843E+03 -0.54079168130E+03  0.95089601019E+03  0.50400001928E-02 0. -1.
</event>
<event>
 5   0  0.1821305E-07  0.2994960E+04  0.7818609E-02  0.8245172E-01
        2   -1    0    0  501    0  0.00000000000E+00  0.00000000000E+00  0.12295926984E+04  0.12295926984E+04  0.25500000920E-02 0.  1.
       -2   -1    0    0    0  501  0.00000000000E+00  0.00000000000E+00 -0.18237309526E+04  0.18237309526E+04  0.25500000920E-02 0. -1.
    10030    2    1    2    0    0  0.00000000000E+00  0.00000000000E+00 -0.59413825418E+03  0.30533236510E+04  0.29949599417E+04 0.  0.
        2    1    3    3  502    0  0.65627705946E+03  0.70868559392E+03 -0.14637080660E+04  0.17536750418E+04  0.25500000920E-02 0. -1.
       -2    1    3    3    0  502 -0.65627705946E+03 -0.70868559392E+03  0.86956981180E+03  0.12996486092E+04  0.25500000920E-02 0.  1.
</event>
<event>
 5   0  0.6636007E-08  0.2999882E+04  0.7818609E-02  0.8243765E-01
        1   -1    0    0  501    0  0.00000000000E+00  0.00000000000E+00  0.17929736024E+04  0.17929736024E+04  0.50400001928E-02 0.  1.
       -1   -1    0    0    0  501  0.00000000000E+00  0.00000000000E+00 -0.12548000276E+04  0.12548000276E+04  0.50400001928E-02 0. -1.
    10030    2    1    2    0    0  0.00000000000E+00  0.00000000000E+00  0.53817357477E+03  0.30477736300E+04  0.29998822148E+04 0.  0.
        2    1    3    3  502    0  0.89705756567E+03  0.10999611242E+04 -0.22362618904E+03  0.14368839283E+04  0.25500000920E-02 0. -1.
       -2    1    3    3    0  502 -0.89705756567E+03 -0.10999611242E+04  0.76179976380E+03  0.16108897017E+04  0.25500000920E-02 0.  1.
</event>
<event>
 5   0  0.1817566E-07  0.3005211E+04  0.7818609E-02  0.8242244E-01
       -2   -1    0    0    0  501  0.00000000000E+00  0.00000000000E+00  0.21566564099E+04  0.21566564099E+04  0.25500000920E-02 0. -1.
        2   -1    0    0  501    0  0.00000000000E+00  0.00000000000E+00 -0.10469089447E+04  0.10469089447E+04  0.25500000920E-02 0.  1.
    10030    2    1    2    0    0  0.00000000000E+00  0.00000000000E+00  0.11097474652E+04  0.32035653546E+04  0.30052107322E+04 0.  0.
        1    1    3    3  502    0 -0.13604026918E+04 -0.14989348467E+03 -0.10627139456E+03  0.13727553132E+04  0.50400001928E-02 0.  1.
       -1    1    3    3    0  502  0.13604026918E+04  0.14989348467E+03  0.12160188597E+04  0.18308100414E+04  0.50400001928E-02 0. -1.
</event>
<event>
 5   0  0.1914439E-07  0.3000023E+04  0.7818609E-02  0.8243724E-01
        2   -1    0    0  501    0  0.00000000000E+00  0.00000000000E+00  0.13655928391E+04  0.13655928391E+04  0.25500000920E-02 0.  1.
       -2   -1    0    0    0  501  0.00000000000E+00  0.00000000000E+00 -0.16476612077E+04  0.16476612077E+04  0.25500000920E-02 0. -1.
    10030    2    1    2    0    0  0.00000000000E+00  0.00000000000E+00 -0.28206836862E+03  0.30132540467E+04  0.30000228975E+04 0.  0.
        5    1    3    3  502    0  0.38822265884E+03 -0.45580382899E+03  0.12403635771E+04  0.13773154529E+04  0.46999998093E+01 0.  1.
       -5    1    3    3    0  502 -0.38822265884E+03  0.45580382899E+03 -0.15224319457E+04  0.16359385938E+04  0.46999998093E+01 0. -1.
</event>
<event>
 5   0  0.6679022E-08  0.3001796E+04  0.7818609E-02  0.8243218E-01
       -1   -1    0    0    0  501  0.00000000000E+00  0.00000000000E+00  0.13790331595E+04  0.13790331595E+04  0.50400001928E-02 0.  1.
        1   -1    0    0  501    0  0.00000000000E+00  0.00000000000E+00 -0.16335322968E+04  0.16335322968E+04  0.50400001928E-02 0. -1.
    10030    2    1    2    0    0  0.00000000000E+00  0.00000000000E+00 -0.25449913730E+03  0.30125654563E+04  0.30017962652E+04 0.  0.
        3    1    3    3  502    0  0.73272435472E+03 -0.12561834629E+04 -0.49981356141E+03  0.15377566384E+04  0.10100000352E+00 0.  1.
       -3    1    3    3    0  502 -0.73272435472E+03  0.12561834629E+04  0.24531442411E+03  0.14748088179E+04  0.10100000352E+00 0. -1.
</event>
<event>
 5   0  0.6464436E-08  0.3001271E+04  0.7818609E-02  0.8243368E-01
        1   -1    0    0  501    0  0.00000000000E+00  0.00000000000E+00  0.20640379574E+04  0.20640379574E+04  0.50400001928E-02 0.  1.
       -1   -1    0    0    0  501  0.00000000000E+00  0.00000000000E+00 -0.10910204479E+04  0.10910204479E+04  0.50400001928E-02 0. -1.
    10030    2    1    2    0    0  0.00000000000E+00  0.00000000000E+00  0.97301750947E+03  0.31550584053E+04  0.30012714751E+04 0.  0.
        5    1    3    3  502    0  0.70960821100E+02  0.14833800983E+04  0.25998269396E+03  0.15076687452E+04  0.46999998093E+01 0. -1.
       -5    1    3    3    0  502 -0.70960821100E+02 -0.14833800983E+04  0.71303481551E+03  0.16473896601E+04  0.46999998093E+01 0.  1.
</event>
<event>
 5   0  0.1817566E-07  0.3000131E+04  0.7818609E-02  0.8243694E-01
        2   -1    0    0  501    0  0.00000000000E+00  0.00000000000E+00  0.16708109598E+04  0.16708109598E+04  0.25500000920E-02 0. -1.
       -2   -1    0    0    0  501  0.00000000000E+00  0.00000000000E+00 -0.13467688423E+04  0.13467688423E+04  0.25500000920E-02 0.  1.
    10030    2    1    2    0    0  0.00000000000E+00  0.00000000000E+00  0.32404211750E+03  0.30175798020E+04  0.30001307584E+04 0.  0.
        1    1    3    3  502    0 -0.44139122669E+02  0.14755587248E+04 -0.10593848469E+03  0.14800151267E+04  0.50400001928E-02 0.  1.
       -1    1    3    3    0  502  0.44139122669E+02 -0.14755587248E+04  0.42998060219E+03  0.15375646754E+04  0.50400001928E-02 0. -1.
</event>
<event>
 5   0  0.1810055E-07  0.2999747E+04  0.7818609E-02  0.8243803E-01
        2   -1    0    0  501    0  0.00000000000E+00  0.00000000000E+00  0.14723008665E+04  0.14723008665E+04  0.25500000920E-02 0.  1.
       -2   -1    0    0    0  501  0.00000000000E+00  0.00000000000E+00 -0.15279624769E+04  0.15279624769E+04  0.25500000920E-02 0. -1.
    10030    2    1    2    0    0  0.00000000000E+00  0.00000000000E+00 -0.55661610418E+02  0.30002633434E+04  0.29997469751E+04 0.  0.
        4    1    3    3  502    0  0.49289198662E+03 -0.38989817157E+03 -0.13899227026E+04  0.15254015297E+04  0.12699999809E+01 0. -1.
       -4    1    3    3    0  502 -0.49289198662E+03  0.38989817157E+03  0.13342610921E+04  0.14748618137E+04  0.12699999809E+01 0.  1.
</event>
<event>
 5   0  0.6636007E-08  0.2999294E+04  0.7818609E-02  0.8243932E-01
        1   -1    0    0  501    0  0.00000000000E+00  0.00000000000E+00  0.17180362162E+04  0.17180362162E+04  0.50400001928E-02 0.  1.
       -1   -1    0    0    0  501  0.00000000000E+00  0.00000000000E+00 -0.13090186947E+04  0.13090186947E+04  0.50400001928E-02 0. -1.
    10030    2    1    2    0    0  0.00000000000E+00  0.00000000000E+00  0.40901752152E+03  0.30270549109E+04  0.29992942671E+04 0.  0.
        2    1    3    3  502    0 -0.84652801671E+03 -0.60306759814E+03 -0.88653416953E+03  0.13661050636E+04  0.25500000920E-02 0. -1.
       -2    1    3    3    0  502  0.84652801671E+03  0.60306759814E+03  0.12955516910E+04  0.16609498473E+04  0.25500000920E-02 0.  1.
</event>
<event>
 5   0  0.6525507E-08  0.2998242E+04  0.7818609E-02  0.8244233E-01
       -1   -1    0    0    0  501  0.00000000000E+00  0.00000000000E+00  0.16683072340E+04  0.16683072340E+04  0.50400001928E-02 0.  1.
        1   -1    0    0  501    0  0.00000000000E+00  0.00000000000E+00 -0.13470920930E+04  0.13470920930E+04  0.50400001928E-02 0. -1.
    10030    2    1    2    0    0  0.00000000000E+00  0.00000000000E+00  0.32121514107E+03  0.30153993270E+04  0.29982418072E+04 0.  0.
        4    1    3    3  502    0  0.83920985734E+03  0.10808943130E+04  0.77628406611E+03  0.15732845466E+04  0.12699999809E+01 0.  1.
       -4    1    3    3    0  502 -0.83920985734E+03 -0.10808943130E+04 -0.45506892504E+03  0.14421147804E+04  0.12699999809E+01 0. -1.
</event>
<event>
 5   0  0.1813720E-07  0.3007445E+04  0.7818609E-02  0.8241608E-01
        2   -1    0    0  501    0  0.00000000000E+00  0.00000000000E+00  0.25950949078E+04  0.25950949078E+04  0.25500000920E-02 0.  1.
       -2   -1    0    0    0  501  0.00000000000E+00  0.00000000000E+00 -0.87132873181E+03  0.87132873181E+03  0.25500000920E-02 0. -1.
    10030    2    1    2    0    0  0.00000000000E+00  0.00000000000E+00  0.17237661760E+04  0.34664236397E+04  0.30074445996E+04 0.  0.
        3    1    3    3  502    0  0.78024458683E+01 -0.85395841141E+03  0.22884615132E+04  0.24426137546E+04  0.10100000352E+00 0.  1.
       -3    1    3    3    0  502 -0.78024458683E+01  0.85395841141E+03 -0.56469533721E+03  0.10238098850E+04  0.10100000352E+00 0. -1.
</event>
<event>
 5   0  0.6374748E-08  0.3000171E+04  0.7818609E-02  0.8243682E-01
        1   -1    0    0  501    0  0.00000000000E+00  0.00000000000E+00  0.15072348828E+04  0.15072348828E+04  0.50400001928E-02 0.  1.
       -1   -1    0    0    0  501  0.00000000000E+00  0.00000000000E+00 -0.14929699483E+04  0.14929699483E+04  0.50400001928E-02 0. -1.
    10030    2    1    2    0    0  0.00000000000E+00  0.00000000000E+00  0.14264934485E+02  0.30002048310E+04  0.30001709184E+04 0.  0.
        1    1    3    3  502    0 -0.30988794481E+02  0.45741886389E+02 -0.14919521076E+04  0.14929747878E+04  0.50400001928E-02 0. -1.
       -1    1    3    3    0  502  0.30988794481E+02 -0.45741886389E+02  0.15062170421E+04  0.15072300433E+04  0.50400001928E-02 0.  1.
</event>
<event>
 5   0  0.1813720E-07  0.3000872E+04  0.7818609E-02  0.8243482E-01
        2   -1    0    0  501    0  0.00000000000E+00  0.00000000000E+00  0.86058712631E+03  0.86058712631E+03  0.25500000920E-02 0.  1.
       -2   -1    0    0    0  501  0.00000000000E+00  0.00000000000E+00 -0.26160134281E+04  0.26160134281E+04  0.25500000920E-02 0. -1.
    10030    2    1    2    0    0  0.00000000000E+00  0.00000000000E+00 -0.17554263018E+04  0.34766005544E+04  0.30008715257E+04 0.  0.
        3    1    3    3  502    0  0.47175541519E+03  0.62884059235E+02 -0.25262491940E+04  0.25706891249E+04  0.10100000352E+00 0. -1.
       -3    1    3    3    0  502 -0.47175541519E+03 -0.62884059235E+02  0.77082289222E+03  0.90591142947E+03  0.10100000352E+00 0.  1.
</event>
<event>
 5   0  0.6636007E-08  0.2991094E+04  0.7818609E-02  0.8246279E-01
       -1   -1    0    0    0  501  0.00000000000E+00  0.00000000000E+00  0.11431451129E+04  0.11431451129E+04  0.50400001928E-02 0. -1.
        1   -1    0    0  501    0  0.00000000000E+00  0.00000000000E+00 -0.19565857092E+04  0.19565857092E+04  0.50400001928E-02 0.  1.
    10030    2    1    2    0    0  0.00000000000E+00  0.00000000000E+00 -0.81344059632E+03  0.30997308222E+04  0.29910943760E+04 0.  0.
        2    1    3    3  502    0 -0.11567724259E+04 -0.52212492919E+03 -0.12266088881E+04  0.17650230173E+04  0.25500000920E-02 0.  1.
       -2    1    3    3    0  502  0.11567724259E+04  0.52212492919E+03  0.41316829181E+03  0.13347078049E+04  0.25500000920E-02 0. -1.
</event>
<event>
 5   0  0.1817566E-07  0.2999567E+04  0.7818609E-02  0.8243855E-01
       -2   -1    0    0    0  501  0.00000000000E+00  0.00000000000E+00  0.12741259991E+04  0.12741259991E+04  0.25500000920E-02 0.  1.
        2   -1    0    0  501    0  0.00000000000E+00  0.00000000000E+00 -0.17654063887E+04  0.17654063887E+04  0.25500000920E-02 0. -1.
    10030    2    1    2    0    0  0.00000000000E+00  0.00000000000E+00 -0.49128038960E+03  0.30395323879E+04  0.29995667547E+04 0.  0.
        1    1    3    3  502    0  0.39483686105E+03 -0.31462722116E+03 -0.16767116423E+04  0.17510706344E+04  0.50400001928E-02 0. -1.
       -1    1    3    3    0  502 -0.39483686105E+03  0.31462722116E+03  0.11854312527E+04  0.12884617535E+04  0.50400001928E-02 0.  1.
</event>
<event>
 5   0  0.1821305E-07  0.2979651E+04  0.7818609E-02  0.8249566E-01
        2   -1    0    0  501    0  0.00000000000E+00  0.00000000000E+00  0.15858153222E+04  0.15858153222E+04  0.25500000920E-02 0. -1.
       -2   -1    0    0    0  501  0.00000000000E+00  0.00000000000E+00 -0.13996458196E+04  0.13996458196E+04  0.25500000920E-02 0.  1.
    10030    2    1    2    0    0  0.00000000000E+00  0.00000000000E+00  0.18616950262E+03  0.29854611418E+04  0.29796508429E+04 0.  0.
        2    1    3    3  502    0  0.43292218296E+03  0.11484874180E+04  0.93920457042E+03  0.15454935105E+04  0.25500000920E-02 0. -1.
       -2    1    3    3    0  502 -0.43292218296E+03 -0.11484874180E+04 -0.75303506780E+03  0.14399676313E+04  0.25500000920E-02 0.  1.
</event>
<event>
 5   0  0.6017625E-08  0.2999638E+04  0.7818609E-02  0.8243834E-01
        3   -1    0    0  501    0  0.00000000000E+00  0.00000000000E+00  0.17280487345E+04  0.17280487374E+04  0.10100000352E+00 0.  1.
       -3   -1    0    0    0  501  0.00000000000E+00  0.00000000000E+00 -0.13017326057E+04  0.13017326096E+04  0.10100000352E+00 0. -1.
    10030    2    1    2    0    0  0.00000000000E+00  0.00000000000E+00  0.42631612880E+03  0.30297813470E+04  0.29996382397E+04 0.  0.
        4    1    3    3  502    0  0.14351024827E+04 -0.17029789760E+03 -0.19204061558E+03  0.14578757563E+04  0.12699999809E+01 0. -1.
       -4    1    3    3    0  502 -0.14351024827E+04  0.17029789760E+03  0.61835674439E+03  0.15719055907E+04  0.12699999809E+01 0.  1.
</event>
<event>
 5   0  0.6525507E-08  0.3001686E+04  0.7818609E-02  0.8243249E-01
       -1   -1    0    0    0  501  0.00000000000E+00  0.00000000000E+00  0.16117163992E+04  0.16117163992E+04  0.50400001928E-02 0. -1.
        1   -1    0    0  501    0  0.00000000000E+00  0.00000000000E+00 -0.13975971600E+04  0.13975971600E+04  0.50400001928E-02 0.  1.
    10030    2    1    2    0    0  0.00000000000E+00  0.00000000000E+00  0.21411923916E+03  0.30093135592E+04  0.30016863675E+04 0.  0.
        4    1    3    3  502    0  0.12703920043E+04 -0.24467190586E+03 -0.65564180650E+03  0.14503889056E+04  0.12699999809E+01 0.  1.
       -4    1    3    3    0  502 -0.12703920043E+04  0.24467190586E+03  0.86976104566E+03  0.15589246536E+04  0.12699999809E+01 0. -1.
</event>
<event>
 5   0  0.1810055E-07  0.2998379E+04  0.7818609E-02  0.8244194E-01
        2   -1    0    0  501    0  0.00000000000E+00  0.00000000000E+00  0.19730122543E+04  0.19730122543E+04  0.25500000920E-02 0. -1.
       -2   -1    0    0    0  501  0.00000000000E+00  0.00000000000E+00 -0.11391560856E+04  0.11391560856E+04  0.25500000920E-02 0.  1.
    10030    2    1    2    0    0  0.00000000000E+00  0.00000000000E+00  0.83385616868E+03  0.31121683400E+04  0.29983788397E+04 0.  0.
        4    1    3    3  502    0 -0.76944813370E+03 -0.10183823261E+04 -0.39930903642E+03  0.13373863735E+04  0.12699999809E+01 0.  1.
       -4    1    3    3    0  502  0.76944813370E+03  0.10183823261E+04  0.12331652051E+04  0.17747819665E+04  0.12699999809E+01 0. -1.
</event>
<event>
 5   0  0.1914439E-07  0.2998258E+04  0.7818609E-02  0.8244228E-01
        2   -1    0    0  501    0  0.00000000000E+00  0.00000000000E+00  0.23006387521E+04  0.23006387521E+04  0.25500000920E-02 0.  1.
       -2   -1    0    0    0  501  0.00000000000E+00  0.00000000000E+00 -0.97685384403E+03  0.97685384404E+03  0.25500000920E-02 0. -1.
    10030    2    1    2    0    0  0.00000000000E+00  0.00000000000E+00  0.13237849080E+04  0.32774925961E+04  0.29982580334E+04 0.  0.
        5    1    3    3  502    0  0.31125612099E+03  0.91916950788E+03 -0.58715778411E+03  0.11342527542E+04  0.46999998093E+01 0. -1.
       -5    1    3    3    0  502 -0.31125612099E+03 -0.91916950788E+03  0.19109426921E+04  0.21432398419E+04  0.46999998093E+01 0.  1.
</event>
<event>
 5   0  0.6374748E-08  0.2999631E+04  0.7818609E-02  0.8243836E-01
       -1   -1    0    0    0  501  0.00000000000E+00  0.00000000000E+00  0.13032028317E+04  0.13032028317E+04  0.50400001928E-02 0. -1.
        1   -1    0    0  501    0  0.00000000000E+00  0.00000000000E+00 -0.17260914517E+04  0.17260914517E+04  0.50400001928E-02 0.  1.
    10030    2    1    2    0    0  0.00000000000E+00  0.00000000000E+00 -0.42288861998E+03  0.30292942834E+04  0.29996314891E+04 0.  0.
        1    1    3    3  502    0  0.13889193522E+04 -0.48430714177E+03 -0.50725191953E+03  0.15559417998E+04  0.50400001928E-02 0. -1.
       -1    1    3    3    0  502 -0.13889193522E+04  0.48430714177E+03  0.84363299553E+02  0.14733524836E+04  0.50400001928E-02 0.  1.
</event>
<event>
 5   0  0.1810055E-07  0.3001020E+04  0.7818609E-02  0.8243440E-01
       -2   -1    0    0    0  501  0.00000000000E+00  0.00000000000E+00  0.12919364424E+04  0.12919364424E+04  0.25500000920E-02 0.  1.
        2   -1    0    0  501    0  0.00000000000E+00  0.00000000000E+00 -0.17427565867E+04  0.17427565867E+04  0.25500000920E-02 0. -1.
    10030    2    1    2    0    0  0.00000000000E+00  0.00000000000E+00 -0.45082014433E+03  0.30346930291E+04  0.30010203229E+04 0.  0.
        4    1    3    3  502    0  0.31126864249E+03  0.90882066005E+03 -0.13910301122E+04  0.16905057071E+04  0.12699999809E+01 0. -1.
       -4    1    3    3    0  502 -0.31126864249E+03 -0.90882066005E+03  0.94020996786E+03  0.13441873220E+04  0.12699999809E+01 0.  1.
</event>
<event>
 5   0  0.6679022E-08  0.2997446E+04  0.7818609E-02  0.8244460E-01
        1   -1    0    0  501    0  0.00000000000E+00  0.00000000000E+00  0.21966612071E+04  0.21966612071E+04  0.50400001928E-02 0. -1.
       -1   -1    0    0    0  501  0.00000000000E+00  0.00000000000E+00 -0.10225388092E+04  0.10225388092E+04  0.50400001928E-02 0.  1.
    10030    2    1    2    0    0  0.00000000000E+00  0.00000000000E+00  0.11741223979E+04  0.32192000163E+04  0.29974464699E+04 0.  0.
        3    1    3    3  502    0  0.48160103196E+03 -0.14175365016E+04  0.51248301366E+03  0.15823994871E+04  0.10100000352E+00 0.  1.
       -3    1    3    3    0  502 -0.48160103196E+03  0.14175365016E+04  0.66163938422E+03  0.16368005292E+04  0.10100000352E+00 0. -1.
</event>
<event>
 5   0  0.6636007E-08  0.3000379E+04  0.7818609E-02  0.8243623E-01
        1   -1    0    0  501    0  0.00000000000E+00  0.00000000000E+00  0.15858614872E+04  0.15858614872E+04  0.50400001928E-02 0. -1.
       -1   -1    0    0    0  501  0.00000000000E+00  0.00000000000E+00 -0.14191454983E+04  0.14191454983E+04  0.50400001928E-02 0.  1.
    10030    2    1    2    0    0  0.00000000000E+00  0.00000000000E+00  0.16671598888E+03  0.30050069855E+04  0.30003787697E+04 0.  0.
        2    1    3    3  502    0 -0.55281814505E+03  0.46587716353E+03 -0.12331729204E+04  0.14294631456E+04  0.25500000920E-02 0.  1.
       -2    1    3    3    0  502  0.55281814505E+03 -0.46587716353E+03  0.13998889093E+04  0.15755438399E+04  0.25500000920E-02 0. -1.
</event>
<event>
 5   0  0.6636007E-08  0.3001691E+04  0.7818609E-02  0.8243248E-01
        1   -1    0    0  501    0  0.00000000000E+00  0.00000000000E+00  0.13137347421E+04  0.13137347421E+04  0.50400001928E-02 0. -1.
       -1   -1    0    0    0  501  0.00000000000E+00  0.00000000000E+00 -0.17146061634E+04  0.17146061634E+04  0.50400001928E-02 0.  1.
    10030    2    1    2    0    0  0.00000000000E+00  0.00000000000E+00 -0.40087142132E+03  0.30283409055E+04  0.30016913138E+04 0.  0.
        2    1    3    3  502    0  0.17826828013E+02 -0.49791015088E+03  0.12278683786E+04  0.13251011544E+04  0.25500000920E-02 0. -1.
       -2    1    3    3    0  502 -0.17826828013E+02  0.49791015088E+03 -0.16287397999E+04  0.17032397512E+04  0.25500000920E-02 0.  1.
</event>
<event>
 5   0  0.6374748E-08  0.2999675E+04  0.7818609E-02  0.8243824E-01
        1   -1    0    0  501    0  0.00000000000E+00  0.00000000000E+00  0.17934005816E+04  0.17934005816E+04  0.50400001928E-02 0. -1.
       -1   -1    0    0    0  501  0.00000000000E+00  0.00000000000E+00 -0.12543277755E+04  0.12543277755E+04  0.50400001928E-02 0.  1.
    10030    2    1    2    0    0  0.00000000000E+00  0.00000000000E+00  0.53907280612E+03  0.30477283571E+04  0.29996747571E+04 0.  0.
        1    1    3    3  502    0  0.92477325988E+03 -0.62694290180E+03 -0.74711759683E+03  0.13440415499E+04  0.50400001928E-02 0.  1.
       -1    1    3    3    0  502 -0.92477325988E+03  0.62694290180E+03  0.12861904030E+04  0.17036868072E+04  0.50400001928E-02 0. -1.
</event>
<event>
 5   0  0.6464436E-08  0.2980336E+04  0.7818609E-02  0.8249368E-01
        1   -1    0    0  501    0  0.00000000000E+00  0.00000000000E+00  0.14694405811E+04  0.14694405811E+04  0.50400001928E-02 0. -1.
       -1   -1    0    0    0  501  0.00000000000E+00  0.00000000000E+00 -0.15111879237E+04  0.15111879238E+04  0.50400001928E-02 0.  1.
    10030    2    1    2    0    0  0.00000000000E+00  0.00000000000E+00 -0.41747342636E+02  0.29806285049E+04  0.29803361293E+04 0.  0.
        5    1    3    3  502    0 -0.12073256106E+04 -0.67421882869E+03  0.53449388133E+03  0.14825356516E+04  0.46999998093E+01 0. -1.
       -5    1    3    3    0  502  0.12073256106E+04  0.67421882869E+03 -0.57624122396E+03  0.14980928533E+04  0.46999998093E+01 0.  1.
</event>
<event>
 5   0  0.6636007E-08  0.3000370E+04  0.7818609E-02  0.8243625E-01
       -1   -1    0    0    0  501  0.00000000000E+00  0.00000000000E+00  0.17027448011E+04  0.17027448011E+04  0.50400001928E-02 0. -1.
        1   -1    0    0  501    0  0.00000000000E+00  0.00000000000E+00 -0.13217222492E+04  0.13217222492E+04  0.50400001928E-02 0.  1.
    10030    2    1    2    0    0  0.00000000000E+00  0.00000000000E+00  0.38102255193E+03  0.30244670503E+04  0.30003704360E+04 0.  0.
        2    1    3    3  502    0 -0.10705201149E+03 -0.57664871596E+03  0.15823873326E+04  0.16875821595E+04  0.25500000920E-02 0. -1.
       -2    1    3    3    0  502  0.10705201149E+03  0.57664871596E+03 -0.12013647807E+04  0.13368848907E+04  0.25500000920E-02 0.  1.
</event>
<event>
 5   0  0.1810055E-07  0.2994609E+04  0.7818609E-02  0.8245272E-01
       -2   -1    0    0    0  501  0.00000000000E+00  0.00000000000E+00  0.18306042747E+04  0.18306042747E+04  0.25500000920E-02 0. -1.
        2   -1    0    0  501    0  0.00000000000E+00  0.00000000000E+00 -0.12246889906E+04  0.12246889907E+04  0.25500000920E-02 0.  1.
    10030    2    1    2    0    0  0.00000000000E+00  0.00000000000E+00  0.60591528410E+03  0.30552932654E+04  0.29946090907E+04 0.  0.
        4    1    3    3  502    0 -0.11907934938E+04  0.54897014688E+03  0.10404909599E+04  0.16739117114E+04  0.12699999809E+01 0. -1.
       -4    1    3    3    0  502  0.11907934938E+04 -0.54897014688E+03 -0.43457567579E+03  0.13813815540E+04  0.12699999809E+01 0.  1.
</event>
<event>
 5   0  0.1810055E-07  0.2995669E+04  0.7818609E-02  0.8244969E-01
        2   -1    0    0  501    0  0.00000000000E+00  0.00000000000E+00  0.13257593387E+04  0.13257593387E+04  0.25500000920E-02 0. -1.
       -2   -1    0    0    0  501  0.00000000000E+00  0.00000000000E+00 -0.16922437172E+04  0.16922437172E+04  0.25500000920E-02 0.  1.
    10030    2    1    2    0    0  0.00000000000E+00  0.00000000000E+00 -0.36648437855E+03  0.30180030559E+04  0.29956688145E+04 0.  0.
        4    1    3    3  502    0 -0.28449063720E+03 -0.12461721403E+04  0.60336470789E+03  0.14134816976E+04  0.12699999809E+01 0. -1.
       -4    1    3    3    0  502  0.28449063720E+03  0.12461721403E+04 -0.96984908644E+03  0.16045213583E+04  0.12699999809E+01 0.  1.
</event>
<event>
 5   0  0.1817566E-07  0.3002018E+04  0.7818609E-02  0.8243155E-01
        2   -1    0    0  501    0  0.00000000000E+00  0.00000000000E+00  0.14946215678E+04  0.14946215678E+04  0.25500000920E-02 0. -1.
       -2   -1    0    0    0  501  0.00000000000E+00  0.00000000000E+00 -0.15074241374E+04  0.15074241374E+04  0.25500000920E-02 0.  1.
    10030    2    1    2    0    0  0.00000000000E+00  0.00000000000E+00 -0.12802569568E+02  0.30020457053E+04  0.30020184061E+04 0.  0.
        1    1    3    3  502    0 -0.11628444209E+04 -0.93511446538E+03  0.15602684365E+03  0.15003301592E+04  0.50400001928E-02 0. -1.
       -1    1    3    3    0  502  0.11628444209E+04  0.93511446538E+03 -0.16882941321E+03  0.15017155461E+04  0.50400001928E-02 0.  1.
</event>
<event>
 5   0  0.6525507E-08  0.2995382E+04  0.7818609E-02  0.8245051E-01
       -1   -1    0    0    0  501  0.00000000000E+00  0.00000000000E+00  0.96574945730E+03  0.96574945732E+03  0.50400001928E-02 0. -1.
        1   -1    0    0  501    0  0.00000000000E+00  0.00000000000E+00 -0.23226299755E+04  0.23226299755E+04  0.50400001928E-02 0.  1.
    10030    2    1    2    0    0  0.00000000000E+00  0.00000000000E+00 -0.13568805182E+04  0.32883794328E+04  0.29953822049E+04 0.  0.
        4    1    3    3  502    0  0.10794945336E+03  0.13867316531E+03 -0.23112713186E+04  0.23179430650E+04  0.12699999809E+01 0.  1.
       -4    1    3    3    0  502 -0.10794945336E+03 -0.13867316531E+03  0.95439080041E+03  0.97043636786E+03  0.12699999809E+01 0. -1.
</event>
<event>
 5   0  0.6525507E-08  0.3001010E+04  0.7818609E-02  0.8243442E-01
       -1   -1    0    0    0  501  0.00000000000E+00  0.00000000000E+00  0.18339060878E+04  0.18339060878E+04  0.50400001928E-02 0.  1.
        1   -1    0    0  501    0  0.00000000000E+00  0.00000000000E+00 -0.12277160167E+04  0.12277160167E+04  0.50400001928E-02 0. -1.
    10030    2    1    2    0    0  0.00000000000E+00  0.00000000000E+00  0.60619007117E+03  0.30616221045E+04  0.30010104146E+04 0.  0.
        4    1    3    3  502    0 -0.71936081438E+03  0.67755733662E+03  0.14550373101E+04  0.17588914441E+04  0.12699999809E+01 0.  1.
       -4    1    3    3    0  502  0.71936081438E+03 -0.67755733662E+03 -0.84884723889E+03  0.13027306604E+04  0.12699999809E+01 0. -1.
</event>
<event>
 5   0  0.1914439E-07  0.2993058E+04  0.7818609E-02  0.8245716E-01
        2   -1    0    0  501    0  0.00000000000E+00  0.00000000000E+00  0.15612274423E+04  0.15612274423E+04  0.25500000920E-02 0. -1.
       -2   -1    0    0    0  501  0.00000000000E+00  0.00000000000E+00 -0.14345119413E+04  0.14345119413E+04  0.25500000920E-02 0.  1.
    10030    2    1    2    0    0  0.00000000000E+00  0.00000000000E+00  0.12671550099E+03  0.29957393836E+04  0.29930582414E+04 0.  0.
        5    1    3    3  502    0  0.84310039244E+03 -0.58920108894E+03 -0.10246307595E+04  0.14518493304E+04  0.46999998093E+01 0.  1.
       -5    1    3    3    0  502 -0.84310039244E+03  0.58920108894E+03  0.11513462604E+04  0.15438900532E+04  0.46999998093E+01 0. -1.
</event>
<event>
 5   0  0.6464436E-08  0.2998798E+04  0.7818609E-02  0.8244074E-01
        1   -1    0    0  501    0  0.00000000000E+00  0.00000000000E+00  0.16143700055E+04  0.16143700055E+04  0.50400001928E-02 0.  1.
       -1   -1    0    0    0  501  0.00000000000E+00  0.00000000000E+00 -0.13926156366E+04  0.13926156366E+04  0.50400001928E-02 0. -1.
    10030    2    1    2    0    0  0.00000000000E+00  0.00000000000E+00  0.22175436884E+03  0.30069856421E+04  0.29987977010E+04 0.  0.
        5    1    3    3  502    0 -0.19292289732E+03 -0.13312183334E+04  0.77511575420E+03  0.15524780249E+04  0.46999998093E+01 0.  1.
       -5    1    3    3    0  502  0.19292289732E+03  0.13312183334E+04 -0.55336138536E+03  0.14545076171E+04  0.46999998093E+01 0. -1.
</event>
<event>
 5   0  0.6464436E-08  0.2999559E+04  0.7818609E-02  0.8243857E-01
       -1   -1    0    0    0  501  0.00000000000E+00  0.00000000000E+00  0.16566330963E+04  0.16566330963E+04  0.50400001928E-02 0. -1.
        1   -1    0    0  501    0  0.00000000000E+00  0.00000000000E+00 -0.13577772700E+04  0.13577772700E+04  0.50400001928E-02 0.  1.
    10030    2    1    2    0    0  0.00000000000E+00  0.00000000000E+00  0.29885582629E+03  0.30144103663E+04  0.29995591429E+04 0.  0.
        5    1    3    3  502    0  0.85488208364E+03 -0.16253194985E+03  0.13769816532E+04  0.16289077859E+04  0.46999998093E+01 0. -1.
       -5    1    3    3    0  502 -0.85488208364E+03  0.16253194985E+03 -0.10781258269E+04  0.13855025804E+04  0.46999998093E+01 0.  1.
</event>
<event>
 5   0  0.1821305E-07  0.3000197E+04  0.7818609E-02  0.8243675E-01
        2   -1    0    0  501    0  0.00000000000E+00  0.00000000000E+00  0.18512885166E+04  0.18512885166E+04  0.25500000920E-02 0.  1.
       -2   -1    0    0    0  501  0.00000000000E+00  0.00000000000E+00 -0.12155290417E+04  0.12155290417E+04  0.25500000920E-02 0. -1.
    10030    2    1    2    0    0  0.00000000000E+00  0.00000000000E+00  0.63575947485E+03  0.30668175583E+04  0.30001966313E+04 0.  0.
        2    1    3    3  502    0  0.14954408129E+04  0.41658547469E+02  0.43086141397E+03  0.15568301826E+04  0.25500000920E-02 0.  1.
       -2    1    3    3    0  502 -0.14954408129E+04 -0.41658547469E+02  0.20489806088E+03  0.15099873757E+04  0.25500000920E-02 0. -1.
</event>
<event>
 5   0  0.6679022E-08  0.2997855E+04  0.7818609E-02  0.8244344E-01
       -1   -1    0    0    0  501  0.00000000000E+00  0.00000000000E+00  0.18424991028E+04  0.18424991028E+04  0.50400001928E-02 0. -1.
        1   -1    0    0  501    0  0.00000000000E+00  0.00000000000E+00 -0.12194218740E+04  0.12194218741E+04  0.50400001928E-02 0.  1.
    10030    2    1    2    0    0  0.00000000000E+00  0.00000000000E+00  0.62307722874E+03  0.30619209768E+04  0.29978550391E+04 0.  0.
        3    1    3    3  502    0 -0.49533773452E+03 -0.62600958772E+03  0.16073259376E+04  0.17946431832E+04  0.10100000352E+00 0. -1.
       -3    1    3    3    0  502  0.49533773452E+03  0.62600958772E+03 -0.98424870886E+03  0.12672777936E+04  0.10100000352E+00 0.  1.
</event>
<event>
 5   0  0.1813720E-07  0.3000831E+04  0.7818609E-02  0.8243494E-01
        2   -1    0    0  501    0  0.00000000000E+00  0.00000000000E+00  0.17649444267E+04  0.17649444267E+04  0.25500000920E-02 0.  1.
       -2   -1    0    0    0  501  0.00000000000E+00  0.00000000000E+00 -0.12755339074E+04  0.12755339074E+04  0.25500000920E-02 0. -1.
    10030    2    1    2    0    0  0.00000000000E+00  0.00000000000E+00  0.48941051929E+03  0.30404783341E+04  0.30008308589E+04 0.  0.
        3    1    3    3  502    0 -0.63596265829E+03 -0.33287301567E+03 -0.10902737698E+04  0.13053543008E+04  0.10100000352E+00 0. -1.
       -3    1    3    3    0  502  0.63596265829E+03  0.33287301567E+03  0.15796842891E+04  0.17351240333E+04  0.10100000352E+00 0.  1.
</event>
<event>
 5   0  0.1810055E-07  0.2999316E+04  0.7818609E-02  0.8243926E-01
        2   -1    0    0  501    0  0.00000000000E+00  0.00000000000E+00  0.20860493064E+04  0.20860493064E+04  0.25500000920E-02 0. -1.
       -2   -1    0    0    0  501  0.00000000000E+00  0.00000000000E+00 -0.10781017306E+04  0.10781017306E+04  0.25500000920E-02 0.  1.
    10030    2    1    2    0    0  0.00000000000E+00  0.00000000000E+00  0.10079475758E+04  0.31641510370E+04  0.29993155002E+04 0.  0.
        4    1    3    3  502    0 -0.21428193516E+03 -0.10631978314E+04  0.15965888563E+04  0.19301305565E+04  0.12699999809E+01 0. -1.
       -4    1    3    3    0  502  0.21428193516E+03  0.10631978314E+04 -0.58864128047E+03  0.12340204805E+04  0.12699999809E+01 0.  1.
</event>
<event>
 5   0  0.1810055E-07  0.2999423E+04  0.7818609E-02  0.8243896E-01
       -2   -1    0    0    0  501  0.00000000000E+00  0.00000000000E+00  0.18371836148E+04  0.18371836148E+04  0.25500000920E-02 0. -1.
        2   -1    0    0  501    0  0.00000000000E+00  0.00000000000E+00 -0.12242298456E+04  0.12242298456E+04  0.25500000920E-02 0.  1.
    10030    2    1    2    0    0  0.00000000000E+00  0.00000000000E+00  0.61295376925E+03  0.30614134604E+04  0.29994232866E+04 0.  0.
        4    1    3    3  502    0  0.13810634152E+04 -0.53492005006E+03  0.65682041833E+02  0.14824949782E+04  0.12699999809E+01 0.  1.
       -4    1    3    3    0  502 -0.13810634152E+04  0.53492005006E+03  0.54727172742E+03  0.15789184822E+04  0.12699999809E+01 0. -1.
</event>
<event>
 5   0  0.6636007E-08  0.3000379E+04  0.7818609E-02  0.8243623E-01
       -1   -1    0    0    0  501  0.00000000000E+00  0.00000000000E+00  0.11732914947E+04  0.11732914947E+04  0.50400001928E-02 0. -1.
        1   -1    0    0  501    0  0.00000000000E+00  0.00000000000E+00 -0.19181661073E+04  0.19181661073E+04  0.50400001928E-02 0.  1.
    10030    2    1    2    0    0  0.00000000000E+00  0.00000000000E+00 -0.74487461261E+03  0.30914576020E+04  0.30003786288E+04 0.  0.
        2    1    3    3  502    0  0.64541034250E+03  0.24450892135E+03  0.99999853286E+03  0.12150457557E+04  0.25500000920E-02 0. -1.
       -2    1    3    3    0  502 -0.64541034250E+03 -0.24450892135E+03 -0.17448731455E+04  0.18764118462E+04  0.25500000920E-02 0.  1.
</event>
<event>
 5   0  0.1817566E-07  0.2999057E+04  0.7818609E-02  0.8244000E-01
       -2   -1    0    0    0  501  0.00000000000E+00  0.00000000000E+00  0.13033365132E+04  0.13033365132E+04  0.25500000920E-02 0. -1.
        2   -1    0    0  501    0  0.00000000000E+00  0.00000000000E+00 -0.17252534082E+04  0.17252534082E+04  0.25500000920E-02 0.  1.
    10030    2    1    2    0    0  0.00000000000E+00  0.00000000000E+00 -0.42191689495E+03  0.30285899214E+04  0.29990570260E+04 0.  0.
        1    1    3    3  502    0  0.14326016593E+04 -0.13199482697E+02 -0.65810995707E+03  0.15765882329E+04  0.50400001928E-02 0.  1.
       -1    1    3    3    0  502 -0.14326016593E+04  0.13199482697E+02  0.23619306212E+03  0.14520016884E+04  0.50400001928E-02 0. -1.
</event>
<event>
 5   0  0.6374748E-08  0.2999605E+04  0.7818609E-02  0.8243844E-01
       -1   -1    0    0    0  501  0.00000000000E+00  0.00000000000E+00  0.97309016601E+03  0.97309016602E+03  0.50400001928E-02 0.  1.
        1   -1    0    0  501    0  0.00000000000E+00  0.00000000000E+00 -0.23116128705E+04  0.23116128705E+04  0.50400001928E-02 0. -1.
    10030    2    1    2    0    0  0.00000000000E+00  0.00000000000E+00 -0.13385227045E+04  0.32847030366E+04  0.29996051420E+04 0.  0.
        1    1    3    3  502    0 -0.59433649762E+03  0.17297545291E+02  0.83851388373E+03  0.10279302558E+04  0.50400001928E-02 0.  1.
       -1    1    3    3    0  502  0.59433649762E+03 -0.17297545291E+02 -0.21770365883E+04  0.22567727808E+04  0.50400001928E-02 0. -1.
</event>
<event>
 5   0  0.6464436E-08  0.3001897E+04  0.7818609E-02  0.8243190E-01
        1   -1    0    0  501    0  0.00000000000E+00  0.00000000000E+00  0.20525325134E+04  0.20525325135E+04  0.50400001928E-02 0. -1.
       -1   -1    0    0    0  501  0.00000000000E+00  0.00000000000E+00 -0.10975932198E+04  0.10975932198E+04  0.50400001928E-02 0.  1.
    10030    2    1    2    0    0  0.00000000000E+00  0.00000000000E+00  0.95493929361E+03  0.31501257333E+04  0.30018965807E+04 0.  0.
        5    1    3    3  502    0 -0.12943801645E+03 -0.10414397027E+04  0.16035231058E+04  0.19164183507E+04  0.46999998093E+01 0. -1.
       -5    1    3    3    0  502  0.12943801645E+03  0.10414397027E+04 -0.64858381214E+03  0.12337073826E+04  0.46999998093E+01 0.  1.
</event>
<event>
 5   0  0.1817566E-07  0.3003919E+04  0.7818609E-02  0.8242613E-01
        2   -1    0    0  501    0  0.00000000000E+00  0.00000000000E+00  0.13738474195E+04  0.13738474195E+04  0.25500000920E-02 0. -1.
       -2   -1    0    0    0  501  0.00000000000E+00  0.00000000000E+00 -0.16420181167E+04  0.16420181167E+04  0.25500000920E-02 0.  1.
    10030    2    1    2    0    0  0.00000000000E+00  0.00000000000E+00 -0.26817069716E+03  0.30158655361E+04  0.30039190084E+04 0.  0.
        1    1    3    3  502    0 -0.13354247643E+04  0.43885220048E+02  0.55464369326E+03  0.14466909968E+04  0.50400001928E-02 0. -1.
       -1    1    3    3    0  502  0.13354247643E+04 -0.43885220048E+02 -0.82281439042E+03  0.15691745393E+04  0.50400001928E-02 0.  1.
</event>
<event>
 5   0  0.6464436E-08  0.3000213E+04  0.7818609E-02  0.8243670E-01
       -1   -1    0    0    0  501  0.00000000000E+00  0.00000000000E+00  0.12367332786E+04  0.12367332787E+04  0.50400001928E-02 0.  1.
        1   -1    0    0  501    0  0.00000000000E+00  0.00000000000E+00 -0.18195669390E+04  0.18195669390E+04  0.50400001928E-02 0. -1.
    10030    2    1    2    0    0  0.00000000000E+00  0.00000000000E+00 -0.58283366034E+03  0.30563002176E+04  0.30002126499E+04 0.  0.
        5    1    3    3  502    0 -0.37676492780E+03 -0.85299343963E+03  0.90560224795E+03  0.12998796638E+04  0.46999998093E+01 0.  1.
       -5    1    3    3    0  502  0.37676492780E+03  0.85299343963E+03 -0.14884359083E+04  0.17564205538E+04  0.46999998093E+01 0. -1.
</event>
<event>
 5   0  0.6679022E-08  0.2997948E+04  0.7818609E-02  0.8244317E-01
        1   -1    0    0  501    0  0.00000000000E+00  0.00000000000E+00  0.18662005530E+04  0.18662005530E+04  0.50400001928E-02 0. -1.
       -1   -1    0    0    0  501  0.00000000000E+00  0.00000000000E+00 -0.12040092167E+04  0.12040092167E+04  0.50400001928E-02 0.  1.
    10030    2    1    2    0    0  0.00000000000E+00  0.00000000000E+00  0.66219133632E+03  0.30702097698E+04  0.29979477421E+04 0.  0.
        3    1    3    3  502    0 -0.25408956484E+03 -0.14280922978E+03 -0.11747084776E+04  0.12103288812E+04  0.10100000352E+00 0.  1.
       -3    1    3    3    0  502  0.25408956484E+03  0.14280922978E+03  0.18368998139E+04  0.18598808886E+04  0.10100000352E+00 0. -1.
</event>
<event>
 5   0  0.6525507E-08  0.2999482E+04  0.7818609E-02  0.8243879E-01
        1   -1    0    0  501    0  0.00000000000E+00  0.00000000000E+00  0.23614156680E+04  0.23614156680E+04  0.50400001928E-02 0.  1.
       -1   -1    0    0    0  501  0.00000000000E+00  0.00000000000E+00 -0.95248950130E+03  0.95248950131E+03  0.50400001928E-02 0. -1.
    10030    2    1    2    0    0  0.00000000000E+00  0.00000000000E+00  0.14089261667E+04  0.33139051694E+04  0.29994823767E+04 0.  0.
        4    1    3    3  502    0 -0.56985449165E+03 -0.30289390977E+03  0.22001633298E+04  0.22928582932E+04  0.12699999809E+01 0.  1.
       -4    1    3    3    0  502  0.56985449165E+03  0.30289390977E+03 -0.79123716303E+03  0.10210468761E+04  0.12699999809E+01 0. -1.
</event>
<event>
 5   0  0.1914439E-07  0.2999812E+04  0.7818609E-02  0.8243784E-01
        2   -1    0    0  501    0  0.00000000000E+00  0.00000000000E+00  0.23165311383E+04  0.23165311383E+04  0.25500000920E-02 0.  1.
       -2   -1    0    0    0  501  0.00000000000E+00  0.00000000000E+00 -0.97115843338E+03  0.97115843339E+03  0.25500000920E-02 0. -1.
    10030    2    1    2    0    0  0.00000000000E+00  0.00000000000E+00  0.13453727049E+04  0.32876895717E+04  0.29998124949E+04 0.  0.
        5    1    3    3  502    0 -0.73319582159E+03 -0.71869187244E+03  0.18710540917E+04  0.21342351380E+04  0.46999998093E+01 0.  1.
       -5    1    3    3    0  502  0.73319582159E+03  0.71869187244E+03 -0.52568138672E+03  0.11534544337E+04  0.46999998093E+01 0. -1.
</event>
<event>
 5   0  0.1817566E-07  0.3001803E+04  0.7818609E-02  0.8243216E-01
        2   -1    0    0  501    0  0.00000000000E+00  0.00000000000E+00  0.22155949445E+04  0.22155949445E+04  0.25500000920E-02 0. -1.
       -2   -1    0    0    0  501  0.00000000000E+00  0.00000000000E+00 -0.10167499189E+04  0.10167499189E+04  0.25500000920E-02 0.  1.
    10030    2    1    2    0    0  0.00000000000E+00  0.00000000000E+00  0.11988450256E+04  0.32323448634E+04  0.30018034447E+04 0.  0.
        1    1    3    3  502    0 -0.64479704459E+03 -0.10377973449E+04  0.15381060705E+04  0.19643209620E+04  0.50400001928E-02 0. -1.
       -1    1    3    3    0  502  0.64479704459E+03  0.10377973449E+04 -0.33926104496E+03  0.12680239013E+04  0.50400001928E-02 0.  1.
</event>
<event>
 5   0  0.6636007E-08  0.2998960E+04  0.7818609E-02  0.8244028E-01
       -1   -1    0    0    0  501  0.00000000000E+00  0.00000000000E+00  0.20944894206E+04  0.20944894206E+04  0.50400001928E-02 0.  1.
        1   -1    0    0  501    0  0.00000000000E+00  0.00000000000E+00 -0.10735028305E+04  0.10735028305E+04  0.50400001928E-02 0. -1.
    10030    2    1    2    0    0  0.00000000000E+00  0.00000000000E+00  0.10209865901E+04  0.31679922512E+04  0.29989600341E+04 0.  0.
        2    1    3    3  502    0 -0.73324937323E+03  0.45937344565E+03  0.18041664438E+04  0.20009235775E+04  0.25500000920E-02 0.  1.
       -2    1    3    3    0  502  0.73324937323E+03 -0.45937344565E+03 -0.78317985367E+03  0.11670686737E+04  0.25500000920E-02 0. -1.
</event>
<event>
 5   0  0.6464436E-08  0.3015023E+04  0.7818609E-02  0.8239454E-01
       -1   -1    0    0    0  501  0.00000000000E+00  0.00000000000E+00  0.13415877969E+04  0.13415877970E+04  0.50400001928E-02 0. -1.
        1   -1    0    0  501    0  0.00000000000E+00  0.00000000000E+00 -0.16939566706E+04  0.16939566706E+04  0.50400001928E-02 0.  1.
    10030    2    1    2    0    0  0.00000000000E+00  0.00000000000E+00 -0.35236887368E+03  0.30355444676E+04  0.30150234479E+04 0.  0.
        5    1    3    3  502    0 -0.11529402065E+04  0.84265385754E+03  0.31004447426E+03  0.14613303218E+04  0.46999998093E+01 0. -1.
       -5    1    3    3    0  502  0.11529402065E+04 -0.84265385754E+03 -0.66241334794E+03  0.15742141458E+04  0.46999998093E+01 0.  1.
</event>
<event>
 5   0  0.1813720E-07  0.3000023E+04  0.7818609E-02  0.8243724E-01
       -2   -1    0    0    0  501  0.00000000000E+00  0.00000000000E+00  0.16385636777E+04  0.16385636777E+04  0.25500000920E-02 0.  1.
        2   -1    0    0  501    0  0.00000000000E+00  0.00000000000E+00 -0.13731748299E+04  0.13731748299E+04  0.25500000920E-02 0. -1.
    10030    2    1    2    0    0  0.00000000000E+00  0.00000000000E+00  0.26538884783E+03  0.30117385076E+04  0.30000229328E+04 0.  0.
        3    1    3    3  502    0  0.65580842276E+03 -0.31924957957E+03 -0.11831604213E+04  0.13899185494E+04  0.10100000352E+00 0. -1.
       -3    1    3    3    0  502 -0.65580842276E+03  0.31924957957E+03  0.14485492691E+04  0.16218199581E+04  0.10100000352E+00 0.  1.
</event>
<event>
 5   0  0.1817566E-07  0.2999530E+04  0.7818609E-02  0.8243865E-01
       -2   -1    0    0    0  501  0.00000000000E+00  0.00000000000E+00  0.17564053162E+04  0.17564053162E+04  0.25500000920E-02 0.  1.
        2   -1    0    0  501    0  0.00000000000E+00  0.00000000000E+00 -0.12806243038E+04  0.12806243038E+04  0.25500000920E-02 0. -1.
    10030    2    1    2    0    0  0.00000000000E+00  0.00000000000E+00  0.47578101243E+03  0.30370296200E+04  0.29995301867E+04 0.  0.
        1    1    3    3  502    0  0.60627139010E+03 -0.53512575967E+03 -0.10409800965E+04  0.13181669615E+04  0.50400001928E-02 0. -1.
       -1    1    3    3    0  502 -0.60627139010E+03  0.53512575967E+03  0.15167611089E+04  0.17188626585E+04  0.50400001928E-02 0.  1.
</event>
<event>
 5   0  0.6017625E-08  0.3002163E+04  0.7818609E-02  0.8243113E-01
       -3   -1    0    0    0  501  0.00000000000E+00  0.00000000000E+00  0.11738889899E+04  0.11738889943E+04  0.10100000352E+00 0. -1.
        3   -1    0    0  501    0  0.00000000000E+00  0.00000000000E+00 -0.19194712794E+04  0.19194712820E+04  0.10100000352E+00 0.  1.
    10030    2    1    2    0    0  0.00000000000E+00  0.00000000000E+00 -0.74558228945E+03  0.30933602763E+04  0.30021633614E+04 0.  0.
        2    1    3    3  502    0  0.32255181240E+03  0.78289521094E+03 -0.16499108396E+04  0.18545000301E+04  0.25500000920E-02 0.  1.
       -2    1    3    3    0  502 -0.32255181240E+03 -0.78289521094E+03  0.90432855015E+03  0.12388602462E+04  0.25500000920E-02 0. -1.
</event>
<event>
 5   0  0.6636007E-08  0.3000147E+04  0.7818609E-02  0.8243689E-01
       -1   -1    0    0    0  501  0.00000000000E+00  0.00000000000E+00  0.23124065362E+04  0.23124065362E+04  0.50400001928E-02 0. -1.
        1   -1    0    0  501    0  0.00000000000E+00  0.00000000000E+00 -0.97310734017E+03  0.97310734018E+03  0.50400001928E-02 0.  1.
    10030    2    1    2    0    0  0.00000000000E+00  0.00000000000E+00  0.13392991960E+04  0.32855138764E+04  0.30001465123E+04 0.  0.
        2    1    3    3  502    0 -0.53122537537E+02 -0.13190215022E+04  0.14498624725E+04  0.19608010904E+04  0.25500000920E-02 0.  1.
       -2    1    3    3    0  502  0.53122537537E+02  0.13190215022E+04 -0.11056327644E+03  0.13247127860E+04  0.25500000920E-02 0. -1.
</event>
<event>
 5   0  0.6464436E-08  0.2998839E+04  0.7818609E-02  0.8244063E-01
        1   -1    0    0  501    0  0.00000000000E+00  0.00000000000E+00  0.18588577272E+04  0.18588577272E+04  0.50400001928E-02 0.  1.
       -1   -1    0    0    0  501  0.00000000000E+00  0.00000000000E+00 -0.12094837349E+04  0.12094837349E+04  0.50400001928E-02 0. -1.
    10030    2    1    2    0    0  0.00000000000E+00  0.00000000000E+00  0.64937399232E+03  0.30683414621E+04  0.29988385662E+04 0.  0.
        5    1    3    3  502    0  0.50318237582E+02 -0.44452296104E+03 -0.11396011682E+04  0.12242734582E+04  0.46999998093E+01 0. -1.
       -5    1    3    3    0  502 -0.50318237582E+02  0.44452296104E+03  0.17889751605E+04  0.18440680039E+04  0.46999998093E+01 0.  1.
</event>
<event>
 5   0  0.6636007E-08  0.3001318E+04  0.7818609E-02  0.8243355E-01
       -1   -1    0    0    0  501  0.00000000000E+00  0.00000000000E+00  0.13268421897E+04  0.13268421898E+04  0.50400001928E-02 0.  1.
        1   -1    0    0  501    0  0.00000000000E+00  0.00000000000E+00 -0.16972459076E+04  0.16972459077E+04  0.50400001928E-02 0. -1.
    10030    2    1    2    0    0  0.00000000000E+00  0.00000000000E+00 -0.37040371790E+03  0.30240880974E+04  0.30013180282E+04 0.  0.
        2    1    3    3  502    0  0.84097793353E+03  0.12330706910E+04 -0.34217294527E+03  0.15312705633E+04  0.25500000920E-02 0. -1.
       -2    1    3    3    0  502 -0.84097793353E+03 -0.12330706910E+04 -0.28230772631E+02  0.14928175341E+04  0.25500000920E-02 0.  1.
</event>
<event>
 5   0  0.6464436E-08  0.2999526E+04  0.7818609E-02  0.8243866E-01
        1   -1    0    0  501    0  0.00000000000E+00  0.00000000000E+00  0.25691107043E+04  0.25691107043E+04  0.50400001928E-02 0. -1.
       -1   -1    0    0    0  501  0.00000000000E+00  0.00000000000E+00 -0.87551271396E+03  0.87551271397E+03  0.50400001928E-02 0.  1.
    10030    2    1    2    0    0  0.00000000000E+00  0.00000000000E+00  0.16935979903E+04  0.34446234183E+04  0.29995260194E+04 0.  0.
        5    1    3    3  502    0 -0.10365939125E+04 -0.13638040540E+03  0.20815927167E+04  0.23294155667E+04  0.46999998093E+01 0. -1.
       -5    1    3    3    0  502  0.10365939125E+04  0.13638040540E+03 -0.38799472631E+03  0.11152078515E+04  0.46999998093E+01 0.  1.
</event>
<event>
 5   0  0.6636007E-08  0.3000100E+04  0.7818609E-02  0.8243702E-01
       -1   -1    0    0    0  501  0.00000000000E+00  0.00000000000E+00  0.11887813633E+04  0.11887813633E+04  0.50400001928E-02 0.  1.
        1   -1    0    0  501    0  0.00000000000E+00  0.00000000000E+00 -0.18928203568E+04  0.18928203568E+04  0.50400001928E-02 0. -1.
    10030    2    1    2    0    0  0.00000000000E+00  0.00000000000E+00 -0.70403899349E+03  0.30816017201E+04  0.30000997078E+04 0.  0.
        2    1    3    3  502    0 -0.14304100410E+04 -0.23585497898E+03 -0.74777741674E+03  0.16312178032E+04  0.25500000920E-02 0. -1.
       -2    1    3    3    0  502  0.14304100410E+04  0.23585497898E+03  0.43738423250E+02  0.14503839169E+04  0.25500000920E-02 0.  1.
</event>
<event>
 5   0  0.1813720E-07  0.2999745E+04  0.7818609E-02  0.8243804E-01
       -2   -1    0    0    0  501  0.00000000000E+00  0.00000000000E+00  0.13955199381E+04  0.13955199381E+04  0.25500000920E-02 0.  1.
        2   -1    0    0  501    0  0.00000000000E+00  0.00000000000E+00 -0.16120285605E+04  0.16120285605E+04  0.25500000920E-02 0. -1.
    10030    2    1    2    0    0  0.00000000000E+00  0.00000000000E+00 -0.21650862240E+03  0.30075484986E+04  0.29997453204E+04 0.  0.
        3    1    3    3  502    0  0.19191652794E+03 -0.13205956463E+04 -0.79473473568E+03  0.15531928808E+04  0.10100000352E+00 0. -1.
       -3    1    3    3    0  502 -0.19191652794E+03  0.13205956463E+04  0.57822611328E+03  0.14543556178E+04  0.10100000352E+00 0.  1.
</event>
<event>
 5   0  0.1821305E-07  0.3000125E+04  0.7818609E-02  0.8243695E-01
        2   -1    0    0  501    0  0.00000000000E+00  0.00000000000E+00  0.17732277662E+04  0.17732277662E+04  0.25500000920E-02 0.  1.
       -2   -1    0    0    0  501  0.00000000000E+00  0.00000000000E+00 -0.12689779479E+04  0.12689779479E+04  0.25500000920E-02 0. -1.
    10030    2    1    2    0    0  0.00000000000E+00  0.00000000000E+00  0.50424981835E+03  0.30422057141E+04  0.30001246187E+04 0.  0.
        2    1    3    3  502    0  0.10745411095E+04 -0.36028790795E+03 -0.74438038098E+03  0.13559307225E+04  0.25500000920E-02 0. -1.
       -2    1    3    3    0  502 -0.10745411095E+04  0.36028790795E+03  0.12486301993E+04  0.16862749916E+04  0.25500000920E-02 0.  1.
</event>
<event>
 5   0  0.1817566E-07  0.2999089E+04  0.7818609E-02  0.8243991E-01
        2   -1    0    0  501    0  0.00000000000E+00  0.00000000000E+00  0.17113195907E+04  0.17113195907E+04  0.25500000920E-02 0.  1.
       -2   -1    0    0    0  501  0.00000000000E+00  0.00000000000E+00 -0.13139762722E+04  0.13139762722E+04  0.25500000920E-02 0. -1.
    10030    2    1    2    0    0  0.00000000000E+00  0.00000000000E+00  0.39734331846E+03  0.30252958629E+04  0.29990887525E+04 0.  0.
        1    1    3    3  502    0 -0.85727783049E+03 -0.60513837559E+03 -0.88191060546E+03  0.13707239140E+04  0.50400001928E-02 0. -1.
       -1    1    3    3    0  502  0.85727783049E+03  0.60513837559E+03  0.12792539239E+04  0.16545719489E+04  0.50400001928E-02 0.  1.
</event>
<event>
 5   0  0.6636007E-08  0.3001398E+04  0.7818609E-02  0.8243332E-01
       -1   -1    0    0    0  501  0.00000000000E+00  0.00000000000E+00  0.12780769627E+04  0.12780769627E+04  0.50400001928E-02 0. -1.
        1   -1    0    0  501    0  0.00000000000E+00  0.00000000000E+00 -0.17620990433E+04  0.17620990433E+04  0.50400001928E-02 0.  1.
    10030    2    1    2    0    0  0.00000000000E+00  0.00000000000E+00 -0.48402208062E+03  0.30401760061E+04  0.30013984696E+04 0.  0.
        2    1    3    3  502    0 -0.10878862258E+04 -0.10229459811E+04 -0.91146254882E+02  0.14960690360E+04  0.25500000920E-02 0. -1.
       -2    1    3    3    0  502  0.10878862258E+04  0.10229459811E+04 -0.39287582574E+03  0.15441069701E+04  0.25500000920E-02 0.  1.
</event>
<event>
 5   0  0.1810055E-07  0.2996713E+04  0.7818609E-02  0.8244670E-01
        2   -1    0    0  501    0  0.00000000000E+00  0.00000000000E+00  0.72923129301E+03  0.72923129301E+03  0.25500000920E-02 0. -1.
       -2   -1    0    0    0  501  0.00000000000E+00  0.00000000000E+00 -0.30786835079E+04  0.30786835079E+04  0.25500000920E-02 0.  1.
    10030    2    1    2    0    0  0.00000000000E+00  0.00000000000E+00 -0.23494522149E+04  0.38079148009E+04  0.29967131029E+04 0.  0.
        4    1    3    3  502    0  0.59071210925E+03 -0.69306027252E+03 -0.26866941506E+04  0.28368292879E+04  0.12699999809E+01 0.  1.
       -4    1    3    3    0  502 -0.59071210925E+03  0.69306027252E+03  0.33724193570E+03  0.97108551295E+03  0.12699999809E+01 0. -1.
</event>
<event>
 5   0  0.6374748E-08  0.3000304E+04  0.7818609E-02  0.8243644E-01
       -1   -1    0    0    0  501  0.00000000000E+00  0.00000000000E+00  0.15828761613E+04  0.15828761613E+04  0.50400001928E-02 0. -1.
        1   -1    0    0  501    0  0.00000000000E+00  0.00000000000E+00 -0.14217508650E+04  0.14217508650E+04  0.50400001928E-02 0.  1.
    10030    2    1    2    0    0  0.00000000000E+00  0.00000000000E+00  0.16112529624E+03  0.30046270263E+04  0.30003036856E+04 0.  0.
        1    1    3    3  502    0 -0.13617666329E+04 -0.32248746955E+03 -0.46063167358E+03  0.14732915764E+04  0.50400001928E-02 0.  1.
       -1    1    3    3    0  502  0.13617666329E+04  0.32248746955E+03  0.62175696982E+03  0.15313354499E+04  0.50400001928E-02 0. -1.
</event>
<event>
 5   0  0.6525507E-08  0.3000929E+04  0.7818609E-02  0.8243466E-01
        1   -1    0    0  501    0  0.00000000000E+00  0.00000000000E+00  0.18777709715E+04  0.18777709715E+04  0.50400001928E-02 0.  1.
       -1   -1    0    0    0  501  0.00000000000E+00  0.00000000000E+00 -0.11989716557E+04  0.11989716557E+04  0.50400001928E-02 0. -1.
    10030    2    1    2    0    0  0.00000000000E+00  0.00000000000E+00  0.67879931582E+03  0.30767426273E+04  0.30009293033E+04 0.  0.
        4    1    3    3  502    0 -0.74343983907E+02 -0.81071388770E+03  0.16316416462E+04  0.18234692512E+04  0.12699999809E+01 0.  1.
       -4    1    3    3    0  502  0.74343983907E+02  0.81071388770E+03 -0.95284233037E+03  0.12532733760E+04  0.12699999809E+01 0. -1.
</event>
<event>
 5   0  0.1813720E-07  0.2998759E+04  0.7818609E-02  0.8244085E-01
        2   -1    0    0  501    0  0.00000000000E+00  0.00000000000E+00  0.85032522034E+03  0.85032522035E+03  0.25500000920E-02 0. -1.
       -2   -1    0    0    0  501  0.00000000000E+00  0.00000000000E+00 -0.26438583826E+04  0.26438583826E+04  0.25500000920E-02 0.  1.
    10030    2    1    2    0    0  0.00000000000E+00  0.00000000000E+00 -0.17935331622E+04  0.34941836029E+04  0.29987593846E+04 0.  0.
        3    1    3    3  502    0 -0.45021771086E+03 -0.11577717295E+04  0.81598965617E+02  0.12449055250E+04  0.10100000352E+00 0. -1.
       -3    1    3    3    0  502  0.45021771086E+03  0.11577717295E+04 -0.18751321279E+04  0.22492780779E+04  0.10100000352E+00 0.  1.
</event>
<event>
 5   0  0.6464436E-08  0.2998867E+04  0.7818609E-02  0.8244055E-01
        1   -1    0    0  501    0  0.00000000000E+00  0.00000000000E+00  0.15083363398E+04  0.15083363398E+04  0.50400001928E-02 0. -1.
       -1   -1    0    0    0  501  0.00000000000E+00  0.00000000000E+00 -0.14905827312E+04  0.14905827312E+04  0.50400001928E-02 0.  1.
    10030    2    1    2    0    0  0.00000000000E+00  0.00000000000E+00  0.17753608622E+02  0.29989190710E+04  0.29988665198E+04 0.  0.
        5    1    3    3  502    0  0.76605990830E+03  0.63886431930E+03 -0.11106438672E+04  0.14928319702E+04  0.46999998093E+01 0.  1.
       -5    1    3    3    0  502 -0.76605990830E+03 -0.63886431930E+03  0.11283974758E+04  0.15060871008E+04  0.46999998093E+01 0. -1.
</event>
<event>
 5   0  0.1813720E-07  0.3003917E+04  0.7818609E-02  0.8242613E-01
        2   -1    0    0  501    0  0.00000000000E+00  0.00000000000E+00  0.16654960072E+04  0.16654960072E+04  0.25500000920E-02 0.  1.
       -2   -1    0    0    0  501  0.00000000000E+00  0.00000000000E+00 -0.13544793598E+04  0.13544793598E+04  0.25500000920E-02 0. -1.
    10030    2    1    2    0    0  0.00000000000E+00  0.00000000000E+00  0.31101664749E+03  0.30199753670E+04  0.30039174193E+04 0.  0.
        3    1    3    3  502    0  0.11303700170E+04 -0.97274522161E+03 -0.24081179207E+02  0.14914923919E+04  0.10100000352E+00 0.  1.
       -3    1    3    3    0  502 -0.11303700170E+04  0.97274522161E+03  0.33509782669E+03  0.15284829751E+04  0.10100000352E+00 0. -1.
</event>
<event>
 5   0  0.6525507E-08  0.2998436E+04  0.7818609E-02  0.8244178E-01
       -1   -1    0    0    0  501  0.00000000000E+00  0.00000000000E+00  0.13528291557E+04  0.13528291557E+04  0.50400001928E-02 0.  1.
        1   -1    0    0  501    0  0.00000000000E+00  0.00000000000E+00 -0.16614476048E+04  0.16614476048E+04  0.50400001928E-02 0. -1.
    10030    2    1    2    0    0  0.00000000000E+00  0.00000000000E+00 -0.30861844907E+03  0.30142767605E+04  0.29984360993E+04 0.  0.
        4    1    3    3  502    0  0.17312326988E+03  0.46141674940E+03 -0.15776905433E+04  0.16528720902E+04  0.12699999809E+01 0. -1.
       -4    1    3    3    0  502 -0.17312326988E+03 -0.46141674940E+03  0.12690720942E+04  0.13614046703E+04  0.12699999809E+01 0.  1.
</event>
<event>
 5   0  0.6464436E-08  0.3001197E+04  0.7818609E-02  0.8243389E-01
       -1   -1    0    0    0  501  0.00000000000E+00  0.00000000000E+00  0.95388260612E+03  0.95388260613E+03  0.50400001928E-02 0. -1.
        1   -1    0    0  501    0  0.00000000000E+00  0.00000000000E+00 -0.23606630731E+04  0.23606630731E+04  0.50400001928E-02 0.  1.
    10030    2    1    2    0    0  0.00000000000E+00  0.00000000000E+00 -0.14067804670E+04  0.33145456793E+04  0.30011967242E+04 0.  0.
        5    1    3    3  502    0 -0.56523098658E+03  0.61460907583E+03 -0.20803806270E+04  0.22417038224E+04  0.46999998093E+01 0.  1.
       -5    1    3    3    0  502  0.56523098658E+03 -0.61460907583E+03  0.67360015998E+03  0.10728418568E+04  0.46999998093E+01 0. -1.
</event>
<event>
 5   0  0.1914439E-07  0.3000706E+04  0.7818609E-02  0.8243529E-01
        2   -1    0    0  501    0  0.00000000000E+00  0.00000000000E+00  0.22316424348E+04  0.22316424348E+04  0.25500000920E-02 0.  1.
       -2   -1    0    0    0  501  0.00000000000E+00  0.00000000000E+00 -0.10087006396E+04  0.10087006396E+04  0.25500000920E-02 0. -1.
    10030    2    1    2    0    0  0.00000000000E+00  0.00000000000E+00  0.12229417952E+04  0.32403430744E+04  0.30007060179E+04 0.  0.
        5    1    3    3  502    0  0.51891857936E+03 -0.51846422655E+03 -0.80184932907E+03  0.10867686427E+04  0.46999998093E+01 0. -1.
       -5    1    3    3    0  502 -0.51891857936E+03  0.51846422655E+03  0.20247911242E+04  0.21535744317E+04  0.46999998093E+01 0.  1.
</event>
<event>
 5   0  0.6374748E-08  0.3012896E+04  0.7818609E-02  0.8240058E-01
        1   -1    0    0  501    0  0.00000000000E+00  0.00000000000E+00  0.17233372848E+04  0.17233372848E+04  0.50400001928E-02 0.  1.
       -1   -1    0    0    0  501  0.00000000000E+00  0.00000000000E+00 -0.13168554873E+04  0.13168554873E+04  0.50400001928E-02 0. -1.
    10030    2    1    2    0    0  0.00000000000E+00  0.00000000000E+00  0.40648179748E+03  0.30401927722E+04  0.30128963872E+04 0.  0.
        1    1    3    3  502    0  0.43956846420E+03 -0.76707494462E+03 -0.10275481424E+04  0.13555366429E+04  0.50400001928E-02 0. -1.
       -1    1    3    3    0  502 -0.43956846420E+03  0.76707494462E+03  0.14340299398E+04  0.16846561292E+04  0.50400001928E-02 0.  1.
</event>
<event>
 5   0  0.1914439E-07  0.3000096E+04  0.7818609E-02  0.8243703E-01
       -2   -1    0    0    0  501  0.00000000000E+00  0.00000000000E+00  0.15043340317E+04  0.15043340317E+04  0.25500000920E-02 0.  1.
        2   -1    0    0  501    0  0.00000000000E+00  0.00000000000E+00 -0.14957745633E+04  0.14957745633E+04  0.25500000920E-02 0. -1.
    10030    2    1    2    0    0  0.00000000000E+00  0.00000000000E+00  0.85594683835E+01  0.30001085951E+04  0.30000963847E+04 0.  0.
        5    1    3    3  502    0  0.22136632324E+03  0.95565727347E+03 -0.11305546586E+04  0.14968165550E+04  0.46999998093E+01 0. -1.
       -5    1    3    3    0  502 -0.22136632324E+03 -0.95565727347E+03  0.11391141270E+04  0.15032920400E+04  0.46999998093E+01 0.  1.
</event>
<event>
 5   0  0.6636007E-08  0.3001452E+04  0.7818609E-02  0.8243316E-01
       -1   -1    0    0    0  501  0.00000000000E+00  0.00000000000E+00  0.12358178551E+04  0.12358178551E+04  0.50400001928E-02 0. -1.
        1   -1    0    0  501    0  0.00000000000E+00  0.00000000000E+00 -0.18224191425E+04  0.18224191425E+04  0.50400001928E-02 0.  1.
    10030    2    1    2    0    0  0.00000000000E+00  0.00000000000E+00 -0.58660128740E+03  0.30582369976E+04  0.30014517260E+04 0.  0.
        2    1    3    3  502    0  0.56198248920E+03 -0.10476124696E+04  0.63992145209E+03  0.13501169096E+04  0.25500000920E-02 0. -1.
       -2    1    3    3    0  502 -0.56198248920E+03  0.10476124696E+04 -0.12265227395E+04  0.17081200880E+04  0.25500000920E-02 0.  1.
</event>
<event>
 5   0  0.6679022E-08  0.3001168E+04  0.7818609E-02  0.8243397E-01
       -1   -1    0    0    0  501  0.00000000000E+00  0.00000000000E+00  0.22436835116E+04  0.22436835116E+04  0.50400001928E-02 0.  1.
        1   -1    0    0  501    0  0.00000000000E+00  0.00000000000E+00 -0.10035962175E+04  0.10035962175E+04  0.50400001928E-02 0. -1.
    10030    2    1    2    0    0  0.00000000000E+00  0.00000000000E+00  0.12400872941E+04  0.32472797290E+04  0.30011679629E+04 0.  0.
        3    1    3    3  502    0  0.27949936345E+03 -0.68648495904E+03  0.20317893618E+04  0.21627643223E+04  0.10100000352E+00 0.  1.
       -3    1    3    3    0  502 -0.27949936345E+03  0.68648495904E+03 -0.79170206770E+03  0.10845154067E+04  0.10100000352E+00 0. -1.
</event>
<event>
 5   0  0.6464436E-08  0.3002449E+04  0.7818609E-02  0.8243032E-01
        1   -1    0    0  501    0  0.00000000000E+00  0.00000000000E+00  0.10382181085E+04  0.10382181085E+04  0.50400001928E-02 0. -1.
       -1   -1    0    0    0  501  0.00000000000E+00  0.00000000000E+00 -0.21707142017E+04  0.21707142017E+04  0.50400001928E-02 0.  1.
    10030    2    1    2    0    0  0.00000000000E+00  0.00000000000E+00 -0.11324960932E+04  0.32089323103E+04  0.30024488623E+04 0.  0.
        5    1    3    3  502    0 -0.62586121820E+03  0.70808686616E+03 -0.18128974496E+04  0.20444335468E+04  0.46999998093E+01 0.  1.
       -5    1    3    3    0  502  0.62586121820E+03 -0.70808686616E+03  0.68040135637E+03  0.11644987635E+04  0.46999998093E+01 0. -1.
</event>
<event>
 5   0  0.1821305E-07  0.3000274E+04  0.7818609E-02  0.8243653E-01
        2   -1    0    0  501    0  0.00000000000E+00  0.00000000000E+00  0.11660083523E+04  0.11660083523E+04  0.25500000920E-02 0. -1.
       -2   -1    0    0    0  501  0.00000000000E+00  0.00000000000E+00 -0.19300132908E+04  0.19300132908E+04  0.25500000920E-02 0.  1.
    10030    2    1    2    0    0  0.00000000000E+00  0.00000000000E+00 -0.76400493849E+03  0.30960216431E+04  0.30002743989E+04 0.  0.
        2    1    3    3  502    0 -0.94257541358E+03 -0.65969348318E+02 -0.15843519667E+04  0.18447144818E+04  0.25500000920E-02 0.  1.
       -2    1    3    3    0  502  0.94257541358E+03  0.65969348318E+02  0.82034702817E+03  0.12513071613E+04  0.25500000920E-02 0. -1.
</event>
<event>
 5   0  0.1817566E-07  0.3003153E+04  0.7818609E-02  0.8242831E-01
        2   -1    0    0  501    0  0.00000000000E+00  0.00000000000E+00  0.22467398059E+04  0.22467398059E+04  0.25500000920E-02 0. -1.
       -2   -1    0    0    0  501  0.00000000000E+00  0.00000000000E+00 -0.10035575170E+04  0.10035575170E+04  0.25500000920E-02 0.  1.
    10030    2    1    2    0    0  0.00000000000E+00  0.00000000000E+00  0.12431822889E+04  0.32502973230E+04  0.30031534234E+04 0.  0.
        1    1    3    3  502    0  0.45839725587E+03  0.87024993305E+03  0.18495401513E+04  0.20948178349E+04  0.50400001928E-02 0. -1.
       -1    1    3    3    0  502 -0.45839725587E+03 -0.87024993305E+03 -0.60635786235E+03  0.11554794881E+04  0.50400001928E-02 0.  1.
</event>
<event>
 5   0  0.6374748E-08  0.3000804E+04  0.7818609E-02  0.8243501E-01
       -1   -1    0    0    0  501  0.00000000000E+00  0.00000000000E+00  0.11188901641E+04  0.11188901641E+04  0.50400001928E-02 0. -1.
        1   -1    0    0  501    0  0.00000000000E+00  0.00000000000E+00 -0.20119994443E+04  0.20119994443E+04  0.50400001928E-02 0.  1.
    10030    2    1    2    0    0  0.00000000000E+00  0.00000000000E+00 -0.89310928016E+03  0.31308896084E+04  0.30008041512E+04 0.  0.
        1    1    3    3  502    0 -0.34139568156E+03  0.10573310887E+04 -0.14985840246E+04  0.18655439210E+04  0.50400001928E-02 0.  1.
       -1    1    3    3    0  502  0.34139568156E+03 -0.10573310887E+04  0.60547474440E+03  0.12653456874E+04  0.50400001928E-02 0. -1.
</event>
<event>
 5   0  0.6679022E-08  0.3001833E+04  0.7818609E-02  0.8243208E-01
        1   -1    0    0  501    0  0.00000000000E+00  0.00000000000E+00  0.20305311837E+04  0.20305311837E+04  0.50400001928E-02 0.  1.
       -1   -1    0    0    0  501  0.00000000000E+00  0.00000000000E+00 -0.11094388258E+04  0.11094388258E+04  0.50400001928E-02 0. -1.
    10030    2    1    2    0    0  0.00000000000E+00  0.00000000000E+00  0.92109235789E+03  0.31399700096E+04  0.30018328616E+04 0.  0.
        3    1    3    3  502    0  0.77135224130E+03 -0.81875509999E+03 -0.57886374168E+03  0.12650800115E+04  0.10100000352E+00 0. -1.
       -3    1    3    3    0  502 -0.77135224130E+03  0.81875509999E+03  0.14999560996E+04  0.18748899980E+04  0.10100000352E+00 0.  1.
</event>
<event>
 5   0  0.6679022E-08  0.3000613E+04  0.7818609E-02  0.8243556E-01
       -1   -1    0    0    0  501  0.00000000000E+00  0.00000000000E+00  0.10913058384E+04  0.10913058384E+04  0.50400001928E-02 0. -1.
        1   -1    0    0  501    0  0.00000000000E+00  0.00000000000E+00 -0.20625932397E+04  0.20625932397E+04  0.50400001928E-02 0.  1.
    10030    2    1    2    0    0  0.00000000000E+00  0.00000000000E+00 -0.97128740124E+03  0.31538990781E+04  0.30006133005E+04 0.  0.
        3    1    3    3  502    0  0.14015890526E+04  0.27346641096E+03 -0.20484016520E+01  0.14280195925E+04  0.10100000352E+00 0. -1.
       -3    1    3    3    0  502 -0.14015890526E+04 -0.27346641096E+03 -0.96923899959E+03  0.17258794856E+04  0.10100000352E+00 0.  1.
</event>
<event>
 5   0  0.6525507E-08  0.3000365E+04  0.7818609E-02  0.8243627E-01
       -1   -1    0    0    0  501  0.00000000000E+00  0.00000000000E+00  0.16730681005E+04  0.16730681005E+04  0.50400001928E-02 0.  1.
        1   -1    0    0  501    0  0.00000000000E+00  0.00000000000E+00 -0.13451617545E+04  0.13451617545E+04  0.50400001928E-02 0. -1.
    10030    2    1    2    0    0  0.00000000000E+00  0.00000000000E+00  0.32790634601E+03  0.30182298550E+04  0.30003647921E+04 0.  0.
        4    1    3    3  502    0 -0.40981910590E+03 -0.11989563540E+04 -0.64400885960E+03  0.14213363650E+04  0.12699999809E+01 0. -1.
       -4    1    3    3    0  502  0.40981910590E+03  0.11989563540E+04  0.97191520561E+03  0.15968934900E+04  0.12699999809E+01 0.  1.
</event>
<event>
 5   0  0.1817566E-07  0.2997356E+04  0.7818609E-02  0.8244486E-01
        2   -1    0    0  501    0  0.00000000000E+00  0.00000000000E+00  0.22526816377E+04  0.22526816377E+04  0.25500000920E-02 0.  1.
       -2   -1    0    0    0  501  0.00000000000E+00  0.00000000000E+00 -0.99704992549E+03  0.99704992550E+03  0.25500000920E-02 0. -1.
    10030    2    1    2    0    0  0.00000000000E+00  0.00000000000E+00  0.12556317122E+04  0.32497315632E+04  0.29973562078E+04 0.  0.
        1    1    3    3  502    0  0.25535266952E+02 -0.82551667570E+03 -0.72804300941E+03  0.11009888534E+04  0.50400001928E-02 0. -1.
       -1    1    3    3    0  502 -0.25535266952E+02  0.82551667570E+03  0.19836747216E+04  0.21487427098E+04  0.50400001928E-02 0.  1.
</event>
<event>
 5   0  0.1813720E-07  0.2999996E+04  0.7818609E-02  0.8243732E-01
       -2   -1    0    0    0  501  0.00000000000E+00  0.00000000000E+00  0.15359763198E+04  0.15359763198E+04  0.25500000920E-02 0. -1.
        2   -1    0    0  501    0  0.00000000000E+00  0.00000000000E+00 -0.14648625514E+04  0.14648625514E+04  0.25500000920E-02 0.  1.
    10030    2    1    2    0    0  0.00000000000E+00  0.00000000000E+00  0.71113768404E+02  0.30008388712E+04  0.29999961271E+04 0.  0.
        3    1    3    3  502    0 -0.10057851466E+04 -0.76667479986E+02  0.11460545550E+04  0.15267359683E+04  0.10100000352E+00 0.  1.
       -3    1    3    3    0  502  0.10057851466E+04  0.76667479986E+02 -0.10749407866E+04  0.14741029029E+04  0.10100000352E+00 0. -1.
</event>
<event>
 5   0  0.6679022E-08  0.3000598E+04  0.7818609E-02  0.8243560E-01
        1   -1    0    0  501    0  0.00000000000E+00  0.00000000000E+00  0.20432902156E+04  0.20432902157E+04  0.50400001928E-02 0. -1.
       -1   -1    0    0    0  501  0.00000000000E+00  0.00000000000E+00 -0.11016044203E+04  0.11016044203E+04  0.50400001928E-02 0.  1.
    10030    2    1    2    0    0  0.00000000000E+00  0.00000000000E+00  0.94168579532E+03  0.31448946360E+04  0.30005982961E+04 0.  0.
        3    1    3    3  502    0  0.61048255337E+03 -0.52031897585E+02 -0.96450415298E+03  0.11426567891E+04  0.10100000352E+00 0.  1.
       -3    1    3    3    0  502 -0.61048255337E+03  0.52031897585E+02  0.19061899483E+04  0.20022378469E+04  0.10100000352E+00 0. -1.
</event>
<event>
 5   0  0.1810055E-07  0.2999049E+04  0.7818609E-02  0.8244002E-01
       -2   -1    0    0    0  501  0.00000000000E+00  0.00000000000E+00  0.12758901609E+04  0.12758901609E+04  0.25500000920E-02 0. -1.
        2   -1    0    0  501    0  0.00000000000E+00  0.00000000000E+00 -0.17623569003E+04  0.17623569003E+04  0.25500000920E-02 0.  1.
    10030    2    1    2    0    0  0.00000000000E+00  0.00000000000E+00 -0.48646673948E+03  0.30382470612E+04  0.29990490687E+04 0.  0.
        4    1    3    3  502    0 -0.67486777972E+03  0.22285348073E+03 -0.15808934321E+04  0.17333020078E+04  0.12699999809E+01 0.  1.
       -4    1    3    3    0  502  0.67486777972E+03 -0.22285348073E+03  0.10944266926E+04  0.13049450534E+04  0.12699999809E+01 0. -1.
</event>
<event>
 5   0  0.6679022E-08  0.3000263E+04  0.7818609E-02  0.8243656E-01
        1   -1    0    0  501    0  0.00000000000E+00  0.00000000000E+00  0.15900165467E+04  0.15900165467E+04  0.50400001928E-02 0. -1.
       -1   -1    0    0    0  501  0.00000000000E+00  0.00000000000E+00 -0.14153277160E+04  0.14153277160E+04  0.50400001928E-02 0.  1.
    10030    2    1    2    0    0  0.00000000000E+00  0.00000000000E+00  0.17468883076E+03  0.30053442627E+04  0.30002629801E+04 0.  0.
        3    1    3    3  502    0  0.10370336465E+02 -0.23282999525E+03  0.15717709150E+04  0.15889560000E+04  0.10100000352E+00 0. -1.
       -3    1    3    3    0  502 -0.10370336465E+02  0.23282999525E+03 -0.13970820842E+04  0.14163882627E+04  0.10100000352E+00 0.  1.
</event>
<event>
 5   0  0.6679022E-08  0.3000718E+04  0.7818609E-02  0.8243526E-01
        1   -1    0    0  501    0  0.00000000000E+00  0.00000000000E+00  0.31192676983E+04  0.31192676983E+04  0.50400001928E-02 0. -1.
       -1   -1    0    0    0  501  0.00000000000E+00  0.00000000000E+00 -0.72166866006E+03  0.72166866008E+03  0.50400001928E-02 0.  1.
    10030    2    1    2    0    0  0.00000000000E+00  0.00000000000E+00  0.23975990383E+04  0.38409363584E+04  0.30007184075E+04 0.  0.
        3    1    3    3  502    0  0.77887727499E+02 -0.10589150176E+04  0.25556719976E+04  0.27674585602E+04  0.10100000352E+00 0. -1.
       -3    1    3    3    0  502 -0.77887727499E+02  0.10589150176E+04 -0.15807295935E+03  0.10734777982E+04  0.10100000352E+00 0.  1.
</event>
<event>
 5   0  0.1813720E-07  0.2999833E+04  0.7818609E-02  0.8243778E-01
       -2   -1    0    0    0  501  0.00000000000E+00  0.00000000000E+00  0.10675509230E+04  0.10675509230E+04  0.25500000920E-02 0. -1.
        2   -1    0    0  501    0  0.00000000000E+00  0.00000000000E+00 -0.21073937503E+04  0.21073937503E+04  0.25500000920E-02 0.  1.
    10030    2    1    2    0    0  0.00000000000E+00  0.00000000000E+00 -0.10398428273E+04  0.31749446733E+04  0.29998334242E+04 0.  0.
        3    1    3    3  502    0  0.60568160884E+03  0.30294710161E+03  0.89653013743E+03  0.11235628399E+04  0.10100000352E+00 0. -1.
       -3    1    3    3    0  502 -0.60568160884E+03 -0.30294710161E+03 -0.19363729647E+04  0.20513818334E+04  0.10100000352E+00 0.  1.
</event>
<event>
 5   0  0.6525507E-08  0.3000257E+04  0.7818609E-02  0.8243657E-01
       -1   -1    0    0    0  501  0.00000000000E+00  0.00000000000E+00  0.18232287444E+04  0.18232287445E+04  0.50400001928E-02 0. -1.
        1   -1    0    0  501    0  0.00000000000E+00  0.00000000000E+00 -0.12342860700E+04  0.12342860700E+04  0.50400001928E-02 0.  1.
    10030    2    1    2    0    0  0.00000000000E+00  0.00000000000E+00  0.58894267443E+03  0.30575148145E+04  0.30002572168E+04 0.  0.
        4    1    3    3  502    0 -0.10698528748E+04  0.10502826276E+04  0.34747799546E+03  0.15389676221E+04  0.12699999809E+01 0. -1.
       -4    1    3    3    0  502  0.10698528748E+04 -0.10502826276E+04  0.24146467897E+03  0.15185471924E+04  0.12699999809E+01 0.  1.
</event>
<event>
 5   0  0.6679022E-08  0.2999612E+04  0.7818609E-02  0.8243842E-01
       -1   -1    0    0    0  501  0.00000000000E+00  0.00000000000E+00  0.13193238594E+04  0.13193238594E+04  0.50400001928E-02 0. -1.
        1   -1    0    0  501    0  0.00000000000E+00  0.00000000000E+00 -0.17049781413E+04  0.17049781413E+04  0.50400001928E-02 0.  1.
    10030    2    1    2    0    0  0.00000000000E+00  0.00000000000E+00 -0.38565428189E+03  0.30243020007E+04  0.29996122027E+04 0.  0.
        3    1    3    3  502    0 -0.10362520601E+04  0.12757768489E+03  0.89275438984E+03  0.13737193340E+04  0.10100000352E+00 0. -1.
       -3    1    3    3    0  502  0.10362520601E+04 -0.12757768489E+03 -0.12784086717E+04  0.16505826668E+04  0.10100000352E+00 0.  1.
</event>
<event>
 5   0  0.1821305E-07  0.3000062E+04  0.7818609E-02  0.8243713E-01
       -2   -1    0    0    0  501  0.00000000000E+00  0.00000000000E+00  0.13494601845E+04  0.13494601845E+04  0.25500000920E-02 0. -1.
        2   -1    0    0  501    0  0.00000000000E+00  0.00000000000E+00 -0.16674025345E+04  0.16674025345E+04  0.25500000920E-02 0.  1.
    10030    2    1    2    0    0  0.00000000000E+00  0.00000000000E+00 -0.31794234999E+03  0.30168627190E+04  0.30000622206E+04 0.  0.
        2    1    3    3  502    0 -0.81054380196E+03 -0.12566898521E+04 -0.40657328572E+02  0.14959624519E+04  0.25500000920E-02 0. -1.
       -2    1    3    3    0  502  0.81054380196E+03  0.12566898521E+04 -0.27728502141E+03  0.15209002671E+04  0.25500000920E-02 0.  1.
</event>
<event>
 5   0  0.6525507E-08  0.2999698E+04  0.7818609E-02  0.8243817E-01
       -1   -1    0    0    0  501  0.00000000000E+00  0.00000000000E+00  0.17149264414E+04  0.17149264414E+04  0.50400001928E-02 0.  1.
        1   -1    0    0  501    0  0.00000000000E+00  0.00000000000E+00 -0.13117450966E+04  0.13117450966E+04  0.50400001928E-02 0. -1.
    10030    2    1    2    0    0  0.00000000000E+00  0.00000000000E+00  0.40318134485E+03  0.30266715380E+04  0.29996975518E+04 0.  0.
        4    1    3    3  502    0 -0.38660569875E+03  0.45360523748E+03  0.15903111745E+04  0.16983265064E+04  0.12699999809E+01 0.  1.
       -4    1    3    3    0  502  0.38660569875E+03 -0.45360523748E+03 -0.11871298296E+04  0.13283450316E+04  0.12699999809E+01 0. -1.
</event>
<event>
 5   0  0.1817566E-07  0.2999076E+04  0.7818609E-02  0.8243995E-01
       -2   -1    0    0    0  501  0.00000000000E+00  0.00000000000E+00  0.11992224508E+04  0.11992224508E+04  0.25500000920E-02 0. -1.
        2   -1    0    0  501    0  0.00000000000E+00  0.00000000000E+00 -0.18750602607E+04  0.18750602607E+04  0.25500000920E-02 0.  1.
    10030    2    1    2    0    0  0.00000000000E+00  0.00000000000E+00 -0.67583780994E+03  0.30742827115E+04  0.29990760986E+04 0.  0.
        1    1    3    3  502    0 -0.11139992951E+03 -0.12272907337E+04 -0.12137218580E+04  0.17296743156E+04  0.50400001928E-02 0.  1.
       -1    1    3    3    0  502  0.11139992951E+03  0.12272907337E+04  0.53788404806E+03  0.13446083960E+04  0.50400001928E-02 0. -1.
</event>
<event>
 5   0  0.6636007E-08  0.2999209E+04  0.7818609E-02  0.8243957E-01
        1   -1    0    0  501    0  0.00000000000E+00  0.00000000000E+00  0.13731841753E+04  0.13731841753E+04  0.50400001928E-02 0. -1.
       -1   -1    0    0    0  501  0.00000000000E+00  0.00000000000E+00 -0.16376635285E+04  0.16376635285E+04  0.50400001928E-02 0.  1.
    10030    2    1    2    0    0  0.00000000000E+00  0.00000000000E+00 -0.26447935317E+03  0.30108477039E+04  0.29992089903E+04 0.  0.
        2    1    3    3  502    0  0.48519388662E+03  0.10175535354E+04 -0.11250087298E+04  0.15926308258E+04  0.25500000920E-02 0.  1.
       -2    1    3    3    0  502 -0.48519388662E+03 -0.10175535354E+04  0.86052937667E+03  0.14182168781E+04  0.25500000920E-02 0. -1.
</event>
<event>
 5   0  0.6525507E-08  0.2999756E+04  0.7818609E-02  0.8243801E-01
        1   -1    0    0  501    0  0.00000000000E+00  0.00000000000E+00  0.16549683301E+04  0.16549683301E+04  0.50400001928E-02 0. -1.
       -1   -1    0    0    0  501  0.00000000000E+00  0.00000000000E+00 -0.13593214021E+04  0.13593214021E+04  0.50400001928E-02 0.  1.
    10030    2    1    2    0    0  0.00000000000E+00  0.00000000000E+00  0.29564692798E+03  0.30142897322E+04  0.29997559040E+04 0.  0.
        4    1    3    3  502    0 -0.78604729777E+01  0.13713311517E+04  0.75823793389E+03  0.15670154090E+04  0.12699999809E+01 0.  1.
       -4    1    3    3    0  502  0.78604729777E+01 -0.13713311517E+04 -0.46259100592E+03  0.14472743231E+04  0.12699999809E+01 0. -1.
</event>
<event>
 5   0  0.1813720E-07  0.3007944E+04  0.7818609E-02  0.8241466E-01
       -2   -1    0    0    0  501  0.00000000000E+00  0.00000000000E+00  0.22678552326E+04  0.22678552326E+04  0.25500000920E-02 0.  1.
        2   -1    0    0  501    0  0.00000000000E+00  0.00000000000E+00 -0.99738834973E+03  0.99738834973E+03  0.25500000920E-02 0. -1.
    10030    2    1    2    0    0  0.00000000000E+00  0.00000000000E+00  0.12704668829E+04  0.32652435823E+04  0.30079444063E+04 0.  0.
        3    1    3    3  502    0  0.39374658216E+02  0.77653330963E+02  0.22651172341E+04  0.22667899104E+04  0.10100000352E+00 0.  1.
       -3    1    3    3    0  502 -0.39374658216E+02 -0.77653330963E+02 -0.99465035125E+03  0.99845367191E+03  0.10100000352E+00 0. -1.
</event>
<event>
 5   0  0.6679022E-08  0.2999906E+04  0.7818609E-02  0.8243758E-01
        1   -1    0    0  501    0  0.00000000000E+00  0.00000000000E+00  0.13223108871E+04  0.13223108871E+04  0.50400001928E-02 0. -1.
       -1   -1    0    0    0  501  0.00000000000E+00  0.00000000000E+00 -0.17014603874E+04  0.17014603874E+04  0.50400001928E-02 0.  1.
    10030    2    1    2    0    0  0.00000000000E+00  0.00000000000E+00 -0.37914950029E+03  0.30237712745E+04  0.29999063947E+04 0.  0.
        3    1    3    3  502    0 -0.12690223589E+04  0.25361326032E+03 -0.95397581013E+03  0.16077335879E+04  0.10100000352E+00 0.  1.
       -3    1    3    3    0  502  0.12690223589E+04 -0.25361326032E+03  0.57482630984E+03  0.14160376866E+04  0.10100000352E+00 0. -1.
</event>
<event>
 5   0  0.1821305E-07  0.2999051E+04  0.7818609E-02  0.8244002E-01
       -2   -1    0    0    0  501  0.00000000000E+00  0.00000000000E+00  0.91276159988E+03  0.91276159988E+03  0.25500000920E-02 0.  1.
        2   -1    0    0  501    0  0.00000000000E+00  0.00000000000E+00 -0.24634871492E+04  0.24634871492E+04  0.25500000920E-02 0. -1.
    10030    2    1    2    0    0  0.00000000000E+00  0.00000000000E+00 -0.15507255493E+04  0.33762487491E+04  0.29990508309E+04 0.  0.
        2    1    3    3  502    0  0.13510447113E+03  0.59186227162E+03 -0.23189533225E+04  0.23971021419E+04  0.25500000920E-02 0. -1.
       -2    1    3    3    0  502 -0.13510447113E+03 -0.59186227162E+03  0.76822777324E+03  0.97914660714E+03  0.25500000920E-02 0.  1.
</event>
<event>
 5   0  0.1813720E-07  0.3000295E+04  0.7818609E-02  0.8243647E-01
       -2   -1    0    0    0  501  0.00000000000E+00  0.00000000000E+00  0.19890231056E+04  0.19890231056E+04  0.25500000920E-02 0. -1.
        2   -1    0    0  501    0  0.00000000000E+00  0.00000000000E+00 -0.11314310796E+04  0.11314310796E+04  0.25500000920E-02 0.  1.
    10030    2    1    2    0    0  0.00000000000E+00  0.00000000000E+00  0.85759202596E+03  0.31204541852E+04  0.30002950253E+04 0.  0.
        3    1    3    3  502    0  0.18079895857E+03 -0.72297682603E+03  0.17828819637E+04  0.19323694940E+04  0.10100000352E+00 0. -1.
       -3    1    3    3    0  502 -0.18079895857E+03  0.72297682603E+03 -0.92528993777E+03  0.11880846912E+04  0.10100000352E+00 0.  1.
</event>
<event>
 5   0  0.1821305E-07  0.3000935E+04  0.7818609E-02  0.8243464E-01
        2   -1    0    0  501    0  0.00000000000E+00  0.00000000000E+00  0.26423483992E+04  0.26423483992E+04  0.25500000920E-02 0.  1.
       -2   -1    0    0    0  501  0.00000000000E+00  0.00000000000E+00 -0.85204633627E+03  0.85204633628E+03  0.25500000920E-02 0. -1.
    10030    2    1    2    0    0  0.00000000000E+00  0.00000000000E+00  0.17903020629E+04  0.34943947355E+04  0.30009353693E+04 0.  0.
        2    1    3    3  502    0 -0.94907122927E+03 -0.11365310216E+04  0.11779057988E+04  0.18920626396E+04  0.25500000920E-02 0.  1.
       -2    1    3    3    0  502  0.94907122927E+03  0.11365310216E+04  0.61239626412E+03  0.16023320959E+04  0.25500000920E-02 0. -1.
</event>
<event>
 5   0  0.1821305E-07  0.2998255E+04  0.7818609E-02  0.8244229E-01
       -2   -1    0    0    0  501  0.00000000000E+00  0.00000000000E+00  0.91267061844E+03  0.91267061845E+03  0.25500000920E-02 0. -1.
        2   -1    0    0  501    0  0.00000000000E+00  0.00000000000E+00 -0.24624245575E+04  0.24624245575E+04  0.25500000920E-02 0.  1.
    10030    2    1    2    0    0  0.00000000000E+00  0.00000000000E+00 -0.15497539391E+04  0.33750951760E+04  0.29982545214E+04 0.  0.
        2    1    3    3  502    0 -0.13085735995E+03  0.13024018552E+04 -0.15974823232E+04  0.20652660880E+04  0.25500000920E-02 0. -1.
       -2    1    3    3    0  502  0.13085735995E+03 -0.13024018552E+04  0.47728384075E+02  0.13098290880E+04  0.25500000920E-02 0.  1.
</event>
<event>
 5   0  0.6464436E-08  0.3000664E+04  0.7818609E-02  0.8243541E-01
       -1   -1    0    0    0  501  0.00000000000E+00  0.00000000000E+00  0.99889895923E+03  0.99889895924E+03  0.50400001928E-02 0.  1.
        1   -1    0    0  501    0  0.00000000000E+00  0.00000000000E+00 -0.22534766461E+04  0.22534766461E+04  0.50400001928E-02 0. -1.
    10030    2    1    2    0    0  0.00000000000E+00  0.00000000000E+00 -0.12545776869E+04  0.32523756054E+04  0.30006635776E+04 0.  0.
        5    1    3    3  502    0  0.67828761118E+03 -0.16942375789E+03  0.81154404862E+03  0.10711696066E+04  0.46999998093E+01 0.  1.
       -5    1    3    3    0  502 -0.67828761118E+03  0.16942375789E+03 -0.20661217355E+04  0.21812059988E+04  0.46999998093E+01 0. -1.
</event>
<event>
 5   0  0.6525507E-08  0.2998702E+04  0.7818609E-02  0.8244102E-01
       -1   -1    0    0    0  501  0.00000000000E+00  0.00000000000E+00  0.93593155426E+03  0.93593155427E+03  0.50400001928E-02 0. -1.
        1   -1    0    0  501    0  0.00000000000E+00  0.00000000000E+00 -0.24019423678E+04  0.24019423678E+04  0.50400001928E-02 0.  1.
    10030    2    1    2    0    0  0.00000000000E+00  0.00000000000E+00 -0.14660108136E+04  0.33378739221E+04  0.29987021550E+04 0.  0.
        4    1    3    3  502    0 -0.14370250494E+03  0.10369697539E+04  0.46175496834E+03  0.11441922671E+04  0.12699999809E+01 0.  1.
       -4    1    3    3    0  502  0.14370250494E+03 -0.10369697539E+04 -0.19277657819E+04  0.21936816550E+04  0.12699999809E+01 0. -1.
</event>
<event>
 5   0  0.1821305E-07  0.2999837E+04  0.7818609E-02  0.8243777E-01
       -2   -1    0    0    0  501  0.00000000000E+00  0.00000000000E+00  0.13478438920E+04  0.13478438921E+04  0.25500000920E-02 0.  1.
        2   -1    0    0  501    0  0.00000000000E+00  0.00000000000E+00 -0.16691515902E+04  0.16691515903E+04  0.25500000920E-02 0. -1.
    10030    2    1    2    0    0  0.00000000000E+00  0.00000000000E+00 -0.32130769820E+03  0.30169954823E+04  0.29998371795E+04 0.  0.
        2    1    3    3  502    0 -0.91890242925E+02  0.57262776690E+03 -0.15518261692E+04  0.16566565232E+04  0.25500000920E-02 0. -1.
       -2    1    3    3    0  502  0.91890242925E+02 -0.57262776690E+03  0.12305184710E+04  0.13603389591E+04  0.25500000920E-02 0.  1.
</event>
<event>
 5   0  0.1821305E-07  0.2998665E+04  0.7818609E-02  0.8244112E-01
        2   -1    0    0  501    0  0.00000000000E+00  0.00000000000E+00  0.12087870161E+04  0.12087870161E+04  0.25500000920E-02 0. -1.
       -2   -1    0    0    0  501  0.00000000000E+00  0.00000000000E+00 -0.18597140977E+04  0.18597140977E+04  0.25500000920E-02 0.  1.
    10030    2    1    2    0    0  0.00000000000E+00  0.00000000000E+00 -0.65092708160E+03  0.30685011139E+04  0.29986652064E+04 0.  0.
        2    1    3    3  502    0 -0.11493844155E+03 -0.48901851877E+03  0.11201103903E+04  0.12275981604E+04  0.25500000920E-02 0. -1.
       -2    1    3    3    0  502  0.11493844155E+03  0.48901851877E+03 -0.17710374719E+04  0.18409029534E+04  0.25500000920E-02 0.  1.
</event>
<event>
 5   0  0.6017625E-08  0.2999907E+04  0.7818609E-02  0.8243757E-01
        3   -1    0    0  501    0  0.00000000000E+00  0.00000000000E+00  0.15746782690E+04  0.15746782723E+04  0.10100000352E+00 0.  1.
       -3   -1    0    0    0  501  0.00000000000E+00  0.00000000000E+00 -0.14287749283E+04  0.14287749319E+04  0.10100000352E+00 0. -1.
    10030    2    1    2    0    0  0.00000000000E+00  0.00000000000E+00  0.14590334072E+03  0.30034532041E+04  0.29999072260E+04 0.  0.
        5    1    3    3  502    0  0.93360085217E+03  0.21617036425E+03 -0.10823180706E+04  0.14456052966E+04  0.46999998093E+01 0. -1.
       -5    1    3    3    0  502 -0.93360085217E+03 -0.21617036425E+03  0.12282214114E+04  0.15578479075E+04  0.46999998093E+01 0.  1.
</event>
<event>
 5   0  0.1813720E-07  0.2999732E+04  0.7818609E-02  0.8243807E-01
        2   -1    0    0  501    0  0.00000000000E+00  0.00000000000E+00  0.18724655294E+04  0.18724655294E+04  0.25500000920E-02 0.  1.
       -2   -1    0    0    0  501  0.00000000000E+00  0.00000000000E+00 -0.12014099008E+04  0.12014099008E+04  0.25500000920E-02 0. -1.
    10030    2    1    2    0    0  0.00000000000E+00  0.00000000000E+00  0.67105562862E+03  0.30738754302E+04  0.29997324053E+04 0.  0.
        3    1    3    3  502    0 -0.11139074381E+04 -0.53652348369E+02  0.13632782873E+04  0.17613052132E+04  0.10100000352E+00 0.  1.
       -3    1    3    3    0  502  0.11139074381E+04  0.53652348369E+02 -0.69222265872E+03  0.13125702170E+04  0.10100000352E+00 0. -1.
</event>
<event>
 5   0  0.6636007E-08  0.2999916E+04  0.7818609E-02  0.8243755E-01
        1   -1    0    0  501    0  0.00000000000E+00  0.00000000000E+00  0.11620302735E+04  0.11620302735E+04  0.50400001928E-02 0. -1.
       -1   -1    0    0    0  501  0.00000000000E+00  0.00000000000E+00 -0.19361571925E+04  0.19361571925E+04  0.50400001928E-02 0.  1.
    10030    2    1    2    0    0  0.00000000000E+00  0.00000000000E+00 -0.77412691905E+03  0.30981874660E+04  0.29999155134E+04 0.  0.
        2    1    3    3  502    0  0.39121055373E+02  0.14920325389E+04 -0.54087759749E+03  0.15875264186E+04  0.25500000920E-02 0. -1.
       -2    1    3    3    0  502 -0.39121055373E+02 -0.14920325389E+04 -0.23324932156E+03  0.15106610474E+04  0.25500000920E-02 0.  1.
</event>
<event>
 5   0  0.6374748E-08  0.3000051E+04  0.7818609E-02  0.8243716E-01
       -1   -1    0    0    0  501  0.00000000000E+00  0.00000000000E+00  0.14014811457E+04  0.14014811457E+04  0.50400001928E-02 0. -1.
        1   -1    0    0  501    0  0.00000000000E+00  0.00000000000E+00 -0.16054992076E+04  0.16054992076E+04  0.50400001928E-02 0.  1.
    10030    2    1    2    0    0  0.00000000000E+00  0.00000000000E+00 -0.20401806198E+03  0.30069803533E+04  0.30000512455E+04 0.  0.
        1    1    3    3  502    0 -0.11819541834E+04 -0.73741098666E+03  0.45541052187E+03  0.14656702897E+04  0.50400001928E-02 0.  1.
       -1    1    3    3    0  502  0.11819541834E+04  0.73741098666E+03 -0.65942858385E+03  0.15413100636E+04  0.50400001928E-02 0. -1.
</event>
<event>
 5   0  0.1821305E-07  0.3005300E+04  0.7818609E-02  0.8242219E-01
        2   -1    0    0  501    0  0.00000000000E+00  0.00000000000E+00  0.30173512703E+04  0.30173512703E+04  0.25500000920E-02 0. -1.
       -2   -1    0    0    0  501  0.00000000000E+00  0.00000000000E+00 -0.74832413833E+03  0.74832413833E+03  0.25500000920E-02 0.  1.
    10030    2    1    2    0    0  0.00000000000E+00  0.00000000000E+00  0.22690271320E+04  0.37656754087E+04  0.30052998449E+04 0.  0.
        2    1    3    3  502    0  0.12767292943E+04  0.58179635590E+03  0.46040721292E+03  0.14766514458E+04  0.25500000920E-02 0.  1.
       -2    1    3    3    0  502 -0.12767292943E+04 -0.58179635590E+03  0.18086199191E+04  0.22890239629E+04  0.25500000920E-02 0. -1.
</event>
<event>
 5   0  0.1914439E-07  0.3000650E+04  0.7818609E-02  0.8243545E-01
       -2   -1    0    0    0  501  0.00000000000E+00  0.00000000000E+00  0.14844186824E+04  0.14844186824E+04  0.25500000920E-02 0. -1.
        2   -1    0    0  501    0  0.00000000000E+00  0.00000000000E+00 -0.15164017154E+04  0.15164017154E+04  0.25500000920E-02 0.  1.
    10030    2    1    2    0    0  0.00000000000E+00  0.00000000000E+00 -0.31983032995E+02  0.30008203978E+04  0.30006499539E+04 0.  0.
        5    1    3    3  502    0 -0.13999696197E+04  0.53901398980E+03  0.64135338734E+01  0.15001714037E+04  0.46999998093E+01 0. -1.
       -5    1    3    3    0  502  0.13999696197E+04 -0.53901398980E+03 -0.38396566868E+02  0.15006489941E+04  0.46999998093E+01 0.  1.
</event>
<event>
 5   0  0.6636007E-08  0.3004739E+04  0.7818609E-02  0.8242379E-01
       -1   -1    0    0    0  501  0.00000000000E+00  0.00000000000E+00  0.12770400128E+04  0.12770400128E+04  0.50400001928E-02 0.  1.
        1   -1    0    0  501    0  0.00000000000E+00  0.00000000000E+00 -0.17674576611E+04  0.17674576611E+04  0.50400001928E-02 0. -1.
    10030    2    1    2    0    0  0.00000000000E+00  0.00000000000E+00 -0.49041764834E+03  0.30444976739E+04  0.30047390264E+04 0.  0.
        2    1    3    3  502    0  0.11710873856E+04  0.65477191373E+03 -0.93012833432E+03  0.16325779130E+04  0.25500000920E-02 0. -1.
       -2    1    3    3    0  502 -0.11710873856E+04 -0.65477191373E+03  0.43971068598E+03  0.14119197609E+04  0.25500000920E-02 0.  1.
</event>
<event>
 5   0  0.6464436E-08  0.2999150E+04  0.7818609E-02  0.8243974E-01
        1   -1    0    0  501    0  0.00000000000E+00  0.00000000000E+00  0.18301251457E+04  0.18301251457E+04  0.50400001928E-02 0. -1.
       -1   -1    0    0    0  501  0.00000000000E+00  0.00000000000E+00 -0.12287272266E+04  0.12287272266E+04  0.50400001928E-02 0.  1.
    10030    2    1    2    0    0  0.00000000000E+00  0.00000000000E+00  0.60139791905E+03  0.30588523723E+04  0.29991496092E+04 0.  0.
        5    1    3    3  502    0 -0.58881452505E+03 -0.99701326714E+03  0.12725390759E+04  0.17204987037E+04  0.46999998093E+01 0. -1.
       -5    1    3    3    0  502  0.58881452505E+03  0.99701326714E+03 -0.67114115685E+03  0.13383536686E+04  0.46999998093E+01 0.  1.
</event>
<event>
 5   0  0.1810055E-07  0.3006849E+04  0.7818609E-02  0.8241778E-01
       -2   -1    0    0    0  501  0.00000000000E+00  0.00000000000E+00  0.12647673251E+04  0.12647673251E+04  0.25500000920E-02 0. -1.
        2   -1    0    0  501    0  0.00000000000E+00  0.00000000000E+00 -0.17871154823E+04  0.17871154823E+04  0.25500000920E-02 0.  1.
    10030    2    1    2    0    0  0.00000000000E+00  0.00000000000E+00 -0.52234815719E+03  0.30518828074E+04  0.30068490273E+04 0.  0.
        4    1    3    3  502    0  0.77703658116E+03  0.42671553952E+03 -0.14936135738E+04  0.17368808597E+04  0.12699999809E+01 0.  1.
       -4    1    3    3    0  502 -0.77703658116E+03 -0.42671553952E+03  0.97126541659E+03  0.13150019477E+04  0.12699999809E+01 0. -1.
</event>
<event>
 5   0  0.6679022E-08  0.2999899E+04  0.7818609E-02  0.8243760E-01
       -1   -1    0    0    0  501  0.00000000000E+00  0.00000000000E+00  0.17733667318E+04  0.17733667318E+04  0.50400001928E-02 0.  1.
        1   -1    0    0  501    0  0.00000000000E+00  0.00000000000E+00 -0.12686879694E+04  0.12686879694E+04  0.50400001928E-02 0. -1.
    10030    2    1    2    0    0  0.00000000000E+00  0.00000000000E+00  0.50467876236E+03  0.30420547012E+04  0.29998993570E+04 0.  0.
        3    1    3    3  502    0  0.12038350883E+04  0.83523099952E+03  0.57781585380E+03  0.15750240994E+04  0.10100000352E+00 0.  1.
       -3    1    3    3    0  502 -0.12038350883E+04 -0.83523099952E+03 -0.73137091441E+02  0.14670306019E+04  0.10100000352E+00 0. -1.
</event>
<event>
 5   0  0.6636007E-08  0.2999727E+04  0.7818609E-02  0.8243809E-01
        1   -1    0    0  501    0  0.00000000000E+00  0.00000000000E+00  0.14851963246E+04  0.14851963246E+04  0.50400001928E-02 0. -1.
       -1   -1    0    0    0  501  0.00000000000E+00  0.00000000000E+00 -0.15146755373E+04  0.15146755373E+04  0.50400001928E-02 0.  1.
    10030    2    1    2    0    0  0.00000000000E+00  0.00000000000E+00 -0.29479212719E+02  0.29998718619E+04  0.29997270149E+04 0.  0.
        2    1    3    3  502    0 -0.11189872091E+03  0.39711361552E+03  0.14273321014E+04  0.14857649461E+04  0.25500000920E-02 0. -1.
       -2    1    3    3    0  502  0.11189872091E+03 -0.39711361552E+03 -0.14568113141E+04  0.15141069158E+04  0.25500000920E-02 0.  1.
</event>
<event>
 5   0  0.1821305E-07  0.2999243E+04  0.7818609E-02  0.8243947E-01
       -2   -1    0    0    0  501  0.00000000000E+00  0.00000000000E+00  0.30998233107E+04  0.30998233107E+04  0.25500000920E-02 0. -1.
        2   -1    0    0  501    0  0.00000000000E+00  0.00000000000E+00 -0.72548143504E+03  0.72548143504E+03  0.25500000920E-02 0.  1.
    10030    2    1    2    0    0  0.00000000000E+00  0.00000000000E+00  0.23743418757E+04  0.38253047458E+04  0.29992427470E+04 0.  0.
        2    1    3    3  502    0 -0.30550920128E+03 -0.12520062031E+04  0.20915404404E+03  0.13056036224E+04  0.25500000920E-02 0.  1.
       -2    1    3    3    0  502  0.30550920128E+03  0.12520062031E+04  0.21651878316E+04  0.25197011233E+04  0.25500000920E-02 0. -1.
</event>
<event>
 5   0  0.1813720E-07  0.2998013E+04  0.7818609E-02  0.8244298E-01
        2   -1    0    0  501    0  0.00000000000E+00  0.00000000000E+00  0.11711062861E+04  0.11711062861E+04  0.25500000920E-02 0. -1.
       -2   -1    0    0    0  501  0.00000000000E+00  0.00000000000E+00 -0.19187162310E+04  0.19187162310E+04  0.25500000920E-02 0.  1.
    10030    2    1    2    0    0  0.00000000000E+00  0.00000000000E+00 -0.74760994484E+03  0.30898225171E+04  0.29980131016E+04 0.  0.
        3    1    3    3  502    0  0.10481709980E+04  0.96996883657E+03  0.95687429292E+02  0.14313134106E+04  0.10100000352E+00 0. -1.
       -3    1    3    3    0  502 -0.10481709980E+04 -0.96996883657E+03 -0.84329737413E+03  0.16585091065E+04  0.10100000352E+00 0.  1.
</event>
<event>
 5   0  0.6525507E-08  0.3000384E+04  0.7818609E-02  0.8243621E-01
       -1   -1    0    0    0  501  0.00000000000E+00  0.00000000000E+00  0.27570076360E+04  0.27570076360E+04  0.50400001928E-02 0. -1.
        1   -1    0    0  501    0  0.00000000000E+00  0.00000000000E+00 -0.81631092661E+03  0.81631092662E+03  0.50400001928E-02 0.  1.
    10030    2    1    2    0    0  0.00000000000E+00  0.00000000000E+00  0.19406967094E+04  0.35733185626E+04  0.30003836142E+04 0.  0.
        4    1    3    3  502    0  0.22852651658E+03  0.29216243638E+03 -0.76083764646E+03  0.84643889041E+03  0.12699999809E+01 0.  1.
       -4    1    3    3    0  502 -0.22852651658E+03 -0.29216243638E+03  0.27015343559E+04  0.27268796722E+04  0.12699999809E+01 0. -1.
</event>
<event>
 5   0  0.1813720E-07  0.2999141E+04  0.7818609E-02  0.8243976E-01
       -2   -1    0    0    0  501  0.00000000000E+00  0.00000000000E+00  0.11252210960E+04  0.11252210960E+04  0.25500000920E-02 0.  1.
        2   -1    0    0  501    0  0.00000000000E+00  0.00000000000E+00 -0.19984622173E+04  0.19984622173E+04  0.25500000920E-02 0. -1.
    10030    2    1    2    0    0  0.00000000000E+00  0.00000000000E+00 -0.87324112122E+03  0.31236833133E+04  0.29991411080E+04 0.  0.
        3    1    3    3  502    0  0.67975639766E+03 -0.99115121422E+03 -0.13706680692E+04  0.18229592579E+04  0.10100000352E+00 0.  1.
       -3    1    3    3    0  502 -0.67975639766E+03  0.99115121422E+03  0.49742694800E+03  0.13007240554E+04  0.10100000352E+00 0. -1.
</event>
<event>
 5   0  0.6679022E-08  0.2998729E+04  0.7818609E-02  0.8244094E-01
       -1   -1    0    0    0  501  0.00000000000E+00  0.00000000000E+00  0.13417265944E+04  0.13417265944E+04  0.50400001928E-02 0. -1.
        1   -1    0    0  501    0  0.00000000000E+00  0.00000000000E+00 -0.16755225800E+04  0.16755225801E+04  0.50400001928E-02 0.  1.
    10030    2    1    2    0    0  0.00000000000E+00  0.00000000000E+00 -0.33379598567E+03  0.30172491744E+04  0.29987285340E+04 0.  0.
        3    1    3    3  502    0 -0.87554911018E+02 -0.12806435391E+04  0.61272912592E+03  0.14223750309E+04  0.10100000352E+00 0. -1.
       -3    1    3    3    0  502  0.87554911018E+02  0.12806435391E+04 -0.94652511160E+03  0.15948741435E+04  0.10100000352E+00 0.  1.
</event>
<event>
 5   0  0.1821305E-07  0.2995605E+04  0.7818609E-02  0.8244987E-01
       -2   -1    0    0    0  501  0.00000000000E+00  0.00000000000E+00  0.17535376317E+04  0.17535376317E+04  0.25500000920E-02 0.  1.
        2   -1    0    0  501    0  0.00000000000E+00  0.00000000000E+00 -0.12793640674E+04  0.12793640674E+04  0.25500000920E-02 0. -1.
    10030    2    1    2    0    0  0.00000000000E+00  0.00000000000E+00  0.47417356435E+03  0.30329016991E+04  0.29956054726E+04 0.  0.
        2    1    3    3  502    0  0.60678697103E+03 -0.10694218428E+04  0.11030482251E+04  0.16518380347E+04  0.25500000920E-02 0.  1.
       -2    1    3    3    0  502 -0.60678697103E+03  0.10694218428E+04 -0.62887466075E+03  0.13810636644E+04  0.25500000920E-02 0. -1.
</event>
<event>
 5   0  0.1813720E-07  0.3000491E+04  0.7818609E-02  0.8243591E-01
        2   -1    0    0  501    0  0.00000000000E+00  0.00000000000E+00  0.12528825360E+04  0.12528825360E+04  0.25500000920E-02 0. -1.
       -2   -1    0    0    0  501  0.00000000000E+00  0.00000000000E+00 -0.17964463031E+04  0.17964463031E+04  0.25500000920E-02 0.  1.
    10030    2    1    2    0    0  0.00000000000E+00  0.00000000000E+00 -0.54356376709E+03  0.30493288391E+04  0.30004907599E+04 0.  0.
        3    1    3    3  502    0 -0.43184967309E+03 -0.61145991367E+03  0.10495180707E+04  0.12891336459E+04  0.10100000352E+00 0. -1.
       -3    1    3    3    0  502  0.43184967309E+03  0.61145991367E+03 -0.15930818378E+04  0.17601951932E+04  0.10100000352E+00 0.  1.
</event>
<event>
 5   0  0.1817566E-07  0.3000664E+04  0.7818609E-02  0.8243541E-01
        2   -1    0    0  501    0  0.00000000000E+00  0.00000000000E+00  0.24233611459E+04  0.24233611459E+04  0.25500000920E-02 0.  1.
       -2   -1    0    0    0  501  0.00000000000E+00  0.00000000000E+00 -0.92887372209E+03  0.92887372209E+03  0.25500000920E-02 0. -1.
    10030    2    1    2    0    0  0.00000000000E+00  0.00000000000E+00  0.14944874238E+04  0.33522348680E+04  0.30006642515E+04 0.  0.
        1    1    3    3  502    0 -0.38893075776E+03 -0.64080547060E+03 -0.70468208056E+03  0.10288224435E+04  0.50400001928E-02 0. -1.
       -1    1    3    3    0  502  0.38893075776E+03  0.64080547060E+03  0.21991695043E+04  0.23234124245E+04  0.50400001928E-02 0.  1.
</event>
<event>
 5   0  0.6374748E-08  0.2999987E+04  0.7818609E-02  0.8243735E-01
       -1   -1    0    0    0  501  0.00000000000E+00  0.00000000000E+00  0.20206299226E+04  0.20206299226E+04  0.50400001928E-02 0.  1.
        1   -1    0    0  501    0  0.00000000000E+00  0.00000000000E+00 -0.11135041372E+04  0.11135041372E+04  0.50400001928E-02 0. -1.
    10030    2    1    2    0    0  0.00000000000E+00  0.00000000000E+00  0.90712578546E+03  0.31341340598E+04  0.29999865190E+04 0.  0.
        1    1    3    3  502    0  0.14459306573E+04  0.38689751769E+03  0.55578836370E+03  0.15966545839E+04  0.50400001928E-02 0.  1.
       -1    1    3    3    0  502 -0.14459306573E+04 -0.38689751769E+03  0.35133742176E+03  0.15374794759E+04  0.50400001928E-02 0. -1.
</event>
<event>
 5   0  0.1813720E-07  0.3000089E+04  0.7818609E-02  0.8243706E-01
       -2   -1    0    0    0  501  0.00000000000E+00  0.00000000000E+00  0.13295185601E+04  0.13295185601E+04  0.25500000920E-02 0.  1.
        2   -1    0    0  501    0  0.00000000000E+00  0.00000000000E+00 -0.16924420056E+04  0.16924420056E+04  0.25500000920E-02 0. -1.
    10030    2    1    2    0    0  0.00000000000E+00  0.00000000000E+00 -0.36292344549E+03  0.30219605657E+04  0.30000887042E+04 0.  0.
        3    1    3    3  502    0 -0.11609127823E+04  0.26308463514E+03 -0.11009148565E+04  0.16214023390E+04  0.10100000352E+00 0. -1.
       -3    1    3    3    0  502  0.11609127823E+04 -0.26308463514E+03  0.73799141103E+03  0.14005582267E+04  0.10100000352E+00 0.  1.
</event>
<event>
 5   0  0.6525507E-08  0.3008281E+04  0.7818609E-02  0.8241370E-01
        1   -1    0    0  501    0  0.00000000000E+00  0.00000000000E+00  0.21422111960E+04  0.21422111960E+04  0.50400001928E-02 0. -1.
       -1   -1    0    0    0  501  0.00000000000E+00  0.00000000000E+00 -0.10561232020E+04  0.10561232020E+04  0.50400001928E-02 0.  1.
    10030    2    1    2    0    0  0.00000000000E+00  0.00000000000E+00  0.10860879940E+04  0.31983343981E+04  0.30082812021E+04 0.  0.
        4    1    3    3  502    0  0.81336649023E+03  0.12247867990E+04  0.88054119614E+03  0.17137742446E+04  0.12699999809E+01 0.  1.
       -4    1    3    3    0  502 -0.81336649023E+03 -0.12247867990E+04  0.20554679788E+03  0.14845601535E+04  0.12699999809E+01 0. -1.
</event>
<event>
 5   0  0.1914439E-07  0.3000730E+04  0.7818609E-02  0.8243522E-01
       -2   -1    0    0    0  501  0.00000000000E+00  0.00000000000E+00  0.15373233592E+04  0.15373233592E+04  0.25500000920E-02 0. -1.
        2   -1    0    0  501    0  0.00000000000E+00  0.00000000000E+00 -0.14642956190E+04  0.14642956190E+04  0.25500000920E-02 0.  1.
    10030    2    1    2    0    0  0.00000000000E+00  0.00000000000E+00  0.73027740286E+02  0.30016189782E+04  0.30007304843E+04 0.  0.
        5    1    3    3  502    0 -0.50481349238E+03 -0.79210732940E+03 -0.11337911291E+04  0.14723366116E+04  0.46999998093E+01 0.  1.
       -5    1    3    3    0  502  0.50481349238E+03  0.79210732940E+03  0.12068188694E+04  0.15292823666E+04  0.46999998093E+01 0. -1.
</event>
<event>
 5   0  0.6525507E-08  0.3000350E+04  0.7818609E-02  0.8243631E-01
        1   -1    0    0  501    0  0.00000000000E+00  0.00000000000E+00  0.17507122268E+04  0.17507122269E+04  0.50400001928E-02 0. -1.
       -1   -1    0    0    0  501  0.00000000000E+00  0.00000000000E+00 -0.12854910275E+04  0.12854910275E+04  0.50400001928E-02 0.  1.
    10030    2    1    2    0    0  0.00000000000E+00  0.00000000000E+00  0.46522119937E+03  0.30362032543E+04  0.30003498858E+04 0.  0.
        4    1    3    3  502    0  0.45722614752E+03  0.31644174949E+03 -0.11773561078E+04  0.13020599634E+04  0.12699999809E+01 0.  1.
       -4    1    3    3    0  502 -0.45722614752E+03 -0.31644174949E+03  0.16425773071E+04  0.17341432910E+04  0.12699999809E+01 0. -1.
</event>
<event>
 5   0  0.6679022E-08  0.3001934E+04  0.7818609E-02  0.8243179E-01
        1   -1    0    0  501    0  0.00000000000E+00  0.00000000000E+00  0.19972257527E+04  0.19972257527E+04  0.50400001928E-02 0.  1.
       -1   -1    0    0    0  501  0.00000000000E+00  0.00000000000E+00 -0.11280154594E+04  0.11280154595E+04  0.50400001928E-02 0. -1.
    10030    2    1    2    0    0  0.00000000000E+00  0.00000000000E+00  0.86921029326E+03  0.31252412122E+04  0.30019337268E+04 0.  0.
        3    1    3    3  502    0  0.44835458763E+03 -0.33050126499E+03 -0.10164354609E+04  0.11590487387E+04  0.10100000352E+00 0. -1.
       -3    1    3    3    0  502 -0.44835458763E+03  0.33050126499E+03  0.18856457541E+04  0.19661924735E+04  0.10100000352E+00 0.  1.
</event>
<event>
 5   0  0.1817566E-07  0.2999080E+04  0.7818609E-02  0.8243994E-01
       -2   -1    0    0    0  501  0.00000000000E+00  0.00000000000E+00  0.75191175464E+03  0.75191175465E+03  0.25500000920E-02 0.  1.
        2   -1    0    0  501    0  0.00000000000E+00  0.00000000000E+00 -0.29905372764E+04  0.29905372764E+04  0.25500000920E-02 0. -1.
    10030    2    1    2    0    0  0.00000000000E+00  0.00000000000E+00 -0.22386255217E+04  0.37424490310E+04  0.29990799461E+04 0.  0.
        1    1    3    3  502    0  0.38442949429E+03 -0.16611335333E+03 -0.29160835899E+04  0.29460012196E+04  0.50400001928E-02 0. -1.
       -1    1    3    3    0  502 -0.38442949429E+03  0.16611335333E+03  0.67745806818E+03  0.79644781147E+03  0.50400001928E-02 0.  1.
</event>
<event>
 5   0  0.1810055E-07  0.2999879E+04  0.7818609E-02  0.8243765E-01
       -2   -1    0    0    0  501  0.00000000000E+00  0.00000000000E+00  0.18951728597E+04  0.18951728597E+04  0.25500000920E-02 0. -1.
        2   -1    0    0  501    0  0.00000000000E+00  0.00000000000E+00 -0.11871310355E+04  0.11871310355E+04  0.25500000920E-02 0.  1.
    10030    2    1    2    0    0  0.00000000000E+00  0.00000000000E+00  0.70804182425E+03  0.30823038952E+04  0.29998790105E+04 0.  0.
        4    1    3    3  502    0 -0.47411239813E+03  0.95454027606E+02 -0.11048224767E+04  0.12060382893E+04  0.12699999809E+01 0.  1.
       -4    1    3    3    0  502  0.47411239813E+03 -0.95454027606E+02  0.18128643009E+04  0.18762656059E+04  0.12699999809E+01 0. -1.
</event>
<event>
 5   0  0.1813720E-07  0.2999441E+04  0.7818609E-02  0.8243891E-01
       -2   -1    0    0    0  501  0.00000000000E+00  0.00000000000E+00  0.11611176733E+04  0.11611176733E+04  0.25500000920E-02 0. -1.
        2   -1    0    0  501    0  0.00000000000E+00  0.00000000000E+00 -0.19370654288E+04  0.19370654288E+04  0.25500000920E-02 0.  1.
    10030    2    1    2    0    0  0.00000000000E+00  0.00000000000E+00 -0.77594775552E+03  0.30981831022E+04  0.29994405504E+04 0.  0.
        3    1    3    3  502    0  0.34919494698E+03  0.43864665985E+03 -0.18247407586E+04  0.19089334325E+04  0.10100000352E+00 0.  1.
       -3    1    3    3    0  502 -0.34919494698E+03 -0.43864665985E+03  0.10487930031E+04  0.11892496697E+04  0.10100000352E+00 0. -1.
</event>
<event>
 5   0  0.6525507E-08  0.2999786E+04  0.7818609E-02  0.8243792E-01
        1   -1    0    0  501    0  0.00000000000E+00  0.00000000000E+00  0.15062026265E+04  0.15062026265E+04  0.50400001928E-02 0.  1.
       -1   -1    0    0    0  501  0.00000000000E+00  0.00000000000E+00 -0.14936100292E+04  0.14936100292E+04  0.50400001928E-02 0. -1.
    10030    2    1    2    0    0  0.00000000000E+00  0.00000000000E+00  0.12592597375E+02  0.29998126557E+04  0.29997862250E+04 0.  0.
        4    1    3    3  502    0 -0.13376367520E+04  0.20087878335E+03  0.65441725370E+03  0.15026270065E+04  0.12699999809E+01 0.  1.
       -4    1    3    3    0  502  0.13376367520E+04 -0.20087878335E+03 -0.64182465633E+03  0.14971856492E+04  0.12699999809E+01 0. -1.
</event>
<event>
 5   0  0.6636007E-08  0.2984184E+04  0.7818609E-02  0.8248262E-01
        1   -1    0    0  501    0  0.00000000000E+00  0.00000000000E+00  0.16146343542E+04  0.16146343542E+04  0.50400001928E-02 0. -1.
       -1   -1    0    0    0  501  0.00000000000E+00  0.00000000000E+00 -0.13788496331E+04  0.13788496331E+04  0.50400001928E-02 0.  1.
    10030    2    1    2    0    0  0.00000000000E+00  0.00000000000E+00  0.23578472113E+03  0.29934839873E+04  0.29841836317E+04 0.  0.
        2    1    3    3  502    0 -0.13324426982E+03 -0.13367894145E+04  0.76920629787E+03  0.15480433788E+04  0.25500000920E-02 0. -1.
       -2    1    3    3    0  502  0.13324426982E+03  0.13367894145E+04 -0.53342157674E+03  0.14454406085E+04  0.25500000920E-02 0.  1.
</event>
<event>
 5   0  0.1914439E-07  0.3000072E+04  0.7818609E-02  0.8243710E-01
       -2   -1    0    0    0  501  0.00000000000E+00  0.00000000000E+00  0.10774556627E+04  0.10774556627E+04  0.25500000920E-02 0. -1.
        2   -1    0    0  501    0  0.00000000000E+00  0.00000000000E+00 -0.20883527797E+04  0.20883527797E+04  0.25500000920E-02 0.  1.
    10030    2    1    2    0    0  0.00000000000E+00  0.00000000000E+00 -0.10108971170E+04  0.31658084424E+04  0.30000716847E+04 0.  0.
        5    1    3    3  502    0  0.87158281612E+03  0.78752196808E+03 -0.14898494952E+04  0.18972403811E+04  0.46999998093E+01 0.  1.
       -5    1    3    3    0  502 -0.87158281612E+03 -0.78752196808E+03  0.47895237822E+03  0.12685680613E+04  0.46999998093E+01 0. -1.
</event>
<event>
 5   0  0.6374748E-08  0.3001185E+04  0.7818609E-02  0.8243393E-01
        1   -1    0    0  501    0  0.00000000000E+00  0.00000000000E+00  0.12155475194E+04  0.12155475195E+04  0.50400001928E-02 0.  1.
       -1   -1    0    0    0  501  0.00000000000E+00  0.00000000000E+00 -0.18524800675E+04  0.18524800675E+04  0.50400001928E-02 0. -1.
    10030    2    1    2    0    0  0.00000000000E+00  0.00000000000E+00 -0.63693254809E+03  0.30680275870E+04  0.30011848000E+04 0.  0.
        1    1    3    3  502    0  0.60625315991E+03 -0.40541518658E+03  0.10221816333E+04  0.12556909090E+04  0.50400001928E-02 0.  1.
       -1    1    3    3    0  502 -0.60625315991E+03  0.40541518658E+03 -0.16591141814E+04  0.18123366780E+04  0.50400001928E-02 0. -1.
</event>
<event>
 5   0  0.1813720E-07  0.2999580E+04  0.7818609E-02  0.8243851E-01
        2   -1    0    0  501    0  0.00000000000E+00  0.00000000000E+00  0.12370969895E+04  0.12370969895E+04  0.25500000920E-02 0. -1.
       -2   -1    0    0    0  501  0.00000000000E+00  0.00000000000E+00 -0.18182654348E+04  0.18182654348E+04  0.25500000920E-02 0.  1.
    10030    2    1    2    0    0  0.00000000000E+00  0.00000000000E+00 -0.58116844530E+03  0.30553624243E+04  0.29995804343E+04 0.  0.
        3    1    3    3  502    0 -0.54247527873E+01 -0.56191807678E+03  0.11258106366E+04  0.12582650566E+04  0.10100000352E+00 0. -1.
       -3    1    3    3    0  502  0.54247527873E+01  0.56191807678E+03 -0.17069790819E+04  0.17970973677E+04  0.10100000352E+00 0.  1.
</event>
<event>
 5   0  0.6636007E-08  0.3000373E+04  0.7818609E-02  0.8243624E-01
        1   -1    0    0  501    0  0.00000000000E+00  0.00000000000E+00  0.20182323784E+04  0.20182323784E+04  0.50400001928E-02 0.  1.
       -1   -1    0    0    0  501  0.00000000000E+00  0.00000000000E+00 -0.11151141961E+04  0.11151141961E+04  0.50400001928E-02 0. -1.
    10030    2    1    2    0    0  0.00000000000E+00  0.00000000000E+00  0.90311818228E+03  0.31333465745E+04  0.30003730276E+04 0.  0.
        2    1    3    3  502    0 -0.35465574741E+03 -0.12457704224E+04  0.12419609051E+04  0.17944892127E+04  0.25500000920E-02 0.  1.
       -2    1    3    3    0  502  0.35465574741E+03  0.12457704224E+04 -0.33884272284E+03  0.13388573618E+04  0.25500000920E-02 0. -1.
</event>
<event>
 5   0  0.6525507E-08  0.2996766E+04  0.7818609E-02  0.8244655E-01
       -1   -1    0    0    0  501  0.00000000000E+00  0.00000000000E+00  0.17112678302E+04  0.17112678302E+04  0.50400001928E-02 0.  1.
        1   -1    0    0  501    0  0.00000000000E+00  0.00000000000E+00 -0.13119813692E+04  0.13119813692E+04  0.50400001928E-02 0. -1.
    10030    2    1    2    0    0  0.00000000000E+00  0.00000000000E+00  0.39928646098E+03  0.30232491994E+04  0.29967659307E+04 0.  0.
        4    1    3    3  502    0  0.92494198696E+03  0.92256033217E+03  0.93996391893E+03  0.16094002074E+04  0.12699999809E+01 0.  1.
       -4    1    3    3    0  502 -0.92494198696E+03 -0.92256033217E+03 -0.54067745796E+03  0.14138489920E+04  0.12699999809E+01 0. -1.
</event>
<event>
 5   0  0.6017625E-08  0.2997536E+04  0.7818609E-02  0.8244435E-01
        3   -1    0    0  501    0  0.00000000000E+00  0.00000000000E+00  0.10870581205E+04  0.10870581252E+04  0.10100000352E+00 0. -1.
       -3   -1    0    0    0  501  0.00000000000E+00  0.00000000000E+00 -0.20664081710E+04  0.20664081734E+04  0.10100000352E+00 0.  1.
    10030    2    1    2    0    0  0.00000000000E+00  0.00000000000E+00 -0.97935005044E+03  0.31534662987E+04  0.29975361842E+04 0.  0.
        2    1    3    3  502    0  0.72295350179E+02 -0.14194856860E+04 -0.98995375038E+03  0.17321012263E+04  0.25500000920E-02 0.  1.
       -2    1    3    3    0  502 -0.72295350179E+02  0.14194856860E+04  0.10603699944E+02  0.14213650723E+04  0.25500000920E-02 0. -1.
</event>
<event>
 5   0  0.1810055E-07  0.2998621E+04  0.7818609E-02  0.8244125E-01
        2   -1    0    0  501    0  0.00000000000E+00  0.00000000000E+00  0.13281713046E+04  0.13281713046E+04  0.25500000920E-02 0. -1.
       -2   -1    0    0    0  501  0.00000000000E+00  0.00000000000E+00 -0.16925016521E+04  0.16925016521E+04  0.25500000920E-02 0.  1.
    10030    2    1    2    0    0  0.00000000000E+00  0.00000000000E+00 -0.36433034754E+03  0.30206729567E+04  0.29986211013E+04 0.  0.
        4    1    3    3  502    0 -0.58624699152E+03  0.36397365702E+03 -0.15230317357E+04  0.16720614938E+04  0.12699999809E+01 0.  1.
       -4    1    3    3    0  502  0.58624699152E+03 -0.36397365702E+03  0.11587013882E+04  0.13486114629E+04  0.12699999809E+01 0. -1.
</event>
<event>
 5   0  0.6464436E-08  0.3000502E+04  0.7818609E-02  0.8243588E-01
        1   -1    0    0  501    0  0.00000000000E+00  0.00000000000E+00  0.14488609910E+04  0.14488609910E+04  0.50400001928E-02 0. -1.
       -1   -1    0    0    0  501  0.00000000000E+00  0.00000000000E+00 -0.15534635396E+04  0.15534635396E+04  0.50400001928E-02 0.  1.
    10030    2    1    2    0    0  0.00000000000E+00  0.00000000000E+00 -0.10460254859E+03  0.30023245306E+04  0.30005017736E+04 0.  0.
        5    1    3    3  502    0 -0.15360952060E+03 -0.65281655435E+03 -0.13951170006E+04  0.15479466638E+04  0.46999998093E+01 0.  1.
       -5    1    3    3    0  502  0.15360952060E+03  0.65281655435E+03  0.12905144520E+04  0.14543778668E+04  0.46999998093E+01 0. -1.
</event>
<event>
 5   0  0.1821305E-07  0.3000013E+04  0.7818609E-02  0.8243727E-01
        2   -1    0    0  501    0  0.00000000000E+00  0.00000000000E+00  0.16743803181E+04  0.16743803181E+04  0.25500000920E-02 0. -1.
       -2   -1    0    0    0  501  0.00000000000E+00  0.00000000000E+00 -0.13437923533E+04  0.13437923533E+04  0.25500000920E-02 0.  1.
    10030    2    1    2    0    0  0.00000000000E+00  0.00000000000E+00  0.33058796483E+03  0.30181726714E+04  0.30000129786E+04 0.  0.
        2    1    3    3  502    0  0.11990901969E+04 -0.10673420026E+03  0.10655907414E+04  0.16076980805E+04  0.25500000920E-02 0. -1.
       -2    1    3    3    0  502 -0.11990901969E+04  0.10673420026E+03 -0.73500277657E+03  0.14104745909E+04  0.25500000920E-02 0.  1.
</event>
<event>
 5   0  0.6525507E-08  0.2999919E+04  0.7818609E-02  0.8243754E-01
        1   -1    0    0  501    0  0.00000000000E+00  0.00000000000E+00  0.23737613033E+04  0.23737613033E+04  0.50400001928E-02 0. -1.
       -1   -1    0    0    0  501  0.00000000000E+00  0.00000000000E+00 -0.94781190473E+03  0.94781190474E+03  0.50400001928E-02 0.  1.
    10030    2    1    2    0    0  0.00000000000E+00  0.00000000000E+00  0.14259493986E+04  0.33215732081E+04  0.29999194805E+04 0.  0.
        4    1    3    3  502    0 -0.15594004043E+03 -0.14135640457E+04  0.12409657944E+04  0.18874528665E+04  0.12699999809E+01 0. -1.
       -4    1    3    3    0  502  0.15594004043E+03  0.14135640457E+04  0.18498360423E+03  0.14341203416E+04  0.12699999809E+01 0.  1.
</event>
<event>
 5   0  0.6374748E-08  0.2999594E+04  0.7818609E-02  0.8243847E-01
       -1   -1    0    0    0  501  0.00000000000E+00  0.00000000000E+00  0.10095460357E+04  0.10095460357E+04  0.50400001928E-02 0. -1.
        1   -1    0    0  501    0  0.00000000000E+00  0.00000000000E+00 -0.22281215430E+04  0.22281215430E+04  0.50400001928E-02 0.  1.
    10030    2    1    2    0    0  0.00000000000E+00  0.00000000000E+00 -0.12185755073E+04  0.32376675787E+04  0.29995941530E+04 0.  0.
        1    1    3    3  502    0  0.58479043846E+03 -0.71851032335E+03  0.66379728330E+03  0.11396770486E+04  0.50400001928E-02 0. -1.
       -1    1    3    3    0  502 -0.58479043846E+03  0.71851032335E+03 -0.18823727906E+04  0.20979905301E+04  0.50400001928E-02 0.  1.
</event>
<event>
 5   0  0.1821305E-07  0.3001338E+04  0.7818609E-02  0.8243349E-01
        2   -1    0    0  501    0  0.00000000000E+00  0.00000000000E+00  0.19357482626E+04  0.19357482626E+04  0.25500000920E-02 0. -1.
       -2   -1    0    0    0  501  0.00000000000E+00  0.00000000000E+00 -0.11633779241E+04  0.11633779241E+04  0.25500000920E-02 0.  1.
    10030    2    1    2    0    0  0.00000000000E+00  0.00000000000E+00  0.77237033846E+03  0.30991261868E+04  0.30013375654E+04 0.  0.
        2    1    3    3  502    0  0.11387503972E+04 -0.49339587837E+03  0.12573652429E+04  0.17666803089E+04  0.25500000920E-02 0. -1.
       -2    1    3    3    0  502 -0.11387503972E+04  0.49339587837E+03 -0.48499490441E+03  0.13324458778E+04  0.25500000920E-02 0.  1.
</event>
<event>
 5   0  0.1810055E-07  0.2999117E+04  0.7818609E-02  0.8243983E-01
       -2   -1    0    0    0  501  0.00000000000E+00  0.00000000000E+00  0.12314655220E+04  0.12314655220E+04  0.25500000920E-02 0.  1.
        2   -1    0    0  501    0  0.00000000000E+00  0.00000000000E+00 -0.18260157122E+04  0.18260157122E+04  0.25500000920E-02 0. -1.
    10030    2    1    2    0    0  0.00000000000E+00  0.00000000000E+00 -0.59455019021E+03  0.30574812343E+04  0.29991167982E+04 0.  0.
        4    1    3    3  502    0  0.10249558785E+04 -0.10943969028E+04 -0.31852896773E+03  0.15328735923E+04  0.12699999809E+01 0.  1.
       -4    1    3    3    0  502 -0.10249558785E+04  0.10943969028E+04 -0.27602122248E+03  0.15246076420E+04  0.12699999809E+01 0. -1.
</event>
<event>
 5   0  0.6636007E-08  0.3000674E+04  0.7818609E-02  0.8243538E-01
        1   -1    0    0  501    0  0.00000000000E+00  0.00000000000E+00  0.22030026565E+04  0.22030026565E+04  0.50400001928E-02 0.  1.
       -1   -1    0    0    0  501  0.00000000000E+00  0.00000000000E+00 -0.10217925917E+04  0.10217925917E+04  0.50400001928E-02 0. -1.
    10030    2    1    2    0    0  0.00000000000E+00  0.00000000000E+00  0.11812100648E+04  0.32247952482E+04  0.30006744534E+04 0.  0.
        2    1    3    3  502    0 -0.82309035281E+03  0.12509262126E+04  0.49026283281E+03  0.15756432856E+04  0.25500000920E-02 0. -1.
       -2    1    3    3    0  502  0.82309035281E+03 -0.12509262126E+04  0.69094723202E+03  0.16491519626E+04  0.25500000920E-02 0.  1.
</event>
<event>
 5   0  0.6374748E-08  0.3000002E+04  0.7818609E-02  0.8243730E-01
       -1   -1    0    0    0  501  0.00000000000E+00  0.00000000000E+00  0.12952928804E+04  0.12952928804E+04  0.50400001928E-02 0. -1.
        1   -1    0    0  501    0  0.00000000000E+00  0.00000000000E+00 -0.17370617414E+04  0.17370617414E+04  0.50400001928E-02 0.  1.
    10030    2    1    2    0    0  0.00000000000E+00  0.00000000000E+00 -0.44176886097E+03  0.30323546218E+04  0.30000024710E+04 0.  0.
        1    1    3    3  502    0  0.55149747672E+02 -0.33687775082E+03  0.12555093804E+04  0.13010887433E+04  0.50400001928E-02 0. -1.
       -1    1    3    3    0  502 -0.55149747672E+02  0.33687775082E+03 -0.16972782413E+04  0.17312658785E+04  0.50400001928E-02 0.  1.
</event>
<event>
 5   0  0.6525507E-08  0.3000416E+04  0.7818609E-02  0.8243612E-01
        1   -1    0    0  501    0  0.00000000000E+00  0.00000000000E+00  0.14306308343E+04  0.14306308343E+04  0.50400001928E-02 0.  1.
       -1   -1    0    0    0  501  0.00000000000E+00  0.00000000000E+00 -0.15731686475E+04  0.15731686475E+04  0.50400001928E-02 0. -1.
    10030    2    1    2    0    0  0.00000000000E+00  0.00000000000E+00 -0.14253781315E+03  0.30037994818E+04  0.30004156876E+04 0.  0.
        4    1    3    3  502    0 -0.13825030624E+04  0.52748701385E+03  0.17612249699E+03  0.14901603988E+04  0.12699999809E+01 0. -1.
       -4    1    3    3    0  502  0.13825030624E+04 -0.52748701385E+03 -0.31866031015E+03  0.15136390830E+04  0.12699999809E+01 0.  1.
</event>
<event>
 5   0  0.1810055E-07  0.2997762E+04  0.7818609E-02  0.8244370E-01
        2   -1    0    0  501    0  0.00000000000E+00  0.00000000000E+00  0.18844902832E+04  0.18844902832E+04  0.25500000920E-02 0. -1.
       -2   -1    0    0    0  501  0.00000000000E+00  0.00000000000E+00 -0.11921758040E+04  0.11921758040E+04  0.25500000920E-02 0.  1.
    10030    2    1    2    0    0  0.00000000000E+00  0.00000000000E+00  0.69231447922E+03  0.30766660872E+04  0.29977616440E+04 0.  0.
        4    1    3    3  502    0 -0.60761240780E+03  0.13215673634E+04  0.71749402302E+03  0.16218916179E+04  0.12699999809E+01 0. -1.
       -4    1    3    3    0  502  0.60761240780E+03 -0.13215673634E+04 -0.25179543799E+02  0.14547744693E+04  0.12699999809E+01 0.  1.
</event>
<event>
 5   0  0.6679022E-08  0.2993453E+04  0.7818609E-02  0.8245603E-01
       -1   -1    0    0    0  501  0.00000000000E+00  0.00000000000E+00  0.11912335544E+04  0.11912335544E+04  0.50400001928E-02 0. -1.
        1   -1    0    0  501    0  0.00000000000E+00  0.00000000000E+00 -0.18805633637E+04  0.18805633637E+04  0.50400001928E-02 0.  1.
    10030    2    1    2    0    0  0.00000000000E+00  0.00000000000E+00 -0.68932980923E+03  0.30717969181E+04  0.29934529761E+04 0.  0.
        3    1    3    3  502    0 -0.24287334205E+03 -0.12508556808E+04  0.46110067346E+03  0.13550797894E+04  0.10100000352E+00 0. -1.
       -3    1    3    3    0  502  0.24287334205E+03  0.12508556808E+04 -0.11504304827E+04  0.17167171287E+04  0.10100000352E+00 0.  1.
</event>
<event>
 5   0  0.6374748E-08  0.2999485E+04  0.7818609E-02  0.8243878E-01
        1   -1    0    0  501    0  0.00000000000E+00  0.00000000000E+00  0.14224189019E+04  0.14224189019E+04  0.50400001928E-02 0.  1.
       -1   -1    0    0    0  501  0.00000000000E+00  0.00000000000E+00 -0.15812695332E+04  0.15812695332E+04  0.50400001928E-02 0. -1.
    10030    2    1    2    0    0  0.00000000000E+00  0.00000000000E+00 -0.15885063131E+03  0.30036884351E+04  0.29994850712E+04 0.  0.
        1    1    3    3  502    0  0.49078183591E+02 -0.92404601920E+03 -0.12613156537E+04  0.15643487117E+04  0.50400001928E-02 0. -1.
       -1    1    3    3    0  502 -0.49078183591E+02  0.92404601920E+03  0.11024650224E+04  0.14393397234E+04  0.50400001928E-02 0.  1.
</event>
<event>
 5   0  0.6374748E-08  0.3001014E+04  0.7818609E-02  0.8243441E-01
       -1   -1    0    0    0  501  0.00000000000E+00  0.00000000000E+00  0.14500286348E+04  0.14500286348E+04  0.50400001928E-02 0.  1.
        1   -1    0    0  501    0  0.00000000000E+00  0.00000000000E+00 -0.15527424234E+04  0.15527424234E+04  0.50400001928E-02 0. -1.
    10030    2    1    2    0    0  0.00000000000E+00  0.00000000000E+00 -0.10271378865E+03  0.30027710582E+04  0.30010138129E+04 0.  0.
        1    1    3    3  502    0 -0.14873202348E+04  0.25103679766E+02  0.14565761497E+03  0.14946463851E+04  0.50400001928E-02 0.  1.
       -1    1    3    3    0  502  0.14873202348E+04 -0.25103679766E+02 -0.24837140362E+03  0.15081246731E+04  0.50400001928E-02 0. -1.
</event>
<event>
 5   0  0.1810055E-07  0.3000460E+04  0.7818609E-02  0.8243599E-01
       -2   -1    0    0    0  501  0.00000000000E+00  0.00000000000E+00  0.83443123987E+03  0.83443123987E+03  0.25500000920E-02 0.  1.
        2   -1    0    0  501    0  0.00000000000E+00  0.00000000000E+00 -0.26972751707E+04  0.26972751707E+04  0.25500000920E-02 0. -1.
    10030    2    1    2    0    0  0.00000000000E+00  0.00000000000E+00 -0.18628439308E+04  0.35317064105E+04  0.30004604079E+04 0.  0.
        4    1    3    3  502    0  0.20550948819E+03 -0.49446354013E+03  0.71811894423E+03  0.89578165488E+03  0.12699999809E+01 0.  1.
       -4    1    3    3    0  502 -0.20550948819E+03  0.49446354013E+03 -0.25809628750E+04  0.26359247556E+04  0.12699999809E+01 0. -1.
</event>
<event>
 5   0  0.1813720E-07  0.3006648E+04  0.7818609E-02  0.8241835E-01
        2   -1    0    0  501    0  0.00000000000E+00  0.00000000000E+00  0.15992852273E+04  0.15992852273E+04  0.25500000920E-02 0.  1.
       -2   -1    0    0    0  501  0.00000000000E+00  0.00000000000E+00 -0.14131204640E+04  0.14131204640E+04  0.25500000920E-02 0. -1.
    10030    2    1    2    0    0  0.00000000000E+00  0.00000000000E+00  0.18616476329E+03  0.30124056913E+04  0.30066477562E+04 0.  0.
        3    1    3    3  502    0  0.77585842446E+02  0.13835104597E+04 -0.49101083095E+03  0.14701062552E+04  0.10100000352E+00 0.  1.
       -3    1    3    3    0  502 -0.77585842446E+02 -0.13835104597E+04  0.67717559425E+03  0.15422994362E+04  0.10100000352E+00 0. -1.
</event>
<event>
 5   0  0.1914439E-07  0.2999432E+04  0.7818609E-02  0.8243893E-01
        2   -1    0    0  501    0  0.00000000000E+00  0.00000000000E+00  0.22409234657E+04  0.22409234657E+04  0.25500000920E-02 0. -1.
       -2   -1    0    0    0  501  0.00000000000E+00  0.00000000000E+00 -0.10036704901E+04  0.10036704901E+04  0.25500000920E-02 0.  1.
    10030    2    1    2    0    0  0.00000000000E+00  0.00000000000E+00  0.12372529756E+04  0.32445939558E+04  0.29994324484E+04 0.  0.
        5    1    3    3  502    0  0.11513615540E+04  0.95957195478E+03  0.56226296956E+03  0.16008040171E+04  0.46999998093E+01 0.  1.
       -5    1    3    3    0  502 -0.11513615540E+04 -0.95957195478E+03  0.67499000603E+03  0.16437899387E+04  0.46999998093E+01 0. -1.
</event>
<event>
 5   0  0.1813720E-07  0.2999893E+04  0.7818609E-02  0.8243762E-01
       -2   -1    0    0    0  501  0.00000000000E+00  0.00000000000E+00  0.11237258040E+04  0.11237258040E+04  0.25500000920E-02 0. -1.
        2   -1    0    0  501    0  0.00000000000E+00  0.00000000000E+00 -0.20021243754E+04  0.20021243754E+04  0.25500000920E-02 0.  1.
    10030    2    1    2    0    0  0.00000000000E+00  0.00000000000E+00 -0.87839857134E+03  0.31258501794E+04  0.29998925471E+04 0.  0.
        3    1    3    3  502    0 -0.89359305397E+03  0.17435611643E+03 -0.16812771834E+04  0.19119627557E+04  0.10100000352E+00 0.  1.
       -3    1    3    3    0  502  0.89359305397E+03 -0.17435611643E+03  0.80287861211E+03  0.12138874237E+04  0.10100000352E+00 0. -1.
</event>
<event>
 5   0  0.6464436E-08  0.3002329E+04  0.7818609E-02  0.8243066E-01
       -1   -1    0    0    0  501  0.00000000000E+00  0.00000000000E+00  0.92307374076E+03  0.92307374077E+03  0.50400001928E-02 0. -1.
        1   -1    0    0  501    0  0.00000000000E+00  0.00000000000E+00 -0.24412937120E+04  0.24412937120E+04  0.50400001928E-02 0.  1.
    10030    2    1    2    0    0  0.00000000000E+00  0.00000000000E+00 -0.15182199713E+04  0.33643674528E+04  0.30023285091E+04 0.  0.
        5    1    3    3  502    0 -0.88508405300E+03  0.12103384718E+04 -0.67846645948E+03  0.16457921569E+04  0.46999998093E+01 0. -1.
       -5    1    3    3    0  502  0.88508405300E+03 -0.12103384718E+04 -0.83975351178E+03  0.17185752959E+04  0.46999998093E+01 0.  1.
</event>
<event>
 5   0  0.1914439E-07  0.2993738E+04  0.7818609E-02  0.8245521E-01
        2   -1    0    0  501    0  0.00000000000E+00  0.00000000000E+00  0.22060302005E+04  0.22060302005E+04  0.25500000920E-02 0. -1.
       -2   -1    0    0    0  501  0.00000000000E+00  0.00000000000E+00 -0.10156785470E+04  0.10156785470E+04  0.25500000920E-02 0.  1.
    10030    2    1    2    0    0  0.00000000000E+00  0.00000000000E+00  0.11903516535E+04  0.32217087476E+04  0.29937384981E+04 0.  0.
        5    1    3    3  502    0 -0.47285133797E+03  0.45658774309E+03 -0.85204844475E+03  0.10761363283E+04  0.46999998093E+01 0.  1.
       -5    1    3    3    0  502  0.47285133797E+03 -0.45658774309E+03  0.20424000982E+04  0.21455724192E+04  0.46999998093E+01 0. -1.
</event>
<event>
 5   0  0.1821305E-07  0.3000076E+04  0.7818609E-02  0.8243709E-01
       -2   -1    0    0    0  501  0.00000000000E+00  0.00000000000E+00  0.19435436203E+04  0.19435436203E+04  0.25500000920E-02 0. -1.
        2   -1    0    0  501    0  0.00000000000E+00  0.00000000000E+00 -0.11577377983E+04  0.11577377983E+04  0.25500000920E-02 0.  1.
    10030    2    1    2    0    0  0.00000000000E+00  0.00000000000E+00  0.78580582200E+03  0.31012814186E+04  0.30000759403E+04 0.  0.
        2    1    3    3  502    0 -0.77558710494E+03  0.12487583781E+04  0.84196774242E+02  0.14724204362E+04  0.25500000920E-02 0. -1.
       -2    1    3    3    0  502  0.77558710494E+03 -0.12487583781E+04  0.70160904776E+03  0.16288609824E+04  0.25500000920E-02 0.  1.
</event>
<event>
 5   0  0.1914439E-07  0.3002299E+04  0.7818609E-02  0.8243075E-01
       -2   -1    0    0    0  501  0.00000000000E+00  0.00000000000E+00  0.18009392220E+04  0.18009392220E+04  0.25500000920E-02 0. -1.
        2   -1    0    0  501    0  0.00000000000E+00  0.00000000000E+00 -0.12512640570E+04  0.12512640570E+04  0.25500000920E-02 0.  1.
    10030    2    1    2    0    0  0.00000000000E+00  0.00000000000E+00  0.54967516493E+03  0.30522032790E+04  0.30022994636E+04 0.  0.
        5    1    3    3  502    0 -0.21044364980E+03 -0.92232424188E+02 -0.12332739518E+04  0.12545039179E+04  0.46999998093E+01 0.  1.
       -5    1    3    3    0  502  0.21044364980E+03  0.92232424188E+02  0.17829491168E+04  0.17976993611E+04  0.46999998093E+01 0. -1.
</event>
<event>
 5   0  0.6374748E-08  0.3000313E+04  0.7818609E-02  0.8243642E-01
       -1   -1    0    0    0  501  0.00000000000E+00  0.00000000000E+00  0.20067924556E+04  0.20067924556E+04  0.50400001928E-02 0. -1.
        1   -1    0    0  501    0  0.00000000000E+00  0.00000000000E+00 -0.11214261078E+04  0.11214261078E+04  0.50400001928E-02 0.  1.
    10030    2    1    2    0    0  0.00000000000E+00  0.00000000000E+00  0.88536634777E+03  0.31282185634E+04  0.30003129521E+04 0.  0.
        1    1    3    3  502    0 -0.25097032781E+03 -0.68022110502E+03 -0.92661400257E+03  0.11765629464E+04  0.50400001928E-02 0.  1.
       -1    1    3    3    0  502  0.25097032781E+03  0.68022110502E+03  0.18119803503E+04  0.19516556170E+04  0.50400001928E-02 0. -1.
</event>
<event>
 5   0  0.1821305E-07  0.2999251E+04  0.7818609E-02  0.8243945E-01
       -2   -1    0    0    0  501  0.00000000000E+00  0.00000000000E+00  0.92667990340E+03  0.92667990340E+03  0.25500000920E-02 0. -1.
        2   -1    0    0  501    0  0.00000000000E+00  0.00000000000E+00 -0.24268113068E+04  0.24268113068E+04  0.25500000920E-02 0.  1.
    10030    2    1    2    0    0  0.00000000000E+00  0.00000000000E+00 -0.15001314034E+04  0.33534912102E+04  0.29992514182E+04 0.  0.
        2    1    3    3  502    0 -0.33779339141E+03  0.14384798957E+04 -0.10363289651E+04  0.18048009612E+04  0.25500000920E-02 0.  1.
       -2    1    3    3    0  502  0.33779339141E+03 -0.14384798957E+04 -0.46380243833E+03  0.15486902490E+04  0.25500000920E-02 0. -1.
</event>
<event>
 5   0  0.6464436E-08  0.2988636E+04  0.7818609E-02  0.8246983E-01
        1   -1    0    0  501    0  0.00000000000E+00  0.00000000000E+00  0.21692035932E+04  0.21692035932E+04  0.50400001928E-02 0. -1.
       -1   -1    0    0    0  501  0.00000000000E+00  0.00000000000E+00 -0.10294037623E+04  0.10294037623E+04  0.50400001928E-02 0.  1.
    10030    2    1    2    0    0  0.00000000000E+00  0.00000000000E+00  0.11397998308E+04  0.31986073555E+04  0.29886360368E+04 0.  0.
        5    1    3    3  502    0  0.24576423320E+03  0.43975323001E+02  0.21467152673E+04  0.21611900463E+04  0.46999998093E+01 0. -1.
       -5    1    3    3    0  502 -0.24576423320E+03 -0.43975323001E+02 -0.10069154364E+04  0.10374173092E+04  0.46999998093E+01 0.  1.
</event>
<event>
 5   0  0.6679022E-08  0.2999617E+04  0.7818609E-02  0.8243840E-01
        1   -1    0    0  501    0  0.00000000000E+00  0.00000000000E+00  0.22578660982E+04  0.22578660982E+04  0.50400001928E-02 0. -1.
       -1   -1    0    0    0  501  0.00000000000E+00  0.00000000000E+00 -0.99626152017E+03  0.99626152019E+03  0.50400001928E-02 0.  1.
    10030    2    1    2    0    0  0.00000000000E+00  0.00000000000E+00  0.12616045780E+04  0.32541276184E+04  0.29996167164E+04 0.  0.
        3    1    3    3  502    0 -0.35764581454E+03 -0.59549513240E+03 -0.81122943822E+03  0.10679972814E+04  0.10100000352E+00 0.  1.
       -3    1    3    3    0  502  0.35764581454E+03  0.59549513240E+03  0.20728340162E+04  0.21861303370E+04  0.10100000352E+00 0. -1.
</event>
<event>
 5   0  0.1810055E-07  0.2999137E+04  0.7818609E-02  0.8243977E-01
       -2   -1    0    0    0  501  0.00000000000E+00  0.00000000000E+00  0.10830111571E+04  0.10830111571E+04  0.25500000920E-02 0. -1.
        2   -1    0    0  501    0  0.00000000000E+00  0.00000000000E+00 -0.20763460682E+04  0.20763460682E+04  0.25500000920E-02 0.  1.
    10030    2    1    2    0    0  0.00000000000E+00  0.00000000000E+00 -0.99333491116E+03  0.31593572253E+04  0.29991371812E+04 0.  0.
        4    1    3    3  502    0 -0.10748774278E+04  0.20070994058E+03  0.58433984565E+03  0.12397986260E+04  0.12699999809E+01 0. -1.
       -4    1    3    3    0  502  0.10748774278E+04 -0.20070994058E+03 -0.15776747568E+04  0.19195585993E+04  0.12699999809E+01 0.  1.
</event>
<event>
 5   0  0.6464436E-08  0.2999619E+04  0.7818609E-02  0.8243840E-01
       -1   -1    0    0    0  501  0.00000000000E+00  0.00000000000E+00  0.16124555131E+04  0.16124555131E+04  0.50400001928E-02 0.  1.
        1   -1    0    0  501    0  0.00000000000E+00  0.00000000000E+00 -0.13950324710E+04  0.13950324711E+04  0.50400001928E-02 0. -1.
    10030    2    1    2    0    0  0.00000000000E+00  0.00000000000E+00  0.21742304202E+03  0.30074879841E+04  0.29996185083E+04 0.  0.
        5    1    3    3  502    0  0.40485374573E+03 -0.27281906955E+03  0.15305535648E+04  0.16065345016E+04  0.46999998093E+01 0.  1.
       -5    1    3    3    0  502 -0.40485374573E+03  0.27281906955E+03 -0.13131305228E+04  0.14009534825E+04  0.46999998093E+01 0. -1.
</event>
<event>
 5   0  0.6374748E-08  0.3000006E+04  0.7818609E-02  0.8243729E-01
        1   -1    0    0  501    0  0.00000000000E+00  0.00000000000E+00  0.21648198531E+04  0.21648198531E+04  0.50400001928E-02 0. -1.
       -1   -1    0    0    0  501  0.00000000000E+00  0.00000000000E+00 -0.10393516083E+04  0.10393516083E+04  0.50400001928E-02 0.  1.
    10030    2    1    2    0    0  0.00000000000E+00  0.00000000000E+00  0.11254682448E+04  0.32041714614E+04  0.30000059973E+04 0.  0.
        1    1    3    3  502    0  0.58507251222E+03  0.66204399462E+02 -0.91076231103E+03  0.10845187201E+04  0.50400001928E-02 0.  1.
       -1    1    3    3    0  502 -0.58507251222E+03 -0.66204399462E+02  0.20362305559E+04  0.21196527413E+04  0.50400001928E-02 0. -1.
</event>
<event>
 5   0  0.6679022E-08  0.2999934E+04  0.7818609E-02  0.8243750E-01
        1   -1    0    0  501    0  0.00000000000E+00  0.00000000000E+00  0.18568313854E+04  0.18568313854E+04  0.50400001928E-02 0. -1.
       -1   -1    0    0    0  501  0.00000000000E+00  0.00000000000E+00 -0.12116884731E+04  0.12116884731E+04  0.50400001928E-02 0.  1.
    10030    2    1    2    0    0  0.00000000000E+00  0.00000000000E+00  0.64514291237E+03  0.30685198585E+04  0.29999341234E+04 0.  0.
        3    1    3    3  502    0  0.31009207337E+02 -0.14503967764E+04 -0.67310631447E+02  0.14522889214E+04  0.10100000352E+00 0. -1.
       -3    1    3    3    0  502 -0.31009207337E+02  0.14503967764E+04  0.71245354382E+03  0.16162309371E+04  0.10100000352E+00 0.  1.
</event>
<event>
 5   0  0.1914439E-07  0.3001718E+04  0.7818609E-02  0.8243241E-01
        2   -1    0    0  501    0  0.00000000000E+00  0.00000000000E+00  0.11829330084E+04  0.11829330084E+04  0.25500000920E-02 0. -1.
       -2   -1    0    0    0  501  0.00000000000E+00  0.00000000000E+00 -0.19042305714E+04  0.19042305714E+04  0.25500000920E-02 0.  1.
    10030    2    1    2    0    0  0.00000000000E+00  0.00000000000E+00 -0.72129756300E+03  0.30871635799E+04  0.30017176407E+04 0.  0.
        5    1    3    3  502    0  0.56097044986E+03  0.13425527107E+04 -0.73911783917E+03  0.16320088531E+04  0.46999998093E+01 0.  1.
       -5    1    3    3    0  502 -0.56097044986E+03 -0.13425527107E+04  0.17820276165E+02  0.14551547268E+04  0.46999998093E+01 0. -1.
</event>
<event>
 5   0  0.6525507E-08  0.2999670E+04  0.7818609E-02  0.8243825E-01
       -1   -1    0    0    0  501  0.00000000000E+00  0.00000000000E+00  0.17112547155E+04  0.17112547155E+04  0.50400001928E-02 0. -1.
        1   -1    0    0  501    0  0.00000000000E+00  0.00000000000E+00 -0.13145351171E+04  0.13145351171E+04  0.50400001928E-02 0.  1.
    10030    2    1    2    0    0  0.00000000000E+00  0.00000000000E+00  0.39671959840E+03  0.30257898326E+04  0.29996695937E+04 0.  0.
        4    1    3    3  502    0  0.56224987016E+03 -0.29085022263E+03 -0.11731800479E+04  0.13330685677E+04  0.12699999809E+01 0.  1.
       -4    1    3    3    0  502 -0.56224987016E+03  0.29085022263E+03  0.15698996463E+04  0.16927212650E+04  0.12699999809E+01 0. -1.
</event>
<event>
 5   0  0.6464436E-08  0.3000907E+04  0.7818609E-02  0.8243472E-01
        1   -1    0    0  501    0  0.00000000000E+00  0.00000000000E+00  0.21987588452E+04  0.21987588452E+04  0.50400001928E-02 0.  1.
       -1   -1    0    0    0  501  0.00000000000E+00  0.00000000000E+00 -0.10239231397E+04  0.10239231397E+04  0.50400001928E-02 0. -1.
    10030    2    1    2    0    0  0.00000000000E+00  0.00000000000E+00  0.11748357055E+04  0.32226819850E+04  0.30009065699E+04 0.  0.
        5    1    3    3  502    0  0.32415569000E+03 -0.11336957903E+04  0.15838902432E+04  0.19746071631E+04  0.46999998093E+01 0.  1.
       -5    1    3    3    0  502 -0.32415569000E+03  0.11336957903E+04 -0.40905453763E+03  0.12480748219E+04  0.46999998093E+01 0. -1.
</event>
<event>
 5   0  0.1914439E-07  0.3000701E+04  0.7818609E-02  0.8243531E-01
       -2   -1    0    0    0  501  0.00000000000E+00  0.00000000000E+00  0.11568081377E+04  0.11568081377E+04  0.25500000920E-02 0.  1.
        2   -1    0    0  501    0  0.00000000000E+00  0.00000000000E+00 -0.19459163506E+04  0.19459163506E+04  0.25500000920E-02 0. -1.
    10030    2    1    2    0    0  0.00000000000E+00  0.00000000000E+00 -0.78910821284E+03  0.31027244883E+04  0.30007011645E+04 0.  0.
        5    1    3    3  502    0  0.10789224002E+04 -0.34797602704E+03 -0.14107549755E+04  0.18098100872E+04  0.46999998093E+01 0. -1.
       -5    1    3    3    0  502 -0.10789224002E+04  0.34797602704E+03  0.62164676264E+03  0.12929144011E+04  0.46999998093E+01 0.  1.
</event>
<event>
 5   0  0.6464436E-08  0.3001225E+04  0.7818609E-02  0.8243381E-01
        1   -1    0    0  501    0  0.00000000000E+00  0.00000000000E+00  0.25317489970E+04  0.25317489970E+04  0.50400001928E-02 0. -1.
       -1   -1    0    0    0  501  0.00000000000E+00  0.00000000000E+00 -0.88943959322E+03  0.88943959324E+03  0.50400001928E-02 0.  1.
    10030    2    1    2    0    0  0.00000000000E+00  0.00000000000E+00  0.16423094038E+04  0.34211885903E+04  0.30012249486E+04 0.  0.
        5    1    3    3  502    0  0.17916503676E+03 -0.91597887707E+03 -0.51829947592E+03  0.10676019157E+04  0.46999998093E+01 0.  1.
       -5    1    3    3    0  502 -0.17916503676E+03  0.91597887707E+03  0.21606088797E+04  0.23535866746E+04  0.46999998093E+01 0. -1.
</event>
<event>
 5   0  0.1810055E-07  0.2999592E+04  0.7818609E-02  0.8243847E-01
        2   -1    0    0  501    0  0.00000000000E+00  0.00000000000E+00  0.21065666439E+04  0.21065666439E+04  0.25500000920E-02 0. -1.
       -2   -1    0    0    0  501  0.00000000000E+00  0.00000000000E+00 -0.10677985154E+04  0.10677985154E+04  0.25500000920E-02 0.  1.
    10030    2    1    2    0    0  0.00000000000E+00  0.00000000000E+00  0.10387681286E+04  0.31743651593E+04  0.29995924623E+04 0.  0.
        4    1    3    3  502    0 -0.57619326660E+03 -0.13010317205E+04  0.10210341668E+04  0.17513408009E+04  0.12699999809E+01 0. -1.
       -4    1    3    3    0  502  0.57619326660E+03  0.13010317205E+04  0.17733961796E+02  0.14230243584E+04  0.12699999809E+01 0.  1.
</event>
<event>
 5   0  0.6525507E-08  0.2999249E+04  0.7818609E-02  0.8243945E-01
       -1   -1    0    0    0  501  0.00000000000E+00  0.00000000000E+00  0.13475146521E+04  0.13475146521E+04  0.50400001928E-02 0.  1.
        1   -1    0    0  501    0  0.00000000000E+00  0.00000000000E+00 -0.16689047974E+04  0.16689047974E+04  0.50400001928E-02 0. -1.
    10030    2    1    2    0    0  0.00000000000E+00  0.00000000000E+00 -0.32139014528E+03  0.30164194495E+04  0.29992490176E+04 0.  0.
        4    1    3    3  502    0  0.91283068215E+03  0.92662204091E+03  0.58989097375E+03  0.14282371073E+04  0.12699999809E+01 0.  1.
       -4    1    3    3    0  502 -0.91283068215E+03 -0.92662204091E+03 -0.91128111903E+03  0.15881823421E+04  0.12699999809E+01 0. -1.
</event>
<event>
 5   0  0.6636007E-08  0.3000129E+04  0.7818609E-02  0.8243694E-01
        1   -1    0    0  501    0  0.00000000000E+00  0.00000000000E+00  0.15289118140E+04  0.15289118140E+04  0.50400001928E-02 0.  1.
       -1   -1    0    0    0  501  0.00000000000E+00  0.00000000000E+00 -0.14717613155E+04  0.14717613155E+04  0.50400001928E-02 0. -1.
    10030    2    1    2    0    0  0.00000000000E+00  0.00000000000E+00  0.57150498566E+02  0.30006731295E+04  0.30001288390E+04 0.  0.
        2    1    3    3  502    0 -0.11373528196E+04 -0.14822599120E+03 -0.93837358381E+03  0.14819201610E+04  0.25500000920E-02 0. -1.
       -2    1    3    3    0  502  0.11373528196E+04  0.14822599120E+03  0.99552408237E+03  0.15187529685E+04  0.25500000920E-02 0.  1.
</event>
<event>
 5   0  0.6679022E-08  0.3000458E+04  0.7818609E-02  0.8243600E-01
        1   -1    0    0  501    0  0.00000000000E+00  0.00000000000E+00  0.97068414237E+03  0.97068414238E+03  0.50400001928E-02 0.  1.
       -1   -1    0    0    0  501  0.00000000000E+00  0.00000000000E+00 -0.23186612297E+04  0.23186612297E+04  0.50400001928E-02 0. -1.
    10030    2    1    2    0    0  0.00000000000E+00  0.00000000000E+00 -0.13479770873E+04  0.32893453721E+04  0.30004584231E+04 0.  0.
        3    1    3    3  502    0  0.55660457409E+03 -0.10128972506E+04 -0.17225961224E+04  0.20743931410E+04  0.10100000352E+00 0. -1.
       -3    1    3    3    0  502 -0.55660457409E+03  0.10128972506E+04  0.37461903507E+03  0.12149522311E+04  0.10100000352E+00 0.  1.
</event>
<event>
 5   0  0.1813720E-07  0.3000724E+04  0.7818609E-02  0.8243524E-01
        2   -1    0    0  501    0  0.00000000000E+00  0.00000000000E+00  0.14308999453E+04  0.14308999453E+04  0.25500000920E-02 0.  1.
       -2   -1    0    0    0  501  0.00000000000E+00  0.00000000000E+00 -0.15731959789E+04  0.15731959789E+04  0.25500000920E-02 0. -1.
    10030    2    1    2    0    0  0.00000000000E+00  0.00000000000E+00 -0.14229603356E+03  0.30040959242E+04  0.30007239394E+04 0.  0.
        3    1    3    3  502    0  0.25908594777E+03  0.14362247865E+04  0.27740822009E+03  0.14855377803E+04  0.10100000352E+00 0.  1.
       -3    1    3    3    0  502 -0.25908594777E+03 -0.14362247865E+04 -0.41970425365E+03  0.15185581439E+04  0.10100000352E+00 0. -1.
</event>
<event>
 5   0  0.6636007E-08  0.3000353E+04  0.7818609E-02  0.8243630E-01
        1   -1    0    0  501    0  0.00000000000E+00  0.00000000000E+00  0.11200206555E+04  0.11200206555E+04  0.50400001928E-02 0.  1.
       -1   -1    0    0    0  501  0.00000000000E+00  0.00000000000E+00 -0.20093643927E+04  0.20093643927E+04  0.50400001928E-02 0. -1.
    10030    2    1    2    0    0  0.00000000000E+00  0.00000000000E+00 -0.88934373723E+03  0.31293850482E+04  0.30003530620E+04 0.  0.
        2    1    3    3  502    0 -0.90453213761E+03 -0.10099522840E+04  0.22508686708E+03  0.13743529756E+04  0.25500000920E-02 0.  1.
       -2    1    3    3    0  502  0.90453213761E+03  0.10099522840E+04 -0.11144306043E+04  0.17550320726E+04  0.25500000920E-02 0. -1.
</event>
<event>
 5   0  0.6636007E-08  0.2999112E+04  0.7818609E-02  0.8243984E-01
       -1   -1    0    0    0  501  0.00000000000E+00  0.00000000000E+00  0.31557711879E+04  0.31557711879E+04  0.50400001928E-02 0. -1.
        1   -1    0    0  501    0  0.00000000000E+00  0.00000000000E+00 -0.71255744911E+03  0.71255744913E+03  0.50400001928E-02 0.  1.
    10030    2    1    2    0    0  0.00000000000E+00  0.00000000000E+00  0.24432137388E+04  0.38683286370E+04  0.29991120470E+04 0.  0.
        2    1    3    3  502    0 -0.92009533378E+03 -0.96695877938E+03  0.21031183318E+04  0.24909218016E+04  0.25500000920E-02 0. -1.
       -2    1    3    3    0  502  0.92009533378E+03  0.96695877938E+03  0.34009540693E+03  0.13774068354E+04  0.25500000920E-02 0.  1.
</event>
<event>
 5   0  0.1914439E-07  0.2999719E+04  0.7818609E-02  0.8243811E-01
       -2   -1    0    0    0  501  0.00000000000E+00  0.00000000000E+00  0.16616277196E+04  0.16616277196E+04  0.25500000920E-02 0.  1.
        2   -1    0    0  501    0  0.00000000000E+00  0.00000000000E+00 -0.13538404321E+04  0.13538404321E+04  0.25500000920E-02 0. -1.
    10030    2    1    2    0    0  0.00000000000E+00  0.00000000000E+00  0.30778728753E+03  0.30154681518E+04  0.29997191802E+04 0.  0.
        5    1    3    3  502    0  0.80110909009E+03 -0.12130836405E+04  0.52489633448E+03  0.15456021302E+04  0.46999998093E+01 0. -1.
       -5    1    3    3    0  502 -0.80110909009E+03  0.12130836405E+04 -0.21710904695E+03  0.14698660215E+04  0.46999998093E+01 0.  1.
</event>
<event>
 5   0  0.1810055E-07  0.2999016E+04  0.7818609E-02  0.8244012E-01
        2   -1    0    0  501    0  0.00000000000E+00  0.00000000000E+00  0.17200806757E+04  0.17200806757E+04  0.25500000920E-02 0. -1.
       -2   -1    0    0    0  501  0.00000000000E+00  0.00000000000E+00 -0.13072201763E+04  0.13072201763E+04  0.25500000920E-02 0.  1.
    10030    2    1    2    0    0  0.00000000000E+00  0.00000000000E+00  0.41286049939E+03  0.30273008520E+04  0.29990159481E+04 0.  0.
        4    1    3    3  502    0  0.79564591685E+02  0.25756641414E+03  0.16954190828E+04  0.17167173504E+04  0.12699999809E+01 0. -1.
       -4    1    3    3    0  502 -0.79564591685E+02 -0.25756641414E+03 -0.12825585834E+04  0.13105835016E+04  0.12699999809E+01 0.  1.
</event>
<event>
 5   0  0.6636007E-08  0.2994727E+04  0.7818609E-02  0.8245238E-01
        1   -1    0    0  501    0  0.00000000000E+00  0.00000000000E+00  0.16033926731E+04  0.16033926732E+04  0.50400001928E-02 0. -1.
       -1   -1    0    0    0  501  0.00000000000E+00  0.00000000000E+00 -0.13983457423E+04  0.13983457423E+04  0.50400001928E-02 0.  1.
    10030    2    1    2    0    0  0.00000000000E+00  0.00000000000E+00  0.20504693085E+03  0.30017384155E+04  0.29947269109E+04 0.  0.
        2    1    3    3  502    0 -0.12690250682E+04 -0.50853623354E+03  0.71474281618E+03  0.15426895403E+04  0.25500000920E-02 0.  1.
       -2    1    3    3    0  502  0.12690250682E+04  0.50853623354E+03 -0.50969588533E+03  0.14590488751E+04  0.25500000920E-02 0. -1.
</event>
<event>
 5   0  0.6679022E-08  0.2997054E+04  0.7818609E-02  0.8244573E-01
        1   -1    0    0  501    0  0.00000000000E+00  0.00000000000E+00  0.14648190281E+04  0.14648190281E+04  0.50400001928E-02 0.  1.
       -1   -1    0    0    0  501  0.00000000000E+00  0.00000000000E+00 -0.15330101611E+04  0.15330101611E+04  0.50400001928E-02 0. -1.
    10030    2    1    2    0    0  0.00000000000E+00  0.00000000000E+00 -0.68191133042E+02  0.29978291892E+04  0.29970535225E+04 0.  0.
        3    1    3    3  502    0 -0.24703009772E+03 -0.11660968253E+04  0.87431169050E+03  0.14782512025E+04  0.10100000352E+00 0.  1.
       -3    1    3    3    0  502  0.24703009772E+03  0.11660968253E+04 -0.94250282354E+03  0.15195779867E+04  0.10100000352E+00 0. -1.
</event>
<event>
 5   0  0.6679022E-08  0.3000169E+04  0.7818609E-02  0.8243683E-01
        1   -1    0    0  501    0  0.00000000000E+00  0.00000000000E+00  0.17704695043E+04  0.17704695043E+04  0.50400001928E-02 0. -1.
       -1   -1    0    0    0  501  0.00000000000E+00  0.00000000000E+00 -0.12709921491E+04  0.12709921491E+04  0.50400001928E-02 0.  1.
    10030    2    1    2    0    0  0.00000000000E+00  0.00000000000E+00  0.49947735522E+03  0.30414616534E+04  0.30001685554E+04 0.  0.
        3    1    3    3  502    0 -0.76782527550E+03  0.63627129280E+03  0.13858126649E+04  0.17073000803E+04  0.10100000352E+00 0. -1.
       -3    1    3    3    0  502  0.76782527550E+03 -0.63627129280E+03 -0.88633530970E+03  0.13341615731E+04  0.10100000352E+00 0.  1.
</event>
<event>
 5   0  0.1821305E-07  0.2997477E+04  0.7818609E-02  0.8244452E-01
        2   -1    0    0  501    0  0.00000000000E+00  0.00000000000E+00  0.27314195117E+04  0.27314195117E+04  0.25500000920E-02 0. -1.
       -2   -1    0    0    0  501  0.00000000000E+00  0.00000000000E+00 -0.82236268359E+03  0.82236268360E+03  0.25500000920E-02 0.  1.
    10030    2    1    2    0    0  0.00000000000E+00  0.00000000000E+00  0.19090568282E+04  0.35537821953E+04  0.29974772591E+04 0.  0.
        2    1    3    3  502    0  0.66001952758E+03 -0.93856665056E+03 -0.18862013459E+03  0.11628029453E+04  0.25500000920E-02 0.  1.
       -2    1    3    3    0  502 -0.66001952758E+03  0.93856665056E+03  0.20976769627E+04  0.23909792501E+04  0.25500000920E-02 0. -1.
</event>
<event>
 5   0  0.6374748E-08  0.2999634E+04  0.7818609E-02  0.8243835E-01
       -1   -1    0    0    0  501  0.00000000000E+00  0.00000000000E+00  0.16818528628E+04  0.16818528628E+04  0.50400001928E-02 0. -1.
        1   -1    0    0  501    0  0.00000000000E+00  0.00000000000E+00 -0.13374842649E+04  0.13374842649E+04  0.50400001928E-02 0.  1.
    10030    2    1    2    0    0  0.00000000000E+00  0.00000000000E+00  0.34436859789E+03  0.30193371277E+04  0.29996344710E+04 0.  0.
        1    1    3    3  502    0  0.31560200006E+03  0.59632405842E+03  0.15204767777E+04  0.16634472149E+04  0.50400001928E-02 0. -1.
       -1    1    3    3    0  502 -0.31560200006E+03 -0.59632405842E+03 -0.11761081798E+04  0.13558899128E+04  0.50400001928E-02 0.  1.
</event>
<event>
 5   0  0.1914439E-07  0.3000473E+04  0.7818609E-02  0.8243596E-01
       -2   -1    0    0    0  501  0.00000000000E+00  0.00000000000E+00  0.87743326475E+03  0.87743326475E+03  0.25500000920E-02 0. -1.
        2   -1    0    0  501    0  0.00000000000E+00  0.00000000000E+00 -0.25651055724E+04  0.25651055724E+04  0.25500000920E-02 0.  1.
    10030    2    1    2    0    0  0.00000000000E+00  0.00000000000E+00 -0.16876723077E+04  0.34425388372E+04  0.30004726007E+04 0.  0.
        5    1    3    3  502    0 -0.94701289963E+03  0.10713025781E+04 -0.13647859012E+04  0.19766601357E+04  0.46999998093E+01 0.  1.
       -5    1    3    3    0  502  0.94701289963E+03 -0.10713025781E+04 -0.32288640647E+03  0.14658787015E+04  0.46999998093E+01 0. -1.
</event>
<event>
 5   0  0.6679022E-08  0.2998069E+04  0.7818609E-02  0.8244282E-01
        1   -1    0    0  501    0  0.00000000000E+00  0.00000000000E+00  0.14988976719E+04  0.14988976719E+04  0.50400001928E-02 0.  1.
       -1   -1    0    0    0  501  0.00000000000E+00  0.00000000000E+00 -0.14991716989E+04  0.14991716989E+04  0.50400001928E-02 0. -1.
    10030    2    1    2    0    0  0.00000000000E+00  0.00000000000E+00 -0.27402702080E+00  0.29980693708E+04  0.29980693583E+04 0.  0.
        3    1    3    3  502    0 -0.10662706829E+04 -0.53883351655E+03  0.90530776019E+03  0.14989519267E+04  0.10100000352E+00 0.  1.
       -3    1    3    3    0  502  0.10662706829E+04  0.53883351655E+03 -0.90558178721E+03  0.14991174441E+04  0.10100000352E+00 0. -1.
</event>
<event>
 5   0  0.1821305E-07  0.3003247E+04  0.7818609E-02  0.8242804E-01
        2   -1    0    0  501    0  0.00000000000E+00  0.00000000000E+00  0.15837875495E+04  0.15837875495E+04  0.25500000920E-02 0.  1.
       -2   -1    0    0    0  501  0.00000000000E+00  0.00000000000E+00 -0.14237223968E+04  0.14237223968E+04  0.25500000920E-02 0. -1.
    10030    2    1    2    0    0  0.00000000000E+00  0.00000000000E+00  0.16006515271E+03  0.30075099463E+04  0.30032474464E+04 0.  0.
        2    1    3    3  502    0 -0.20578294034E+03 -0.10699373825E+04 -0.95475932371E+03  0.14486814650E+04  0.25500000920E-02 0. -1.
       -2    1    3    3    0  502  0.20578294034E+03  0.10699373825E+04  0.11148244764E+04  0.15588284813E+04  0.25500000920E-02 0.  1.
</event>
<event>
 5   0  0.6017625E-08  0.2999985E+04  0.7818609E-02  0.8243735E-01
        3   -1    0    0  501    0  0.00000000000E+00  0.00000000000E+00  0.22401399694E+04  0.22401399717E+04  0.10100000352E+00 0.  1.
       -3   -1    0    0    0  501  0.00000000000E+00  0.00000000000E+00 -0.10043917171E+04  0.10043917222E+04  0.10100000352E+00 0. -1.
    10030    2    1    2    0    0  0.00000000000E+00  0.00000000000E+00  0.12357482523E+04  0.32445316939E+04  0.29999853615E+04 0.  0.
        3    1    3    3  502    0  0.38579300880E+03  0.75499816602E+03  0.19561246961E+04  0.21319667711E+04  0.10100000352E+00 0.  1.
       -3    1    3    3    0  502 -0.38579300880E+03 -0.75499816602E+03 -0.72037644378E+03  0.11125649227E+04  0.10100000352E+00 0. -1.
</event>
<event>
 5   0  0.1914439E-07  0.2999840E+04  0.7818609E-02  0.8243777E-01
        2   -1    0    0  501    0  0.00000000000E+00  0.00000000000E+00  0.15143170629E+04  0.15143170629E+04  0.25500000920E-02 0. -1.
       -2   -1    0    0    0  501  0.00000000000E+00  0.00000000000E+00 -0.14856596564E+04  0.14856596564E+04  0.25500000920E-02 0.  1.
    10030    2    1    2    0    0  0.00000000000E+00  0.00000000000E+00  0.28657406528E+02  0.29999767193E+04  0.29998398406E+04 0.  0.
        5    1    3    3  502    0  0.12394558125E+04  0.32209408224E+03 -0.76656694477E+03  0.14925288204E+04  0.46999998093E+01 0. -1.
       -5    1    3    3    0  502 -0.12394558125E+04 -0.32209408224E+03  0.79522435130E+03  0.15074478989E+04  0.46999998093E+01 0.  1.
</event>
<event>
 5   0  0.6374748E-08  0.2998861E+04  0.7818609E-02  0.8244056E-01
       -1   -1    0    0    0  501  0.00000000000E+00  0.00000000000E+00  0.12651616434E+04  0.12651616434E+04  0.50400001928E-02 0. -1.
        1   -1    0    0  501    0  0.00000000000E+00  0.00000000000E+00 -0.17770791084E+04  0.17770791084E+04  0.50400001928E-02 0.  1.
    10030    2    1    2    0    0  0.00000000000E+00  0.00000000000E+00 -0.51191746495E+03  0.30422407518E+04  0.29988613341E+04 0.  0.
        1    1    3    3  502    0  0.11550443497E+04 -0.40026910349E+02  0.71314118556E+03  0.13580500558E+04  0.50400001928E-02 0. -1.
       -1    1    3    3    0  502 -0.11550443497E+04  0.40026910349E+02 -0.12250586505E+04  0.16841906960E+04  0.50400001928E-02 0.  1.
</event>
<event>
 5   0  0.6525507E-08  0.3005629E+04  0.7818609E-02  0.8242125E-01
        1   -1    0    0  501    0  0.00000000000E+00  0.00000000000E+00  0.18009051749E+04  0.18009051749E+04  0.50400001928E-02 0.  1.
       -1   -1    0    0    0  501  0.00000000000E+00  0.00000000000E+00 -0.12540646061E+04  0.12540646061E+04  0.50400001928E-02 0. -1.
    10030    2    1    2    0    0  0.00000000000E+00  0.00000000000E+00  0.54684056881E+03  0.30549697810E+04  0.30056290115E+04 0.  0.
        4    1    3    3  502    0 -0.71725239016E+03  0.10933909183E+04  0.10261827123E+04  0.16622296061E+04  0.12699999809E+01 0.  1.
       -4    1    3    3    0  502  0.71725239016E+03 -0.10933909183E+04 -0.47934214345E+03  0.13927401749E+04  0.12699999809E+01 0. -1.
</event>
<event>
 5   0  0.1813720E-07  0.2999485E+04  0.7818609E-02  0.8243878E-01
        2   -1    0    0  501    0  0.00000000000E+00  0.00000000000E+00  0.16949637715E+04  0.16949637715E+04  0.25500000920E-02 0.  1.
       -2   -1    0    0    0  501  0.00000000000E+00  0.00000000000E+00 -0.13270059408E+04  0.13270059408E+04  0.25500000920E-02 0. -1.
    10030    2    1    2    0    0  0.00000000000E+00  0.00000000000E+00  0.36795783064E+03  0.30219697123E+04  0.29994846185E+04 0.  0.
        3    1    3    3  502    0  0.13618662133E+04  0.13889710315E+03 -0.43319378797E+03  0.14358373363E+04  0.10100000352E+00 0. -1.
       -3    1    3    3    0  502 -0.13618662133E+04 -0.13889710315E+03  0.80115161860E+03  0.15861323760E+04  0.10100000352E+00 0.  1.
</event>
<event>
 5   0  0.6464436E-08  0.3001939E+04  0.7818609E-02  0.8243177E-01
        1   -1    0    0  501    0  0.00000000000E+00  0.00000000000E+00  0.12838411384E+04  0.12838411384E+04  0.50400001928E-02 0. -1.
       -1   -1    0    0    0  501  0.00000000000E+00  0.00000000000E+00 -0.17548192077E+04  0.17548192077E+04  0.50400001928E-02 0.  1.
    10030    2    1    2    0    0  0.00000000000E+00  0.00000000000E+00 -0.47097806935E+03  0.30386603461E+04  0.30019387664E+04 0.  0.
        5    1    3    3  502    0  0.92424849769E+03  0.11799054087E+04 -0.31694037202E+03  0.15319547475E+04  0.46999998093E+01 0.  1.
       -5    1    3    3    0  502 -0.92424849769E+03 -0.11799054087E+04 -0.15403769733E+03  0.15067055987E+04  0.46999998093E+01 0. -1.
</event>
<event>
 5   0  0.1817566E-07  0.3000002E+04  0.7818609E-02  0.8243730E-01
       -2   -1    0    0    0  501  0.00000000000E+00  0.00000000000E+00  0.11737205046E+04  0.11737205046E+04  0.25500000920E-02 0. -1.
        2   -1    0    0  501    0  0.00000000000E+00  0.00000000000E+00 -0.19169838461E+04  0.19169838461E+04  0.25500000920E-02 0.  1.
    10030    2    1    2    0    0  0.00000000000E+00  0.00000000000E+00 -0.74326334154E+03  0.30907043507E+04  0.30000021647E+04 0.  0.
        1    1    3    3  502    0  0.11796592373E+04  0.89049312554E+03 -0.10810649411E+03  0.14819787235E+04  0.50400001928E-02 0.  1.
       -1    1    3    3    0  502 -0.11796592373E+04 -0.89049312554E+03 -0.63515684742E+03  0.16087256272E+04  0.50400001928E-02 0. -1.
</event>
<event>
 5   0  0.6374748E-08  0.3000009E+04  0.7818609E-02  0.8243728E-01
       -1   -1    0    0    0  501  0.00000000000E+00  0.00000000000E+00  0.99242143702E+03  0.99242143704E+03  0.50400001928E-02 0. -1.
        1   -1    0    0  501    0  0.00000000000E+00  0.00000000000E+00 -0.22671949773E+04  0.22671949773E+04  0.50400001928E-02 0.  1.
    10030    2    1    2    0    0  0.00000000000E+00  0.00000000000E+00 -0.12747735402E+04  0.32596164143E+04  0.30000085982E+04 0.  0.
        1    1    3    3  502    0  0.34931135593E+03 -0.33466169274E+03 -0.21801128893E+04  0.22331388408E+04  0.50400001928E-02 0.  1.
       -1    1    3    3    0  502 -0.34931135593E+03  0.33466169274E+03  0.90533934908E+03  0.10264775735E+04  0.50400001928E-02 0. -1.
</event>
<event>
 5   0  0.1821305E-07  0.3001844E+04  0.7818609E-02  0.8243204E-01
       -2   -1    0    0    0  501  0.00000000000E+00  0.00000000000E+00  0.12517775863E+04  0.12517775863E+04  0.25500000920E-02 0. -1.
        2   -1    0    0  501    0  0.00000000000E+00  0.00000000000E+00 -0.17996545577E+04  0.17996545577E+04  0.25500000920E-02 0.  1.
    10030    2    1    2    0    0  0.00000000000E+00  0.00000000000E+00 -0.54787697147E+03  0.30514321440E+04  0.30018442587E+04 0.  0.
        2    1    3    3  502    0 -0.75124526193E+03 -0.63625071243E+02  0.10453254335E+04  0.12888455514E+04  0.25500000920E-02 0. -1.
       -2    1    3    3    0  502  0.75124526193E+03  0.63625071243E+02 -0.15932024050E+04  0.17625865926E+04  0.25500000920E-02 0.  1.
</event>
<event>
 5   0  0.6679022E-08  0.2999734E+04  0.7818609E-02  0.8243807E-01
       -1   -1    0    0    0  501  0.00000000000E+00  0.00000000000E+00  0.16948657600E+04  0.16948657600E+04  0.50400001928E-02 0. -1.
        1   -1    0    0  501    0  0.00000000000E+00  0.00000000000E+00 -0.13273036768E+04  0.13273036768E+04  0.50400001928E-02 0.  1.
    10030    2    1    2    0    0  0.00000000000E+00  0.00000000000E+00  0.36756208316E+03  0.30221694368E+04  0.29997343582E+04 0.  0.
        3    1    3    3  502    0 -0.14521572924E+04  0.14766504951E+03 -0.16381495508E+03  0.14688094220E+04  0.10100000352E+00 0.  1.
       -3    1    3    3    0  502  0.14521572924E+04 -0.14766504951E+03  0.53137703824E+03  0.15533600148E+04  0.10100000352E+00 0. -1.
</event>
<event>
 5   0  0.1810055E-07  0.3000290E+04  0.7818609E-02  0.8243648E-01
       -2   -1    0    0    0  501  0.00000000000E+00  0.00000000000E+00  0.97405663998E+03  0.97405663998E+03  0.25500000920E-02 0. -1.
        2   -1    0    0  501    0  0.00000000000E+00  0.00000000000E+00 -0.23103736748E+04  0.23103736748E+04  0.25500000920E-02 0.  1.
    10030    2    1    2    0    0  0.00000000000E+00  0.00000000000E+00 -0.13363170348E+04  0.32844303148E+04  0.30002898652E+04 0.  0.
        4    1    3    3  502    0  0.91744537540E+03  0.62779586271E+03 -0.17708249864E+04  0.20908506421E+04  0.12699999809E+01 0.  1.
       -4    1    3    3    0  502 -0.91744537540E+03 -0.62779586271E+03  0.43450795162E+03  0.11935796727E+04  0.12699999809E+01 0. -1.
</event>
<event>
 5   0  0.1817566E-07  0.3000476E+04  0.7818609E-02  0.8243595E-01
       -2   -1    0    0    0  501  0.00000000000E+00  0.00000000000E+00  0.14046151780E+04  0.14046151780E+04  0.25500000920E-02 0.  1.
        2   -1    0    0  501    0  0.00000000000E+00  0.00000000000E+00 -0.16023710689E+04  0.16023710689E+04  0.25500000920E-02 0. -1.
    10030    2    1    2    0    0  0.00000000000E+00  0.00000000000E+00 -0.19775589092E+03  0.30069862469E+04  0.30004764449E+04 0.  0.
        1    1    3    3  502    0 -0.12673978987E+04  0.55135261333E+03 -0.68360554434E+03  0.15419480141E+04  0.50400001928E-02 0. -1.
       -1    1    3    3    0  502  0.12673978987E+04 -0.55135261333E+03  0.48584965343E+03  0.14650382328E+04  0.50400001928E-02 0.  1.
</event>
<event>
 5   0  0.6679022E-08  0.3005149E+04  0.7818609E-02  0.8242262E-01
       -1   -1    0    0    0  501  0.00000000000E+00  0.00000000000E+00  0.13953777069E+04  0.13953777069E+04  0.50400001928E-02 0.  1.
        1   -1    0    0  501    0  0.00000000000E+00  0.00000000000E+00 -0.16180059788E+04  0.16180059788E+04  0.50400001928E-02 0. -1.
    10030    2    1    2    0    0  0.00000000000E+00  0.00000000000E+00 -0.22262827189E+03  0.30133836858E+04  0.30051485638E+04 0.  0.
        3    1    3    3  502    0  0.30631864029E+03 -0.77893005495E+03 -0.13625984119E+04  0.15991365114E+04  0.10100000352E+00 0. -1.
       -3    1    3    3    0  502 -0.30631864029E+03  0.77893005495E+03  0.11399701400E+04  0.14142471744E+04  0.10100000352E+00 0.  1.
</event>
<event>
 5   0  0.6464436E-08  0.2999591E+04  0.7818609E-02  0.8243848E-01
        1   -1    0    0  501    0  0.00000000000E+00  0.00000000000E+00  0.72681716913E+03  0.72681716915E+03  0.50400001928E-02 0.  1.
       -1   -1    0    0    0  501  0.00000000000E+00  0.00000000000E+00 -0.30948448523E+04  0.30948448523E+04  0.50400001928E-02 0. -1.
    10030    2    1    2    0    0  0.00000000000E+00  0.00000000000E+00 -0.23680276832E+04  0.38216620215E+04  0.29995908884E+04 0.  0.
        5    1    3    3  502    0  0.77034462027E+03 -0.10413301761E+04 -0.22079929721E+03  0.13139915484E+04  0.46999998093E+01 0.  1.
       -5    1    3    3    0  502 -0.77034462027E+03  0.10413301761E+04 -0.21472283860E+04  0.25076704730E+04  0.46999998093E+01 0. -1.
</event>
<event>
 5   0  0.6679022E-08  0.3000333E+04  0.7818609E-02  0.8243636E-01
        1   -1    0    0  501    0  0.00000000000E+00  0.00000000000E+00  0.13821083444E+04  0.13821083444E+04  0.50400001928E-02 0.  1.
       -1   -1    0    0    0  501  0.00000000000E+00  0.00000000000E+00 -0.16283090411E+04  0.16283090411E+04  0.50400001928E-02 0. -1.
    10030    2    1    2    0    0  0.00000000000E+00  0.00000000000E+00 -0.24620069668E+03  0.30104173855E+04  0.30003329902E+04 0.  0.
        3    1    3    3  502    0 -0.57249045487E+03 -0.52159157978E+03 -0.14122129651E+04  0.16106360750E+04  0.10100000352E+00 0. -1.
       -3    1    3    3    0  502  0.57249045487E+03  0.52159157978E+03  0.11660122684E+04  0.13997813105E+04  0.10100000352E+00 0.  1.
</event>
<event>
 5   0  0.6464436E-08  0.3000781E+04  0.7818609E-02  0.8243508E-01
       -1   -1    0    0    0  501  0.00000000000E+00  0.00000000000E+00  0.17258072336E+04  0.17258072336E+04  0.50400001928E-02 0. -1.
        1   -1    0    0  501    0  0.00000000000E+00  0.00000000000E+00 -0.13044167486E+04  0.13044167486E+04  0.50400001928E-02 0.  1.
    10030    2    1    2    0    0  0.00000000000E+00  0.00000000000E+00  0.42139048500E+03  0.30302239823E+04  0.30007811386E+04 0.  0.
        5    1    3    3  502    0 -0.14039004825E+04 -0.51806535972E+03  0.32048870930E+03  0.15303801438E+04  0.46999998093E+01 0. -1.
       -5    1    3    3    0  502  0.14039004825E+04  0.51806535972E+03  0.10090177570E+03  0.14998438385E+04  0.46999998093E+01 0.  1.
</event>
<event>
 5   0  0.1821305E-07  0.3001150E+04  0.7818609E-02  0.8243402E-01
        2   -1    0    0  501    0  0.00000000000E+00  0.00000000000E+00  0.16223279161E+04  0.16223279161E+04  0.25500000920E-02 0. -1.
       -2   -1    0    0    0  501  0.00000000000E+00  0.00000000000E+00 -0.13879597023E+04  0.13879597023E+04  0.25500000920E-02 0.  1.
    10030    2    1    2    0    0  0.00000000000E+00  0.00000000000E+00  0.23436821381E+03  0.30102876184E+04  0.30011502937E+04 0.  0.
        2    1    3    3  502    0 -0.99913939473E+03  0.11171065250E+03  0.12345627309E+04  0.15921381650E+04  0.25500000920E-02 0. -1.
       -2    1    3    3    0  502  0.99913939473E+03 -0.11171065250E+03 -0.10001945171E+04  0.14181494533E+04  0.25500000920E-02 0.  1.
</event>
<event>
 5   0  0.6679022E-08  0.3001314E+04  0.7818609E-02  0.8243356E-01
       -1   -1    0    0    0  501  0.00000000000E+00  0.00000000000E+00  0.18205465563E+04  0.18205465563E+04  0.50400001928E-02 0.  1.
        1   -1    0    0  501    0  0.00000000000E+00  0.00000000000E+00 -0.12369753968E+04  0.12369753968E+04  0.50400001928E-02 0. -1.
    10030    2    1    2    0    0  0.00000000000E+00  0.00000000000E+00  0.58357115947E+03  0.30575219531E+04  0.30013139116E+04 0.  0.
        3    1    3    3  502    0 -0.29666532398E+03 -0.12360265939E+04  0.11043442588E+04  0.16838492532E+04  0.10100000352E+00 0.  1.
       -3    1    3    3    0  502  0.29666532398E+03  0.12360265939E+04 -0.52077309935E+03  0.13736726999E+04  0.10100000352E+00 0. -1.
</event>
<event>
 5   0  0.1817566E-07  0.2997438E+04  0.7818609E-02  0.8244463E-01
        2   -1    0    0  501    0  0.00000000000E+00  0.00000000000E+00  0.16901120466E+04  0.16901120466E+04  0.25500000920E-02 0. -1.
       -2   -1    0    0    0  501  0.00000000000E+00  0.00000000000E+00 -0.13289995216E+04  0.13289995216E+04  0.25500000920E-02 0.  1.
    10030    2    1    2    0    0  0.00000000000E+00  0.00000000000E+00  0.36111252507E+03  0.30191115682E+04  0.29974376400E+04 0.  0.
        1    1    3    3  502    0 -0.66169778663E+03 -0.24000001169E+01 -0.11739008345E+04  0.13475507004E+04  0.50400001928E-02 0.  1.
       -1    1    3    3    0  502  0.66169778663E+03  0.24000001169E+01  0.15350133596E+04  0.16715608678E+04  0.50400001928E-02 0. -1.
</event>
<event>
 5   0  0.1810055E-07  0.2998281E+04  0.7818609E-02  0.8244222E-01
       -2   -1    0    0    0  501  0.00000000000E+00  0.00000000000E+00  0.11659592850E+04  0.11659592850E+04  0.25500000920E-02 0.  1.
        2   -1    0    0  501    0  0.00000000000E+00  0.00000000000E+00 -0.19275300686E+04  0.19275300686E+04  0.25500000920E-02 0. -1.
    10030    2    1    2    0    0  0.00000000000E+00  0.00000000000E+00 -0.76157078359E+03  0.30934893536E+04  0.29982805610E+04 0.  0.
        4    1    3    3  502    0 -0.11057166991E+04  0.89233332681E+03 -0.87403717437E+03  0.16681758840E+04  0.12699999809E+01 0. -1.
       -4    1    3    3    0  502  0.11057166991E+04 -0.89233332681E+03  0.11246639078E+03  0.14253134696E+04  0.12699999809E+01 0.  1.
</event>
<event>
 5   0  0.6679022E-08  0.3001367E+04  0.7818609E-02  0.8243341E-01
        1   -1    0    0  501    0  0.00000000000E+00  0.00000000000E+00  0.23160011219E+04  0.23160011219E+04  0.50400001928E-02 0.  1.
       -1   -1    0    0    0  501  0.00000000000E+00  0.00000000000E+00 -0.97238763185E+03  0.97238763186E+03  0.50400001928E-02 0. -1.
    10030    2    1    2    0    0  0.00000000000E+00  0.00000000000E+00  0.13436134901E+04  0.32883887538E+04  0.30013669195E+04 0.  0.
        3    1    3    3  502    0  0.13369483814E+04  0.28131940205E+03  0.13520505081E+04  0.19221373955E+04  0.10100000352E+00 0.  1.
       -3    1    3    3    0  502 -0.13369483814E+04 -0.28131940205E+03 -0.84370179902E+01  0.13662513583E+04  0.10100000352E+00 0. -1.
</event>
<event>
 5   0  0.1813720E-07  0.2999701E+04  0.7818609E-02  0.8243816E-01
       -2   -1    0    0    0  501  0.00000000000E+00  0.00000000000E+00  0.13015273228E+04  0.13015273228E+04  0.25500000920E-02 0.  1.
        2   -1    0    0  501    0  0.00000000000E+00  0.00000000000E+00 -0.17283934546E+04  0.17283934546E+04  0.25500000920E-02 0. -1.
    10030    2    1    2    0    0  0.00000000000E+00  0.00000000000E+00 -0.42686613178E+03  0.30299207773E+04  0.29997008555E+04 0.  0.
        3    1    3    3  502    0 -0.12049739233E+04 -0.77119210887E+03 -0.66836124098E+03  0.15790523055E+04  0.10100000352E+00 0.  1.
       -3    1    3    3    0  502  0.12049739233E+04  0.77119210887E+03  0.24149510920E+03  0.14508684719E+04  0.10100000352E+00 0. -1.
</event>
<event>
 5   0  0.1813720E-07  0.3001378E+04  0.7818609E-02  0.8243338E-01
        2   -1    0    0  501    0  0.00000000000E+00  0.00000000000E+00  0.22331874984E+04  0.22331874984E+04  0.25500000920E-02 0. -1.
       -2   -1    0    0    0  501  0.00000000000E+00  0.00000000000E+00 -0.10084540784E+04  0.10084540784E+04  0.25500000920E-02 0.  1.
    10030    2    1    2    0    0  0.00000000000E+00  0.00000000000E+00  0.12247334200E+04  0.32416415768E+04  0.30013777107E+04 0.  0.
        3    1    3    3  502    0  0.10072836427E+04 -0.54392457118E+03 -0.43566855157E+03  0.12248597360E+04  0.10100000352E+00 0.  1.
       -3    1    3    3    0  502 -0.10072836427E+04  0.54392457118E+03  0.16604019716E+04  0.20167818408E+04  0.10100000352E+00 0. -1.
</event>
<event>
 5   0  0.6636007E-08  0.2998314E+04  0.7818609E-02  0.8244213E-01
        1   -1    0    0  501    0  0.00000000000E+00  0.00000000000E+00  0.19518564208E+04  0.19518564208E+04  0.50400001928E-02 0. -1.
       -1   -1    0    0    0  501  0.00000000000E+00  0.00000000000E+00 -0.11514531891E+04  0.11514531891E+04  0.50400001928E-02 0.  1.
    10030    2    1    2    0    0  0.00000000000E+00  0.00000000000E+00  0.80040323173E+03  0.31033096099E+04  0.29983137264E+04 0.  0.
        2    1    3    3  502    0 -0.14405926322E+04 -0.31134982024E+03  0.68407877666E+03  0.16248721843E+04  0.25500000920E-02 0.  1.
       -2    1    3    3    0  502  0.14405926322E+04  0.31134982024E+03  0.11632445507E+03  0.14784374256E+04  0.25500000920E-02 0. -1.
</event>
<event>
 5   0  0.6464436E-08  0.3000691E+04  0.7818609E-02  0.8243534E-01
       -1   -1    0    0    0  501  0.00000000000E+00  0.00000000000E+00  0.21949531951E+04  0.21949531951E+04  0.50400001928E-02 0. -1.
        1   -1    0    0  501    0  0.00000000000E+00  0.00000000000E+00 -0.10255509960E+04  0.10255509960E+04  0.50400001928E-02 0.  1.
    10030    2    1    2    0    0  0.00000000000E+00  0.00000000000E+00  0.11694021991E+04  0.32205041911E+04  0.30006908774E+04 0.  0.
        5    1    3    3  502    0 -0.37212724581E+02  0.61323850846E+03  0.20537537169E+04  0.21436820368E+04  0.46999998093E+01 0. -1.
       -5    1    3    3    0  502  0.37212724581E+02 -0.61323850846E+03 -0.88435151777E+03  0.10768221543E+04  0.46999998093E+01 0.  1.
</event>
<event>
 5   0  0.6374748E-08  0.3002272E+04  0.7818609E-02  0.8243082E-01
        1   -1    0    0  501    0  0.00000000000E+00  0.00000000000E+00  0.22482778388E+04  0.22482778388E+04  0.50400001928E-02 0. -1.
       -1   -1    0    0    0  501  0.00000000000E+00  0.00000000000E+00 -0.10022822083E+04  0.10022822083E+04  0.50400001928E-02 0.  1.
    10030    2    1    2    0    0  0.00000000000E+00  0.00000000000E+00  0.12459956305E+04  0.32505600471E+04  0.30022717246E+04 0.  0.
        1    1    3    3  502    0  0.47569429494E+03  0.74286820276E+03 -0.69205758164E+03  0.11211966488E+04  0.50400001928E-02 0.  1.
       -1    1    3    3    0  502 -0.47569429494E+03 -0.74286820276E+03  0.19380532121E+04  0.21293633983E+04  0.50400001928E-02 0. -1.
</event>
<event>
 5   0  0.1914439E-07  0.3000727E+04  0.7818609E-02  0.8243523E-01
        2   -1    0    0  501    0  0.00000000000E+00  0.00000000000E+00  0.28487784760E+04  0.28487784760E+04  0.25500000920E-02 0.  1.
       -2   -1    0    0    0  501  0.00000000000E+00  0.00000000000E+00 -0.79019503017E+03  0.79019503017E+03  0.25500000920E-02 0. -1.
    10030    2    1    2    0    0  0.00000000000E+00  0.00000000000E+00  0.20585834458E+04  0.36389735061E+04  0.30007269744E+04 0.  0.
        5    1    3    3  502    0 -0.14657374899E+04  0.31638200002E+03  0.10909433319E+04  0.18543633416E+04  0.46999998093E+01 0.  1.
       -5    1    3    3    0  502  0.14657374899E+04 -0.31638200002E+03  0.96764011390E+03  0.17846101645E+04  0.46999998093E+01 0. -1.
</event>
<event>
 5   0  0.1813720E-07  0.3000181E+04  0.7818609E-02  0.8243679E-01
       -2   -1    0    0    0  501  0.00000000000E+00  0.00000000000E+00  0.98049863408E+03  0.98049863408E+03  0.25500000920E-02 0. -1.
        2   -1    0    0  501    0  0.00000000000E+00  0.00000000000E+00 -0.22950276880E+04  0.22950276880E+04  0.25500000920E-02 0.  1.
    10030    2    1    2    0    0  0.00000000000E+00  0.00000000000E+00 -0.13145290539E+04  0.32755263221E+04  0.30001810034E+04 0.  0.
        3    1    3    3  502    0 -0.12075945379E+04 -0.24995994347E+03 -0.15897634894E+04  0.20119921729E+04  0.10100000352E+00 0.  1.
       -3    1    3    3    0  502  0.12075945379E+04  0.24995994347E+03  0.27523443549E+03  0.12635341492E+04  0.10100000352E+00 0. -1.
</event>
<event>
 5   0  0.1810055E-07  0.3005840E+04  0.7818609E-02  0.8242065E-01
       -2   -1    0    0    0  501  0.00000000000E+00  0.00000000000E+00  0.11791025244E+04  0.11791025244E+04  0.25500000920E-02 0.  1.
        2   -1    0    0  501    0  0.00000000000E+00  0.00000000000E+00 -0.19156673198E+04  0.19156673198E+04  0.25500000920E-02 0. -1.
    10030    2    1    2    0    0  0.00000000000E+00  0.00000000000E+00 -0.73656479542E+03  0.30947698442E+04  0.30058397647E+04 0.  0.
        4    1    3    3  502    0  0.11139464101E+04  0.56847080500E+03  0.48988268225E+03  0.13431389787E+04  0.12699999809E+01 0.  1.
       -4    1    3    3    0  502 -0.11139464101E+04 -0.56847080500E+03 -0.12264474777E+04  0.17516308656E+04  0.12699999809E+01 0. -1.
</event>
<event>
 5   0  0.1813720E-07  0.2999818E+04  0.7818609E-02  0.8243783E-01
       -2   -1    0    0    0  501  0.00000000000E+00  0.00000000000E+00  0.11884154547E+04  0.11884154547E+04  0.25500000920E-02 0.  1.
        2   -1    0    0  501    0  0.00000000000E+00  0.00000000000E+00 -0.18930470697E+04  0.18930470697E+04  0.25500000920E-02 0. -1.
    10030    2    1    2    0    0  0.00000000000E+00  0.00000000000E+00 -0.70463161503E+03  0.30814625244E+04  0.29998175906E+04 0.  0.
        3    1    3    3  502    0  0.42247278147E+02 -0.25786447519E+03  0.11648548057E+04  0.11938030192E+04  0.10100000352E+00 0.  1.
       -3    1    3    3    0  502 -0.42247278147E+02  0.25786447519E+03 -0.18694864207E+04  0.18876595052E+04  0.10100000352E+00 0. -1.
</event>
<event>
 5   0  0.6464436E-08  0.2999785E+04  0.7818609E-02  0.8243792E-01
       -1   -1    0    0    0  501  0.00000000000E+00  0.00000000000E+00  0.16376492145E+04  0.16376492145E+04  0.50400001928E-02 0.  1.
        1   -1    0    0  501    0  0.00000000000E+00  0.00000000000E+00 -0.13737232503E+04  0.13737232503E+04  0.50400001928E-02 0. -1.
    10030    2    1    2    0    0  0.00000000000E+00  0.00000000000E+00  0.26392596420E+03  0.30113724648E+04  0.29997845268E+04 0.  0.
        5    1    3    3  502    0  0.12006046106E+03  0.77476596300E+03 -0.11516389369E+04  0.13931874040E+04  0.46999998093E+01 0. -1.
       -5    1    3    3    0  502 -0.12006046106E+03 -0.77476596300E+03  0.14155649011E+04  0.16181850608E+04  0.46999998093E+01 0.  1.
</event>
<event>
 5   0  0.6525507E-08  0.2999253E+04  0.7818609E-02  0.8243944E-01
       -1   -1    0    0    0  501  0.00000000000E+00  0.00000000000E+00  0.12744745873E+04  0.12744745873E+04  0.50400001928E-02 0. -1.
        1   -1    0    0  501    0  0.00000000000E+00  0.00000000000E+00 -0.17645539647E+04  0.17645539647E+04  0.50400001928E-02 0.  1.
    10030    2    1    2    0    0  0.00000000000E+00  0.00000000000E+00 -0.49007937740E+03  0.30390285521E+04  0.29992526976E+04 0.  0.
        4    1    3    3  502    0 -0.94260212563E+03  0.57121024965E+03  0.78535236123E+03  0.13533513442E+04  0.12699999809E+01 0. -1.
       -4    1    3    3    0  502  0.94260212563E+03 -0.57121024965E+03 -0.12754317386E+04  0.16856772079E+04  0.12699999809E+01 0.  1.
</event>
<event>
 5   0  0.6464436E-08  0.3000837E+04  0.7818609E-02  0.8243492E-01
       -1   -1    0    0    0  501  0.00000000000E+00  0.00000000000E+00  0.14834576206E+04  0.14834576206E+04  0.50400001928E-02 0.  1.
        1   -1    0    0  501    0  0.00000000000E+00  0.00000000000E+00 -0.15175733697E+04  0.15175733697E+04  0.50400001928E-02 0. -1.
    10030    2    1    2    0    0  0.00000000000E+00  0.00000000000E+00 -0.34115749147E+02  0.30010309903E+04  0.30008370700E+04 0.  0.
        5    1    3    3  502    0  0.58591584524E+03  0.11275345935E+04  0.78086714236E+03  0.14914446759E+04  0.46999998093E+01 0.  1.
       -5    1    3    3    0  502 -0.58591584524E+03 -0.11275345935E+04 -0.81498289151E+03  0.15095863144E+04  0.46999998093E+01 0. -1.
</event>
<event>
 5   0  0.6525507E-08  0.2997997E+04  0.7818609E-02  0.8244303E-01
        1   -1    0    0  501    0  0.00000000000E+00  0.00000000000E+00  0.14356512083E+04  0.14356512083E+04  0.50400001928E-02 0. -1.
       -1   -1    0    0    0  501  0.00000000000E+00  0.00000000000E+00 -0.15651408329E+04  0.15651408330E+04  0.50400001928E-02 0.  1.
    10030    2    1    2    0    0  0.00000000000E+00  0.00000000000E+00 -0.12948962462E+03  0.30007920413E+04  0.29979968833E+04 0.  0.
        4    1    3    3  502    0 -0.11657662401E+04 -0.26662091906E+03 -0.96941107058E+03  0.15394340121E+04  0.12699999809E+01 0.  1.
       -4    1    3    3    0  502  0.11657662401E+04  0.26662091906E+03  0.83992144596E+03  0.14613580291E+04  0.12699999809E+01 0. -1.
</event>
<event>
 5   0  0.1813720E-07  0.3000422E+04  0.7818609E-02  0.8243610E-01
        2   -1    0    0  501    0  0.00000000000E+00  0.00000000000E+00  0.13106849704E+04  0.13106849704E+04  0.25500000920E-02 0. -1.
       -2   -1    0    0    0  501  0.00000000000E+00  0.00000000000E+00 -0.17171425435E+04  0.17171425435E+04  0.25500000920E-02 0.  1.
    10030    2    1    2    0    0  0.00000000000E+00  0.00000000000E+00 -0.40645757309E+03  0.30278275139E+04  0.30004219195E+04 0.  0.
        3    1    3    3  502    0 -0.10386937461E+04  0.10662354806E+04 -0.14733713292E+02  0.14886100533E+04  0.10100000352E+00 0.  1.
       -3    1    3    3    0  502  0.10386937461E+04 -0.10662354806E+04 -0.39172385979E+03  0.15392174606E+04  0.10100000352E+00 0. -1.
</event>
<event>
 5   0  0.6679022E-08  0.2999852E+04  0.7818609E-02  0.8243773E-01
       -1   -1    0    0    0  501  0.00000000000E+00  0.00000000000E+00  0.14376539137E+04  0.14376539137E+04  0.50400001928E-02 0. -1.
        1   -1    0    0  501    0  0.00000000000E+00  0.00000000000E+00 -0.15648952240E+04  0.15648952240E+04  0.50400001928E-02 0.  1.
    10030    2    1    2    0    0  0.00000000000E+00  0.00000000000E+00 -0.12724131036E+03  0.30025491377E+04  0.29998518252E+04 0.  0.
        3    1    3    3  502    0  0.12597118412E+04 -0.61799368162E+03 -0.59417993194E+03  0.15237584832E+04  0.10100000352E+00 0.  1.
       -3    1    3    3    0  502 -0.12597118412E+04  0.61799368162E+03  0.46693862157E+03  0.14787906545E+04  0.10100000352E+00 0. -1.
</event>
<event>
 5   0  0.1914439E-07  0.3000454E+04  0.7818609E-02  0.8243601E-01
       -2   -1    0    0    0  501  0.00000000000E+00  0.00000000000E+00  0.81296764934E+03  0.81296764934E+03  0.25500000920E-02 0.  1.
        2   -1    0    0  501    0  0.00000000000E+00  0.00000000000E+00 -0.27684756335E+04  0.27684756335E+04  0.25500000920E-02 0. -1.
    10030    2    1    2    0    0  0.00000000000E+00  0.00000000000E+00 -0.19555079842E+04  0.35814432828E+04  0.30004540510E+04 0.  0.
        5    1    3    3  502    0 -0.65669250099E+03  0.62948350294E+03 -0.24017168159E+04  0.25682212278E+04  0.46999998093E+01 0. -1.
       -5    1    3    3    0  502  0.65669250099E+03 -0.62948350294E+03  0.44620883170E+03  0.10132220550E+04  0.46999998093E+01 0.  1.
</event>
<event>
 5   0  0.1813720E-07  0.2988722E+04  0.7818609E-02  0.8246959E-01
       -2   -1    0    0    0  501  0.00000000000E+00  0.00000000000E+00  0.14351800919E+04  0.14351800919E+04  0.25500000920E-02 0.  1.
        2   -1    0    0  501    0  0.00000000000E+00  0.00000000000E+00 -0.15559822812E+04  0.15559822812E+04  0.25500000920E-02 0. -1.
    10030    2    1    2    0    0  0.00000000000E+00  0.00000000000E+00 -0.12080218935E+03  0.29911623731E+04  0.29887219966E+04 0.  0.
        3    1    3    3  502    0 -0.64604003022E+03  0.10508868082E+04  0.78372341253E+03  0.14614900621E+04  0.10100000352E+00 0.  1.
       -3    1    3    3    0  502  0.64604003022E+03 -0.10508868082E+04 -0.90452560189E+03  0.15296723109E+04  0.10100000352E+00 0. -1.
</event>
<event>
 5   0  0.6679022E-08  0.2993425E+04  0.7818609E-02  0.8245611E-01
        1   -1    0    0  501    0  0.00000000000E+00  0.00000000000E+00  0.18675898641E+04  0.18675898641E+04  0.50400001928E-02 0. -1.
       -1   -1    0    0    0  501  0.00000000000E+00  0.00000000000E+00 -0.11994861381E+04  0.11994861382E+04  0.50400001928E-02 0.  1.
    10030    2    1    2    0    0  0.00000000000E+00  0.00000000000E+00  0.66810372598E+03  0.30670760023E+04  0.29934248972E+04 0.  0.
        3    1    3    3  502    0  0.11965469863E+04  0.61927338456E+03  0.10019523579E+04  0.16790273235E+04  0.10100000352E+00 0. -1.
       -3    1    3    3    0  502 -0.11965469863E+04 -0.61927338456E+03 -0.33384863197E+03  0.13880486788E+04  0.10100000352E+00 0.  1.
</event>
<event>
 5   0  0.1810055E-07  0.2997489E+04  0.7818609E-02  0.8244448E-01
        2   -1    0    0  501    0  0.00000000000E+00  0.00000000000E+00  0.18144928595E+04  0.18144928595E+04  0.25500000920E-02 0. -1.
       -2   -1    0    0    0  501  0.00000000000E+00  0.00000000000E+00 -0.12379412050E+04  0.12379412050E+04  0.25500000920E-02 0.  1.
    10030    2    1    2    0    0  0.00000000000E+00  0.00000000000E+00  0.57655165455E+03  0.30524340645E+04  0.29974892674E+04 0.  0.
        4    1    3    3  502    0 -0.58819781875E+02  0.13633728351E+03 -0.12304319950E+04  0.12393595640E+04  0.12699999809E+01 0.  1.
       -4    1    3    3    0  502  0.58819781875E+02 -0.13633728351E+03  0.18069836496E+04  0.18130745005E+04  0.12699999809E+01 0. -1.
</event>
<event>
 5   0  0.6017625E-08  0.3001425E+04  0.7818609E-02  0.8243324E-01
        4   -1    0    0  501    0  0.00000000000E+00  0.00000000000E+00  0.14780955088E+04  0.14780960544E+04  0.12699999809E+01 0. -1.
       -4   -1    0    0    0  501  0.00000000000E+00  0.00000000000E+00 -0.15236749531E+04  0.15236754824E+04  0.12699999809E+01 0.  1.
    10030    2    1    2    0    0  0.00000000000E+00  0.00000000000E+00 -0.45579444247E+02  0.30017715368E+04  0.30014254736E+04 0.  0.
        4    1    3    3  502    0 -0.35743875772E+03 -0.12684229101E+03  0.14293713813E+04  0.14788358904E+04  0.12699999809E+01 0. -1.
       -4    1    3    3    0  502  0.35743875772E+03  0.12684229101E+03 -0.14749508255E+04  0.15229356464E+04  0.12699999809E+01 0.  1.
</event>
<event>
 5   0  0.6636007E-08  0.2999066E+04  0.7818609E-02  0.8243998E-01
       -1   -1    0    0    0  501  0.00000000000E+00  0.00000000000E+00  0.23865444127E+04  0.23865444127E+04  0.50400001928E-02 0.  1.
        1   -1    0    0  501    0  0.00000000000E+00  0.00000000000E+00 -0.94219875116E+03  0.94219875118E+03  0.50400001928E-02 0. -1.
    10030    2    1    2    0    0  0.00000000000E+00  0.00000000000E+00  0.14443456615E+04  0.33287431639E+04  0.29990659648E+04 0.  0.
        2    1    3    3  502    0  0.11739608886E+04 -0.51480334604E+03  0.15857731454E+04  0.20390887969E+04  0.25500000920E-02 0. -1.
       -2    1    3    3    0  502 -0.11739608886E+04  0.51480334604E+03 -0.14142748392E+03  0.12896543669E+04  0.25500000920E-02 0.  1.
</event>
<event>
 5   0  0.6525507E-08  0.3004615E+04  0.7818609E-02  0.8242414E-01
        1   -1    0    0  501    0  0.00000000000E+00  0.00000000000E+00  0.12315854612E+04  0.12315854612E+04  0.50400001928E-02 0.  1.
       -1   -1    0    0    0  501  0.00000000000E+00  0.00000000000E+00 -0.18325388795E+04  0.18325388795E+04  0.50400001928E-02 0. -1.
    10030    2    1    2    0    0  0.00000000000E+00  0.00000000000E+00 -0.60095341823E+03  0.30641243407E+04  0.30046152773E+04 0.  0.
        4    1    3    3  502    0  0.23210241667E+03  0.14447809655E+04  0.46351847843E+02  0.14640401896E+04  0.12699999809E+01 0.  1.
       -4    1    3    3    0  502 -0.23210241667E+03 -0.14447809655E+04 -0.64730526607E+03  0.16000841511E+04  0.12699999809E+01 0. -1.
</event>
<event>
 5   0  0.6679022E-08  0.2999452E+04  0.7818609E-02  0.8243888E-01
       -1   -1    0    0    0  501  0.00000000000E+00  0.00000000000E+00  0.12143246479E+04  0.12143246479E+04  0.50400001928E-02 0.  1.
        1   -1    0    0  501    0  0.00000000000E+00  0.00000000000E+00 -0.18522042954E+04  0.18522042954E+04  0.50400001928E-02 0. -1.
    10030    2    1    2    0    0  0.00000000000E+00  0.00000000000E+00 -0.63787964747E+03  0.30665289433E+04  0.29994515024E+04 0.  0.
        3    1    3    3  502    0  0.95242412463E+03 -0.15779695884E+03 -0.14922840332E+04  0.17773359950E+04  0.10100000352E+00 0. -1.
       -3    1    3    3    0  502 -0.95242412463E+03  0.15779695884E+03  0.85440438570E+03  0.12891929483E+04  0.10100000352E+00 0.  1.
</event>
<event>
 5   0  0.6464436E-08  0.3010169E+04  0.7818609E-02  0.8240833E-01
        1   -1    0    0  501    0  0.00000000000E+00  0.00000000000E+00  0.16703715005E+04  0.16703715005E+04  0.50400001928E-02 0.  1.
       -1   -1    0    0    0  501  0.00000000000E+00  0.00000000000E+00 -0.13561526675E+04  0.13561526675E+04  0.50400001928E-02 0. -1.
    10030    2    1    2    0    0  0.00000000000E+00  0.00000000000E+00  0.31421883299E+03  0.30265241680E+04  0.30101686106E+04 0.  0.
        5    1    3    3  502    0  0.37339012924E+03 -0.32307599182E+03  0.15866145746E+04  0.16616757155E+04  0.46999998093E+01 0.  1.
       -5    1    3    3    0  502 -0.37339012924E+03  0.32307599182E+03 -0.12723957416E+04  0.13648484525E+04  0.46999998093E+01 0. -1.
</event>
<event>
 5   0  0.1817566E-07  0.2999863E+04  0.7818609E-02  0.8243770E-01
       -2   -1    0    0    0  501  0.00000000000E+00  0.00000000000E+00  0.14060413132E+04  0.14060413132E+04  0.25500000920E-02 0.  1.
        2   -1    0    0  501    0  0.00000000000E+00  0.00000000000E+00 -0.16000916845E+04  0.16000916845E+04  0.25500000920E-02 0. -1.
    10030    2    1    2    0    0  0.00000000000E+00  0.00000000000E+00 -0.19405037130E+03  0.30061329976E+04  0.29998633390E+04 0.  0.
        1    1    3    3  502    0  0.69785169265E+03 -0.33233178455E+03  0.11911004322E+04  0.14199160678E+04  0.50400001928E-02 0.  1.
       -1    1    3    3    0  502 -0.69785169265E+03  0.33233178455E+03 -0.13851508035E+04  0.15862169298E+04  0.50400001928E-02 0. -1.
</event>
<event>
 5   0  0.6374748E-08  0.3000158E+04  0.7818609E-02  0.8243686E-01
       -1   -1    0    0    0  501  0.00000000000E+00  0.00000000000E+00  0.18950860359E+04  0.18950860359E+04  0.50400001928E-02 0. -1.
        1   -1    0    0  501    0  0.00000000000E+00  0.00000000000E+00 -0.11874063102E+04  0.11874063102E+04  0.50400001928E-02 0.  1.
    10030    2    1    2    0    0  0.00000000000E+00  0.00000000000E+00  0.70767972567E+03  0.30824923461E+04  0.30001580741E+04 0.  0.
        1    1    3    3  502    0  0.15373561279E+03  0.24917284711E+03  0.18654444680E+04  0.18882809138E+04  0.50400001928E-02 0. -1.
       -1    1    3    3    0  502 -0.15373561279E+03 -0.24917284711E+03 -0.11577647423E+04  0.11942114323E+04  0.50400001928E-02 0.  1.
</event>
<event>
 5   0  0.1817566E-07  0.2998729E+04  0.7818609E-02  0.8244094E-01
       -2   -1    0    0    0  501  0.00000000000E+00  0.00000000000E+00  0.10623740714E+04  0.10623740714E+04  0.25500000920E-02 0. -1.
        2   -1    0    0  501    0  0.00000000000E+00  0.00000000000E+00 -0.21161042304E+04  0.21161042304E+04  0.25500000920E-02 0.  1.
    10030    2    1    2    0    0  0.00000000000E+00  0.00000000000E+00 -0.10537301589E+04  0.31784783018E+04  0.29987292420E+04 0.  0.
        1    1    3    3  502    0 -0.94330019100E+03 -0.53864284979E+03 -0.16223254591E+04  0.19524065317E+04  0.50400001928E-02 0.  1.
       -1    1    3    3    0  502  0.94330019100E+03  0.53864284979E+03  0.56859530012E+03  0.12260717701E+04  0.50400001928E-02 0. -1.
</event>
<event>
 5   0  0.6679022E-08  0.3000927E+04  0.7818609E-02  0.8243466E-01
       -1   -1    0    0    0  501  0.00000000000E+00  0.00000000000E+00  0.12799552650E+04  0.12799552650E+04  0.50400001928E-02 0. -1.
        1   -1    0    0  501    0  0.00000000000E+00  0.00000000000E+00 -0.17589608801E+04  0.17589608801E+04  0.50400001928E-02 0.  1.
    10030    2    1    2    0    0  0.00000000000E+00  0.00000000000E+00 -0.47900561507E+03  0.30389161451E+04  0.30009273496E+04 0.  0.
        3    1    3    3  502    0 -0.89692650249E+03  0.38044762933E+03 -0.13950766200E+04  0.17016040477E+04  0.10100000352E+00 0.  1.
       -3    1    3    3    0  502  0.89692650249E+03 -0.38044762933E+03  0.91607100488E+03  0.13373120973E+04  0.10100000352E+00 0. -1.
</event>
<event>
 5   0  0.6636007E-08  0.2997059E+04  0.7818609E-02  0.8244571E-01
       -1   -1    0    0    0  501  0.00000000000E+00  0.00000000000E+00  0.17921435460E+04  0.17921435460E+04  0.50400001928E-02 0.  1.
        1   -1    0    0  501    0  0.00000000000E+00  0.00000000000E+00 -0.12530196623E+04  0.12530196623E+04  0.50400001928E-02 0. -1.
    10030    2    1    2    0    0  0.00000000000E+00  0.00000000000E+00  0.53912388373E+03  0.30451632083E+04  0.29970592925E+04 0.  0.
        2    1    3    3  502    0  0.33760007601E+03 -0.14491905911E+04  0.44978968892E+03  0.15544896092E+04  0.25500000920E-02 0. -1.
       -2    1    3    3    0  502 -0.33760007601E+03  0.14491905911E+04  0.89334194809E+02  0.14906735991E+04  0.25500000920E-02 0.  1.
</event>
<event>
 5   0  0.6464436E-08  0.3000282E+04  0.7818609E-02  0.8243650E-01
       -1   -1    0    0    0  501  0.00000000000E+00  0.00000000000E+00  0.12578268527E+04  0.12578268527E+04  0.50400001928E-02 0.  1.
        1   -1    0    0  501    0  0.00000000000E+00  0.00000000000E+00 -0.17891359566E+04  0.17891359566E+04  0.50400001928E-02 0. -1.
    10030    2    1    2    0    0  0.00000000000E+00  0.00000000000E+00 -0.53130910396E+03  0.30469628093E+04  0.30002821530E+04 0.  0.
        5    1    3    3  502    0 -0.34509144760E+02 -0.10467830630E+04 -0.13563549618E+04  0.17136704860E+04  0.46999998093E+01 0. -1.
       -5    1    3    3    0  502  0.34509144760E+02  0.10467830630E+04  0.82504585780E+03  0.13332923234E+04  0.46999998093E+01 0.  1.
</event>
<event>
 5   0  0.1914439E-07  0.3006781E+04  0.7818609E-02  0.8241797E-01
        2   -1    0    0  501    0  0.00000000000E+00  0.00000000000E+00  0.23186816632E+04  0.23186816632E+04  0.25500000920E-02 0. -1.
       -2   -1    0    0    0  501  0.00000000000E+00  0.00000000000E+00 -0.97477084262E+03  0.97477084263E+03  0.25500000920E-02 0.  1.
    10030    2    1    2    0    0  0.00000000000E+00  0.00000000000E+00  0.13439108206E+04  0.32934525058E+04  0.30067811883E+04 0.  0.
        5    1    3    3  502    0 -0.48318797724E+03 -0.73490723095E+03  0.20074647407E+04  0.21916879419E+04  0.46999998093E+01 0. -1.
       -5    1    3    3    0  502  0.48318797724E+03  0.73490723095E+03 -0.66355392012E+03  0.11017645639E+04  0.46999998093E+01 0.  1.
</event>
<event>
 5   0  0.1914439E-07  0.2999217E+04  0.7818609E-02  0.8243955E-01
        2   -1    0    0  501    0  0.00000000000E+00  0.00000000000E+00  0.17694441092E+04  0.17694441092E+04  0.25500000920E-02 0.  1.
       -2   -1    0    0    0  501  0.00000000000E+00  0.00000000000E+00 -0.12709217848E+04  0.12709217848E+04  0.25500000920E-02 0. -1.
    10030    2    1    2    0    0  0.00000000000E+00  0.00000000000E+00  0.49852232435E+03  0.30403658940E+04  0.29992166079E+04 0.  0.
        5    1    3    3  502    0 -0.38346797369E+03 -0.14360096401E+04  0.47452950519E+02  0.14870928841E+04  0.46999998093E+01 0. -1.
       -5    1    3    3    0  502  0.38346797369E+03  0.14360096401E+04  0.45106937383E+03  0.15532730099E+04  0.46999998093E+01 0.  1.
</event>
<event>
 5   0  0.1914439E-07  0.3001566E+04  0.7818609E-02  0.8243284E-01
       -2   -1    0    0    0  501  0.00000000000E+00  0.00000000000E+00  0.15203499756E+04  0.15203499756E+04  0.25500000920E-02 0. -1.
        2   -1    0    0  501    0  0.00000000000E+00  0.00000000000E+00 -0.14814682561E+04  0.14814682561E+04  0.25500000920E-02 0.  1.
    10030    2    1    2    0    0  0.00000000000E+00  0.00000000000E+00  0.38881719488E+02  0.30018182318E+04  0.30015664091E+04 0.  0.
        5    1    3    3  502    0 -0.16508167495E+01 -0.13298886502E+04  0.71500017357E+03  0.15099185029E+04  0.46999998093E+01 0. -1.
       -5    1    3    3    0  502  0.16508167495E+01  0.13298886502E+04 -0.67611845408E+03  0.14918997289E+04  0.46999998093E+01 0.  1.
</event>
<event>
 5   0  0.6525507E-08  0.3000201E+04  0.7818609E-02  0.8243673E-01
        1   -1    0    0  501    0  0.00000000000E+00  0.00000000000E+00  0.25536260396E+04  0.25536260396E+04  0.50400001928E-02 0. -1.
       -1   -1    0    0    0  501  0.00000000000E+00  0.00000000000E+00 -0.88121823782E+03  0.88121823784E+03  0.50400001928E-02 0.  1.
    10030    2    1    2    0    0  0.00000000000E+00  0.00000000000E+00  0.16724078018E+04  0.34348442775E+04  0.30002012191E+04 0.  0.
        4    1    3    3  502    0  0.12872508004E+04  0.23607091944E+03  0.16756031497E+04  0.21261212643E+04  0.12699999809E+01 0. -1.
       -4    1    3    3    0  502 -0.12872508004E+04 -0.23607091944E+03 -0.31953479189E+01  0.13087230132E+04  0.12699999809E+01 0.  1.
</event>
<event>
 5   0  0.1821305E-07  0.2999662E+04  0.7818609E-02  0.8243827E-01
       -2   -1    0    0    0  501  0.00000000000E+00  0.00000000000E+00  0.13565578557E+04  0.13565578557E+04  0.25500000920E-02 0. -1.
        2   -1    0    0  501    0  0.00000000000E+00  0.00000000000E+00 -0.16582358105E+04  0.16582358105E+04  0.25500000920E-02 0.  1.
    10030    2    1    2    0    0  0.00000000000E+00  0.00000000000E+00 -0.30167795477E+03  0.30147936662E+04  0.29996618578E+04 0.  0.
        2    1    3    3  502    0 -0.66901765288E+03 -0.13173078997E+04  0.10854837285E+03  0.14814410119E+04  0.25500000920E-02 0. -1.
       -2    1    3    3    0  502  0.66901765288E+03  0.13173078997E+04 -0.41022632762E+03  0.15333526543E+04  0.25500000920E-02 0.  1.
</event>
<event>
 5   0  0.1813720E-07  0.3000057E+04  0.7818609E-02  0.8243715E-01
       -2   -1    0    0    0  501  0.00000000000E+00  0.00000000000E+00  0.15635194222E+04  0.15635194222E+04  0.25500000920E-02 0. -1.
        2   -1    0    0  501    0  0.00000000000E+00  0.00000000000E+00 -0.14391157946E+04  0.14391157946E+04  0.25500000920E-02 0.  1.
    10030    2    1    2    0    0  0.00000000000E+00  0.00000000000E+00  0.12440362752E+03  0.30026352168E+04  0.30000569966E+04 0.  0.
        3    1    3    3  502    0  0.27987756325E+03 -0.11272960797E+04 -0.88780176406E+03  0.14619575521E+04  0.10100000352E+00 0.  1.
       -3    1    3    3    0  502 -0.27987756325E+03  0.11272960797E+04  0.10122053916E+04  0.15406776647E+04  0.10100000352E+00 0. -1.
</event>
<event>
 5   0  0.6374748E-08  0.3002194E+04  0.7818609E-02  0.8243105E-01
        1   -1    0    0  501    0  0.00000000000E+00  0.00000000000E+00  0.16035431109E+04  0.16035431110E+04  0.50400001928E-02 0. -1.
       -1   -1    0    0    0  501  0.00000000000E+00  0.00000000000E+00 -0.14051954829E+04  0.14051954829E+04  0.50400001928E-02 0.  1.
    10030    2    1    2    0    0  0.00000000000E+00  0.00000000000E+00  0.19834762804E+03  0.30087385939E+04  0.30021935555E+04 0.  0.
        1    1    3    3  502    0 -0.16189937035E+03  0.56483162764E+03  0.14835053620E+04  0.15956297605E+04  0.50400001928E-02 0. -1.
       -1    1    3    3    0  502  0.16189937035E+03 -0.56483162764E+03 -0.12851577339E+04  0.14131088333E+04  0.50400001928E-02 0.  1.
</event>
<event>
 5   0  0.1813720E-07  0.2999754E+04  0.7818609E-02  0.8243801E-01
       -2   -1    0    0    0  501  0.00000000000E+00  0.00000000000E+00  0.13962704005E+04  0.13962704005E+04  0.25500000920E-02 0.  1.
        2   -1    0    0  501    0  0.00000000000E+00  0.00000000000E+00 -0.16111714061E+04  0.16111714061E+04  0.25500000920E-02 0. -1.
    10030    2    1    2    0    0  0.00000000000E+00  0.00000000000E+00 -0.21490100557E+03  0.30074418066E+04  0.29997539529E+04 0.  0.
        3    1    3    3  502    0 -0.10788695767E+03 -0.18976232548E+03  0.13802600410E+04  0.13974144434E+04  0.10100000352E+00 0.  1.
       -3    1    3    3    0  502  0.10788695767E+03  0.18976232548E+03 -0.15951610465E+04  0.16100273632E+04  0.10100000352E+00 0. -1.
</event>
<event>
 5   0  0.6525507E-08  0.3000484E+04  0.7818609E-02  0.8243593E-01
       -1   -1    0    0    0  501  0.00000000000E+00  0.00000000000E+00  0.32367274942E+04  0.32367274942E+04  0.50400001928E-02 0. -1.
        1   -1    0    0  501    0  0.00000000000E+00  0.00000000000E+00 -0.69537072759E+03  0.69537072761E+03  0.50400001928E-02 0.  1.
    10030    2    1    2    0    0  0.00000000000E+00  0.00000000000E+00  0.25413567666E+04  0.39320982218E+04  0.30004836628E+04 0.  0.
        4    1    3    3  502    0 -0.95902321644E+03  0.18048747186E+03  0.27639580040E+04  0.29311715607E+04  0.12699999809E+01 0. -1.
       -4    1    3    3    0  502  0.95902321644E+03 -0.18048747186E+03 -0.22260123743E+03  0.10009266611E+04  0.12699999809E+01 0.  1.
</event>
<event>
 5   0  0.1914439E-07  0.3000014E+04  0.7818609E-02  0.8243727E-01
       -2   -1    0    0    0  501  0.00000000000E+00  0.00000000000E+00  0.89145029954E+03  0.89145029954E+03  0.25500000920E-02 0. -1.
        2   -1    0    0  501    0  0.00000000000E+00  0.00000000000E+00 -0.25240002502E+04  0.25240002502E+04  0.25500000920E-02 0.  1.
    10030    2    1    2    0    0  0.00000000000E+00  0.00000000000E+00 -0.16325499506E+04  0.34154505497E+04  0.30000138527E+04 0.  0.
        5    1    3    3  502    0 -0.10261233044E+04 -0.10893104033E+04 -0.69976854494E+03  0.16520364091E+04  0.46999998093E+01 0. -1.
       -5    1    3    3    0  502  0.10261233044E+04  0.10893104033E+04 -0.93278140571E+03  0.17634141406E+04  0.46999998093E+01 0.  1.
</event>
<event>
 5   0  0.6679022E-08  0.2998403E+04  0.7818609E-02  0.8244187E-01
        1   -1    0    0  501    0  0.00000000000E+00  0.00000000000E+00  0.19683920264E+04  0.19683920264E+04  0.50400001928E-02 0. -1.
       -1   -1    0    0    0  501  0.00000000000E+00  0.00000000000E+00 -0.11418483702E+04  0.11418483702E+04  0.50400001928E-02 0.  1.
    10030    2    1    2    0    0  0.00000000000E+00  0.00000000000E+00  0.82654365614E+03  0.31102403966E+04  0.29984030598E+04 0.  0.
        3    1    3    3  502    0  0.61853038815E+03 -0.36465797608E+03 -0.95189004279E+03  0.11923296291E+04  0.10100000352E+00 0.  1.
       -3    1    3    3    0  502 -0.61853038815E+03  0.36465797608E+03  0.17784336989E+04  0.19179107675E+04  0.10100000352E+00 0. -1.
</event>
<event>
 5   0  0.1821305E-07  0.3000670E+04  0.7818609E-02  0.8243540E-01
       -2   -1    0    0    0  501  0.00000000000E+00  0.00000000000E+00  0.18808045030E+04  0.18808045030E+04  0.25500000920E-02 0. -1.
        2   -1    0    0  501    0  0.00000000000E+00  0.00000000000E+00 -0.11968308922E+04  0.11968308922E+04  0.25500000920E-02 0.  1.
    10030    2    1    2    0    0  0.00000000000E+00  0.00000000000E+00  0.68397361073E+03  0.30776353952E+04  0.30006698795E+04 0.  0.
        2    1    3    3  502    0 -0.13215705348E+04  0.37074416492E+03 -0.27936125901E+03  0.14007293198E+04  0.25500000920E-02 0.  1.
       -2    1    3    3    0  502  0.13215705348E+04 -0.37074416492E+03  0.96333486974E+03  0.16769060754E+04  0.25500000920E-02 0. -1.
</event>
<event>
 5   0  0.6464436E-08  0.2999429E+04  0.7818609E-02  0.8243894E-01
       -1   -1    0    0    0  501  0.00000000000E+00  0.00000000000E+00  0.10510847115E+04  0.10510847115E+04  0.50400001928E-02 0.  1.
        1   -1    0    0  501    0  0.00000000000E+00  0.00000000000E+00 -0.21398304092E+04  0.21398304092E+04  0.50400001928E-02 0. -1.
    10030    2    1    2    0    0  0.00000000000E+00  0.00000000000E+00 -0.10887456977E+04  0.31909151206E+04  0.29994286311E+04 0.  0.
        5    1    3    3  502    0  0.13861472457E+04  0.49387792839E+03 -0.23640724811E+03  0.14903791705E+04  0.46999998093E+01 0.  1.
       -5    1    3    3    0  502 -0.13861472457E+04 -0.49387792839E+03 -0.85233844960E+03  0.17005359501E+04  0.46999998093E+01 0. -1.
</event>
<event>
 5   0  0.6636007E-08  0.2996588E+04  0.7818609E-02  0.8244706E-01
        1   -1    0    0  501    0  0.00000000000E+00  0.00000000000E+00  0.13945562738E+04  0.13945562738E+04  0.50400001928E-02 0.  1.
       -1   -1    0    0    0  501  0.00000000000E+00  0.00000000000E+00 -0.16097481865E+04  0.16097481865E+04  0.50400001928E-02 0. -1.
    10030    2    1    2    0    0  0.00000000000E+00  0.00000000000E+00 -0.21519191268E+03  0.30043044603E+04  0.29965876812E+04 0.  0.
        2    1    3    3  502    0  0.20494574157E+03  0.50463555485E+03  0.12917866379E+04  0.14019174434E+04  0.25500000920E-02 0.  1.
       -2    1    3    3    0  502 -0.20494574157E+03 -0.50463555485E+03 -0.15069785506E+04  0.16023870169E+04  0.25500000920E-02 0. -1.
</event>
<event>
 5   0  0.6464436E-08  0.2999633E+04  0.7818609E-02  0.8243836E-01
       -1   -1    0    0    0  501  0.00000000000E+00  0.00000000000E+00  0.16245905060E+04  0.16245905060E+04  0.50400001928E-02 0.  1.
        1   -1    0    0  501    0  0.00000000000E+00  0.00000000000E+00 -0.13846255942E+04  0.13846255942E+04  0.50400001928E-02 0. -1.
    10030    2    1    2    0    0  0.00000000000E+00  0.00000000000E+00  0.23996491179E+03  0.30092161001E+04  0.29996330406E+04 0.  0.
        5    1    3    3  502    0  0.89725948331E+03 -0.80880024661E+03 -0.77178662425E+03  0.14334954142E+04  0.46999998093E+01 0. -1.
       -5    1    3    3    0  502 -0.89725948331E+03  0.80880024661E+03  0.10117515360E+04  0.15757206859E+04  0.46999998093E+01 0.  1.
</event>
<event>
 5   0  0.1914439E-07  0.3000973E+04  0.7818609E-02  0.8243453E-01
       -2   -1    0    0    0  501  0.00000000000E+00  0.00000000000E+00  0.92613352602E+03  0.92613352603E+03  0.25500000920E-02 0. -1.
        2   -1    0    0  501    0  0.00000000000E+00  0.00000000000E+00 -0.24310317270E+04  0.24310317270E+04  0.25500000920E-02 0.  1.
    10030    2    1    2    0    0  0.00000000000E+00  0.00000000000E+00 -0.15048982010E+04  0.33571652530E+04  0.30009731656E+04 0.  0.
        5    1    3    3  502    0  0.81554203973E+02 -0.91405154460E+02 -0.24254202325E+04  0.24285162929E+04  0.46999998093E+01 0.  1.
       -5    1    3    3    0  502 -0.81554203973E+02  0.91405154460E+02  0.92052203159E+03  0.92864896010E+03  0.46999998093E+01 0. -1.
</event>
<event>
 5   0  0.6464436E-08  0.3005001E+04  0.7818609E-02  0.8242304E-01
       -1   -1    0    0    0  501  0.00000000000E+00  0.00000000000E+00  0.13641938921E+04  0.13641938921E+04  0.50400001928E-02 0.  1.
        1   -1    0    0  501    0  0.00000000000E+00  0.00000000000E+00 -0.16548295737E+04  0.16548295737E+04  0.50400001928E-02 0. -1.
    10030    2    1    2    0    0  0.00000000000E+00  0.00000000000E+00 -0.29063568168E+03  0.30190234658E+04  0.30050014289E+04 0.  0.
        5    1    3    3  502    0  0.12133961080E+04 -0.82796426842E+03 -0.46243507129E+03  0.15400400092E+04  0.46999998093E+01 0. -1.
       -5    1    3    3    0  502 -0.12133961080E+04  0.82796426842E+03  0.17179938961E+03  0.14789834566E+04  0.46999998093E+01 0.  1.
</event>
<event>
 5   0  0.1817566E-07  0.2997625E+04  0.7818609E-02  0.8244409E-01
       -2   -1    0    0    0  501  0.00000000000E+00  0.00000000000E+00  0.83966425261E+03  0.83966425261E+03  0.25500000920E-02 0.  1.
        2   -1    0    0  501    0  0.00000000000E+00  0.00000000000E+00 -0.26754022311E+04  0.26754022311E+04  0.25500000920E-02 0. -1.
    10030    2    1    2    0    0  0.00000000000E+00  0.00000000000E+00 -0.18357379785E+04  0.35150664838E+04  0.29976254702E+04 0.  0.
        1    1    3    3  502    0  0.63485486658E+03  0.10330664095E+04  0.11521434854E+03  0.12180070830E+04  0.50400001928E-02 0.  1.
       -1    1    3    3    0  502 -0.63485486658E+03 -0.10330664095E+04 -0.19509523271E+04  0.22970594008E+04  0.50400001928E-02 0. -1.
</event>
<event>
 5   0  0.1914439E-07  0.3000493E+04  0.7818609E-02  0.8243590E-01
        2   -1    0    0  501    0  0.00000000000E+00  0.00000000000E+00  0.15721415052E+04  0.15721415052E+04  0.25500000920E-02 0.  1.
       -2   -1    0    0    0  501  0.00000000000E+00  0.00000000000E+00 -0.14316390167E+04  0.14316390167E+04  0.25500000920E-02 0. -1.
    10030    2    1    2    0    0  0.00000000000E+00  0.00000000000E+00  0.14050248850E+03  0.30037805219E+04  0.30004927053E+04 0.  0.
        5    1    3    3  502    0 -0.47061195547E+03 -0.14138422897E+04  0.24448618979E+03  0.15100401385E+04  0.46999998093E+01 0. -1.
       -5    1    3    3    0  502  0.47061195547E+03  0.14138422897E+04 -0.10398370129E+03  0.14937403834E+04  0.46999998093E+01 0.  1.
</event>
<event>
 5   0  0.1914439E-07  0.2999645E+04  0.7818609E-02  0.8243832E-01
        2   -1    0    0  501    0  0.00000000000E+00  0.00000000000E+00  0.16544939888E+04  0.16544939888E+04  0.25500000920E-02 0. -1.
       -2   -1    0    0    0  501  0.00000000000E+00  0.00000000000E+00 -0.13596105315E+04  0.13596105315E+04  0.25500000920E-02 0.  1.
    10030    2    1    2    0    0  0.00000000000E+00  0.00000000000E+00  0.29488345738E+03  0.30141045203E+04  0.29996449466E+04 0.  0.
        5    1    3    3  502    0  0.11878770190E+04  0.47774687538E+03 -0.63744554537E+03  0.14302631935E+04  0.46999998093E+01 0.  1.
       -5    1    3    3    0  502 -0.11878770190E+04 -0.47774687538E+03  0.93232900275E+03  0.15838413268E+04  0.46999998093E+01 0. -1.
</event>
<event>
 5   0  0.6464436E-08  0.3000031E+04  0.7818609E-02  0.8243722E-01
        1   -1    0    0  501    0  0.00000000000E+00  0.00000000000E+00  0.11742038864E+04  0.11742038864E+04  0.50400001928E-02 0. -1.
       -1   -1    0    0    0  501  0.00000000000E+00  0.00000000000E+00 -0.19162309813E+04  0.19162309813E+04  0.50400001928E-02 0.  1.
    10030    2    1    2    0    0  0.00000000000E+00  0.00000000000E+00 -0.74202709494E+03  0.30904348677E+04  0.30000305768E+04 0.  0.
        5    1    3    3  502    0  0.15289973765E+03 -0.14534746593E+04 -0.71891370079E+03  0.16287498010E+04  0.46999998093E+01 0.  1.
       -5    1    3    3    0  502 -0.15289973765E+03  0.14534746593E+04 -0.23113394155E+02  0.14616850667E+04  0.46999998093E+01 0. -1.
</event>
<event>
 5   0  0.6464436E-08  0.3000740E+04  0.7818609E-02  0.8243520E-01
       -1   -1    0    0    0  501  0.00000000000E+00  0.00000000000E+00  0.15751067267E+04  0.15751067267E+04  0.50400001928E-02 0.  1.
        1   -1    0    0  501    0  0.00000000000E+00  0.00000000000E+00 -0.14291793357E+04  0.14291793358E+04  0.50400001928E-02 0. -1.
    10030    2    1    2    0    0  0.00000000000E+00  0.00000000000E+00  0.14592739096E+03  0.30042860625E+04  0.30007398990E+04 0.  0.
        5    1    3    3  502    0  0.36385393703E+03  0.12002235974E+04  0.89744251485E+03  0.15421904969E+04  0.46999998093E+01 0.  1.
       -5    1    3    3    0  502 -0.36385393703E+03 -0.12002235974E+04 -0.75151512389E+03  0.14620955655E+04  0.46999998093E+01 0. -1.
</event>
<event>
 5   0  0.1914439E-07  0.3000263E+04  0.7818609E-02  0.8243656E-01
        2   -1    0    0  501    0  0.00000000000E+00  0.00000000000E+00  0.12773148607E+04  0.12773148607E+04  0.25500000920E-02 0.  1.
       -2   -1    0    0    0  501  0.00000000000E+00  0.00000000000E+00 -0.17618167768E+04  0.17618167768E+04  0.25500000920E-02 0. -1.
    10030    2    1    2    0    0  0.00000000000E+00  0.00000000000E+00 -0.48450191611E+03  0.30391316376E+04  0.30002631558E+04 0.  0.
        5    1    3    3  502    0  0.36752513162E+03  0.32094125813E+03  0.11946801565E+04  0.12904885818E+04  0.46999998093E+01 0.  1.
       -5    1    3    3    0  502 -0.36752513162E+03 -0.32094125813E+03 -0.16791820726E+04  0.17486430558E+04  0.46999998093E+01 0. -1.
</event>
<event>
 5   0  0.6525507E-08  0.2997757E+04  0.7818609E-02  0.8244372E-01
        1   -1    0    0  501    0  0.00000000000E+00  0.00000000000E+00  0.22043404369E+04  0.22043404370E+04  0.50400001928E-02 0.  1.
       -1   -1    0    0    0  501  0.00000000000E+00  0.00000000000E+00 -0.10191875560E+04  0.10191875560E+04  0.50400001928E-02 0. -1.
    10030    2    1    2    0    0  0.00000000000E+00  0.00000000000E+00  0.11851528809E+04  0.32235279930E+04  0.29977567230E+04 0.  0.
        4    1    3    3  502    0 -0.49645670699E+03  0.17976747867E+02  0.21132392894E+04  0.21708464553E+04  0.12699999809E+01 0.  1.
       -4    1    3    3    0  502  0.49645670699E+03 -0.17976747867E+02 -0.92808640845E+03  0.10526815377E+04  0.12699999809E+01 0. -1.
</event>
<event>
 5   0  0.1817566E-07  0.2999387E+04  0.7818609E-02  0.8243906E-01
       -2   -1    0    0    0  501  0.00000000000E+00  0.00000000000E+00  0.12866957535E+04  0.12866957535E+04  0.25500000920E-02 0. -1.
        2   -1    0    0  501    0  0.00000000000E+00  0.00000000000E+00 -0.17479508178E+04  0.17479508178E+04  0.25500000920E-02 0.  1.
    10030    2    1    2    0    0  0.00000000000E+00  0.00000000000E+00 -0.46125506434E+03  0.30346465713E+04  0.29993872005E+04 0.  0.
        1    1    3    3  502    0 -0.88428855854E+03 -0.12033241237E+04 -0.90706120861E+02  0.14960557482E+04  0.50400001928E-02 0. -1.
       -1    1    3    3    0  502  0.88428855854E+03  0.12033241237E+04 -0.37054894348E+03  0.15385908231E+04  0.50400001928E-02 0.  1.
</event>
<event>
 5   0  0.6464436E-08  0.3000188E+04  0.7818609E-02  0.8243677E-01
        1   -1    0    0  501    0  0.00000000000E+00  0.00000000000E+00  0.23285917400E+04  0.23285917400E+04  0.50400001928E-02 0.  1.
       -1   -1    0    0    0  501  0.00000000000E+00  0.00000000000E+00 -0.96637063963E+03  0.96637063964E+03  0.50400001928E-02 0. -1.
    10030    2    1    2    0    0  0.00000000000E+00  0.00000000000E+00  0.13622211003E+04  0.32949623796E+04  0.30001884536E+04 0.  0.
        5    1    3    3  502    0  0.87900289105E+02 -0.90975070389E+03 -0.62524960377E+03  0.11073987363E+04  0.46999998093E+01 0. -1.
       -5    1    3    3    0  502 -0.87900289105E+02  0.90975070389E+03  0.19874707041E+04  0.21875636433E+04  0.46999998093E+01 0.  1.
</event>
<event>
 5   0  0.6374748E-08  0.3000495E+04  0.7818609E-02  0.8243590E-01
       -1   -1    0    0    0  501  0.00000000000E+00  0.00000000000E+00  0.95203482609E+03  0.95203482611E+03  0.50400001928E-02 0. -1.
        1   -1    0    0  501    0  0.00000000000E+00  0.00000000000E+00 -0.23641381657E+04  0.23641381657E+04  0.50400001928E-02 0.  1.
    10030    2    1    2    0    0  0.00000000000E+00  0.00000000000E+00 -0.14121033396E+04  0.33161729918E+04  0.30004945376E+04 0.  0.
        1    1    3    3  502    0 -0.80749749217E+03  0.83315670737E+03  0.34508242272E+03  0.12104892306E+04  0.50400001928E-02 0. -1.
       -1    1    3    3    0  502  0.80749749217E+03 -0.83315670737E+03 -0.17571857624E+04  0.21056837612E+04  0.50400001928E-02 0.  1.
</event>
<event>
 5   0  0.6374748E-08  0.2995034E+04  0.7818609E-02  0.8245151E-01
        1   -1    0    0  501    0  0.00000000000E+00  0.00000000000E+00  0.15313188901E+04  0.15313188902E+04  0.50400001928E-02 0.  1.
       -1   -1    0    0    0  501  0.00000000000E+00  0.00000000000E+00 -0.14644607849E+04  0.14644607849E+04  0.50400001928E-02 0. -1.
    10030    2    1    2    0    0  0.00000000000E+00  0.00000000000E+00  0.66858105236E+02  0.29957796751E+04  0.29950335316E+04 0.  0.
        1    1    3    3  502    0 -0.14684033076E+04  0.24683265142E+03  0.19291102736E+03  0.15014490655E+04  0.50400001928E-02 0.  1.
       -1    1    3    3    0  502  0.14684033076E+04 -0.24683265142E+03 -0.12605292212E+03  0.14943306096E+04  0.50400001928E-02 0. -1.
</event>
<event>
 5   0  0.6525507E-08  0.2997976E+04  0.7818609E-02  0.8244309E-01
        1   -1    0    0  501    0  0.00000000000E+00  0.00000000000E+00  0.10592295340E+04  0.10592295340E+04  0.50400001928E-02 0.  1.
       -1   -1    0    0    0  501  0.00000000000E+00  0.00000000000E+00 -0.21213206180E+04  0.21213206180E+04  0.50400001928E-02 0. -1.
    10030    2    1    2    0    0  0.00000000000E+00  0.00000000000E+00 -0.10620910840E+04  0.31805501520E+04  0.29979762838E+04 0.  0.
        4    1    3    3  502    0 -0.88602719000E+03 -0.10872981547E+04 -0.10921221136E+04  0.17776371346E+04  0.12699999809E+01 0. -1.
       -4    1    3    3    0  502  0.88602719000E+03  0.10872981547E+04  0.30031029610E+02  0.14029130173E+04  0.12699999809E+01 0.  1.
</event>
<event>
 5   0  0.1810055E-07  0.3000018E+04  0.7818609E-02  0.8243726E-01
        2   -1    0    0  501    0  0.00000000000E+00  0.00000000000E+00  0.19347349260E+04  0.19347349260E+04  0.25500000920E-02 0.  1.
       -2   -1    0    0    0  501  0.00000000000E+00  0.00000000000E+00 -0.11629635993E+04  0.11629635993E+04  0.25500000920E-02 0. -1.
    10030    2    1    2    0    0  0.00000000000E+00  0.00000000000E+00  0.77177132667E+03  0.30976985253E+04  0.30000175287E+04 0.  0.
        4    1    3    3  502    0  0.72315437558E+03 -0.41988983987E+03 -0.89995852201E+03  0.12284895941E+04  0.12699999809E+01 0. -1.
       -4    1    3    3    0  502 -0.72315437558E+03  0.41988983987E+03  0.16717298487E+04  0.18692089312E+04  0.12699999809E+01 0.  1.
</event>
<event>
 5   0  0.1817566E-07  0.2999905E+04  0.7818609E-02  0.8243758E-01
       -2   -1    0    0    0  501  0.00000000000E+00  0.00000000000E+00  0.16959698993E+04  0.16959698993E+04  0.25500000920E-02 0.  1.
        2   -1    0    0  501    0  0.00000000000E+00  0.00000000000E+00 -0.13265905297E+04  0.13265905297E+04  0.25500000920E-02 0. -1.
    10030    2    1    2    0    0  0.00000000000E+00  0.00000000000E+00  0.36937936966E+03  0.30225604290E+04  0.29999050699E+04 0.  0.
        1    1    3    3  502    0  0.21562121545E+03  0.62112989288E+03  0.15430412505E+04  0.16772808808E+04  0.50400001928E-02 0.  1.
       -1    1    3    3    0  502 -0.21562121545E+03 -0.62112989288E+03 -0.11736618808E+04  0.13452795482E+04  0.50400001928E-02 0. -1.
</event>
<event>
 5   0  0.6525507E-08  0.3001685E+04  0.7818609E-02  0.8243250E-01
       -1   -1    0    0    0  501  0.00000000000E+00  0.00000000000E+00  0.92585827729E+03  0.92585827731E+03  0.50400001928E-02 0.  1.
        1   -1    0    0  501    0  0.00000000000E+00  0.00000000000E+00 -0.24329077071E+04  0.24329077071E+04  0.50400001928E-02 0. -1.
    10030    2    1    2    0    0  0.00000000000E+00  0.00000000000E+00 -0.15070494298E+04  0.33587659844E+04  0.30016846860E+04 0.  0.
        4    1    3    3  502    0  0.44308091838E+03 -0.14308888353E+04 -0.64878042897E+03  0.16323851313E+04  0.12699999809E+01 0. -1.
       -4    1    3    3    0  502 -0.44308091838E+03  0.14308888353E+04 -0.85826900082E+03  0.17263808530E+04  0.12699999809E+01 0.  1.
</event>
<event>
 5   0  0.1914439E-07  0.3011055E+04  0.7818609E-02  0.8240581E-01
        2   -1    0    0  501    0  0.00000000000E+00  0.00000000000E+00  0.15790256740E+04  0.15790256740E+04  0.25500000920E-02 0.  1.
       -2   -1    0    0    0  501  0.00000000000E+00  0.00000000000E+00 -0.14354505482E+04  0.14354505482E+04  0.25500000920E-02 0. -1.
    10030    2    1    2    0    0  0.00000000000E+00  0.00000000000E+00  0.14357512580E+03  0.30144762223E+04  0.30110551436E+04 0.  0.
        5    1    3    3  502    0 -0.12333639215E+04  0.23380995069E+03 -0.76026292211E+03  0.14676087546E+04  0.46999998093E+01 0. -1.
       -5    1    3    3    0  502  0.12333639215E+04 -0.23380995069E+03  0.90383804791E+03  0.15468674677E+04  0.46999998093E+01 0.  1.
</event>
<event>
 5   0  0.1813720E-07  0.2997849E+04  0.7818609E-02  0.8244345E-01
       -2   -1    0    0    0  501  0.00000000000E+00  0.00000000000E+00  0.17046538860E+04  0.17046538860E+04  0.25500000920E-02 0.  1.
        2   -1    0    0  501    0  0.00000000000E+00  0.00000000000E+00 -0.13180241080E+04  0.13180241080E+04  0.25500000920E-02 0. -1.
    10030    2    1    2    0    0  0.00000000000E+00  0.00000000000E+00  0.38662977796E+03  0.30226779940E+04  0.29978491740E+04 0.  0.
        3    1    3    3  502    0  0.91092242390E+03 -0.14705403350E+03  0.13843562718E+04  0.16636847203E+04  0.10100000352E+00 0.  1.
       -3    1    3    3    0  502 -0.91092242390E+03  0.14705403350E+03 -0.99772649384E+03  0.13589932737E+04  0.10100000352E+00 0. -1.
</event>
<event>
 5   0  0.1810055E-07  0.2999185E+04  0.7818609E-02  0.8243964E-01
       -2   -1    0    0    0  501  0.00000000000E+00  0.00000000000E+00  0.14559235321E+04  0.14559235321E+04  0.25500000920E-02 0.  1.
        2   -1    0    0  501    0  0.00000000000E+00  0.00000000000E+00 -0.15445709125E+04  0.15445709125E+04  0.25500000920E-02 0. -1.
    10030    2    1    2    0    0  0.00000000000E+00  0.00000000000E+00 -0.88647380351E+02  0.30004944446E+04  0.29991846482E+04 0.  0.
        4    1    3    3  502    0 -0.11375654249E+04  0.95740508301E+03  0.15094335367E+03  0.14944782025E+04  0.12699999809E+01 0.  1.
       -4    1    3    3    0  502  0.11375654249E+04 -0.95740508301E+03 -0.23959073402E+03  0.15060162421E+04  0.12699999809E+01 0. -1.
</event>
<event>
 5   0  0.1821305E-07  0.3000256E+04  0.7818609E-02  0.8243658E-01
        2   -1    0    0  501    0  0.00000000000E+00  0.00000000000E+00  0.12609694179E+04  0.12609694179E+04  0.25500000920E-02 0.  1.
       -2   -1    0    0    0  501  0.00000000000E+00  0.00000000000E+00 -0.17846464421E+04  0.17846464421E+04  0.25500000920E-02 0. -1.
    10030    2    1    2    0    0  0.00000000000E+00  0.00000000000E+00 -0.52367702413E+03  0.30456158600E+04  0.30002563792E+04 0.  0.
        2    1    3    3  502    0 -0.92253185558E+02 -0.71607689921E+03 -0.15966741519E+04  0.17523256327E+04  0.25500000920E-02 0. -1.
       -2    1    3    3    0  502  0.92253185558E+02  0.71607689921E+03  0.10729971277E+04  0.12932902273E+04  0.25500000920E-02 0.  1.
</event>
<event>
 5   0  0.1821305E-07  0.2997288E+04  0.7818609E-02  0.8244506E-01
        2   -1    0    0  501    0  0.00000000000E+00  0.00000000000E+00  0.24113668526E+04  0.24113668526E+04  0.25500000920E-02 0. -1.
       -2   -1    0    0    0  501  0.00000000000E+00  0.00000000000E+00 -0.93139465389E+03  0.93139465389E+03  0.25500000920E-02 0.  1.
    10030    2    1    2    0    0  0.00000000000E+00  0.00000000000E+00  0.14799721987E+04  0.33427615065E+04  0.29972882378E+04 0.  0.
        2    1    3    3  502    0  0.13985148067E+04 -0.41589111573E+03  0.35830391427E+03  0.15023950145E+04  0.25500000920E-02 0. -1.
       -2    1    3    3    0  502 -0.13985148067E+04  0.41589111573E+03  0.11216682844E+04  0.18403664920E+04  0.25500000920E-02 0.  1.
</event>
<event>
 5   0  0.1821305E-07  0.3000308E+04  0.7818609E-02  0.8243643E-01
        2   -1    0    0  501    0  0.00000000000E+00  0.00000000000E+00  0.13894987147E+04  0.13894987147E+04  0.25500000920E-02 0.  1.
       -2   -1    0    0    0  501  0.00000000000E+00  0.00000000000E+00 -0.16196220558E+04  0.16196220558E+04  0.25500000920E-02 0. -1.
    10030    2    1    2    0    0  0.00000000000E+00  0.00000000000E+00 -0.23012334110E+03  0.30091207705E+04  0.30003084940E+04 0.  0.
        2    1    3    3  502    0  0.94382284384E+03 -0.11646451716E+04 -0.57772725675E+02  0.15001791974E+04  0.25500000920E-02 0. -1.
       -2    1    3    3    0  502 -0.94382284384E+03  0.11646451716E+04 -0.17235061542E+03  0.15089415731E+04  0.25500000920E-02 0.  1.
</event>
<event>
 5   0  0.1813720E-07  0.3000421E+04  0.7818609E-02  0.8243611E-01
       -2   -1    0    0    0  501  0.00000000000E+00  0.00000000000E+00  0.85825956812E+03  0.85825956812E+03  0.25500000920E-02 0.  1.
        2   -1    0    0  501    0  0.00000000000E+00  0.00000000000E+00 -0.26223211112E+04  0.26223211112E+04  0.25500000920E-02 0. -1.
    10030    2    1    2    0    0  0.00000000000E+00  0.00000000000E+00 -0.17640615430E+04  0.34805806793E+04  0.30004214266E+04 0.  0.
        3    1    3    3  502    0  0.73609463014E+03  0.43134792868E+03 -0.23134990580E+04  0.24658009331E+04  0.10100000352E+00 0. -1.
       -3    1    3    3    0  502 -0.73609463014E+03 -0.43134792868E+03  0.54943751500E+03  0.10147797461E+04  0.10100000352E+00 0.  1.
</event>
<event>
 5   0  0.1810055E-07  0.2999215E+04  0.7818609E-02  0.8243955E-01
       -2   -1    0    0    0  501  0.00000000000E+00  0.00000000000E+00  0.12633789532E+04  0.12633789532E+04  0.25500000920E-02 0. -1.
        2   -1    0    0  501    0  0.00000000000E+00  0.00000000000E+00 -0.17800059900E+04  0.17800059900E+04  0.25500000920E-02 0.  1.
    10030    2    1    2    0    0  0.00000000000E+00  0.00000000000E+00 -0.51662703674E+03  0.30433849432E+04  0.29992146334E+04 0.  0.
        4    1    3    3  502    0 -0.38465112942E+03  0.85842261672E+03 -0.14434066593E+04  0.17228668774E+04  0.12699999809E+01 0.  1.
       -4    1    3    3    0  502  0.38465112942E+03 -0.85842261672E+03  0.92677962259E+03  0.13205180658E+04  0.12699999809E+01 0. -1.
</event>
<event>
 5   0  0.1817566E-07  0.2999672E+04  0.7818609E-02  0.8243824E-01
        2   -1    0    0  501    0  0.00000000000E+00  0.00000000000E+00  0.19655806223E+04  0.19655806223E+04  0.25500000920E-02 0. -1.
       -2   -1    0    0    0  501  0.00000000000E+00  0.00000000000E+00 -0.11444497980E+04  0.11444497980E+04  0.25500000920E-02 0.  1.
    10030    2    1    2    0    0  0.00000000000E+00  0.00000000000E+00  0.82113082422E+03  0.31100304203E+04  0.29996722129E+04 0.  0.
        1    1    3    3  502    0 -0.98899698344E+03 -0.25542801313E+03 -0.72808778338E+03  0.12543804540E+04  0.50400001928E-02 0.  1.
       -1    1    3    3    0  502  0.98899698344E+03  0.25542801313E+03  0.15492186076E+04  0.18556499663E+04  0.50400001928E-02 0. -1.
</event>
<event>
 5   0  0.6374748E-08  0.3000270E+04  0.7818609E-02  0.8243654E-01
        1   -1    0    0  501    0  0.00000000000E+00  0.00000000000E+00  0.14593716435E+04  0.14593716435E+04  0.50400001928E-02 0. -1.
       -1   -1    0    0    0  501  0.00000000000E+00  0.00000000000E+00 -0.15420365425E+04  0.15420365425E+04  0.50400001928E-02 0.  1.
    10030    2    1    2    0    0  0.00000000000E+00  0.00000000000E+00 -0.82664899044E+02  0.30014081860E+04  0.30002695902E+04 0.  0.
        1    1    3    3  502    0  0.18983293117E+03  0.28410135935E+03  0.14199252351E+04  0.14604580780E+04  0.50400001928E-02 0. -1.
       -1    1    3    3    0  502 -0.18983293117E+03 -0.28410135935E+03 -0.15025901342E+04  0.15409501081E+04  0.50400001928E-02 0.  1.
</event>
<event>
 5   0  0.6679022E-08  0.3001033E+04  0.7818609E-02  0.8243436E-01
        1   -1    0    0  501    0  0.00000000000E+00  0.00000000000E+00  0.25749371298E+04  0.25749371299E+04  0.50400001928E-02 0.  1.
       -1   -1    0    0    0  501  0.00000000000E+00  0.00000000000E+00 -0.87440979992E+03  0.87440979993E+03  0.50400001928E-02 0. -1.
    10030    2    1    2    0    0  0.00000000000E+00  0.00000000000E+00  0.17005273299E+04  0.34493469298E+04  0.30010333291E+04 0.  0.
        3    1    3    3  502    0 -0.50429140111E+03  0.12069292403E+04  0.16953263245E+04  0.21412891830E+04  0.10100000352E+00 0.  1.
       -3    1    3    3    0  502  0.50429140111E+03 -0.12069292403E+04  0.52010053929E+01  0.13080577468E+04  0.10100000352E+00 0. -1.
</event>
<event>
 5   0  0.6374748E-08  0.3000012E+04  0.7818609E-02  0.8243727E-01
       -1   -1    0    0    0  501  0.00000000000E+00  0.00000000000E+00  0.16199527462E+04  0.16199527462E+04  0.50400001928E-02 0. -1.
        1   -1    0    0  501    0  0.00000000000E+00  0.00000000000E+00 -0.13889409073E+04  0.13889409073E+04  0.50400001928E-02 0.  1.
    10030    2    1    2    0    0  0.00000000000E+00  0.00000000000E+00  0.23101183892E+03  0.30088936535E+04  0.30000124247E+04 0.  0.
        1    1    3    3  502    0  0.11981270682E+04  0.76982966980E+03 -0.35692190629E+03  0.14681755479E+04  0.50400001928E-02 0.  1.
       -1    1    3    3    0  502 -0.11981270682E+04 -0.76982966980E+03  0.58793374521E+03  0.15407181056E+04  0.50400001928E-02 0. -1.
</event>
<event>
 5   0  0.1810055E-07  0.3000312E+04  0.7818609E-02  0.8243642E-01
       -2   -1    0    0    0  501  0.00000000000E+00  0.00000000000E+00  0.14454869912E+04  0.14454869912E+04  0.25500000920E-02 0. -1.
        2   -1    0    0  501    0  0.00000000000E+00  0.00000000000E+00 -0.15568924597E+04  0.15568924597E+04  0.25500000920E-02 0.  1.
    10030    2    1    2    0    0  0.00000000000E+00  0.00000000000E+00 -0.11140546845E+03  0.30023794509E+04  0.30003118486E+04 0.  0.
        4    1    3    3  502    0  0.84675129853E+03  0.54645256014E+03  0.10563092153E+04  0.14599277151E+04  0.12699999809E+01 0. -1.
       -4    1    3    3    0  502 -0.84675129853E+03 -0.54645256014E+03 -0.11677146837E+04  0.15424517359E+04  0.12699999809E+01 0.  1.
</event>
<event>
 5   0  0.1821305E-07  0.3000059E+04  0.7818609E-02  0.8243714E-01
        2   -1    0    0  501    0  0.00000000000E+00  0.00000000000E+00  0.20103651197E+04  0.20103651197E+04  0.25500000920E-02 0.  1.
       -2   -1    0    0    0  501  0.00000000000E+00  0.00000000000E+00 -0.11192440027E+04  0.11192440027E+04  0.25500000920E-02 0. -1.
    10030    2    1    2    0    0  0.00000000000E+00  0.00000000000E+00  0.89112111702E+03  0.31296091225E+04  0.30000594018E+04 0.  0.
        2    1    3    3  502    0 -0.99528368539E+03 -0.95966330450E+03  0.10525330099E+04  0.17376331630E+04  0.25500000920E-02 0.  1.
       -2    1    3    3    0  502  0.99528368539E+03  0.95966330450E+03 -0.16141189287E+03  0.13919759594E+04  0.25500000920E-02 0. -1.
</event>
<event>
 5   0  0.1821305E-07  0.3000764E+04  0.7818609E-02  0.8243513E-01
        2   -1    0    0  501    0  0.00000000000E+00  0.00000000000E+00  0.16624561881E+04  0.16624561881E+04  0.25500000920E-02 0.  1.
       -2   -1    0    0    0  501  0.00000000000E+00  0.00000000000E+00 -0.13541084489E+04  0.13541084489E+04  0.25500000920E-02 0. -1.
    10030    2    1    2    0    0  0.00000000000E+00  0.00000000000E+00  0.30834773924E+03  0.30165646370E+04  0.30007638829E+04 0.  0.
        2    1    3    3  502    0 -0.51164404690E+03  0.13621079751E+04 -0.21385247634E+03  0.14706633362E+04  0.25500000920E-02 0. -1.
       -2    1    3    3    0  502  0.51164404690E+03 -0.13621079751E+04  0.52220021559E+03  0.15459013008E+04  0.25500000920E-02 0.  1.
</event>
<event>
 5   0  0.1817566E-07  0.3001684E+04  0.7818609E-02  0.8243250E-01
       -2   -1    0    0    0  501  0.00000000000E+00  0.00000000000E+00  0.13443053084E+04  0.13443053084E+04  0.25500000920E-02 0.  1.
        2   -1    0    0  501    0  0.00000000000E+00  0.00000000000E+00 -0.16756067944E+04  0.16756067944E+04  0.25500000920E-02 0. -1.
    10030    2    1    2    0    0  0.00000000000E+00  0.00000000000E+00 -0.33130148602E+03  0.30199121028E+04  0.30016842662E+04 0.  0.
        1    1    3    3  502    0  0.12783360924E+04 -0.77092106793E+03 -0.95808717924E+01  0.14928343013E+04  0.50400001928E-02 0. -1.
       -1    1    3    3    0  502 -0.12783360924E+04  0.77092106793E+03 -0.32172061422E+03  0.15270778015E+04  0.50400001928E-02 0.  1.
</event>
<event>
 5   0  0.1914439E-07  0.2999345E+04  0.7818609E-02  0.8243918E-01
       -2   -1    0    0    0  501  0.00000000000E+00  0.00000000000E+00  0.11586970984E+04  0.11586970984E+04  0.25500000920E-02 0.  1.
        2   -1    0    0  501    0  0.00000000000E+00  0.00000000000E+00 -0.19409888200E+04  0.19409888200E+04  0.25500000920E-02 0. -1.
    10030    2    1    2    0    0  0.00000000000E+00  0.00000000000E+00 -0.78229172161E+03  0.30996859183E+04  0.29993453377E+04 0.  0.
        5    1    3    3  502    0  0.75613972958E+03 -0.21889926853E+03 -0.17103013553E+04  0.18827684394E+04  0.46999998093E+01 0. -1.
       -5    1    3    3    0  502 -0.75613972958E+03  0.21889926853E+03  0.92800963367E+03  0.12169174790E+04  0.46999998093E+01 0.  1.
</event>
<event>
 5   0  0.6636007E-08  0.3001233E+04  0.7818609E-02  0.8243379E-01
        1   -1    0    0  501    0  0.00000000000E+00  0.00000000000E+00  0.14861139031E+04  0.14861139031E+04  0.50400001928E-02 0. -1.
       -1   -1    0    0    0  501  0.00000000000E+00  0.00000000000E+00 -0.15152601343E+04  0.15152601343E+04  0.50400001928E-02 0.  1.
    10030    2    1    2    0    0  0.00000000000E+00  0.00000000000E+00 -0.29146231204E+02  0.30013740375E+04  0.30012325151E+04 0.  0.
        2    1    3    3  502    0 -0.87466858266E+03 -0.12126446950E+04  0.11309208544E+03  0.14994472667E+04  0.25500000920E-02 0.  1.
       -2    1    3    3    0  502  0.87466858266E+03  0.12126446950E+04 -0.14223831665E+03  0.15019267707E+04  0.25500000920E-02 0. -1.
</event>
<event>
 5   0  0.6679022E-08  0.3003879E+04  0.7818609E-02  0.8242624E-01
       -1   -1    0    0    0  501  0.00000000000E+00  0.00000000000E+00  0.12495205740E+04  0.12495205740E+04  0.50400001928E-02 0. -1.
        1   -1    0    0  501    0  0.00000000000E+00  0.00000000000E+00 -0.18053504200E+04  0.18053504200E+04  0.50400001928E-02 0.  1.
    10030    2    1    2    0    0  0.00000000000E+00  0.00000000000E+00 -0.55582984599E+03  0.30548709940E+04  0.30038791541E+04 0.  0.
        3    1    3    3  502    0  0.10160338321E+03  0.90113049481E+03  0.93968236400E+03  0.13058952376E+04  0.10100000352E+00 0. -1.
       -3    1    3    3    0  502 -0.10160338321E+03 -0.90113049481E+03 -0.14955122100E+04  0.17489757564E+04  0.10100000352E+00 0.  1.
</event>
<event>
 5   0  0.6374748E-08  0.3000143E+04  0.7818609E-02  0.8243690E-01
       -1   -1    0    0    0  501  0.00000000000E+00  0.00000000000E+00  0.20087209955E+04  0.20087209955E+04  0.50400001928E-02 0. -1.
        1   -1    0    0  501    0  0.00000000000E+00  0.00000000000E+00 -0.11202226884E+04  0.11202226884E+04  0.50400001928E-02 0.  1.
    10030    2    1    2    0    0  0.00000000000E+00  0.00000000000E+00  0.88849830708E+03  0.31289436838E+04  0.30001432191E+04 0.  0.
        1    1    3    3  502    0 -0.62715525933E+03  0.13618324530E+04  0.49430426033E+03  0.15786855454E+04  0.50400001928E-02 0. -1.
       -1    1    3    3    0  502  0.62715525933E+03 -0.13618324530E+04  0.39419404674E+03  0.15502581385E+04  0.50400001928E-02 0.  1.
</event>
<event>
 5   0  0.6636007E-08  0.3000531E+04  0.7818609E-02  0.8243579E-01
       -1   -1    0    0    0  501  0.00000000000E+00  0.00000000000E+00  0.12332313339E+04  0.12332313339E+04  0.50400001928E-02 0.  1.
        1   -1    0    0  501    0  0.00000000000E+00  0.00000000000E+00 -0.18251207811E+04  0.18251207811E+04  0.50400001928E-02 0. -1.
    10030    2    1    2    0    0  0.00000000000E+00  0.00000000000E+00 -0.59188944728E+03  0.30583521150E+04  0.30005307100E+04 0.  0.
        2    1    3    3  502    0  0.14728023218E+04 -0.23088341891E+03 -0.12434879504E+03  0.14959667292E+04  0.25500000920E-02 0.  1.
       -2    1    3    3    0  502 -0.14728023218E+04  0.23088341891E+03 -0.46754065223E+03  0.15623853858E+04  0.25500000920E-02 0. -1.
</event>
<event>
 5   0  0.1813720E-07  0.2998954E+04  0.7818609E-02  0.8244030E-01
        2   -1    0    0  501    0  0.00000000000E+00  0.00000000000E+00  0.14250588951E+04  0.14250588951E+04  0.25500000920E-02 0.  1.
       -2   -1    0    0    0  501  0.00000000000E+00  0.00000000000E+00 -0.15777816387E+04  0.15777816387E+04  0.25500000920E-02 0. -1.
    10030    2    1    2    0    0  0.00000000000E+00  0.00000000000E+00 -0.15272274354E+03  0.30028405338E+04  0.29989543236E+04 0.  0.
        3    1    3    3  502    0  0.13234231448E+04  0.90945075399E+02  0.62362387232E+03  0.14658194197E+04  0.10100000352E+00 0.  1.
       -3    1    3    3    0  502 -0.13234231448E+04 -0.90945075399E+02 -0.77634661586E+03  0.15370211141E+04  0.10100000352E+00 0. -1.
</event>
<event>
 5   0  0.6636007E-08  0.2999191E+04  0.7818609E-02  0.8243962E-01
        1   -1    0    0  501    0  0.00000000000E+00  0.00000000000E+00  0.16538476315E+04  0.16538476315E+04  0.50400001928E-02 0.  1.
       -1   -1    0    0    0  501  0.00000000000E+00  0.00000000000E+00 -0.13597299857E+04  0.13597299857E+04  0.50400001928E-02 0. -1.
    10030    2    1    2    0    0  0.00000000000E+00  0.00000000000E+00  0.29411764583E+03  0.30135776172E+04  0.29991907017E+04 0.  0.
        2    1    3    3  502    0  0.10296098639E+04 -0.26586711355E+03 -0.91537053096E+03  0.14030983582E+04  0.25500000920E-02 0. -1.
       -2    1    3    3    0  502 -0.10296098639E+04  0.26586711355E+03  0.12094881768E+04  0.16104792590E+04  0.25500000920E-02 0.  1.
</event>
<event>
 5   0  0.1914439E-07  0.3001703E+04  0.7818609E-02  0.8243245E-01
       -2   -1    0    0    0  501  0.00000000000E+00  0.00000000000E+00  0.15625195449E+04  0.15625195449E+04  0.25500000920E-02 0.  1.
        2   -1    0    0  501    0  0.00000000000E+00  0.00000000000E+00 -0.14416176162E+04  0.14416176162E+04  0.25500000920E-02 0. -1.
    10030    2    1    2    0    0  0.00000000000E+00  0.00000000000E+00  0.12090192869E+03  0.30041371612E+04  0.30017033176E+04 0.  0.
        5    1    3    3  502    0  0.11974334649E+04  0.86144861666E+02  0.96188420495E+03  0.15383468900E+04  0.46999998093E+01 0.  1.
       -5    1    3    3    0  502 -0.11974334649E+04 -0.86144861666E+02 -0.84098227626E+03  0.14657902712E+04  0.46999998093E+01 0. -1.
</event>
<event>
 5   0  0.1810055E-07  0.3000236E+04  0.7818609E-02  0.8243664E-01
        2   -1    0    0  501    0  0.00000000000E+00  0.00000000000E+00  0.12191816792E+04  0.12191816792E+04  0.25500000920E-02 0. -1.
       -2   -1    0    0    0  501  0.00000000000E+00  0.00000000000E+00 -0.18457901931E+04  0.18457901931E+04  0.25500000920E-02 0.  1.
    10030    2    1    2    0    0  0.00000000000E+00  0.00000000000E+00 -0.62660851389E+03  0.30649718723E+04  0.30002357155E+04 0.  0.
        4    1    3    3  502    0 -0.67640795666E+03 -0.42628716186E+03  0.98337581961E+03  0.12673902649E+04  0.12699999809E+01 0. -1.
       -4    1    3    3    0  502  0.67640795666E+03  0.42628716186E+03 -0.16099843335E+04  0.17975816074E+04  0.12699999809E+01 0.  1.
</event>
<event>
 5   0  0.6464436E-08  0.3000122E+04  0.7818609E-02  0.8243696E-01
       -1   -1    0    0    0  501  0.00000000000E+00  0.00000000000E+00  0.10996068929E+04  0.10996068929E+04  0.50400001928E-02 0. -1.
        1   -1    0    0  501    0  0.00000000000E+00  0.00000000000E+00 -0.20463517776E+04  0.20463517777E+04  0.50400001928E-02 0.  1.
    10030    2    1    2    0    0  0.00000000000E+00  0.00000000000E+00 -0.94674488477E+03  0.31459586705E+04  0.30001216775E+04 0.  0.
        5    1    3    3  502    0  0.12734827028E+04  0.76855894805E+03 -0.67702806769E+03  0.16342674645E+04  0.46999998093E+01 0. -1.
       -5    1    3    3    0  502 -0.12734827028E+04 -0.76855894805E+03 -0.26971681707E+03  0.15116912061E+04  0.46999998093E+01 0.  1.
</event>
<event>
 5   0  0.6679022E-08  0.3000652E+04  0.7818609E-02  0.8243545E-01
        1   -1    0    0  501    0  0.00000000000E+00  0.00000000000E+00  0.25634871009E+04  0.25634871009E+04  0.50400001928E-02 0.  1.
       -1   -1    0    0    0  501  0.00000000000E+00  0.00000000000E+00 -0.87809211072E+03  0.87809211074E+03  0.50400001928E-02 0. -1.
    10030    2    1    2    0    0  0.00000000000E+00  0.00000000000E+00  0.16853949902E+04  0.34415792117E+04  0.30006517954E+04 0.  0.
        3    1    3    3  502    0 -0.72640652983E+03  0.37118754728E+03 -0.60150987597E+03  0.10135387427E+04  0.10100000352E+00 0. -1.
       -3    1    3    3    0  502  0.72640652983E+03 -0.37118754728E+03  0.22869048662E+04  0.24280404690E+04  0.10100000352E+00 0.  1.
</event>
<event>
 5   0  0.6374748E-08  0.3000197E+04  0.7818609E-02  0.8243675E-01
       -1   -1    0    0    0  501  0.00000000000E+00  0.00000000000E+00  0.10438777744E+04  0.10438777744E+04  0.50400001928E-02 0.  1.
        1   -1    0    0  501    0  0.00000000000E+00  0.00000000000E+00 -0.21557076443E+04  0.21557076443E+04  0.50400001928E-02 0. -1.
    10030    2    1    2    0    0  0.00000000000E+00  0.00000000000E+00 -0.11118298699E+04  0.31995854188E+04  0.30001968589E+04 0.  0.
        1    1    3    3  502    0 -0.52434987107E+03  0.13914952005E+04 -0.34505363134E+03  0.15265201240E+04  0.50400001928E-02 0. -1.
       -1    1    3    3    0  502  0.52434987107E+03 -0.13914952005E+04 -0.76677623860E+03  0.16730652948E+04  0.50400001928E-02 0.  1.
</event>
<event>
 5   0  0.6464436E-08  0.2998475E+04  0.7818609E-02  0.8244167E-01
       -1   -1    0    0    0  501  0.00000000000E+00  0.00000000000E+00  0.15293467163E+04  0.15293467163E+04  0.50400001928E-02 0. -1.
        1   -1    0    0  501    0  0.00000000000E+00  0.00000000000E+00 -0.14697205775E+04  0.14697205775E+04  0.50400001928E-02 0.  1.
    10030    2    1    2    0    0  0.00000000000E+00  0.00000000000E+00  0.59626138798E+02  0.29990672938E+04  0.29984745049E+04 0.  0.
        5    1    3    3  502    0 -0.38043760895E+03  0.58845707167E+03  0.13554715461E+04  0.15258898065E+04  0.46999998093E+01 0. -1.
       -5    1    3    3    0  502  0.38043760895E+03 -0.58845707167E+03 -0.12958454073E+04  0.14731774873E+04  0.46999998093E+01 0.  1.
</event>
<event>
 5   0  0.1821305E-07  0.3001204E+04  0.7818609E-02  0.8243387E-01
       -2   -1    0    0    0  501  0.00000000000E+00  0.00000000000E+00  0.18576109838E+04  0.18576109838E+04  0.25500000920E-02 0.  1.
        2   -1    0    0  501    0  0.00000000000E+00  0.00000000000E+00 -0.12122057464E+04  0.12122057464E+04  0.25500000920E-02 0. -1.
    10030    2    1    2    0    0  0.00000000000E+00  0.00000000000E+00  0.64540523741E+03  0.30698167302E+04  0.30012042311E+04 0.  0.
        2    1    3    3  502    0  0.10755054887E+04 -0.86850489763E+03  0.91982424719E+03  0.16604485717E+04  0.25500000920E-02 0.  1.
       -2    1    3    3    0  502 -0.10755054887E+04  0.86850489763E+03 -0.27441900977E+03  0.14093681586E+04  0.25500000920E-02 0. -1.
</event>
<event>
 5   0  0.6636007E-08  0.2998777E+04  0.7818609E-02  0.8244080E-01
       -1   -1    0    0    0  501  0.00000000000E+00  0.00000000000E+00  0.13341248365E+04  0.13341248365E+04  0.50400001928E-02 0. -1.
        1   -1    0    0  501    0  0.00000000000E+00  0.00000000000E+00 -0.16851238347E+04  0.16851238347E+04  0.50400001928E-02 0.  1.
    10030    2    1    2    0    0  0.00000000000E+00  0.00000000000E+00 -0.35099899825E+03  0.30192486712E+04  0.29987767909E+04 0.  0.
        2    1    3    3  502    0 -0.53399292343E+03  0.12956554802E+04 -0.71233173416E+03  0.15720330993E+04  0.25500000920E-02 0. -1.
       -2    1    3    3    0  502  0.53399292343E+03 -0.12956554802E+04  0.36133273592E+03  0.14472155719E+04  0.25500000920E-02 0.  1.
</event>
<event>
 5   0  0.1914439E-07  0.3000077E+04  0.7818609E-02  0.8243709E-01
       -2   -1    0    0    0  501  0.00000000000E+00  0.00000000000E+00  0.29127629459E+04  0.29127629459E+04  0.25500000920E-02 0. -1.
        2   -1    0    0  501    0  0.00000000000E+00  0.00000000000E+00 -0.77250192895E+03  0.77250192895E+03  0.25500000920E-02 0.  1.
    10030    2    1    2    0    0  0.00000000000E+00  0.00000000000E+00  0.21402610169E+04  0.36852648749E+04  0.30000766619E+04 0.  0.
        5    1    3    3  502    0  0.99144846472E+03  0.34517240251E+03  0.23862741814E+04  0.26069983898E+04  0.46999998093E+01 0. -1.
       -5    1    3    3    0  502 -0.99144846472E+03 -0.34517240251E+03 -0.24601316446E+03  0.10782664850E+04  0.46999998093E+01 0.  1.
</event>
<event>
 5   0  0.6374748E-08  0.2999863E+04  0.7818609E-02  0.8243770E-01
       -1   -1    0    0    0  501  0.00000000000E+00  0.00000000000E+00  0.11128209160E+04  0.11128209161E+04  0.50400001928E-02 0. -1.
        1   -1    0    0  501    0  0.00000000000E+00  0.00000000000E+00 -0.20217033511E+04  0.20217033511E+04  0.50400001928E-02 0.  1.
    10030    2    1    2    0    0  0.00000000000E+00  0.00000000000E+00 -0.90888243502E+03  0.31345242671E+04  0.29998625136E+04 0.  0.
        1    1    3    3  502    0  0.70632612351E+03 -0.72523129937E+03 -0.16108918996E+04  0.19025850159E+04  0.50400001928E-02 0.  1.
       -1    1    3    3    0  502 -0.70632612351E+03  0.72523129937E+03  0.70200946460E+03  0.12319392512E+04  0.50400001928E-02 0. -1.
</event>
<event>
 5   0  0.1813720E-07  0.2998310E+04  0.7818609E-02  0.8244214E-01
       -2   -1    0    0    0  501  0.00000000000E+00  0.00000000000E+00  0.18925173103E+04  0.18925173103E+04  0.25500000920E-02 0.  1.
        2   -1    0    0  501    0  0.00000000000E+00  0.00000000000E+00 -0.11875535733E+04  0.11875535733E+04  0.25500000920E-02 0. -1.
    10030    2    1    2    0    0  0.00000000000E+00  0.00000000000E+00  0.70496373706E+03  0.30800708836E+04  0.29983099869E+04 0.  0.
        3    1    3    3  502    0 -0.29969482877E+03 -0.30460558259E+03  0.18286299290E+04  0.18778948264E+04  0.10100000352E+00 0.  1.
       -3    1    3    3    0  502  0.29969482877E+03  0.30460558259E+03 -0.11236661920E+04  0.12021760572E+04  0.10100000352E+00 0. -1.
</event>
<event>
 5   0  0.1914439E-07  0.3000506E+04  0.7818609E-02  0.8243586E-01
        2   -1    0    0  501    0  0.00000000000E+00  0.00000000000E+00  0.24143158796E+04  0.24143158796E+04  0.25500000920E-02 0. -1.
       -2   -1    0    0    0  501  0.00000000000E+00  0.00000000000E+00 -0.93225566177E+03  0.93225566177E+03  0.25500000920E-02 0.  1.
    10030    2    1    2    0    0  0.00000000000E+00  0.00000000000E+00  0.14820602179E+04  0.33465715414E+04  0.30005063893E+04 0.  0.
        5    1    3    3  502    0 -0.13025281363E+04  0.22249017691E+03  0.15333550656E+04  0.20241742198E+04  0.46999998093E+01 0.  1.
       -5    1    3    3    0  502  0.13025281363E+04 -0.22249017691E+03 -0.51294847787E+02  0.13223973216E+04  0.46999998093E+01 0. -1.
</event>
<event>
 5   0  0.1914439E-07  0.2999551E+04  0.7818609E-02  0.8243859E-01
        2   -1    0    0  501    0  0.00000000000E+00  0.00000000000E+00  0.17574210973E+04  0.17574210973E+04  0.25500000920E-02 0.  1.
       -2   -1    0    0    0  501  0.00000000000E+00  0.00000000000E+00 -0.12799015663E+04  0.12799015663E+04  0.25500000920E-02 0. -1.
    10030    2    1    2    0    0  0.00000000000E+00  0.00000000000E+00  0.47751953103E+03  0.30373226636E+04  0.29995506431E+04 0.  0.
        5    1    3    3  502    0 -0.50607540390E+03 -0.10546933961E+04 -0.71157518371E+03  0.13692522800E+04  0.46999998093E+01 0. -1.
       -5    1    3    3    0  502  0.50607540390E+03  0.10546933961E+04  0.11890947147E+04  0.16680703836E+04  0.46999998093E+01 0.  1.
</event>
<event>
 5   0  0.1813720E-07  0.3004870E+04  0.7818609E-02  0.8242342E-01
        2   -1    0    0  501    0  0.00000000000E+00  0.00000000000E+00  0.17275084558E+04  0.17275084558E+04  0.25500000920E-02 0.  1.
       -2   -1    0    0    0  501  0.00000000000E+00  0.00000000000E+00 -0.13066856641E+04  0.13066856641E+04  0.25500000920E-02 0. -1.
    10030    2    1    2    0    0  0.00000000000E+00  0.00000000000E+00  0.42082279177E+03  0.30341941199E+04  0.30048697368E+04 0.  0.
        3    1    3    3  502    0  0.10305513262E+04  0.30802774211E+03  0.12696448789E+04  0.16640057856E+04  0.10100000352E+00 0. -1.
       -3    1    3    3    0  502 -0.10305513262E+04 -0.30802774211E+03 -0.84882208712E+03  0.13701883343E+04  0.10100000352E+00 0.  1.
</event>
<event>
 5   0  0.6374748E-08  0.3000186E+04  0.7818609E-02  0.8243678E-01
       -1   -1    0    0    0  501  0.00000000000E+00  0.00000000000E+00  0.11704611781E+04  0.11704611781E+04  0.50400001928E-02 0. -1.
        1   -1    0    0  501    0  0.00000000000E+00  0.00000000000E+00 -0.19225577781E+04  0.19225577781E+04  0.50400001928E-02 0.  1.
    10030    2    1    2    0    0  0.00000000000E+00  0.00000000000E+00 -0.75209660000E+03  0.30930189562E+04  0.30001861555E+04 0.  0.
        1    1    3    3  502    0 -0.17390131881E+03 -0.14692953559E+04 -0.63110754190E+03  0.16085295275E+04  0.50400001928E-02 0. -1.
       -1    1    3    3    0  502  0.17390131881E+03  0.14692953559E+04 -0.12098905810E+03  0.14844894286E+04  0.50400001928E-02 0.  1.
</event>
<event>
 5   0  0.6525507E-08  0.2998967E+04  0.7818609E-02  0.8244026E-01
       -1   -1    0    0    0  501  0.00000000000E+00  0.00000000000E+00  0.11245777260E+04  0.11245777260E+04  0.50400001928E-02 0.  1.
        1   -1    0    0  501    0  0.00000000000E+00  0.00000000000E+00 -0.19993737599E+04  0.19993737599E+04  0.50400001928E-02 0. -1.
    10030    2    1    2    0    0  0.00000000000E+00  0.00000000000E+00 -0.87479603388E+03  0.31239514859E+04  0.29989672865E+04 0.  0.
        4    1    3    3  502    0  0.60555181823E+03  0.13710131203E+04 -0.38989483100E+03  0.15486734881E+04  0.12699999809E+01 0.  1.
       -4    1    3    3    0  502 -0.60555181823E+03 -0.13710131203E+04 -0.48490120288E+03  0.15752779977E+04  0.12699999809E+01 0. -1.
</event>
<event>
 5   0  0.6464436E-08  0.2998515E+04  0.7818609E-02  0.8244155E-01
        1   -1    0    0  501    0  0.00000000000E+00  0.00000000000E+00  0.20428375385E+04  0.20428375385E+04  0.50400001928E-02 0. -1.
       -1   -1    0    0    0  501  0.00000000000E+00  0.00000000000E+00 -0.11003190626E+04  0.11003190626E+04  0.50400001928E-02 0.  1.
    10030    2    1    2    0    0  0.00000000000E+00  0.00000000000E+00  0.94251847591E+03  0.31431566012E+04  0.29985150228E+04 0.  0.
        5    1    3    3  502    0  0.21929423937E+02 -0.61015415042E+03 -0.96409251075E+03  0.11411684565E+04  0.46999998093E+01 0.  1.
       -5    1    3    3    0  502 -0.21929423937E+02  0.61015415042E+03  0.19066109867E+04  0.20019881447E+04  0.46999998093E+01 0. -1.
</event>
<event>
 5   0  0.1821305E-07  0.3001868E+04  0.7818609E-02  0.8243198E-01
        2   -1    0    0  501    0  0.00000000000E+00  0.00000000000E+00  0.28794953625E+04  0.28794953625E+04  0.25500000920E-02 0.  1.
       -2   -1    0    0    0  501  0.00000000000E+00  0.00000000000E+00 -0.78236052629E+03  0.78236052629E+03  0.25500000920E-02 0. -1.
    10030    2    1    2    0    0  0.00000000000E+00  0.00000000000E+00  0.20971348362E+04  0.36618558888E+04  0.30018684230E+04 0.  0.
        2    1    3    3  502    0 -0.72896049951E+02  0.95985265553E+02 -0.77644768985E+03  0.78574679152E+03  0.25500000920E-02 0. -1.
       -2    1    3    3    0  502  0.72896049951E+02 -0.95985265553E+02  0.28735825261E+04  0.28761090973E+04  0.25500000920E-02 0.  1.
</event>
<event>
 5   0  0.6679022E-08  0.3001732E+04  0.7818609E-02  0.8243237E-01
       -1   -1    0    0    0  501  0.00000000000E+00  0.00000000000E+00  0.11858215823E+04  0.11858215823E+04  0.50400001928E-02 0.  1.
        1   -1    0    0  501    0  0.00000000000E+00  0.00000000000E+00 -0.18996097240E+04  0.18996097240E+04  0.50400001928E-02 0. -1.
    10030    2    1    2    0    0  0.00000000000E+00  0.00000000000E+00 -0.71378814164E+03  0.30854313063E+04  0.30017316393E+04 0.  0.
        3    1    3    3  502    0 -0.24388614931E+03 -0.12715719170E+04  0.42336560764E+03  0.13622092504E+04  0.10100000352E+00 0.  1.
       -3    1    3    3    0  502  0.24388614931E+03  0.12715719170E+04 -0.11371537493E+04  0.17232220558E+04  0.10100000352E+00 0. -1.
</event>
<event>
 5   0  0.6525507E-08  0.3010069E+04  0.7818609E-02  0.8240861E-01
        1   -1    0    0  501    0  0.00000000000E+00  0.00000000000E+00  0.13328457841E+04  0.13328457841E+04  0.50400001928E-02 0.  1.
       -1   -1    0    0    0  501  0.00000000000E+00  0.00000000000E+00 -0.16994682054E+04  0.16994682054E+04  0.50400001928E-02 0. -1.
    10030    2    1    2    0    0  0.00000000000E+00  0.00000000000E+00 -0.36662242131E+03  0.30323139895E+04  0.30100691239E+04 0.  0.
        4    1    3    3  502    0  0.18622937376E+03 -0.25169974408E+03  0.12996729183E+04  0.13368565549E+04  0.12699999809E+01 0.  1.
       -4    1    3    3    0  502 -0.18622937376E+03  0.25169974408E+03 -0.16662953396E+04  0.16954574346E+04  0.12699999809E+01 0. -1.
</event>
<event>
 5   0  0.1810055E-07  0.2999976E+04  0.7818609E-02  0.8243738E-01
       -2   -1    0    0    0  501  0.00000000000E+00  0.00000000000E+00  0.96591419988E+03  0.96591419988E+03  0.25500000920E-02 0.  1.
        2   -1    0    0  501    0  0.00000000000E+00  0.00000000000E+00 -0.23293618261E+04  0.23293618261E+04  0.25500000920E-02 0. -1.
    10030    2    1    2    0    0  0.00000000000E+00  0.00000000000E+00 -0.13634476262E+04  0.32952760260E+04  0.29999757762E+04 0.  0.
        4    1    3    3  502    0 -0.11033410759E+04 -0.99882010843E+03 -0.88710138281E+03  0.17326146759E+04  0.12699999809E+01 0. -1.
       -4    1    3    3    0  502  0.11033410759E+04  0.99882010843E+03 -0.47634624343E+03  0.15626613501E+04  0.12699999809E+01 0.  1.
</event>
<event>
 5   0  0.6525507E-08  0.3000877E+04  0.7818609E-02  0.8243481E-01
        1   -1    0    0  501    0  0.00000000000E+00  0.00000000000E+00  0.23072166407E+04  0.23072166407E+04  0.50400001928E-02 0.  1.
       -1   -1    0    0    0  501  0.00000000000E+00  0.00000000000E+00 -0.97577103931E+03  0.97577103932E+03  0.50400001928E-02 0. -1.
    10030    2    1    2    0    0  0.00000000000E+00  0.00000000000E+00  0.13314456014E+04  0.32829876800E+04  0.30008766582E+04 0.  0.
        4    1    3    3  502    0  0.73189559934E+03  0.26061045664E+03  0.20700341921E+04  0.22110251351E+04  0.12699999809E+01 0.  1.
       -4    1    3    3    0  502 -0.73189559934E+03 -0.26061045664E+03 -0.73858859076E+03  0.10719625449E+04  0.12699999809E+01 0. -1.
</event>
<event>
 5   0  0.6525507E-08  0.2998962E+04  0.7818609E-02  0.8244027E-01
       -1   -1    0    0    0  501  0.00000000000E+00  0.00000000000E+00  0.10797271249E+04  0.10797271249E+04  0.50400001928E-02 0.  1.
        1   -1    0    0  501    0  0.00000000000E+00  0.00000000000E+00 -0.20824174636E+04  0.20824174636E+04  0.50400001928E-02 0. -1.
    10030    2    1    2    0    0  0.00000000000E+00  0.00000000000E+00 -0.10026903387E+04  0.31621445885E+04  0.29989615675E+04 0.  0.
        4    1    3    3  502    0 -0.21075414147E+03 -0.21037628120E+03  0.10482352704E+04  0.10897129360E+04  0.12699999809E+01 0.  1.
       -4    1    3    3    0  502  0.21075414147E+03  0.21037628120E+03 -0.20509256091E+04  0.20724316526E+04  0.12699999809E+01 0. -1.
</event>
<event>
 5   0  0.6374748E-08  0.3000593E+04  0.7818609E-02  0.8243562E-01
        1   -1    0    0  501    0  0.00000000000E+00  0.00000000000E+00  0.19166859396E+04  0.19166859396E+04  0.50400001928E-02 0.  1.
       -1   -1    0    0    0  501  0.00000000000E+00  0.00000000000E+00 -0.11743655095E+04  0.11743655096E+04  0.50400001928E-02 0. -1.
    10030    2    1    2    0    0  0.00000000000E+00  0.00000000000E+00  0.74232043009E+03  0.30910514492E+04  0.30005931815E+04 0.  0.
        1    1    3    3  502    0  0.10973356286E+04  0.55926268309E+03 -0.51138743054E+03  0.13335806442E+04  0.50400001928E-02 0.  1.
       -1    1    3    3    0  502 -0.10973356286E+04 -0.55926268309E+03  0.12537078606E+04  0.17574708050E+04  0.50400001928E-02 0. -1.
</event>
<event>
 5   0  0.1817566E-07  0.3000179E+04  0.7818609E-02  0.8243680E-01
        2   -1    0    0  501    0  0.00000000000E+00  0.00000000000E+00  0.10332904991E+04  0.10332904991E+04  0.25500000920E-02 0. -1.
       -2   -1    0    0    0  501  0.00000000000E+00  0.00000000000E+00 -0.21777689033E+04  0.21777689033E+04  0.25500000920E-02 0.  1.
    10030    2    1    2    0    0  0.00000000000E+00  0.00000000000E+00 -0.11444784042E+04  0.32110594024E+04  0.30001786060E+04 0.  0.
        1    1    3    3  502    0  0.66645266448E+03  0.50498351261E+03 -0.19052116936E+04  0.20806246897E+04  0.50400001928E-02 0.  1.
       -1    1    3    3    0  502 -0.66645266448E+03 -0.50498351261E+03  0.76073328940E+03  0.11304347127E+04  0.50400001928E-02 0. -1.
</event>
<event>
 5   0  0.6679022E-08  0.2999419E+04  0.7818609E-02  0.8243897E-01
        1   -1    0    0  501    0  0.00000000000E+00  0.00000000000E+00  0.17802575636E+04  0.17802575636E+04  0.50400001928E-02 0. -1.
       -1   -1    0    0    0  501  0.00000000000E+00  0.00000000000E+00 -0.12633723645E+04  0.12633723645E+04  0.50400001928E-02 0.  1.
    10030    2    1    2    0    0  0.00000000000E+00  0.00000000000E+00  0.51688519910E+03  0.30436299282E+04  0.29994187488E+04 0.  0.
        3    1    3    3  502    0 -0.42592864397E+03  0.75629260358E+03 -0.98258659300E+03  0.13110568771E+04  0.10100000352E+00 0.  1.
       -3    1    3    3    0  502  0.42592864397E+03 -0.75629260358E+03  0.14994717921E+04  0.17325730511E+04  0.10100000352E+00 0. -1.
</event>
<event>
 5   0  0.1821305E-07  0.2999070E+04  0.7818609E-02  0.8243996E-01
       -2   -1    0    0    0  501  0.00000000000E+00  0.00000000000E+00  0.10003307244E+04  0.10003307244E+04  0.25500000920E-02 0. -1.
        2   -1    0    0  501    0  0.00000000000E+00  0.00000000000E+00 -0.22478623646E+04  0.22478623646E+04  0.25500000920E-02 0.  1.
    10030    2    1    2    0    0  0.00000000000E+00  0.00000000000E+00 -0.12475316402E+04  0.32481930890E+04  0.29990703809E+04 0.  0.
        2    1    3    3  502    0  0.17610279900E+03 -0.28617496134E+03 -0.22065621996E+04  0.22320002341E+04  0.25500000920E-02 0.  1.
       -2    1    3    3    0  502 -0.17610279900E+03  0.28617496134E+03  0.95903055940E+03  0.10161928548E+04  0.25500000920E-02 0. -1.
</event>
<event>
 5   0  0.1813720E-07  0.2999741E+04  0.7818609E-02  0.8243805E-01
        2   -1    0    0  501    0  0.00000000000E+00  0.00000000000E+00  0.25375934166E+04  0.25375934166E+04  0.25500000920E-02 0. -1.
       -2   -1    0    0    0  501  0.00000000000E+00  0.00000000000E+00 -0.88651396482E+03  0.88651396482E+03  0.25500000920E-02 0.  1.
    10030    2    1    2    0    0  0.00000000000E+00  0.00000000000E+00  0.16510794518E+04  0.34241073815E+04  0.29997413228E+04 0.  0.
        3    1    3    3  502    0  0.94860591027E+03  0.62761153501E+02 -0.49867080031E+03  0.10735290926E+04  0.10100000352E+00 0.  1.
       -3    1    3    3    0  502 -0.94860591027E+03 -0.62761153501E+02  0.21497502521E+04  0.23505782889E+04  0.10100000352E+00 0. -1.
</event>
<event>
 5   0  0.6017625E-08  0.2999883E+04  0.7818609E-02  0.8243764E-01
        3   -1    0    0  501    0  0.00000000000E+00  0.00000000000E+00  0.25497790912E+04  0.25497790932E+04  0.10100000352E+00 0.  1.
       -3   -1    0    0    0  501  0.00000000000E+00  0.00000000000E+00 -0.88236068893E+03  0.88236069471E+03  0.10100000352E+00 0. -1.
    10030    2    1    2    0    0  0.00000000000E+00  0.00000000000E+00  0.16674184023E+04  0.34321397879E+04  0.29998832303E+04 0.  0.
        5    1    3    3  502    0 -0.86514877029E+03  0.60357004633E+03  0.20536685239E+04  0.23087563084E+04  0.46999998093E+01 0.  1.
       -5    1    3    3    0  502  0.86514877029E+03 -0.60357004633E+03 -0.38625012163E+03  0.11233834795E+04  0.46999998093E+01 0. -1.
</event>
<event>
 5   0  0.6464436E-08  0.2999495E+04  0.7818609E-02  0.8243875E-01
        1   -1    0    0  501    0  0.00000000000E+00  0.00000000000E+00  0.14317006855E+04  0.14317006855E+04  0.50400001928E-02 0.  1.
       -1   -1    0    0    0  501  0.00000000000E+00  0.00000000000E+00 -0.15710280471E+04  0.15710280471E+04  0.50400001928E-02 0. -1.
    10030    2    1    2    0    0  0.00000000000E+00  0.00000000000E+00 -0.13932736153E+03  0.30027287326E+04  0.29994945788E+04 0.  0.
        5    1    3    3  502    0  0.58364089041E+03  0.84547104766E+03 -0.11634358486E+04  0.15521156675E+04  0.46999998093E+01 0. -1.
       -5    1    3    3    0  502 -0.58364089041E+03 -0.84547104766E+03  0.10241084871E+04  0.14506130651E+04  0.46999998093E+01 0.  1.
</event>
<event>
 5   0  0.1810055E-07  0.3000304E+04  0.7818609E-02  0.8243644E-01
       -2   -1    0    0    0  501  0.00000000000E+00  0.00000000000E+00  0.14382470528E+04  0.14382470528E+04  0.25500000920E-02 0. -1.
        2   -1    0    0  501    0  0.00000000000E+00  0.00000000000E+00 -0.15647218921E+04  0.15647218921E+04  0.25500000920E-02 0.  1.
    10030    2    1    2    0    0  0.00000000000E+00  0.00000000000E+00 -0.12647483934E+03  0.30029689449E+04  0.30003044178E+04 0.  0.
        4    1    3    3  502    0 -0.59975768107E+03 -0.11777837852E+04  0.64702023911E+03  0.14715708354E+04  0.12699999809E+01 0. -1.
       -4    1    3    3    0  502  0.59975768107E+03  0.11777837852E+04 -0.77349507845E+03  0.15313981096E+04  0.12699999809E+01 0.  1.
</event>
<event>
 5   0  0.1810055E-07  0.3000104E+04  0.7818609E-02  0.8243701E-01
       -2   -1    0    0    0  501  0.00000000000E+00  0.00000000000E+00  0.10249445537E+04  0.10249445537E+04  0.25500000920E-02 0. -1.
        2   -1    0    0  501    0  0.00000000000E+00  0.00000000000E+00 -0.21953935227E+04  0.21953935227E+04  0.25500000920E-02 0.  1.
    10030    2    1    2    0    0  0.00000000000E+00  0.00000000000E+00 -0.11704489690E+04  0.32203380763E+04  0.30001044210E+04 0.  0.
        4    1    3    3  502    0 -0.13854428582E+03 -0.40474286698E+03 -0.21285247526E+04  0.21710897132E+04  0.12699999809E+01 0.  1.
       -4    1    3    3    0  502  0.13854428582E+03  0.40474286698E+03  0.95807578360E+03  0.10492483631E+04  0.12699999809E+01 0. -1.
</event>
<event>
 5   0  0.1821305E-07  0.3004307E+04  0.7818609E-02  0.8242502E-01
        2   -1    0    0  501    0  0.00000000000E+00  0.00000000000E+00  0.13871938046E+04  0.13871938046E+04  0.25500000920E-02 0. -1.
       -2   -1    0    0    0  501  0.00000000000E+00  0.00000000000E+00 -0.16266399830E+04  0.16266399830E+04  0.25500000920E-02 0.  1.
    10030    2    1    2    0    0  0.00000000000E+00  0.00000000000E+00 -0.23944617844E+03  0.30138337876E+04  0.30043068463E+04 0.  0.
        2    1    3    3  502    0  0.13051476509E+03 -0.23111424332E+02 -0.16207622910E+04  0.16261730061E+04  0.25500000920E-02 0.  1.
       -2    1    3    3    0  502 -0.13051476509E+03  0.23111424332E+02  0.13813161125E+04  0.13876607815E+04  0.25500000920E-02 0. -1.
</event>
<event>
 5   0  0.6464436E-08  0.3003603E+04  0.7818609E-02  0.8242703E-01
       -1   -1    0    0    0  501  0.00000000000E+00  0.00000000000E+00  0.10910520484E+04  0.10910520484E+04  0.50400001928E-02 0.  1.
        1   -1    0    0  501    0  0.00000000000E+00  0.00000000000E+00 -0.20671855578E+04  0.20671855578E+04  0.50400001928E-02 0. -1.
    10030    2    1    2    0    0  0.00000000000E+00  0.00000000000E+00 -0.97613350937E+03  0.31582376062E+04  0.30036025285E+04 0.  0.
        5    1    3    3  502    0 -0.54253481714E+03 -0.81094922726E+03 -0.16885098440E+04  0.19501462151E+04  0.46999998093E+01 0. -1.
       -5    1    3    3    0  502  0.54253481714E+03  0.81094922726E+03  0.71237633468E+03  0.12080913911E+04  0.46999998093E+01 0.  1.
</event>
<event>
 5   0  0.1813720E-07  0.2999989E+04  0.7818609E-02  0.8243734E-01
       -2   -1    0    0    0  501  0.00000000000E+00  0.00000000000E+00  0.15164182393E+04  0.15164182393E+04  0.25500000920E-02 0. -1.
        2   -1    0    0  501    0  0.00000000000E+00  0.00000000000E+00 -0.14837488326E+04  0.14837488326E+04  0.25500000920E-02 0.  1.
    10030    2    1    2    0    0  0.00000000000E+00  0.00000000000E+00  0.32669406759E+02  0.30001670719E+04  0.29999891948E+04 0.  0.
        3    1    3    3  502    0 -0.12986034167E+04  0.29826721639E+03 -0.67265434152E+03  0.14925809993E+04  0.10100000352E+00 0.  1.
       -3    1    3    3    0  502  0.12986034167E+04 -0.29826721639E+03  0.70532374828E+03  0.15075860726E+04  0.10100000352E+00 0. -1.
</event>
<event>
 5   0  0.6017625E-08  0.2999274E+04  0.7818609E-02  0.8243938E-01
        3   -1    0    0  501    0  0.00000000000E+00  0.00000000000E+00  0.12026942255E+04  0.12026942298E+04  0.10100000352E+00 0.  1.
       -3   -1    0    0    0  501  0.00000000000E+00  0.00000000000E+00 -0.18698949023E+04  0.18698949050E+04  0.10100000352E+00 0. -1.
    10030    2    1    2    0    0  0.00000000000E+00  0.00000000000E+00 -0.66720067679E+03  0.30725891348E+04  0.29992744536E+04 0.  0.
        4    1    3    3  502    0 -0.12257116908E+04  0.65524962643E+03  0.24336181421E+03  0.14110094994E+04  0.12699999809E+01 0.  1.
       -4    1    3    3    0  502  0.12257116908E+04 -0.65524962643E+03 -0.91056249100E+03  0.16615796354E+04  0.12699999809E+01 0. -1.
</event>
<event>
 5   0  0.6679022E-08  0.2999058E+04  0.7818609E-02  0.8244000E-01
        1   -1    0    0  501    0  0.00000000000E+00  0.00000000000E+00  0.20932086130E+04  0.20932086131E+04  0.50400001928E-02 0. -1.
       -1   -1    0    0    0  501  0.00000000000E+00  0.00000000000E+00 -0.10742301600E+04  0.10742301600E+04  0.50400001928E-02 0.  1.
    10030    2    1    2    0    0  0.00000000000E+00  0.00000000000E+00  0.10189784530E+04  0.31674387731E+04  0.29990584011E+04 0.  0.
        3    1    3    3  502    0 -0.60494387771E+03 -0.12693789233E+04 -0.40627055620E+02  0.14067446513E+04  0.10100000352E+00 0.  1.
       -3    1    3    3    0  502  0.60494387771E+03  0.12693789233E+04  0.10596055087E+04  0.17606941217E+04  0.10100000352E+00 0. -1.
</event>
<event>
 5   0  0.6017625E-08  0.3000020E+04  0.7818609E-02  0.8243725E-01
       -3   -1    0    0    0  501  0.00000000000E+00  0.00000000000E+00  0.15127212212E+04  0.15127212246E+04  0.10100000352E+00 0. -1.
        3   -1    0    0  501    0  0.00000000000E+00  0.00000000000E+00 -0.14874055798E+04  0.14874055832E+04  0.10100000352E+00 0.  1.
    10030    2    1    2    0    0  0.00000000000E+00  0.00000000000E+00  0.25315641411E+02  0.30001268078E+04  0.30000199968E+04 0.  0.
        1    1    3    3  502    0  0.56244334738E+03  0.13564123359E+04 -0.29367489569E+03  0.14974785101E+04  0.50400001928E-02 0. -1.
       -1    1    3    3    0  502 -0.56244334738E+03 -0.13564123359E+04  0.31899053711E+03  0.15026482977E+04  0.50400001928E-02 0.  1.
</event>
<event>
 5   0  0.1810055E-07  0.2998552E+04  0.7818609E-02  0.8244144E-01
       -2   -1    0    0    0  501  0.00000000000E+00  0.00000000000E+00  0.25305448818E+04  0.25305448818E+04  0.25500000920E-02 0.  1.
        2   -1    0    0  501    0  0.00000000000E+00  0.00000000000E+00 -0.88827869652E+03  0.88827869652E+03  0.25500000920E-02 0. -1.
    10030    2    1    2    0    0  0.00000000000E+00  0.00000000000E+00  0.16422661853E+04  0.34188235783E+04  0.29985523901E+04 0.  0.
        4    1    3    3  502    0 -0.13495370689E+04  0.20706267046E+03  0.15273892062E+04  0.20486689947E+04  0.12699999809E+01 0.  1.
       -4    1    3    3    0  502  0.13495370689E+04 -0.20706267046E+03  0.11487697909E+03  0.13701545836E+04  0.12699999809E+01 0. -1.
</event>
<event>
 5   0  0.6525507E-08  0.2999700E+04  0.7818609E-02  0.8243817E-01
        1   -1    0    0  501    0  0.00000000000E+00  0.00000000000E+00  0.11469125193E+04  0.11469125193E+04  0.50400001928E-02 0. -1.
       -1   -1    0    0    0  501  0.00000000000E+00  0.00000000000E+00 -0.19613961220E+04  0.19613961220E+04  0.50400001928E-02 0.  1.
    10030    2    1    2    0    0  0.00000000000E+00  0.00000000000E+00 -0.81448360266E+03  0.31083086413E+04  0.29996998300E+04 0.  0.
        4    1    3    3  502    0  0.14492358291E+04  0.33304697448E+03 -0.61014623161E+03  0.16073222491E+04  0.12699999809E+01 0.  1.
       -4    1    3    3    0  502 -0.14492358291E+04 -0.33304697448E+03 -0.20433737105E+03  0.15009863922E+04  0.12699999809E+01 0. -1.
</event>
<event>
 5   0  0.6679022E-08  0.2999942E+04  0.7818609E-02  0.8243747E-01
        1   -1    0    0  501    0  0.00000000000E+00  0.00000000000E+00  0.23254722270E+04  0.23254722270E+04  0.50400001928E-02 0. -1.
       -1   -1    0    0    0  501  0.00000000000E+00  0.00000000000E+00 -0.96750792778E+03  0.96750792779E+03  0.50400001928E-02 0.  1.
    10030    2    1    2    0    0  0.00000000000E+00  0.00000000000E+00  0.13579642992E+04  0.32929801548E+04  0.29999418764E+04 0.  0.
        3    1    3    3  502    0 -0.14592172625E+04 -0.24471821101E+03  0.94944597826E+03  0.17580243735E+04  0.10100000352E+00 0.  1.
       -3    1    3    3    0  502  0.14592172625E+04  0.24471821101E+03  0.40851832094E+03  0.15349557813E+04  0.10100000352E+00 0. -1.
</event>
<event>
 5   0  0.1821305E-07  0.2997820E+04  0.7818609E-02  0.8244354E-01
        2   -1    0    0  501    0  0.00000000000E+00  0.00000000000E+00  0.18838971784E+04  0.18838971784E+04  0.25500000920E-02 0. -1.
       -2   -1    0    0    0  501  0.00000000000E+00  0.00000000000E+00 -0.11925973347E+04  0.11925973348E+04  0.25500000920E-02 0.  1.
    10030    2    1    2    0    0  0.00000000000E+00  0.00000000000E+00  0.69129984365E+03  0.30764945131E+04  0.29978197103E+04 0.  0.
        2    1    3    3  502    0 -0.75971297844E+03  0.12777150875E+04  0.14821833884E+03  0.14938836402E+04  0.25500000920E-02 0.  1.
       -2    1    3    3    0  502  0.75971297844E+03 -0.12777150875E+04  0.54308150481E+03  0.15826108730E+04  0.25500000920E-02 0. -1.
</event>
<event>
 5   0  0.6679022E-08  0.2998925E+04  0.7818609E-02  0.8244038E-01
        1   -1    0    0  501    0  0.00000000000E+00  0.00000000000E+00  0.18669482170E+04  0.18669482170E+04  0.50400001928E-02 0. -1.
       -1   -1    0    0    0  501  0.00000000000E+00  0.00000000000E+00 -0.12043117691E+04  0.12043117692E+04  0.50400001928E-02 0.  1.
    10030    2    1    2    0    0  0.00000000000E+00  0.00000000000E+00  0.66263644784E+03  0.30712599861E+04  0.29989249475E+04 0.  0.
        3    1    3    3  502    0  0.99940357257E+03  0.34871069835E+03 -0.75636363704E+03  0.13009583443E+04  0.10100000352E+00 0.  1.
       -3    1    3    3    0  502 -0.99940357257E+03 -0.34871069835E+03  0.14190000849E+04  0.17703016418E+04  0.10100000352E+00 0. -1.
</event>
<event>
 5   0  0.1810055E-07  0.2997360E+04  0.7818609E-02  0.8244485E-01
        2   -1    0    0  501    0  0.00000000000E+00  0.00000000000E+00  0.18409846115E+04  0.18409846115E+04  0.25500000920E-02 0. -1.
       -2   -1    0    0    0  501  0.00000000000E+00  0.00000000000E+00 -0.12200220199E+04  0.12200220199E+04  0.25500000920E-02 0.  1.
    10030    2    1    2    0    0  0.00000000000E+00  0.00000000000E+00  0.62096259157E+03  0.30610066314E+04  0.29973600146E+04 0.  0.
        4    1    3    3  502    0 -0.27898672621E+03  0.33337760806E+03  0.17751839431E+04  0.18276361420E+04  0.12699999809E+01 0. -1.
       -4    1    3    3    0  502  0.27898672621E+03 -0.33337760806E+03 -0.11542213515E+04  0.12333704894E+04  0.12699999809E+01 0.  1.
</event>
<event>
 5   0  0.1817566E-07  0.2999776E+04  0.7818609E-02  0.8243795E-01
       -2   -1    0    0    0  501  0.00000000000E+00  0.00000000000E+00  0.13294211835E+04  0.13294211835E+04  0.25500000920E-02 0. -1.
        2   -1    0    0  501    0  0.00000000000E+00  0.00000000000E+00 -0.16922129290E+04  0.16922129290E+04  0.25500000920E-02 0.  1.
    10030    2    1    2    0    0  0.00000000000E+00  0.00000000000E+00 -0.36279174549E+03  0.30216341126E+04  0.29997758016E+04 0.  0.
        1    1    3    3  502    0  0.14083077010E+04 -0.28472397562E+03 -0.61495689055E+03  0.15628724517E+04  0.50400001928E-02 0.  1.
       -1    1    3    3    0  502 -0.14083077010E+04  0.28472397562E+03  0.25216514506E+03  0.14587616609E+04  0.50400001928E-02 0. -1.
</event>
<event>
 5   0  0.1817566E-07  0.2998306E+04  0.7818609E-02  0.8244215E-01
        2   -1    0    0  501    0  0.00000000000E+00  0.00000000000E+00  0.16526324583E+04  0.16526324583E+04  0.25500000920E-02 0.  1.
       -2   -1    0    0    0  501  0.00000000000E+00  0.00000000000E+00 -0.13599268565E+04  0.13599268565E+04  0.25500000920E-02 0. -1.
    10030    2    1    2    0    0  0.00000000000E+00  0.00000000000E+00  0.29270560179E+03  0.30125593148E+04  0.29983056975E+04 0.  0.
        1    1    3    3  502    0 -0.19577659912E+03 -0.35551091643E+02  0.16393058206E+04  0.16513376186E+04  0.50400001928E-02 0.  1.
       -1    1    3    3    0  502  0.19577659912E+03  0.35551091643E+02 -0.13466002188E+04  0.13612216962E+04  0.50400001928E-02 0. -1.
</event>
<event>
 5   0  0.1813720E-07  0.2999437E+04  0.7818609E-02  0.8243892E-01
        2   -1    0    0  501    0  0.00000000000E+00  0.00000000000E+00  0.13453582624E+04  0.13453582624E+04  0.25500000920E-02 0. -1.
       -2   -1    0    0    0  501  0.00000000000E+00  0.00000000000E+00 -0.16717893614E+04  0.16717893614E+04  0.25500000920E-02 0.  1.
    10030    2    1    2    0    0  0.00000000000E+00  0.00000000000E+00 -0.32643109894E+03  0.30171476238E+04  0.29994370341E+04 0.  0.
        3    1    3    3  502    0  0.70210927833E+03 -0.91874319214E+03  0.79746768507E+03  0.14046356149E+04  0.10100000352E+00 0. -1.
       -3    1    3    3    0  502 -0.70210927833E+03  0.91874319214E+03 -0.11238987840E+04  0.16125120089E+04  0.10100000352E+00 0.  1.
</event>
<event>
 5   0  0.1914439E-07  0.3000832E+04  0.7818609E-02  0.8243493E-01
       -2   -1    0    0    0  501  0.00000000000E+00  0.00000000000E+00  0.13401480427E+04  0.13401480427E+04  0.25500000920E-02 0. -1.
        2   -1    0    0  501    0  0.00000000000E+00  0.00000000000E+00 -0.16798501745E+04  0.16798501746E+04  0.25500000920E-02 0.  1.
    10030    2    1    2    0    0  0.00000000000E+00  0.00000000000E+00 -0.33970213189E+03  0.30199982172E+04  0.30008318336E+04 0.  0.
        5    1    3    3  502    0 -0.36526843372E+03  0.12903385844E+04  0.50737422993E+03  0.14338219521E+04  0.46999998093E+01 0.  1.
       -5    1    3    3    0  502  0.36526843372E+03 -0.12903385844E+04 -0.84707636182E+03  0.15861762651E+04  0.46999998093E+01 0. -1.
</event>
<event>
 5   0  0.6679022E-08  0.2996457E+04  0.7818609E-02  0.8244743E-01
        1   -1    0    0  501    0  0.00000000000E+00  0.00000000000E+00  0.92559807857E+03  0.92559807859E+03  0.50400001928E-02 0. -1.
       -1   -1    0    0    0  501  0.00000000000E+00  0.00000000000E+00 -0.24251230180E+04  0.24251230180E+04  0.50400001928E-02 0.  1.
    10030    2    1    2    0    0  0.00000000000E+00  0.00000000000E+00 -0.14995249394E+04  0.33507210966E+04  0.29964573788E+04 0.  0.
        3    1    3    3  502    0 -0.10755228615E+04  0.92625394739E+03 -0.12860378471E+04  0.19153561431E+04  0.10100000352E+00 0. -1.
       -3    1    3    3    0  502  0.10755228615E+04 -0.92625394739E+03 -0.21348709232E+03  0.14353649534E+04  0.10100000352E+00 0.  1.
</event>
<event>
 5   0  0.6525507E-08  0.3003135E+04  0.7818609E-02  0.8242836E-01
       -1   -1    0    0    0  501  0.00000000000E+00  0.00000000000E+00  0.96997488363E+03  0.96997488364E+03  0.50400001928E-02 0. -1.
        1   -1    0    0  501    0  0.00000000000E+00  0.00000000000E+00 -0.23244981007E+04  0.23244981007E+04  0.50400001928E-02 0.  1.
    10030    2    1    2    0    0  0.00000000000E+00  0.00000000000E+00 -0.13545232171E+04  0.32944729844E+04  0.30031348786E+04 0.  0.
        4    1    3    3  502    0 -0.12221188075E+04  0.31469512246E+03 -0.15698916865E+04  0.20142415247E+04  0.12699999809E+01 0.  1.
       -4    1    3    3    0  502  0.12221188075E+04 -0.31469512246E+03  0.21536846943E+03  0.12802314596E+04  0.12699999809E+01 0. -1.
</event>
<event>
 5   0  0.1810055E-07  0.2999937E+04  0.7818609E-02  0.8243749E-01
        2   -1    0    0  501    0  0.00000000000E+00  0.00000000000E+00  0.18626542589E+04  0.18626542589E+04  0.25500000920E-02 0. -1.
       -2   -1    0    0    0  501  0.00000000000E+00  0.00000000000E+00 -0.12079028529E+04  0.12079028529E+04  0.25500000920E-02 0.  1.
    10030    2    1    2    0    0  0.00000000000E+00  0.00000000000E+00  0.65475140603E+03  0.30705571118E+04  0.29999369282E+04 0.  0.
        4    1    3    3  502    0  0.26661889015E+03 -0.87165259503E+03 -0.89190123447E+03  0.12752855774E+04  0.12699999809E+01 0.  1.
       -4    1    3    3    0  502 -0.26661889015E+03  0.87165259503E+03  0.15466526405E+04  0.17952715344E+04  0.12699999809E+01 0. -1.
</event>
<event>
 5   0  0.6679022E-08  0.3000209E+04  0.7818609E-02  0.8243671E-01
        1   -1    0    0  501    0  0.00000000000E+00  0.00000000000E+00  0.11938422732E+04  0.11938422732E+04  0.50400001928E-02 0.  1.
       -1   -1    0    0    0  501  0.00000000000E+00  0.00000000000E+00 -0.18849332157E+04  0.18849332157E+04  0.50400001928E-02 0. -1.
    10030    2    1    2    0    0  0.00000000000E+00  0.00000000000E+00 -0.69109094243E+03  0.30787754889E+04  0.30002086295E+04 0.  0.
        3    1    3    3  502    0 -0.72512099210E+03  0.12623118817E+04  0.25987000643E+02  0.14559900667E+04  0.10100000352E+00 0. -1.
       -3    1    3    3    0  502  0.72512099210E+03 -0.12623118817E+04 -0.71707794307E+03  0.16227854222E+04  0.10100000352E+00 0.  1.
</event>
<event>
 5   0  0.6636007E-08  0.3000518E+04  0.7818609E-02  0.8243583E-01
       -1   -1    0    0    0  501  0.00000000000E+00  0.00000000000E+00  0.21938987250E+04  0.21938987250E+04  0.50400001928E-02 0. -1.
        1   -1    0    0  501    0  0.00000000000E+00  0.00000000000E+00 -0.10259260321E+04  0.10259260322E+04  0.50400001928E-02 0.  1.
    10030    2    1    2    0    0  0.00000000000E+00  0.00000000000E+00  0.11679726929E+04  0.32198247572E+04  0.30005184978E+04 0.  0.
        2    1    3    3  502    0 -0.87217946121E+03  0.12194725032E+04  0.64244377815E+03  0.16311174718E+04  0.25500000920E-02 0. -1.
       -2    1    3    3    0  502  0.87217946121E+03 -0.12194725032E+04  0.52552891474E+03  0.15887072854E+04  0.25500000920E-02 0.  1.
</event>
<event>
 5   0  0.6679022E-08  0.3000773E+04  0.7818609E-02  0.8243510E-01
       -1   -1    0    0    0  501  0.00000000000E+00  0.00000000000E+00  0.18446857528E+04  0.18446857528E+04  0.50400001928E-02 0. -1.
        1   -1    0    0  501    0  0.00000000000E+00  0.00000000000E+00 -0.12203482481E+04  0.12203482481E+04  0.50400001928E-02 0.  1.
    10030    2    1    2    0    0  0.00000000000E+00  0.00000000000E+00  0.62433750475E+03  0.30650340009E+04  0.30007725850E+04 0.  0.
        3    1    3    3  502    0 -0.14236870915E+02 -0.55205281608E+03 -0.11127669879E+04  0.12422622026E+04  0.10100000352E+00 0.  1.
       -3    1    3    3    0  502  0.14236870915E+02  0.55205281608E+03  0.17371044927E+04  0.18227717984E+04  0.10100000352E+00 0. -1.
</event>
<event>
 5   0  0.6679022E-08  0.3001493E+04  0.7818609E-02  0.8243305E-01
       -1   -1    0    0    0  501  0.00000000000E+00  0.00000000000E+00  0.17382113205E+04  0.17382113205E+04  0.50400001928E-02 0.  1.
        1   -1    0    0  501    0  0.00000000000E+00  0.00000000000E+00 -0.12957231486E+04  0.12957231486E+04  0.50400001928E-02 0. -1.
    10030    2    1    2    0    0  0.00000000000E+00  0.00000000000E+00  0.44248817188E+03  0.30339344691E+04  0.30014933917E+04 0.  0.
        3    1    3    3  502    0  0.28304808295E+03  0.58869690403E+03  0.15869805490E+04  0.17161548693E+04  0.10100000352E+00 0.  1.
       -3    1    3    3    0  502 -0.28304808295E+03 -0.58869690403E+03 -0.11444923772E+04  0.13177795998E+04  0.10100000352E+00 0. -1.
</event>
<event>
 5   0  0.6464436E-08  0.2998941E+04  0.7818609E-02  0.8244033E-01
        1   -1    0    0  501    0  0.00000000000E+00  0.00000000000E+00  0.12739623822E+04  0.12739623822E+04  0.50400001928E-02 0.  1.
       -1   -1    0    0    0  501  0.00000000000E+00  0.00000000000E+00 -0.17648970638E+04  0.17648970638E+04  0.50400001928E-02 0. -1.
    10030    2    1    2    0    0  0.00000000000E+00  0.00000000000E+00 -0.49093468162E+03  0.30388594460E+04  0.29989414584E+04 0.  0.
        5    1    3    3  502    0  0.59222667204E+03  0.10988262648E+04  0.59639737020E+03  0.13834245568E+04  0.46999998093E+01 0.  1.
       -5    1    3    3    0  502 -0.59222667204E+03 -0.10988262648E+04 -0.10873320518E+04  0.16554348891E+04  0.46999998093E+01 0. -1.
</event>
<event>
 5   0  0.6636007E-08  0.3001972E+04  0.7818609E-02  0.8243168E-01
        1   -1    0    0  501    0  0.00000000000E+00  0.00000000000E+00  0.16885826239E+04  0.16885826239E+04  0.50400001928E-02 0. -1.
       -1   -1    0    0    0  501  0.00000000000E+00  0.00000000000E+00 -0.13342303817E+04  0.13342303817E+04  0.50400001928E-02 0.  1.
    10030    2    1    2    0    0  0.00000000000E+00  0.00000000000E+00  0.35435224220E+03  0.30228130057E+04  0.30019715115E+04 0.  0.
        2    1    3    3  502    0 -0.57607466688E+03 -0.13848960785E+04  0.12058031436E+03  0.15047720035E+04  0.25500000920E-02 0.  1.
       -2    1    3    3    0  502  0.57607466688E+03  0.13848960785E+04  0.23377192783E+03  0.15180410022E+04  0.25500000920E-02 0. -1.
</event>
<event>
 5   0  0.6636007E-08  0.2999739E+04  0.7818609E-02  0.8243805E-01
       -1   -1    0    0    0  501  0.00000000000E+00  0.00000000000E+00  0.88312299081E+03  0.88312299083E+03  0.50400001928E-02 0. -1.
        1   -1    0    0  501    0  0.00000000000E+00  0.00000000000E+00 -0.25473336425E+04  0.25473336425E+04  0.50400001928E-02 0.  1.
    10030    2    1    2    0    0  0.00000000000E+00  0.00000000000E+00 -0.16642106517E+04  0.34304566333E+04  0.29997392587E+04 0.  0.
        2    1    3    3  502    0 -0.95887302931E+03  0.98701249148E+02 -0.21461981170E+04  0.23527315572E+04  0.25500000920E-02 0.  1.
       -2    1    3    3    0  502  0.95887302931E+03 -0.98701249148E+02  0.48198746532E+03  0.10777250761E+04  0.25500000920E-02 0. -1.
</event>
<event>
 5   0  0.1914439E-07  0.2999919E+04  0.7818609E-02  0.8243754E-01
       -2   -1    0    0    0  501  0.00000000000E+00  0.00000000000E+00  0.12430936083E+04  0.12430936083E+04  0.25500000920E-02 0.  1.
        2   -1    0    0  501    0  0.00000000000E+00  0.00000000000E+00 -0.18099021596E+04  0.18099021596E+04  0.25500000920E-02 0. -1.
    10030    2    1    2    0    0  0.00000000000E+00  0.00000000000E+00 -0.56680855131E+03  0.30529957680E+04  0.29999185365E+04 0.  0.
        5    1    3    3  502    0 -0.70824504440E+03  0.20425264491E+03  0.10460491755E+04  0.12796761908E+04  0.46999998093E+01 0.  1.
       -5    1    3    3    0  502  0.70824504440E+03 -0.20425264491E+03 -0.16128577268E+04  0.17733195771E+04  0.46999998093E+01 0. -1.
</event>
<event>
 5   0  0.6679022E-08  0.3000613E+04  0.7818609E-02  0.8243556E-01
        1   -1    0    0  501    0  0.00000000000E+00  0.00000000000E+00  0.17295303318E+04  0.17295303319E+04  0.50400001928E-02 0.  1.
       -1   -1    0    0    0  501  0.00000000000E+00  0.00000000000E+00 -0.13014633271E+04  0.13014633271E+04  0.50400001928E-02 0. -1.
    10030    2    1    2    0    0  0.00000000000E+00  0.00000000000E+00  0.42806700476E+03  0.30309936590E+04  0.30006134706E+04 0.  0.
        3    1    3    3  502    0 -0.10916653891E+04 -0.10221356276E+04  0.33535669432E+03  0.15326312947E+04  0.10100000352E+00 0.  1.
       -3    1    3    3    0  502  0.10916653891E+04  0.10221356276E+04  0.92710310441E+02  0.14983623643E+04  0.10100000352E+00 0. -1.
</event>
<event>
 5   0  0.1914439E-07  0.2998476E+04  0.7818609E-02  0.8244166E-01
       -2   -1    0    0    0  501  0.00000000000E+00  0.00000000000E+00  0.11452892851E+04  0.11452892851E+04  0.25500000920E-02 0. -1.
        2   -1    0    0  501    0  0.00000000000E+00  0.00000000000E+00 -0.19625740639E+04  0.19625740639E+04  0.25500000920E-02 0.  1.
    10030    2    1    2    0    0  0.00000000000E+00  0.00000000000E+00 -0.81728477874E+03  0.31078633490E+04  0.29984763108E+04 0.  0.
        5    1    3    3  502    0 -0.64849897492E+03  0.86554930101E+03  0.66748556633E+03  0.12709388593E+04  0.46999998093E+01 0. -1.
       -5    1    3    3    0  502  0.64849897492E+03 -0.86554930101E+03 -0.14847703451E+04  0.18369244896E+04  0.46999998093E+01 0.  1.
</event>
<event>
 5   0  0.6679022E-08  0.2998922E+04  0.7818609E-02  0.8244039E-01
       -1   -1    0    0    0  501  0.00000000000E+00  0.00000000000E+00  0.15746309188E+04  0.15746309188E+04  0.50400001928E-02 0. -1.
        1   -1    0    0  501    0  0.00000000000E+00  0.00000000000E+00 -0.14278797588E+04  0.14278797589E+04  0.50400001928E-02 0.  1.
    10030    2    1    2    0    0  0.00000000000E+00  0.00000000000E+00  0.14675115994E+03  0.30025106777E+04  0.29989222175E+04 0.  0.
        3    1    3    3  502    0 -0.63371730167E+03 -0.13891828042E+02 -0.12871444874E+04  0.14347583570E+04  0.10100000352E+00 0.  1.
       -3    1    3    3    0  502  0.63371730167E+03  0.13891828042E+02  0.14338956473E+04  0.15677523207E+04  0.10100000352E+00 0. -1.
</event>
<event>
 5   0  0.1810055E-07  0.2999089E+04  0.7818609E-02  0.8243991E-01
       -2   -1    0    0    0  501  0.00000000000E+00  0.00000000000E+00  0.15423553433E+04  0.15423553433E+04  0.25500000920E-02 0.  1.
        2   -1    0    0  501    0  0.00000000000E+00  0.00000000000E+00 -0.14579219244E+04  0.14579219244E+04  0.25500000920E-02 0. -1.
    10030    2    1    2    0    0  0.00000000000E+00  0.00000000000E+00  0.84433418975E+02  0.30002772677E+04  0.29990889751E+04 0.  0.
        4    1    3    3  502    0 -0.83353748123E+03  0.12239608857E+04 -0.19402739217E+03  0.14934902826E+04  0.12699999809E+01 0. -1.
       -4    1    3    3    0  502  0.83353748123E+03 -0.12239608857E+04  0.27846081115E+03  0.15067869851E+04  0.12699999809E+01 0.  1.
</event>
<event>
 5   0  0.6525507E-08  0.3001450E+04  0.7818609E-02  0.8243317E-01
        1   -1    0    0  501    0  0.00000000000E+00  0.00000000000E+00  0.26369681111E+04  0.26369681111E+04  0.50400001928E-02 0. -1.
       -1   -1    0    0    0  501  0.00000000000E+00  0.00000000000E+00 -0.85407765345E+03  0.85407765347E+03  0.50400001928E-02 0.  1.
    10030    2    1    2    0    0  0.00000000000E+00  0.00000000000E+00  0.17828904577E+04  0.34910457646E+04  0.30014500073E+04 0.  0.
        4    1    3    3  502    0  0.21087368192E+03  0.23704883138E+03 -0.81462350049E+03  0.87422704067E+03  0.12699999809E+01 0.  1.
       -4    1    3    3    0  502 -0.21087368192E+03 -0.23704883138E+03  0.25975139582E+04  0.26168187239E+04  0.12699999809E+01 0. -1.
</event>
<event>
 5   0  0.1810055E-07  0.2999295E+04  0.7818609E-02  0.8243932E-01
       -2   -1    0    0    0  501  0.00000000000E+00  0.00000000000E+00  0.16097057177E+04  0.16097057177E+04  0.25500000920E-02 0. -1.
        2   -1    0    0  501    0  0.00000000000E+00  0.00000000000E+00 -0.13971138408E+04  0.13971138408E+04  0.25500000920E-02 0.  1.
    10030    2    1    2    0    0  0.00000000000E+00  0.00000000000E+00  0.21259187689E+03  0.30068195585E+04  0.29992946757E+04 0.  0.
        4    1    3    3  502    0  0.14942216451E+04  0.23245689495E+02  0.23191729540E+03  0.15122916159E+04  0.12699999809E+01 0. -1.
       -4    1    3    3    0  502 -0.14942216451E+04 -0.23245689495E+02 -0.19325418506E+02  0.14945279427E+04  0.12699999809E+01 0.  1.
</event>
<event>
 5   0  0.1821305E-07  0.2999629E+04  0.7818609E-02  0.8243837E-01
       -2   -1    0    0    0  501  0.00000000000E+00  0.00000000000E+00  0.90969792428E+03  0.90969792428E+03  0.25500000920E-02 0.  1.
        2   -1    0    0  501    0  0.00000000000E+00  0.00000000000E+00 -0.24727368337E+04  0.24727368337E+04  0.25500000920E-02 0. -1.
    10030    2    1    2    0    0  0.00000000000E+00  0.00000000000E+00 -0.15630389094E+04  0.33824347579E+04  0.29996290203E+04 0.  0.
        2    1    3    3  502    0  0.31685851782E+03 -0.13016972740E+04 -0.15418285529E+04  0.20425597665E+04  0.25500000920E-02 0.  1.
       -2    1    3    3    0  502 -0.31685851782E+03  0.13016972740E+04 -0.21210356519E+02  0.13398749914E+04  0.25500000920E-02 0. -1.
</event>
<event>
 5   0  0.6374748E-08  0.3001759E+04  0.7818609E-02  0.8243229E-01
        1   -1    0    0  501    0  0.00000000000E+00  0.00000000000E+00  0.28605522417E+04  0.28605522417E+04  0.50400001928E-02 0.  1.
       -1   -1    0    0    0  501  0.00000000000E+00  0.00000000000E+00 -0.78748408035E+03  0.78748408037E+03  0.50400001928E-02 0. -1.
    10030    2    1    2    0    0  0.00000000000E+00  0.00000000000E+00  0.20730681614E+04  0.36480363221E+04  0.30017590519E+04 0.  0.
        1    1    3    3  502    0  0.10436095848E+04  0.11607456652E+03  0.23398231631E+04  0.25646377337E+04  0.50400001928E-02 0.  1.
       -1    1    3    3    0  502 -0.10436095848E+04 -0.11607456652E+03 -0.26675500170E+03  0.10833985884E+04  0.50400001928E-02 0. -1.
</event>
<event>
 5   0  0.6017625E-08  0.2998035E+04  0.7818609E-02  0.8244292E-01
        3   -1    0    0  501    0  0.00000000000E+00  0.00000000000E+00  0.18072242577E+04  0.18072242605E+04  0.10100000352E+00 0. -1.
       -3   -1    0    0    0  501  0.00000000000E+00  0.00000000000E+00 -0.12433724593E+04  0.12433724634E+04  0.10100000352E+00 0.  1.
    10030    2    1    2    0    0  0.00000000000E+00  0.00000000000E+00  0.56385179841E+03  0.30505967239E+04  0.29980346098E+04 0.  0.
        1    1    3    3  502    0 -0.65488609259E+03  0.91887571317E+03  0.12860628933E+04  0.17108962961E+04  0.50400001928E-02 0. -1.
       -1    1    3    3    0  502  0.65488609259E+03 -0.91887571317E+03 -0.72221109493E+03  0.13397004278E+04  0.50400001928E-02 0.  1.
</event>
<event>
 5   0  0.6374748E-08  0.3000252E+04  0.7818609E-02  0.8243659E-01
       -1   -1    0    0    0  501  0.00000000000E+00  0.00000000000E+00  0.12538712469E+04  0.12538712469E+04  0.50400001928E-02 0. -1.
        1   -1    0    0  501    0  0.00000000000E+00  0.00000000000E+00 -0.17947436669E+04  0.17947436670E+04  0.50400001928E-02 0.  1.
    10030    2    1    2    0    0  0.00000000000E+00  0.00000000000E+00 -0.54087242008E+03  0.30486149138E+04  0.30002516424E+04 0.  0.
        1    1    3    3  502    0  0.79069090956E+03 -0.12737877284E+04 -0.21812638994E+03  0.15150268689E+04  0.50400001928E-02 0. -1.
       -1    1    3    3    0  502 -0.79069090956E+03  0.12737877284E+04 -0.32274603014E+03  0.15335880449E+04  0.50400001928E-02 0.  1.
</event>
<event>
 5   0  0.1914439E-07  0.3007452E+04  0.7818609E-02  0.8241606E-01
       -2   -1    0    0    0  501  0.00000000000E+00  0.00000000000E+00  0.16230332371E+04  0.16230332371E+04  0.25500000920E-02 0.  1.
        2   -1    0    0  501    0  0.00000000000E+00  0.00000000000E+00 -0.13931886470E+04  0.13931886470E+04  0.25500000920E-02 0. -1.
    10030    2    1    2    0    0  0.00000000000E+00  0.00000000000E+00  0.22984459003E+03  0.30162218841E+04  0.30074517317E+04 0.  0.
        5    1    3    3  502    0  0.63321187527E+03  0.13500459724E+04 -0.79519280699E+02  0.14932939472E+04  0.46999998093E+01 0.  1.
       -5    1    3    3    0  502 -0.63321187527E+03 -0.13500459724E+04  0.30936387073E+03  0.15229279370E+04  0.46999998093E+01 0. -1.
</event>
<event>
 5   0  0.1813720E-07  0.2999804E+04  0.7818609E-02  0.8243787E-01
        2   -1    0    0  501    0  0.00000000000E+00  0.00000000000E+00  0.16577913305E+04  0.16577913305E+04  0.25500000920E-02 0. -1.
       -2   -1    0    0    0  501  0.00000000000E+00  0.00000000000E+00 -0.13570498909E+04  0.13570498909E+04  0.25500000920E-02 0.  1.
    10030    2    1    2    0    0  0.00000000000E+00  0.00000000000E+00  0.30074143960E+03  0.30148412213E+04  0.29998036896E+04 0.  0.
        3    1    3    3  502    0 -0.14891202521E+04 -0.13229767253E+03  0.28421057892E+02  0.14952556858E+04  0.10100000352E+00 0. -1.
       -3    1    3    3    0  502  0.14891202521E+04  0.13229767253E+03  0.27232038171E+03  0.15195855355E+04  0.10100000352E+00 0.  1.
</event>
<event>
 5   0  0.1813720E-07  0.3000079E+04  0.7818609E-02  0.8243708E-01
       -2   -1    0    0    0  501  0.00000000000E+00  0.00000000000E+00  0.10169050652E+04  0.10169050652E+04  0.25500000920E-02 0. -1.
        2   -1    0    0  501    0  0.00000000000E+00  0.00000000000E+00 -0.22127117678E+04  0.22127117678E+04  0.25500000920E-02 0.  1.
    10030    2    1    2    0    0  0.00000000000E+00  0.00000000000E+00 -0.11958067026E+04  0.32296168330E+04  0.30000785353E+04 0.  0.
        3    1    3    3  502    0  0.41066089784E+03  0.74642163152E+03  0.73119738584E+03  0.11226919668E+04  0.10100000352E+00 0. -1.
       -3    1    3    3    0  502 -0.41066089784E+03 -0.74642163152E+03 -0.19270040884E+04  0.21069248662E+04  0.10100000352E+00 0.  1.
</event>
<event>
 5   0  0.6636007E-08  0.3000050E+04  0.7818609E-02  0.8243717E-01
       -1   -1    0    0    0  501  0.00000000000E+00  0.00000000000E+00  0.10646349923E+04  0.10646349923E+04  0.50400001928E-02 0.  1.
        1   -1    0    0  501    0  0.00000000000E+00  0.00000000000E+00 -0.21134703949E+04  0.21134703949E+04  0.50400001928E-02 0. -1.
    10030    2    1    2    0    0  0.00000000000E+00  0.00000000000E+00 -0.10488354026E+04  0.31781053872E+04  0.30000496913E+04 0.  0.
        2    1    3    3  502    0  0.13599742957E+02  0.14868243002E+04 -0.31456168903E+03  0.15197962064E+04  0.25500000920E-02 0.  1.
       -2    1    3    3    0  502 -0.13599742957E+02 -0.14868243002E+04 -0.73427371360E+03  0.16583091808E+04  0.25500000920E-02 0. -1.
</event>
<event>
 5   0  0.1810055E-07  0.2997677E+04  0.7818609E-02  0.8244394E-01
        2   -1    0    0  501    0  0.00000000000E+00  0.00000000000E+00  0.17971147978E+04  0.17971147978E+04  0.25500000920E-02 0. -1.
       -2   -1    0    0    0  501  0.00000000000E+00  0.00000000000E+00 -0.12500690079E+04  0.12500690079E+04  0.25500000920E-02 0.  1.
    10030    2    1    2    0    0  0.00000000000E+00  0.00000000000E+00  0.54704578988E+03  0.30471838057E+04  0.29976774425E+04 0.  0.
        4    1    3    3  502    0 -0.14513231969E+03  0.46570241100E+03 -0.11671243253E+04  0.12649596552E+04  0.12699999809E+01 0.  1.
       -4    1    3    3    0  502  0.14513231969E+03 -0.46570241100E+03  0.17141701151E+04  0.17822241504E+04  0.12699999809E+01 0. -1.
</event>
<event>
 5   0  0.6374748E-08  0.2998336E+04  0.7818609E-02  0.8244206E-01
        1   -1    0    0  501    0  0.00000000000E+00  0.00000000000E+00  0.25042207559E+04  0.25042207559E+04  0.50400001928E-02 0.  1.
       -1   -1    0    0    0  501  0.00000000000E+00  0.00000000000E+00 -0.89748685175E+03  0.89748685176E+03  0.50400001928E-02 0. -1.
    10030    2    1    2    0    0  0.00000000000E+00  0.00000000000E+00  0.16067339041E+04  0.34017076076E+04  0.29983363402E+04 0.  0.
        1    1    3    3  502    0  0.10246213729E+04  0.52726309927E+03 -0.28463052764E+03  0.11869582432E+04  0.50400001928E-02 0. -1.
       -1    1    3    3    0  502 -0.10246213729E+04 -0.52726309927E+03  0.18913644317E+04  0.22147493645E+04  0.50400001928E-02 0.  1.
</event>
<event>
 5   0  0.1813720E-07  0.2999203E+04  0.7818609E-02  0.8243959E-01
        2   -1    0    0  501    0  0.00000000000E+00  0.00000000000E+00  0.11632917239E+04  0.11632917239E+04  0.25500000920E-02 0.  1.
       -2   -1    0    0    0  501  0.00000000000E+00  0.00000000000E+00 -0.19331390204E+04  0.19331390204E+04  0.25500000920E-02 0. -1.
    10030    2    1    2    0    0  0.00000000000E+00  0.00000000000E+00 -0.76984729644E+03  0.30964307443E+04  0.29992029766E+04 0.  0.
        3    1    3    3  502    0  0.53985072365E+03 -0.32464139929E+03 -0.17899126620E+04  0.18975294964E+04  0.10100000352E+00 0. -1.
       -3    1    3    3    0  502 -0.53985072365E+03  0.32464139929E+03  0.10200653656E+04  0.11989012479E+04  0.10100000352E+00 0.  1.
</event>
<event>
 5   0  0.6374748E-08  0.3001414E+04  0.7818609E-02  0.8243327E-01
       -1   -1    0    0    0  501  0.00000000000E+00  0.00000000000E+00  0.17461509950E+04  0.17461509950E+04  0.50400001928E-02 0. -1.
        1   -1    0    0  501    0  0.00000000000E+00  0.00000000000E+00 -0.12897634214E+04  0.12897634214E+04  0.50400001928E-02 0.  1.
    10030    2    1    2    0    0  0.00000000000E+00  0.00000000000E+00  0.45638757358E+03  0.30359144165E+04  0.30014141212E+04 0.  0.
        1    1    3    3  502    0  0.93018357847E+03 -0.12957779952E+03 -0.95576917731E+03  0.13399726177E+04  0.50400001928E-02 0.  1.
       -1    1    3    3    0  502 -0.93018357847E+03  0.12957779952E+03  0.14121567509E+04  0.16959417988E+04  0.50400001928E-02 0. -1.
</event>
<event>
 5   0  0.1914439E-07  0.3000805E+04  0.7818609E-02  0.8243501E-01
       -2   -1    0    0    0  501  0.00000000000E+00  0.00000000000E+00  0.11725858400E+04  0.11725858400E+04  0.25500000920E-02 0. -1.
        2   -1    0    0  501    0  0.00000000000E+00  0.00000000000E+00 -0.19198661401E+04  0.19198661401E+04  0.25500000920E-02 0.  1.
    10030    2    1    2    0    0  0.00000000000E+00  0.00000000000E+00 -0.74728030014E+03  0.30924519801E+04  0.30008051256E+04 0.  0.
        5    1    3    3  502    0 -0.85705541852E+03  0.57582464207E+03  0.74821493728E+03  0.12751335974E+04  0.46999998093E+01 0. -1.
       -5    1    3    3    0  502  0.85705541852E+03 -0.57582464207E+03 -0.14954952374E+04  0.18173183827E+04  0.46999998093E+01 0.  1.
</event>
<event>
 5   0  0.6017625E-08  0.3000232E+04  0.7818609E-02  0.8243665E-01
        3   -1    0    0  501    0  0.00000000000E+00  0.00000000000E+00  0.87835702503E+03  0.87835703084E+03  0.10100000352E+00 0.  1.
       -3   -1    0    0    0  501  0.00000000000E+00  0.00000000000E+00 -0.25619971136E+04  0.25619971156E+04  0.10100000352E+00 0. -1.
    10030    2    1    2    0    0  0.00000000000E+00  0.00000000000E+00 -0.16836400885E+04  0.34403541464E+04  0.30002321085E+04 0.  0.
        5    1    3    3  502    0  0.14817596138E+04 -0.18077528940E+03 -0.10120371211E+04  0.18034778853E+04  0.46999998093E+01 0. -1.
       -5    1    3    3    0  502 -0.14817596138E+04  0.18077528940E+03 -0.67160296741E+03  0.16368762611E+04  0.46999998093E+01 0.  1.
</event>
<event>
 5   0  0.6525507E-08  0.2999715E+04  0.7818609E-02  0.8243812E-01
        1   -1    0    0  501    0  0.00000000000E+00  0.00000000000E+00  0.14934921020E+04  0.14934921020E+04  0.50400001928E-02 0. -1.
       -1   -1    0    0    0  501  0.00000000000E+00  0.00000000000E+00 -0.15062503055E+04  0.15062503056E+04  0.50400001928E-02 0.  1.
    10030    2    1    2    0    0  0.00000000000E+00  0.00000000000E+00 -0.12758203593E+02  0.29997424075E+04  0.29997152764E+04 0.  0.
        4    1    3    3  502    0  0.40787312723E+03 -0.44282137845E+03 -0.13801164120E+04  0.15057138455E+04  0.12699999809E+01 0.  1.
       -4    1    3    3    0  502 -0.40787312723E+03  0.44282137845E+03  0.13673582084E+04  0.14940285620E+04  0.12699999809E+01 0. -1.
</event>
<event>
 5   0  0.1821305E-07  0.3000994E+04  0.7818609E-02  0.8243447E-01
        2   -1    0    0  501    0  0.00000000000E+00  0.00000000000E+00  0.15549990172E+04  0.15549990172E+04  0.25500000920E-02 0.  1.
       -2   -1    0    0    0  501  0.00000000000E+00  0.00000000000E+00 -0.14479055563E+04  0.14479055563E+04  0.25500000920E-02 0. -1.
    10030    2    1    2    0    0  0.00000000000E+00  0.00000000000E+00  0.10709346088E+03  0.30029045734E+04  0.30009943132E+04 0.  0.
        2    1    3    3  502    0 -0.59906862269E+03 -0.49013590189E+03 -0.12327190211E+04  0.14555798164E+04  0.25500000920E-02 0. -1.
       -2    1    3    3    0  502  0.59906862269E+03  0.49013590189E+03  0.13398124819E+04  0.15473247570E+04  0.25500000920E-02 0.  1.
</event>
<event>
 5   0  0.1813720E-07  0.3000754E+04  0.7818609E-02  0.8243516E-01
        2   -1    0    0  501    0  0.00000000000E+00  0.00000000000E+00  0.24691679003E+04  0.24691679003E+04  0.25500000920E-02 0. -1.
       -2   -1    0    0    0  501  0.00000000000E+00  0.00000000000E+00 -0.91169613764E+03  0.91169613764E+03  0.25500000920E-02 0.  1.
    10030    2    1    2    0    0  0.00000000000E+00  0.00000000000E+00  0.15574717626E+04  0.33808640379E+04  0.30007537972E+04 0.  0.
        3    1    3    3  502    0 -0.12495445951E+04  0.68777907294E+03  0.25422327021E+03  0.14488033785E+04  0.10100000352E+00 0.  1.
       -3    1    3    3    0  502  0.12495445951E+04 -0.68777907294E+03  0.13032484924E+04  0.19320606594E+04  0.10100000352E+00 0. -1.
</event>
<event>
 5   0  0.6464436E-08  0.3003957E+04  0.7818609E-02  0.8242602E-01
        1   -1    0    0  501    0  0.00000000000E+00  0.00000000000E+00  0.13045360979E+04  0.13045360979E+04  0.50400001928E-02 0.  1.
       -1   -1    0    0    0  501  0.00000000000E+00  0.00000000000E+00 -0.17293034888E+04  0.17293034889E+04  0.50400001928E-02 0. -1.
    10030    2    1    2    0    0  0.00000000000E+00  0.00000000000E+00 -0.42476739096E+03  0.30338395867E+04  0.30039566078E+04 0.  0.
        5    1    3    3  502    0  0.23486686558E+03 -0.13036150689E+04  0.50271505981E+03  0.14167989320E+04  0.46999998093E+01 0.  1.
       -5    1    3    3    0  502 -0.23486686558E+03  0.13036150689E+04 -0.92748245078E+03  0.16170406547E+04  0.46999998093E+01 0. -1.
</event>
<event>
 5   0  0.6017625E-08  0.3002891E+04  0.7818609E-02  0.8242906E-01
       -4   -1    0    0    0  501  0.00000000000E+00  0.00000000000E+00  0.14866393686E+04  0.14866399110E+04  0.12699999809E+01 0. -1.
        4   -1    0    0  501    0  0.00000000000E+00  0.00000000000E+00 -0.15163980874E+04  0.15163986192E+04  0.12699999809E+01 0.  1.
    10030    2    1    2    0    0  0.00000000000E+00  0.00000000000E+00 -0.29758718804E+02  0.30030385303E+04  0.30028910791E+04 0.  0.
        5    1    3    3  502    0  0.26694651163E+03 -0.43527038127E+03 -0.14268962366E+04  0.15155116974E+04  0.46999998093E+01 0.  1.
       -5    1    3    3    0  502 -0.26694651163E+03  0.43527038127E+03  0.13971375178E+04  0.14875268329E+04  0.46999998093E+01 0. -1.
</event>
<event>
 5   0  0.1810055E-07  0.2999852E+04  0.7818609E-02  0.8243773E-01
       -2   -1    0    0    0  501  0.00000000000E+00  0.00000000000E+00  0.10963080026E+04  0.10963080026E+04  0.25500000920E-02 0. -1.
        2   -1    0    0  501    0  0.00000000000E+00  0.00000000000E+00 -0.20521403936E+04  0.20521403936E+04  0.25500000920E-02 0.  1.
    10030    2    1    2    0    0  0.00000000000E+00  0.00000000000E+00 -0.95583239100E+03  0.31484483963E+04  0.29998519538E+04 0.  0.
        4    1    3    3  502    0 -0.89587120338E+03 -0.12007825817E+04 -0.40142030195E+03  0.15510009327E+04  0.12699999809E+01 0. -1.
       -4    1    3    3    0  502  0.89587120338E+03  0.12007825817E+04 -0.55441208905E+03  0.15974474636E+04  0.12699999809E+01 0.  1.
</event>
<event>
 5   0  0.1821305E-07  0.3001485E+04  0.7818609E-02  0.8243307E-01
       -2   -1    0    0    0  501  0.00000000000E+00  0.00000000000E+00  0.17447067783E+04  0.17447067783E+04  0.25500000920E-02 0.  1.
        2   -1    0    0  501    0  0.00000000000E+00  0.00000000000E+00 -0.12908916847E+04  0.12908916847E+04  0.25500000920E-02 0. -1.
    10030    2    1    2    0    0  0.00000000000E+00  0.00000000000E+00  0.45381509359E+03  0.30355984631E+04  0.30014846143E+04 0.  0.
        2    1    3    3  502    0  0.11219076550E+03 -0.45813491324E+03 -0.12139790784E+04  0.13023899452E+04  0.25500000920E-02 0. -1.
       -2    1    3    3    0  502 -0.11219076550E+03  0.45813491324E+03  0.16677941719E+04  0.17332085179E+04  0.25500000920E-02 0.  1.
</event>
<event>
 5   0  0.6636007E-08  0.3000229E+04  0.7818609E-02  0.8243665E-01
        1   -1    0    0  501    0  0.00000000000E+00  0.00000000000E+00  0.19335074447E+04  0.19335074447E+04  0.50400001928E-02 0.  1.
       -1   -1    0    0    0  501  0.00000000000E+00  0.00000000000E+00 -0.11638662514E+04  0.11638662514E+04  0.50400001928E-02 0. -1.
    10030    2    1    2    0    0  0.00000000000E+00  0.00000000000E+00  0.76964119332E+03  0.30973736961E+04  0.30002293657E+04 0.  0.
        2    1    3    3  502    0 -0.74064439946E+03 -0.86590313910E+03  0.13921186804E+04  0.17989821548E+04  0.25500000920E-02 0.  1.
       -2    1    3    3    0  502  0.74064439946E+03  0.86590313910E+03 -0.62247748710E+03  0.12983915414E+04  0.25500000920E-02 0. -1.
</event>
<event>
 5   0  0.1821305E-07  0.2987471E+04  0.7818609E-02  0.8247318E-01
        2   -1    0    0  501    0  0.00000000000E+00  0.00000000000E+00  0.12344919870E+04  0.12344919870E+04  0.25500000920E-02 0. -1.
       -2   -1    0    0    0  501  0.00000000000E+00  0.00000000000E+00 -0.18074197981E+04  0.18074197981E+04  0.25500000920E-02 0.  1.
    10030    2    1    2    0    0  0.00000000000E+00  0.00000000000E+00 -0.57292781107E+03  0.30419117851E+04  0.29874706746E+04 0.  0.
        2    1    3    3  502    0  0.13305664541E+04  0.67503330581E+03 -0.35966420067E+03  0.15347427765E+04  0.25500000920E-02 0.  1.
       -2    1    3    3    0  502 -0.13305664541E+04 -0.67503330581E+03 -0.21326361040E+03  0.15071690086E+04  0.25500000920E-02 0. -1.
</event>
<event>
 5   0  0.1914439E-07  0.2999745E+04  0.7818609E-02  0.8243804E-01
        2   -1    0    0  501    0  0.00000000000E+00  0.00000000000E+00  0.75810212902E+03  0.75810212902E+03  0.25500000920E-02 0. -1.
       -2   -1    0    0    0  501  0.00000000000E+00  0.00000000000E+00 -0.29674336043E+04  0.29674336043E+04  0.25500000920E-02 0.  1.
    10030    2    1    2    0    0  0.00000000000E+00  0.00000000000E+00 -0.22093314752E+04  0.37255357333E+04  0.29997451446E+04 0.  0.
        5    1    3    3  502    0 -0.64350236856E+03 -0.97296871020E+03 -0.22755508181E+04  0.25571306234E+04  0.46999998093E+01 0.  1.
       -5    1    3    3    0  502  0.64350236856E+03  0.97296871020E+03  0.66219342891E+02  0.11684051099E+04  0.46999998093E+01 0. -1.
</event>
<event>
 5   0  0.1810055E-07  0.2998074E+04  0.7818609E-02  0.8244281E-01
        2   -1    0    0  501    0  0.00000000000E+00  0.00000000000E+00  0.18079261537E+04  0.18079261537E+04  0.25500000920E-02 0.  1.
       -2   -1    0    0    0  501  0.00000000000E+00  0.00000000000E+00 -0.12429226395E+04  0.12429226395E+04  0.25500000920E-02 0. -1.
    10030    2    1    2    0    0  0.00000000000E+00  0.00000000000E+00  0.56500351426E+03  0.30508487932E+04  0.29980742799E+04 0.  0.
        4    1    3    3  502    0  0.53202735474E+03 -0.98543003057E+03  0.12965291818E+04  0.17132177280E+04  0.12699999809E+01 0.  1.
       -4    1    3    3    0  502 -0.53202735474E+03  0.98543003057E+03 -0.73152566757E+03  0.13376310652E+04  0.12699999809E+01 0. -1.
</event>
<event>
 5   0  0.1821305E-07  0.3002376E+04  0.7818609E-02  0.8243053E-01
       -2   -1    0    0    0  501  0.00000000000E+00  0.00000000000E+00  0.13326701830E+04  0.13326701830E+04  0.25500000920E-02 0.  1.
        2   -1    0    0  501    0  0.00000000000E+00  0.00000000000E+00 -0.16910148076E+04  0.16910148076E+04  0.25500000920E-02 0. -1.
    10030    2    1    2    0    0  0.00000000000E+00  0.00000000000E+00 -0.35834462460E+03  0.30236849905E+04  0.30023757346E+04 0.  0.
        2    1    3    3  502    0  0.80800897644E+03 -0.20892397642E+03  0.10774969949E+04  0.13629114087E+04  0.25500000920E-02 0.  1.
       -2    1    3    3    0  502 -0.80800897644E+03  0.20892397642E+03 -0.14358416195E+04  0.16607735818E+04  0.25500000920E-02 0. -1.
</event>
<event>
 5   0  0.1914439E-07  0.2999582E+04  0.7818609E-02  0.8243850E-01
        2   -1    0    0  501    0  0.00000000000E+00  0.00000000000E+00  0.17021922519E+04  0.17021922519E+04  0.25500000920E-02 0.  1.
       -2   -1    0    0    0  501  0.00000000000E+00  0.00000000000E+00 -0.13214564409E+04  0.13214564409E+04  0.25500000920E-02 0. -1.
    10030    2    1    2    0    0  0.00000000000E+00  0.00000000000E+00  0.38073581100E+03  0.30236486928E+04  0.29995819141E+04 0.  0.
        5    1    3    3  502    0  0.13119790255E+04 -0.63044587725E+03 -0.17391765372E+03  0.14659537536E+04  0.46999998093E+01 0.  1.
       -5    1    3    3    0  502 -0.13119790255E+04  0.63044587725E+03  0.55465346473E+03  0.15576949391E+04  0.46999998093E+01 0. -1.
</event>
<event>
 5   0  0.6374748E-08  0.2997949E+04  0.7818609E-02  0.8244317E-01
       -1   -1    0    0    0  501  0.00000000000E+00  0.00000000000E+00  0.16461590279E+04  0.16461590280E+04  0.50400001928E-02 0.  1.
        1   -1    0    0  501    0  0.00000000000E+00  0.00000000000E+00 -0.13649501040E+04  0.13649501040E+04  0.50400001928E-02 0. -1.
    10030    2    1    2    0    0  0.00000000000E+00  0.00000000000E+00  0.28120892395E+03  0.30111091320E+04  0.29979492567E+04 0.  0.
        1    1    3    3  502    0 -0.51678500822E+03  0.49497412274E+02 -0.12717717146E+04  0.13736520784E+04  0.50400001928E-02 0. -1.
       -1    1    3    3    0  502  0.51678500822E+03 -0.49497412274E+02  0.15529806385E+04  0.16374570535E+04  0.50400001928E-02 0.  1.
</event>
<event>
 5   0  0.1813720E-07  0.2999288E+04  0.7818609E-02  0.8243934E-01
       -2   -1    0    0    0  501  0.00000000000E+00  0.00000000000E+00  0.14005596880E+04  0.14005596880E+04  0.25500000920E-02 0.  1.
        2   -1    0    0  501    0  0.00000000000E+00  0.00000000000E+00 -0.16057376856E+04  0.16057376856E+04  0.25500000920E-02 0. -1.
    10030    2    1    2    0    0  0.00000000000E+00  0.00000000000E+00 -0.20517799760E+03  0.30062973736E+04  0.29992875634E+04 0.  0.
        3    1    3    3  502    0 -0.96854243580E+02  0.10789957984E+04 -0.11419883632E+04  0.15740870717E+04  0.10100000352E+00 0. -1.
       -3    1    3    3    0  502  0.96854243580E+02 -0.10789957984E+04  0.93681036565E+03  0.14322103019E+04  0.10100000352E+00 0.  1.
</event>
<event>
 5   0  0.6374748E-08  0.3000384E+04  0.7818609E-02  0.8243621E-01
       -1   -1    0    0    0  501  0.00000000000E+00  0.00000000000E+00  0.18506396539E+04  0.18506396539E+04  0.50400001928E-02 0. -1.
        1   -1    0    0  501    0  0.00000000000E+00  0.00000000000E+00 -0.12161072970E+04  0.12161072970E+04  0.50400001928E-02 0.  1.
    10030    2    1    2    0    0  0.00000000000E+00  0.00000000000E+00  0.63453235690E+03  0.30667469508E+04  0.30003842335E+04 0.  0.
        1    1    3    3  502    0  0.11809098157E+04 -0.54542273395E+03  0.10811532409E+04  0.16914272914E+04  0.50400001928E-02 0. -1.
       -1    1    3    3    0  502 -0.11809098157E+04  0.54542273395E+03 -0.44662088404E+03  0.13753196595E+04  0.50400001928E-02 0.  1.
</event>
<event>
 5   0  0.1821305E-07  0.3001100E+04  0.7818609E-02  0.8243417E-01
        2   -1    0    0  501    0  0.00000000000E+00  0.00000000000E+00  0.25839678298E+04  0.25839678298E+04  0.25500000920E-02 0.  1.
       -2   -1    0    0    0  501  0.00000000000E+00  0.00000000000E+00 -0.87139231301E+03  0.87139231301E+03  0.25500000920E-02 0. -1.
    10030    2    1    2    0    0  0.00000000000E+00  0.00000000000E+00  0.17125755168E+04  0.34553601428E+04  0.30010996011E+04 0.  0.
        2    1    3    3  502    0 -0.10471240406E+04  0.98514795127E+03  0.13510591413E+04  0.19729029488E+04  0.25500000920E-02 0.  1.
       -2    1    3    3    0  502  0.10471240406E+04 -0.98514795127E+03  0.36151637554E+03  0.14824571940E+04  0.25500000920E-02 0. -1.
</event>
<event>
 5   0  0.1914439E-07  0.3000920E+04  0.7818609E-02  0.8243468E-01
       -2   -1    0    0    0  501  0.00000000000E+00  0.00000000000E+00  0.93574806531E+03  0.93574806531E+03  0.25500000920E-02 0. -1.
        2   -1    0    0  501    0  0.00000000000E+00  0.00000000000E+00 -0.24059687686E+04  0.24059687686E+04  0.25500000920E-02 0.  1.
    10030    2    1    2    0    0  0.00000000000E+00  0.00000000000E+00 -0.14702207033E+04  0.33417168339E+04  0.30009202724E+04 0.  0.
        5    1    3    3  502    0 -0.68812289416E+02 -0.84053160072E+01  0.93395560579E+03  0.93653667525E+03  0.46999998093E+01 0. -1.
       -5    1    3    3    0  502  0.68812289416E+02  0.84053160072E+01 -0.24041763090E+04  0.24051801586E+04  0.46999998093E+01 0.  1.
</event>
<event>
 5   0  0.6679022E-08  0.3000403E+04  0.7818609E-02  0.8243616E-01
        1   -1    0    0  501    0  0.00000000000E+00  0.00000000000E+00  0.13449061121E+04  0.13449061121E+04  0.50400001928E-02 0.  1.
       -1   -1    0    0    0  501  0.00000000000E+00  0.00000000000E+00 -0.16734284045E+04  0.16734284045E+04  0.50400001928E-02 0. -1.
    10030    2    1    2    0    0  0.00000000000E+00  0.00000000000E+00 -0.32852229244E+03  0.30183345166E+04  0.30004026992E+04 0.  0.
        3    1    3    3  502    0 -0.80090083749E+03  0.14798456479E+03 -0.14316567611E+04  0.16471134371E+04  0.10100000352E+00 0. -1.
       -3    1    3    3    0  502  0.80090083749E+03 -0.14798456479E+03  0.11031344686E+04  0.13712210795E+04  0.10100000352E+00 0.  1.
</event>
<event>
 5   0  0.6374748E-08  0.3001116E+04  0.7818609E-02  0.8243412E-01
        1   -1    0    0  501    0  0.00000000000E+00  0.00000000000E+00  0.18578683663E+04  0.18578683663E+04  0.50400001928E-02 0. -1.
       -1   -1    0    0    0  501  0.00000000000E+00  0.00000000000E+00 -0.12119666216E+04  0.12119666217E+04  0.50400001928E-02 0.  1.
    10030    2    1    2    0    0  0.00000000000E+00  0.00000000000E+00  0.64590174469E+03  0.30698349880E+04  0.30011160907E+04 0.  0.
        1    1    3    3  502    0  0.84759195293E+03 -0.87296220974E+03  0.12212387773E+04  0.17239197457E+04  0.50400001928E-02 0. -1.
       -1    1    3    3    0  502 -0.84759195293E+03  0.87296220974E+03 -0.57533703265E+03  0.13459152423E+04  0.50400001928E-02 0.  1.
</event>
<event>
 5   0  0.6464436E-08  0.3000072E+04  0.7818609E-02  0.8243710E-01
       -1   -1    0    0    0  501  0.00000000000E+00  0.00000000000E+00  0.10789296008E+04  0.10789296008E+04  0.50400001928E-02 0. -1.
        1   -1    0    0  501    0  0.00000000000E+00  0.00000000000E+00 -0.20854998263E+04  0.20854998263E+04  0.50400001928E-02 0.  1.
    10030    2    1    2    0    0  0.00000000000E+00  0.00000000000E+00 -0.10065702255E+04  0.31644294271E+04  0.30000716625E+04 0.  0.
        5    1    3    3  502    0 -0.10288301517E+04 -0.22558400875E+03 -0.16298354621E+04  0.19405579996E+04  0.46999998093E+01 0.  1.
       -5    1    3    3    0  502  0.10288301517E+04  0.22558400875E+03  0.62326523660E+03  0.12238714275E+04  0.46999998093E+01 0. -1.
</event>
<event>
 5   0  0.6017625E-08  0.2996822E+04  0.7818609E-02  0.8244639E-01
        3   -1    0    0  501    0  0.00000000000E+00  0.00000000000E+00  0.19688556130E+04  0.19688556156E+04  0.10100000352E+00 0.  1.
       -3   -1    0    0    0  501  0.00000000000E+00  0.00000000000E+00 -0.11403755333E+04  0.11403755378E+04  0.10100000352E+00 0. -1.
    10030    2    1    2    0    0  0.00000000000E+00  0.00000000000E+00  0.82848007972E+03  0.31092311534E+04  0.29968215033E+04 0.  0.
        5    1    3    3  502    0  0.35128240197E+03 -0.91646061685E+03  0.15889251434E+04  0.18676200335E+04  0.46999998093E+01 0.  1.
       -5    1    3    3    0  502 -0.35128240197E+03  0.91646061685E+03 -0.76044506368E+03  0.12416111199E+04  0.46999998093E+01 0. -1.
</event>
<event>
 5   0  0.6017625E-08  0.2997624E+04  0.7818609E-02  0.8244410E-01
        3   -1    0    0  501    0  0.00000000000E+00  0.00000000000E+00  0.17558380803E+04  0.17558380832E+04  0.10100000352E+00 0.  1.
       -3   -1    0    0    0  501  0.00000000000E+00  0.00000000000E+00 -0.12794104019E+04  0.12794104059E+04  0.10100000352E+00 0. -1.
    10030    2    1    2    0    0  0.00000000000E+00  0.00000000000E+00  0.47642767838E+03  0.30352484891E+04  0.29976240688E+04 0.  0.
        4    1    3    3  502    0  0.55128956939E+03  0.93985563256E+03  0.12802995150E+04  0.16811951881E+04  0.12699999809E+01 0.  1.
       -4    1    3    3    0  502 -0.55128956939E+03 -0.93985563256E+03 -0.80387183664E+03  0.13540533010E+04  0.12699999809E+01 0. -1.
</event>
<event>
 5   0  0.6679022E-08  0.2997826E+04  0.7818609E-02  0.8244352E-01
       -1   -1    0    0    0  501  0.00000000000E+00  0.00000000000E+00  0.19989758109E+04  0.19989758109E+04  0.50400001928E-02 0.  1.
        1   -1    0    0  501    0  0.00000000000E+00  0.00000000000E+00 -0.11239454773E+04  0.11239454774E+04  0.50400001928E-02 0. -1.
    10030    2    1    2    0    0  0.00000000000E+00  0.00000000000E+00  0.87503033360E+03  0.31229212883E+04  0.29978257601E+04 0.  0.
        3    1    3    3  502    0 -0.20281020239E+03 -0.13407437264E+04  0.11029296258E+04  0.17479071736E+04  0.10100000352E+00 0.  1.
       -3    1    3    3    0  502  0.20281020239E+03  0.13407437264E+04 -0.22789929218E+03  0.13750141147E+04  0.10100000352E+00 0. -1.
</event>
<event>
 5   0  0.1914439E-07  0.2999657E+04  0.7818609E-02  0.8243829E-01
        2   -1    0    0  501    0  0.00000000000E+00  0.00000000000E+00  0.26548536222E+04  0.26548536222E+04  0.25500000920E-02 0.  1.
       -2   -1    0    0    0  501  0.00000000000E+00  0.00000000000E+00 -0.84731072654E+03  0.84731072655E+03  0.25500000920E-02 0. -1.
    10030    2    1    2    0    0  0.00000000000E+00  0.00000000000E+00  0.18075428957E+04  0.35021643488E+04  0.29996572814E+04 0.  0.
        5    1    3    3  502    0  0.41694294013E+03  0.14405702692E+04  0.92652301505E+03  0.17628247511E+04  0.46999998093E+01 0. -1.
       -5    1    3    3    0  502 -0.41694294013E+03 -0.14405702692E+04  0.88101988063E+03  0.17393395976E+04  0.46999998093E+01 0.  1.
</event>
<event>
 5   0  0.6017625E-08  0.2996930E+04  0.7818609E-02  0.8244608E-01
        3   -1    0    0  501    0  0.00000000000E+00  0.00000000000E+00  0.10553628089E+04  0.10553628138E+04  0.10100000352E+00 0.  1.
       -3   -1    0    0    0  501  0.00000000000E+00  0.00000000000E+00 -0.21276069835E+04  0.21276069859E+04  0.10100000352E+00 0. -1.
    10030    2    1    2    0    0  0.00000000000E+00  0.00000000000E+00 -0.10722441746E+04  0.31829697997E+04  0.29969299584E+04 0.  0.
        4    1    3    3  502    0  0.67651607499E+03  0.31759774245E+03 -0.19155359606E+04  0.20561668111E+04  0.12699999809E+01 0. -1.
       -4    1    3    3    0  502 -0.67651607499E+03 -0.31759774245E+03  0.84329178603E+03  0.11268029886E+04  0.12699999809E+01 0.  1.
</event>
<event>
 5   0  0.1914439E-07  0.3004588E+04  0.7818609E-02  0.8242422E-01
        2   -1    0    0  501    0  0.00000000000E+00  0.00000000000E+00  0.14367144154E+04  0.14367144154E+04  0.25500000920E-02 0.  1.
       -2   -1    0    0    0  501  0.00000000000E+00  0.00000000000E+00 -0.15708666061E+04  0.15708666061E+04  0.25500000920E-02 0. -1.
    10030    2    1    2    0    0  0.00000000000E+00  0.00000000000E+00 -0.13415219073E+03  0.30075810215E+04  0.30045876241E+04 0.  0.
        5    1    3    3  502    0  0.93753817680E+03  0.40455555289E+03 -0.11700911376E+04  0.15529901444E+04  0.46999998093E+01 0. -1.
       -5    1    3    3    0  502 -0.93753817680E+03 -0.40455555289E+03  0.10359389468E+04  0.14545908771E+04  0.46999998093E+01 0.  1.
</event>
<event>
 5   0  0.6374748E-08  0.3000161E+04  0.7818609E-02  0.8243685E-01
        1   -1    0    0  501    0  0.00000000000E+00  0.00000000000E+00  0.34465455452E+04  0.34465455452E+04  0.50400001928E-02 0. -1.
       -1   -1    0    0    0  501  0.00000000000E+00  0.00000000000E+00 -0.65289779813E+03  0.65289779815E+03  0.50400001928E-02 0.  1.
    10030    2    1    2    0    0  0.00000000000E+00  0.00000000000E+00  0.27936477470E+04  0.40994433433E+04  0.30001613274E+04 0.  0.
        1    1    3    3  502    0 -0.11355661363E+02  0.10842402249E+04 -0.19592053868E+02  0.10844766779E+04  0.50400001928E-02 0.  1.
       -1    1    3    3    0  502  0.11355661363E+02 -0.10842402249E+04  0.28132398009E+04  0.30149666654E+04  0.50400001928E-02 0. -1.
</event>
<event>
 5   0  0.6464436E-08  0.2998745E+04  0.7818609E-02  0.8244089E-01
        1   -1    0    0  501    0  0.00000000000E+00  0.00000000000E+00  0.21504845647E+04  0.21504845647E+04  0.50400001928E-02 0.  1.
       -1   -1    0    0    0  501  0.00000000000E+00  0.00000000000E+00 -0.10454009134E+04  0.10454009134E+04  0.50400001928E-02 0. -1.
    10030    2    1    2    0    0  0.00000000000E+00  0.00000000000E+00  0.11050836513E+04  0.31958854781E+04  0.29987454232E+04 0.  0.
        5    1    3    3  502    0  0.75512335852E+03 -0.56723491416E+03  0.17936288198E+04  0.20270898272E+04  0.46999998093E+01 0.  1.
       -5    1    3    3    0  502 -0.75512335852E+03  0.56723491416E+03 -0.68854516855E+03  0.11687956509E+04  0.46999998093E+01 0. -1.
</event>
<event>
 5   0  0.1813720E-07  0.2999717E+04  0.7818609E-02  0.8243812E-01
       -2   -1    0    0    0  501  0.00000000000E+00  0.00000000000E+00  0.20243273336E+04  0.20243273336E+04  0.25500000920E-02 0.  1.
        2   -1    0    0  501    0  0.00000000000E+00  0.00000000000E+00 -0.11112705384E+04  0.11112705384E+04  0.25500000920E-02 0. -1.
    10030    2    1    2    0    0  0.00000000000E+00  0.00000000000E+00  0.91305679518E+03  0.31355978719E+04  0.29997168705E+04 0.  0.
        3    1    3    3  502    0  0.50435576306E+03  0.52148174813E+03 -0.91566450042E+03  0.11682291885E+04  0.10100000352E+00 0. -1.
       -3    1    3    3    0  502 -0.50435576306E+03 -0.52148174813E+03  0.18287212956E+04  0.19673686834E+04  0.10100000352E+00 0.  1.
</event>
<event>
 5   0  0.1914439E-07  0.2999788E+04  0.7818609E-02  0.8243792E-01
       -2   -1    0    0    0  501  0.00000000000E+00  0.00000000000E+00  0.11354070636E+04  0.11354070636E+04  0.25500000920E-02 0. -1.
        2   -1    0    0  501    0  0.00000000000E+00  0.00000000000E+00 -0.19813876198E+04  0.19813876198E+04  0.25500000920E-02 0.  1.
    10030    2    1    2    0    0  0.00000000000E+00  0.00000000000E+00 -0.84598055620E+03  0.31167946834E+04  0.29997876587E+04 0.  0.
        5    1    3    3  502    0  0.64998705942E+03  0.18456648039E+03 -0.18142919972E+04  0.19360334460E+04  0.46999998093E+01 0.  1.
       -5    1    3    3    0  502 -0.64998705942E+03 -0.18456648039E+03  0.96831144097E+03  0.11807612374E+04  0.46999998093E+01 0. -1.
</event>
<event>
 5   0  0.6017625E-08  0.3001461E+04  0.7818609E-02  0.8243314E-01
       -3   -1    0    0    0  501  0.00000000000E+00  0.00000000000E+00  0.14873624946E+04  0.14873624980E+04  0.10100000352E+00 0. -1.
        3   -1    0    0  501    0  0.00000000000E+00  0.00000000000E+00 -0.15142183271E+04  0.15142183304E+04  0.10100000352E+00 0.  1.
    10030    2    1    2    0    0  0.00000000000E+00  0.00000000000E+00 -0.26855832473E+02  0.30015808285E+04  0.30014606834E+04 0.  0.
        1    1    3    3  502    0  0.96979833506E+03  0.30470516003E+03 -0.11174818518E+04  0.15106686381E+04  0.50400001928E-02 0.  1.
       -1    1    3    3    0  502 -0.96979833506E+03 -0.30470516003E+03  0.10906260193E+04  0.14909121903E+04  0.50400001928E-02 0. -1.
</event>
<event>
 5   0  0.1810055E-07  0.3001787E+04  0.7818609E-02  0.8243221E-01
        2   -1    0    0  501    0  0.00000000000E+00  0.00000000000E+00  0.21630878205E+04  0.21630878205E+04  0.25500000920E-02 0.  1.
       -2   -1    0    0    0  501  0.00000000000E+00  0.00000000000E+00 -0.10414192905E+04  0.10414192905E+04  0.25500000920E-02 0. -1.
    10030    2    1    2    0    0  0.00000000000E+00  0.00000000000E+00  0.11216685300E+04  0.32045071110E+04  0.30017870566E+04 0.  0.
        4    1    3    3  502    0  0.88122241605E+03 -0.11706571868E+04  0.90788692698E+03  0.17237318471E+04  0.12699999809E+01 0.  1.
       -4    1    3    3    0  502 -0.88122241605E+03  0.11706571868E+04  0.21378160303E+03  0.14807752639E+04  0.12699999809E+01 0. -1.
</event>
<event>
 5   0  0.6374748E-08  0.3002996E+04  0.7818609E-02  0.8242876E-01
        1   -1    0    0  501    0  0.00000000000E+00  0.00000000000E+00  0.16561349496E+04  0.16561349496E+04  0.50400001928E-02 0.  1.
       -1   -1    0    0    0  501  0.00000000000E+00  0.00000000000E+00 -0.13612994020E+04  0.13612994020E+04  0.50400001928E-02 0. -1.
    10030    2    1    2    0    0  0.00000000000E+00  0.00000000000E+00  0.29483554761E+03  0.30174343516E+04  0.30029955155E+04 0.  0.
        1    1    3    3  502    0  0.20803711844E+03  0.14853996026E+04  0.21706260888E+03  0.15155222197E+04  0.50400001928E-02 0. -1.
       -1    1    3    3    0  502 -0.20803711844E+03 -0.14853996026E+04  0.77772938722E+02  0.15019121320E+04  0.50400001928E-02 0.  1.
</event>
<event>
 5   0  0.6525507E-08  0.3001024E+04  0.7818609E-02  0.8243439E-01
        1   -1    0    0  501    0  0.00000000000E+00  0.00000000000E+00  0.85676794938E+03  0.85676794940E+03  0.50400001928E-02 0.  1.
       -1   -1    0    0    0  501  0.00000000000E+00  0.00000000000E+00 -0.26279411999E+04  0.26279411999E+04  0.50400001928E-02 0. -1.
    10030    2    1    2    0    0  0.00000000000E+00  0.00000000000E+00 -0.17711732505E+04  0.34847091493E+04  0.30010236873E+04 0.  0.
        4    1    3    3  502    0 -0.11057944141E+04  0.85536064118E+03 -0.25265539238E+03  0.14206545931E+04  0.12699999809E+01 0.  1.
       -4    1    3    3    0  502  0.11057944141E+04 -0.85536064118E+03 -0.15185178582E+04  0.20640545562E+04  0.12699999809E+01 0. -1.
</event>
<event>
 5   0  0.6525507E-08  0.2992895E+04  0.7818609E-02  0.8245763E-01
        1   -1    0    0  501    0  0.00000000000E+00  0.00000000000E+00  0.23800858716E+04  0.23800858716E+04  0.50400001928E-02 0. -1.
       -1   -1    0    0    0  501  0.00000000000E+00  0.00000000000E+00 -0.94087170601E+03  0.94087170603E+03  0.50400001928E-02 0.  1.
    10030    2    1    2    0    0  0.00000000000E+00  0.00000000000E+00  0.14392141656E+04  0.33209575776E+04  0.29928952234E+04 0.  0.
        4    1    3    3  502    0  0.18804726103E+03  0.67340658215E+03 -0.74849012601E+03  0.10242447358E+04  0.12699999809E+01 0.  1.
       -4    1    3    3    0  502 -0.18804726103E+03 -0.67340658215E+03  0.21877042916E+04  0.22967128418E+04  0.12699999809E+01 0. -1.
</event>
<event>
 5   0  0.6525507E-08  0.2998657E+04  0.7818609E-02  0.8244114E-01
        1   -1    0    0  501    0  0.00000000000E+00  0.00000000000E+00  0.17384283520E+04  0.17384283520E+04  0.50400001928E-02 0.  1.
       -1   -1    0    0    0  501  0.00000000000E+00  0.00000000000E+00 -0.12931140931E+04  0.12931140931E+04  0.50400001928E-02 0. -1.
    10030    2    1    2    0    0  0.00000000000E+00  0.00000000000E+00  0.44531425894E+03  0.30315424451E+04  0.29986571673E+04 0.  0.
        4    1    3    3  502    0  0.76579097164E+03  0.76014041693E+03  0.12750998086E+04  0.16703683427E+04  0.12699999809E+01 0.  1.
       -4    1    3    3    0  502 -0.76579097164E+03 -0.76014041693E+03 -0.82978554962E+03  0.13611741024E+04  0.12699999809E+01 0. -1.
</event>
<event>
 5   0  0.6374748E-08  0.2999574E+04  0.7818609E-02  0.8243853E-01
        1   -1    0    0  501    0  0.00000000000E+00  0.00000000000E+00  0.17423006964E+04  0.17423006964E+04  0.50400001928E-02 0.  1.
       -1   -1    0    0    0  501  0.00000000000E+00  0.00000000000E+00 -0.12910292183E+04  0.12910292183E+04  0.50400001928E-02 0. -1.
    10030    2    1    2    0    0  0.00000000000E+00  0.00000000000E+00  0.45127147809E+03  0.30333299147E+04  0.29995740405E+04 0.  0.
        1    1    3    3  502    0 -0.68197899999E+03 -0.79840624106E+03  0.13085807574E+04  0.16777757540E+04  0.50400001928E-02 0.  1.
       -1    1    3    3    0  502  0.68197899999E+03  0.79840624106E+03 -0.85730927927E+03  0.13555541607E+04  0.50400001928E-02 0. -1.
</event>
<event>
 5   0  0.6464436E-08  0.2999893E+04  0.7818609E-02  0.8243761E-01
       -1   -1    0    0    0  501  0.00000000000E+00  0.00000000000E+00  0.16108781427E+04  0.16108781427E+04  0.50400001928E-02 0. -1.
        1   -1    0    0  501    0  0.00000000000E+00  0.00000000000E+00 -0.13966541498E+04  0.13966541498E+04  0.50400001928E-02 0.  1.
    10030    2    1    2    0    0  0.00000000000E+00  0.00000000000E+00  0.21422399292E+03  0.30075322924E+04  0.29998930933E+04 0.  0.
        5    1    3    3  502    0  0.11397988975E+02  0.15893686968E+03  0.16023611722E+04  0.16102714860E+04  0.46999998093E+01 0. -1.
       -5    1    3    3    0  502 -0.11397988975E+02 -0.15893686968E+03 -0.13881371792E+04  0.13972608064E+04  0.46999998093E+01 0.  1.
</event>
<event>
 5   0  0.1810055E-07  0.3001955E+04  0.7818609E-02  0.8243173E-01
        2   -1    0    0  501    0  0.00000000000E+00  0.00000000000E+00  0.17432220455E+04  0.17432220455E+04  0.25500000920E-02 0. -1.
       -2   -1    0    0    0  501  0.00000000000E+00  0.00000000000E+00 -0.12923960125E+04  0.12923960125E+04  0.25500000920E-02 0.  1.
    10030    2    1    2    0    0  0.00000000000E+00  0.00000000000E+00  0.45082603302E+03  0.30356180579E+04  0.30019548434E+04 0.  0.
        4    1    3    3  502    0 -0.37008396651E+02 -0.72815950526E+03 -0.11013001057E+04  0.13207760682E+04  0.12699999809E+01 0.  1.
       -4    1    3    3    0  502  0.37008396651E+02  0.72815950526E+03  0.15521261387E+04  0.17148419898E+04  0.12699999809E+01 0. -1.
</event>
<event>
 5   0  0.6464436E-08  0.2997795E+04  0.7818609E-02  0.8244361E-01
       -1   -1    0    0    0  501  0.00000000000E+00  0.00000000000E+00  0.10304745098E+04  0.10304745098E+04  0.50400001928E-02 0.  1.
        1   -1    0    0  501    0  0.00000000000E+00  0.00000000000E+00 -0.21802513933E+04  0.21802513933E+04  0.50400001928E-02 0. -1.
    10030    2    1    2    0    0  0.00000000000E+00  0.00000000000E+00 -0.11497768835E+04  0.32107259032E+04  0.29977948468E+04 0.  0.
        5    1    3    3  502    0 -0.60984118118E+03 -0.12826097175E+04 -0.61601170603E+02  0.14215522319E+04  0.46999998093E+01 0.  1.
       -5    1    3    3    0  502  0.60984118118E+03  0.12826097175E+04 -0.10881757129E+04  0.17891736713E+04  0.46999998093E+01 0. -1.
</event>
<event>
 5   0  0.1810055E-07  0.3001084E+04  0.7818609E-02  0.8243421E-01
        2   -1    0    0  501    0  0.00000000000E+00  0.00000000000E+00  0.20429318282E+04  0.20429318282E+04  0.25500000920E-02 0.  1.
       -2   -1    0    0    0  501  0.00000000000E+00  0.00000000000E+00 -0.11021544598E+04  0.11021544598E+04  0.25500000920E-02 0. -1.
    10030    2    1    2    0    0  0.00000000000E+00  0.00000000000E+00  0.94077736843E+03  0.31450862880E+04  0.30010840878E+04 0.  0.
        4    1    3    3  502    0 -0.10664333862E+02 -0.13689864619E+04  0.11141842129E+04  0.17651191841E+04  0.12699999809E+01 0.  1.
       -4    1    3    3    0  502  0.10664333862E+02  0.13689864619E+04 -0.17340684449E+03  0.13799671038E+04  0.12699999809E+01 0. -1.
</event>
<event>
 5   0  0.6374748E-08  0.3000305E+04  0.7818609E-02  0.8243644E-01
       -1   -1    0    0    0  501  0.00000000000E+00  0.00000000000E+00  0.13104122606E+04  0.13104122606E+04  0.50400001928E-02 0. -1.
        1   -1    0    0  501    0  0.00000000000E+00  0.00000000000E+00 -0.17173656854E+04  0.17173656854E+04  0.50400001928E-02 0.  1.
    10030    2    1    2    0    0  0.00000000000E+00  0.00000000000E+00 -0.40695342480E+03  0.30277779460E+04  0.30003046846E+04 0.  0.
        1    1    3    3  502    0 -0.41563234184E+03 -0.14003631926E+04  0.14125004036E+03  0.14675554125E+04  0.50400001928E-02 0. -1.
       -1    1    3    3    0  502  0.41563234184E+03  0.14003631926E+04 -0.54820346516E+03  0.15602225335E+04  0.50400001928E-02 0.  1.
</event>
<event>
 5   0  0.1817566E-07  0.2998841E+04  0.7818609E-02  0.8244062E-01
       -2   -1    0    0    0  501  0.00000000000E+00  0.00000000000E+00  0.12255713277E+04  0.12255713277E+04  0.25500000920E-02 0.  1.
        2   -1    0    0  501    0  0.00000000000E+00  0.00000000000E+00 -0.18344600273E+04  0.18344600273E+04  0.25500000920E-02 0. -1.
    10030    2    1    2    0    0  0.00000000000E+00  0.00000000000E+00 -0.60888869958E+03  0.30600313550E+04  0.29988408502E+04 0.  0.
        1    1    3    3  502    0 -0.14284989625E+03  0.12608368436E+04  0.51069615607E+03  0.13678180445E+04  0.50400001928E-02 0.  1.
       -1    1    3    3    0  502  0.14284989625E+03 -0.12608368436E+04 -0.11195848557E+04  0.16922133105E+04  0.50400001928E-02 0. -1.
</event>
<event>
 5   0  0.6679022E-08  0.2999964E+04  0.7818609E-02  0.8243741E-01
       -1   -1    0    0    0  501  0.00000000000E+00  0.00000000000E+00  0.99534223327E+03  0.99534223328E+03  0.50400001928E-02 0. -1.
        1   -1    0    0  501    0  0.00000000000E+00  0.00000000000E+00 -0.22604750505E+04  0.22604750505E+04  0.50400001928E-02 0.  1.
    10030    2    1    2    0    0  0.00000000000E+00  0.00000000000E+00 -0.12651328172E+04  0.32558172838E+04  0.29999641898E+04 0.  0.
        3    1    3    3  502    0 -0.28969654442E+03  0.64111393693E+03  0.80517873282E+03  0.10692352267E+04  0.10100000352E+00 0. -1.
       -3    1    3    3    0  502  0.28969654442E+03 -0.64111393693E+03 -0.20703115501E+04  0.21865820571E+04  0.10100000352E+00 0.  1.
</event>
<event>
 5   0  0.1821305E-07  0.2998953E+04  0.7818609E-02  0.8244030E-01
       -2   -1    0    0    0  501  0.00000000000E+00  0.00000000000E+00  0.10035808760E+04  0.10035808760E+04  0.25500000920E-02 0. -1.
        2   -1    0    0  501    0  0.00000000000E+00  0.00000000000E+00 -0.22404065120E+04  0.22404065120E+04  0.25500000920E-02 0.  1.
    10030    2    1    2    0    0  0.00000000000E+00  0.00000000000E+00 -0.12368256360E+04  0.32439873879E+04  0.29989525704E+04 0.  0.
        2    1    3    3  502    0 -0.43799440137E+03 -0.13760812123E+04 -0.10551204154E+04  0.17884959294E+04  0.25500000920E-02 0.  1.
       -2    1    3    3    0  502  0.43799440137E+03  0.13760812123E+04 -0.18170522055E+03  0.14554914585E+04  0.25500000920E-02 0. -1.
</event>
<event>
 5   0  0.6374748E-08  0.3000065E+04  0.7818609E-02  0.8243712E-01
        1   -1    0    0  501    0  0.00000000000E+00  0.00000000000E+00  0.21798241852E+04  0.21798241852E+04  0.50400001928E-02 0. -1.
       -1   -1    0    0    0  501  0.00000000000E+00  0.00000000000E+00 -0.10322378267E+04  0.10322378268E+04  0.50400001928E-02 0.  1.
    10030    2    1    2    0    0  0.00000000000E+00  0.00000000000E+00  0.11475863585E+04  0.32120620120E+04  0.30000646524E+04 0.  0.
        1    1    3    3  502    0 -0.27574873105E+02 -0.68365162269E+03  0.20030225257E+04  0.21166575428E+04  0.50400001928E-02 0. -1.
       -1    1    3    3    0  502  0.27574873105E+02  0.68365162269E+03 -0.85543616726E+03  0.10954044692E+04  0.50400001928E-02 0.  1.
</event>
<event>
 5   0  0.6679022E-08  0.3006170E+04  0.7818609E-02  0.8241971E-01
        1   -1    0    0  501    0  0.00000000000E+00  0.00000000000E+00  0.19685230107E+04  0.19685230107E+04  0.50400001928E-02 0. -1.
       -1   -1    0    0    0  501  0.00000000000E+00  0.00000000000E+00 -0.11476956170E+04  0.11476956170E+04  0.50400001928E-02 0.  1.
    10030    2    1    2    0    0  0.00000000000E+00  0.00000000000E+00  0.82082739373E+03  0.31162186277E+04  0.30061704751E+04 0.  0.
        3    1    3    3  502    0 -0.68034627212E+03  0.72911777155E+03 -0.75538095135E+03  0.12510332396E+04  0.10100000352E+00 0.  1.
       -3    1    3    3    0  502  0.68034627212E+03 -0.72911777155E+03  0.15762083451E+04  0.18651853881E+04  0.10100000352E+00 0. -1.
</event>
<event>
 5   0  0.6374748E-08  0.3002376E+04  0.7818609E-02  0.8243053E-01
        1   -1    0    0  501    0  0.00000000000E+00  0.00000000000E+00  0.17996558556E+04  0.17996558556E+04  0.50400001928E-02 0. -1.
       -1   -1    0    0    0  501  0.00000000000E+00  0.00000000000E+00 -0.12522204702E+04  0.12522204703E+04  0.50400001928E-02 0.  1.
    10030    2    1    2    0    0  0.00000000000E+00  0.00000000000E+00  0.54743538539E+03  0.30518763259E+04  0.30023763267E+04 0.  0.
        1    1    3    3  502    0 -0.71563067617E+03 -0.13993537512E+03  0.16075471644E+04  0.17651960401E+04  0.50400001928E-02 0. -1.
       -1    1    3    3    0  502  0.71563067617E+03  0.13993537512E+03 -0.10601117791E+04  0.12866802859E+04  0.50400001928E-02 0.  1.
</event>
<event>
 5   0  0.1914439E-07  0.2999831E+04  0.7818609E-02  0.8243779E-01
       -2   -1    0    0    0  501  0.00000000000E+00  0.00000000000E+00  0.92451133711E+03  0.92451133712E+03  0.25500000920E-02 0.  1.
        2   -1    0    0  501    0  0.00000000000E+00  0.00000000000E+00 -0.24334445280E+04  0.24334445280E+04  0.25500000920E-02 0. -1.
    10030    2    1    2    0    0  0.00000000000E+00  0.00000000000E+00 -0.15089331909E+04  0.33579558651E+04  0.29998313648E+04 0.  0.
        5    1    3    3  502    0  0.21278043559E+03 -0.11316259438E+04  0.32146357426E+03  0.11954972647E+04  0.46999998093E+01 0.  1.
       -5    1    3    3    0  502 -0.21278043559E+03  0.11316259438E+04 -0.18303967651E+04  0.21624586003E+04  0.46999998093E+01 0. -1.
</event>
<event>
 5   0  0.1813720E-07  0.3000440E+04  0.7818609E-02  0.8243605E-01
        2   -1    0    0  501    0  0.00000000000E+00  0.00000000000E+00  0.19996712298E+04  0.19996712298E+04  0.25500000920E-02 0. -1.
       -2   -1    0    0    0  501  0.00000000000E+00  0.00000000000E+00 -0.11255151650E+04  0.11255151650E+04  0.25500000920E-02 0.  1.
    10030    2    1    2    0    0  0.00000000000E+00  0.00000000000E+00  0.87415606482E+03  0.31251863949E+04  0.30004401639E+04 0.  0.
        3    1    3    3  502    0 -0.24383151009E+03  0.13621068306E+04  0.10407173316E+04  0.17314391118E+04  0.10100000352E+00 0. -1.
       -3    1    3    3    0  502  0.24383151009E+03 -0.13621068306E+04 -0.16656126677E+03  0.13937472831E+04  0.10100000352E+00 0.  1.
</event>
<event>
 5   0  0.1817566E-07  0.3000214E+04  0.7818609E-02  0.8243670E-01
        2   -1    0    0  501    0  0.00000000000E+00  0.00000000000E+00  0.13560920237E+04  0.13560920237E+04  0.25500000920E-02 0.  1.
       -2   -1    0    0    0  501  0.00000000000E+00  0.00000000000E+00 -0.16594157791E+04  0.16594157791E+04  0.25500000920E-02 0. -1.
    10030    2    1    2    0    0  0.00000000000E+00  0.00000000000E+00 -0.30332375539E+03  0.30155078028E+04  0.30002136604E+04 0.  0.
        1    1    3    3  502    0  0.18772961730E+02  0.14596706772E+03 -0.16521423460E+04  0.16586841594E+04  0.50400001928E-02 0. -1.
       -1    1    3    3    0  502 -0.18772961730E+02 -0.14596706772E+03  0.13488185906E+04  0.13568236434E+04  0.50400001928E-02 0.  1.
</event>
<event>
 5   0  0.6636007E-08  0.2999971E+04  0.7818609E-02  0.8243739E-01
       -1   -1    0    0    0  501  0.00000000000E+00  0.00000000000E+00  0.10853638474E+04  0.10853638474E+04  0.50400001928E-02 0.  1.
        1   -1    0    0  501    0  0.00000000000E+00  0.00000000000E+00 -0.20729977616E+04  0.20729977616E+04  0.50400001928E-02 0. -1.
    10030    2    1    2    0    0  0.00000000000E+00  0.00000000000E+00 -0.98763391424E+03  0.31583616090E+04  0.29999712174E+04 0.  0.
        2    1    3    3  502    0 -0.67872451414E+03 -0.10439955353E+04 -0.13742496217E+04  0.18544960681E+04  0.25500000920E-02 0. -1.
       -2    1    3    3    0  502  0.67872451414E+03  0.10439955353E+04  0.38661570746E+03  0.13038655410E+04  0.25500000920E-02 0.  1.
</event>
<event>
 5   0  0.6374748E-08  0.2999605E+04  0.7818609E-02  0.8243844E-01
       -1   -1    0    0    0  501  0.00000000000E+00  0.00000000000E+00  0.11318875897E+04  0.11318875897E+04  0.50400001928E-02 0.  1.
        1   -1    0    0  501    0  0.00000000000E+00  0.00000000000E+00 -0.19873058305E+04  0.19873058305E+04  0.50400001928E-02 0. -1.
    10030    2    1    2    0    0  0.00000000000E+00  0.00000000000E+00 -0.85541824085E+03  0.31191934202E+04  0.29996045116E+04 0.  0.
        1    1    3    3  502    0 -0.10819088137E+04  0.38235024934E+03 -0.14319701229E+04  0.18350086722E+04  0.50400001928E-02 0. -1.
       -1    1    3    3    0  502  0.10819088137E+04 -0.38235024934E+03  0.57655188202E+03  0.12841847480E+04  0.50400001928E-02 0.  1.
</event>
<event>
 5   0  0.1914439E-07  0.2998071E+04  0.7818609E-02  0.8244282E-01
       -2   -1    0    0    0  501  0.00000000000E+00  0.00000000000E+00  0.24070167576E+04  0.24070167576E+04  0.25500000920E-02 0.  1.
        2   -1    0    0  501    0  0.00000000000E+00  0.00000000000E+00 -0.93356543562E+03  0.93356543562E+03  0.25500000920E-02 0. -1.
    10030    2    1    2    0    0  0.00000000000E+00  0.00000000000E+00  0.14734513220E+04  0.33405821933E+04  0.29980711452E+04 0.  0.
        5    1    3    3  502    0 -0.13092233603E+04  0.72754967320E+03  0.80442203511E+03  0.17001503565E+04  0.46999998093E+01 0.  1.
       -5    1    3    3    0  502  0.13092233603E+04 -0.72754967320E+03  0.66902928691E+03  0.16404318367E+04  0.46999998093E+01 0. -1.
</event>
<event>
 5   0  0.6464436E-08  0.3003564E+04  0.7818609E-02  0.8242714E-01
       -1   -1    0    0    0  501  0.00000000000E+00  0.00000000000E+00  0.19614278921E+04  0.19614278921E+04  0.50400001928E-02 0.  1.
        1   -1    0    0  501    0  0.00000000000E+00  0.00000000000E+00 -0.11498506691E+04  0.11498506691E+04  0.50400001928E-02 0. -1.
    10030    2    1    2    0    0  0.00000000000E+00  0.00000000000E+00  0.81157722309E+03  0.31112785612E+04  0.30035639991E+04 0.  0.
        5    1    3    3  502    0 -0.94887192814E+03 -0.47891243734E+03 -0.69320803778E+03  0.12689659303E+04  0.46999998093E+01 0. -1.
       -5    1    3    3    0  502  0.94887192814E+03  0.47891243734E+03  0.15047852609E+04  0.18423126309E+04  0.46999998093E+01 0.  1.
</event>
<event>
 5   0  0.6525507E-08  0.3000714E+04  0.7818609E-02  0.8243527E-01
       -1   -1    0    0    0  501  0.00000000000E+00  0.00000000000E+00  0.74280417602E+03  0.74280417603E+03  0.50400001928E-02 0.  1.
        1   -1    0    0  501    0  0.00000000000E+00  0.00000000000E+00 -0.30305045043E+04  0.30305045043E+04  0.50400001928E-02 0. -1.
    10030    2    1    2    0    0  0.00000000000E+00  0.00000000000E+00 -0.22877003282E+04  0.37733086803E+04  0.30007141825E+04 0.  0.
        4    1    3    3  502    0  0.10491501827E+04  0.61897312192E+03 -0.42413960349E+02  0.12188701278E+04  0.12699999809E+01 0.  1.
       -4    1    3    3    0  502 -0.10491501827E+04 -0.61897312192E+03 -0.22452863679E+04  0.25544385525E+04  0.12699999809E+01 0. -1.
</event>
<event>
 5   0  0.1813720E-07  0.3001311E+04  0.7818609E-02  0.8243357E-01
        2   -1    0    0  501    0  0.00000000000E+00  0.00000000000E+00  0.19469880711E+04  0.19469880711E+04  0.25500000920E-02 0.  1.
       -2   -1    0    0    0  501  0.00000000000E+00  0.00000000000E+00 -0.11566412169E+04  0.11566412169E+04  0.25500000920E-02 0. -1.
    10030    2    1    2    0    0  0.00000000000E+00  0.00000000000E+00  0.79034685426E+03  0.31036292880E+04  0.30013108149E+04 0.  0.
        3    1    3    3  502    0 -0.21952265493E+03 -0.24765768646E+03 -0.11184345813E+04  0.11663706309E+04  0.10100000352E+00 0. -1.
       -3    1    3    3    0  502  0.21952265493E+03  0.24765768646E+03  0.19087814356E+04  0.19372586571E+04  0.10100000352E+00 0.  1.
</event>
<event>
 5   0  0.6464436E-08  0.2998939E+04  0.7818609E-02  0.8244034E-01
        1   -1    0    0  501    0  0.00000000000E+00  0.00000000000E+00  0.21185399673E+04  0.21185399673E+04  0.50400001928E-02 0.  1.
       -1   -1    0    0    0  501  0.00000000000E+00  0.00000000000E+00 -0.10613013139E+04  0.10613013139E+04  0.50400001928E-02 0. -1.
    10030    2    1    2    0    0  0.00000000000E+00  0.00000000000E+00  0.10572386534E+04  0.31798412812E+04  0.29989393131E+04 0.  0.
        5    1    3    3  502    0  0.22036307231E+03  0.48964702404E+03  0.20130977738E+04  0.20834823802E+04  0.46999998093E+01 0.  1.
       -5    1    3    3    0  502 -0.22036307231E+03 -0.48964702404E+03 -0.95585912043E+03  0.10963589010E+04  0.46999998093E+01 0. -1.
</event>
<event>
 5   0  0.1914439E-07  0.2999841E+04  0.7818609E-02  0.8243776E-01
        2   -1    0    0  501    0  0.00000000000E+00  0.00000000000E+00  0.16583734196E+04  0.16583734196E+04  0.25500000920E-02 0.  1.
       -2   -1    0    0    0  501  0.00000000000E+00  0.00000000000E+00 -0.13566076824E+04  0.13566076824E+04  0.25500000920E-02 0. -1.
    10030    2    1    2    0    0  0.00000000000E+00  0.00000000000E+00  0.30176573715E+03  0.30149811020E+04  0.29998414100E+04 0.  0.
        5    1    3    3  502    0  0.65720189379E+03 -0.58785175174E+03 -0.10686063578E+04  0.13854333795E+04  0.46999998093E+01 0. -1.
       -5    1    3    3    0  502 -0.65720189379E+03  0.58785175174E+03  0.13703720949E+04  0.16295477224E+04  0.46999998093E+01 0.  1.
</event>
<event>
 5   0  0.1810055E-07  0.2999415E+04  0.7818609E-02  0.8243898E-01
        2   -1    0    0  501    0  0.00000000000E+00  0.00000000000E+00  0.19054146678E+04  0.19054146678E+04  0.25500000920E-02 0.  1.
       -2   -1    0    0    0  501  0.00000000000E+00  0.00000000000E+00 -0.11803847294E+04  0.11803847294E+04  0.25500000920E-02 0. -1.
    10030    2    1    2    0    0  0.00000000000E+00  0.00000000000E+00  0.72502993837E+03  0.30857993972E+04  0.29994148610E+04 0.  0.
        4    1    3    3  502    0 -0.13649284200E+04  0.59173033803E+03  0.16745923174E+03  0.14970700023E+04  0.12699999809E+01 0. -1.
       -4    1    3    3    0  502  0.13649284200E+04 -0.59173033803E+03  0.55757070663E+03  0.15887293949E+04  0.12699999809E+01 0.  1.
</event>
<event>
 5   0  0.1817566E-07  0.2993668E+04  0.7818609E-02  0.8245541E-01
       -2   -1    0    0    0  501  0.00000000000E+00  0.00000000000E+00  0.92518793136E+03  0.92518793136E+03  0.25500000920E-02 0. -1.
        2   -1    0    0  501    0  0.00000000000E+00  0.00000000000E+00 -0.24216824414E+04  0.24216824414E+04  0.25500000920E-02 0.  1.
    10030    2    1    2    0    0  0.00000000000E+00  0.00000000000E+00 -0.14964945100E+04  0.33468703728E+04  0.29936675623E+04 0.  0.
        1    1    3    3  502    0 -0.11468708930E+04 -0.67738955698E+03 -0.15117094641E+04  0.20148039510E+04  0.50400001928E-02 0.  1.
       -1    1    3    3    0  502  0.11468708930E+04  0.67738955698E+03  0.15214954052E+02  0.13320664218E+04  0.50400001928E-02 0. -1.
</event>
<event>
 5   0  0.1817566E-07  0.3000621E+04  0.7818609E-02  0.8243553E-01
        2   -1    0    0  501    0  0.00000000000E+00  0.00000000000E+00  0.17009171762E+04  0.17009171762E+04  0.25500000920E-02 0.  1.
       -2   -1    0    0    0  501  0.00000000000E+00  0.00000000000E+00 -0.13233636991E+04  0.13233636991E+04  0.25500000920E-02 0. -1.
    10030    2    1    2    0    0  0.00000000000E+00  0.00000000000E+00  0.37755347715E+03  0.30242808753E+04  0.30006212997E+04 0.  0.
        1    1    3    3  502    0 -0.43711563138E+03 -0.12546484594E+04  0.89120758884E+03  0.15998324282E+04  0.50400001928E-02 0.  1.
       -1    1    3    3    0  502  0.43711563138E+03  0.12546484594E+04 -0.51365411169E+03  0.14244484471E+04  0.50400001928E-02 0. -1.
</event>
<event>
 5   0  0.6636007E-08  0.2999867E+04  0.7818609E-02  0.8243769E-01
        1   -1    0    0  501    0  0.00000000000E+00  0.00000000000E+00  0.18031410152E+04  0.18031410153E+04  0.50400001928E-02 0. -1.
       -1   -1    0    0    0  501  0.00000000000E+00  0.00000000000E+00 -0.12477122153E+04  0.12477122153E+04  0.50400001928E-02 0.  1.
    10030    2    1    2    0    0  0.00000000000E+00  0.00000000000E+00  0.55542879997E+03  0.30508532305E+04  0.29998673775E+04 0.  0.
        2    1    3    3  502    0  0.62244536051E+03  0.27391506047E+03  0.16373484853E+04  0.17729573456E+04  0.25500000920E-02 0. -1.
       -2    1    3    3    0  502 -0.62244536051E+03 -0.27391506047E+03 -0.10819196853E+04  0.12778958849E+04  0.25500000920E-02 0.  1.
</event>
<event>
 5   0  0.1817566E-07  0.3000014E+04  0.7818609E-02  0.8243727E-01
       -2   -1    0    0    0  501  0.00000000000E+00  0.00000000000E+00  0.14204315782E+04  0.14204315782E+04  0.25500000920E-02 0.  1.
        2   -1    0    0  501    0  0.00000000000E+00  0.00000000000E+00 -0.15840401161E+04  0.15840401161E+04  0.25500000920E-02 0. -1.
    10030    2    1    2    0    0  0.00000000000E+00  0.00000000000E+00 -0.16360853787E+03  0.30044716943E+04  0.30000137346E+04 0.  0.
        1    1    3    3  502    0 -0.14620053675E+04 -0.32845682904E+03 -0.15029462715E+03  0.15059654903E+04  0.50400001928E-02 0. -1.
       -1    1    3    3    0  502  0.14620053675E+04  0.32845682904E+03 -0.13313910726E+02  0.14985062040E+04  0.50400001928E-02 0.  1.
</event>
<event>
 5   0  0.6464436E-08  0.2996916E+04  0.7818609E-02  0.8244612E-01
        1   -1    0    0  501    0  0.00000000000E+00  0.00000000000E+00  0.21193764187E+04  0.21193764187E+04  0.50400001928E-02 0. -1.
       -1   -1    0    0    0  501  0.00000000000E+00  0.00000000000E+00 -0.10594514772E+04  0.10594514773E+04  0.50400001928E-02 0.  1.
    10030    2    1    2    0    0  0.00000000000E+00  0.00000000000E+00  0.10599249414E+04  0.31788278959E+04  0.29969160667E+04 0.  0.
        5    1    3    3  502    0  0.90009551372E+03 -0.81280086714E+02  0.17977430964E+04  0.20121333746E+04  0.46999998093E+01 0. -1.
       -5    1    3    3    0  502 -0.90009551372E+03  0.81280086714E+02 -0.73781815501E+03  0.11666945214E+04  0.46999998093E+01 0.  1.
</event>
<event>
 5   0  0.6679022E-08  0.2998764E+04  0.7818609E-02  0.8244084E-01
        1   -1    0    0  501    0  0.00000000000E+00  0.00000000000E+00  0.22379295366E+04  0.22379295367E+04  0.50400001928E-02 0. -1.
       -1   -1    0    0    0  501  0.00000000000E+00  0.00000000000E+00 -0.10045652726E+04  0.10045652726E+04  0.50400001928E-02 0.  1.
    10030    2    1    2    0    0  0.00000000000E+00  0.00000000000E+00  0.12333642640E+04  0.32424948093E+04  0.29987639421E+04 0.  0.
        3    1    3    3  502    0  0.11339676642E+04 -0.90560457102E+02 -0.43946738642E+03  0.12195144336E+04  0.10100000352E+00 0.  1.
       -3    1    3    3    0  502 -0.11339676642E+04  0.90560457102E+02  0.16728316504E+04  0.20229803757E+04  0.10100000352E+00 0. -1.
</event>
<event>
 5   0  0.1810055E-07  0.3000089E+04  0.7818609E-02  0.8243706E-01
       -2   -1    0    0    0  501  0.00000000000E+00  0.00000000000E+00  0.15152993567E+04  0.15152993567E+04  0.25500000920E-02 0. -1.
        2   -1    0    0  501    0  0.00000000000E+00  0.00000000000E+00 -0.14849428887E+04  0.14849428887E+04  0.25500000920E-02 0.  1.
    10030    2    1    2    0    0  0.00000000000E+00  0.00000000000E+00  0.30356467937E+02  0.30002422454E+04  0.30000886680E+04 0.  0.
        4    1    3    3  502    0 -0.73451123800E+03 -0.61834344406E+03 -0.11373893399E+04  0.14884594375E+04  0.12699999809E+01 0.  1.
       -4    1    3    3    0  502  0.73451123800E+03  0.61834344406E+03  0.11677458079E+04  0.15117828079E+04  0.12699999809E+01 0. -1.
</event>
<event>
 5   0  0.6374748E-08  0.2987693E+04  0.7818609E-02  0.8247254E-01
       -1   -1    0    0    0  501  0.00000000000E+00  0.00000000000E+00  0.10613941125E+04  0.10613941125E+04  0.50400001928E-02 0.  1.
        1   -1    0    0  501    0  0.00000000000E+00  0.00000000000E+00 -0.21024967413E+04  0.21024967413E+04  0.50400001928E-02 0. -1.
    10030    2    1    2    0    0  0.00000000000E+00  0.00000000000E+00 -0.10411026288E+04  0.31638908538E+04  0.29876931990E+04 0.  0.
        1    1    3    3  502    0  0.86549308580E+02  0.14967281546E+03  0.10507630449E+04  0.10648923471E+04  0.50400001928E-02 0.  1.
       -1    1    3    3    0  502 -0.86549308580E+02 -0.14967281546E+03 -0.20918656737E+04  0.20989985067E+04  0.50400001928E-02 0. -1.
</event>
<event>
 5   0  0.1813720E-07  0.3000461E+04  0.7818609E-02  0.8243599E-01
       -2   -1    0    0    0  501  0.00000000000E+00  0.00000000000E+00  0.10347187386E+04  0.10347187386E+04  0.25500000920E-02 0. -1.
        2   -1    0    0  501    0  0.00000000000E+00  0.00000000000E+00 -0.21751721605E+04  0.21751721605E+04  0.25500000920E-02 0.  1.
    10030    2    1    2    0    0  0.00000000000E+00  0.00000000000E+00 -0.11404534219E+04  0.32098908991E+04  0.30004608940E+04 0.  0.
        3    1    3    3  502    0 -0.14529551835E+04  0.35340540759E+03 -0.44044442033E+03  0.15588346433E+04  0.10100000352E+00 0. -1.
       -3    1    3    3    0  502  0.14529551835E+04 -0.35340540759E+03 -0.70000900159E+03  0.16510562558E+04  0.10100000352E+00 0.  1.
</event>
<event>
 5   0  0.1813720E-07  0.3001993E+04  0.7818609E-02  0.8243162E-01
       -2   -1    0    0    0  501  0.00000000000E+00  0.00000000000E+00  0.11975779929E+04  0.11975779929E+04  0.25500000920E-02 0.  1.
        2   -1    0    0  501    0  0.00000000000E+00  0.00000000000E+00 -0.18812887197E+04  0.18812887197E+04  0.25500000920E-02 0. -1.
    10030    2    1    2    0    0  0.00000000000E+00  0.00000000000E+00 -0.68371072686E+03  0.30788667126E+04  0.30019926509E+04 0.  0.
        3    1    3    3  502    0 -0.89722262488E+03  0.39990660992E+03 -0.15058438208E+04  0.17979152812E+04  0.10100000352E+00 0. -1.
       -3    1    3    3    0  502  0.89722262488E+03 -0.39990660992E+03  0.82213309399E+03  0.12809514314E+04  0.10100000352E+00 0.  1.
</event>
<event>
 5   0  0.1813720E-07  0.3000634E+04  0.7818609E-02  0.8243550E-01
       -2   -1    0    0    0  501  0.00000000000E+00  0.00000000000E+00  0.13588705829E+04  0.13588705829E+04  0.25500000920E-02 0. -1.
        2   -1    0    0  501    0  0.00000000000E+00  0.00000000000E+00 -0.16564867022E+04  0.16564867022E+04  0.25500000920E-02 0.  1.
    10030    2    1    2    0    0  0.00000000000E+00  0.00000000000E+00 -0.29761611933E+03  0.30153572852E+04  0.30006339668E+04 0.  0.
        3    1    3    3  502    0 -0.55671644960E+03  0.94893863931E+03  0.87626246965E+03  0.14065040606E+04  0.10100000352E+00 0. -1.
       -3    1    3    3    0  502  0.55671644960E+03 -0.94893863931E+03 -0.11738785890E+04  0.16088532246E+04  0.10100000352E+00 0.  1.
</event>
<event>
 5   0  0.6636007E-08  0.3001367E+04  0.7818609E-02  0.8243341E-01
        1   -1    0    0  501    0  0.00000000000E+00  0.00000000000E+00  0.24683138839E+04  0.24683138839E+04  0.50400001928E-02 0.  1.
       -1   -1    0    0    0  501  0.00000000000E+00  0.00000000000E+00 -0.91238417087E+03  0.91238417089E+03  0.50400001928E-02 0. -1.
    10030    2    1    2    0    0  0.00000000000E+00  0.00000000000E+00  0.15559297130E+04  0.33806980548E+04  0.30013666997E+04 0.  0.
        2    1    3    3  502    0 -0.10006637321E+04  0.92595406280E+03  0.71538668838E+02  0.13652240154E+04  0.25500000920E-02 0. -1.
       -2    1    3    3    0  502  0.10006637321E+04 -0.92595406280E+03  0.14843910442E+04  0.20154740394E+04  0.25500000920E-02 0.  1.
</event>
<event>
 5   0  0.1914439E-07  0.2999124E+04  0.7818609E-02  0.8243981E-01
        2   -1    0    0  501    0  0.00000000000E+00  0.00000000000E+00  0.82936078202E+03  0.82936078202E+03  0.25500000920E-02 0. -1.
       -2   -1    0    0    0  501  0.00000000000E+00  0.00000000000E+00 -0.27113482655E+04  0.27113482655E+04  0.25500000920E-02 0.  1.
    10030    2    1    2    0    0  0.00000000000E+00  0.00000000000E+00 -0.18819874835E+04  0.35407090476E+04  0.29991238173E+04 0.  0.
        5    1    3    3  502    0 -0.65618320647E+03 -0.78349441879E+03  0.35454221276E+03  0.10817403456E+04  0.46999998093E+01 0. -1.
       -5    1    3    3    0  502  0.65618320647E+03  0.78349441879E+03 -0.22365296963E+04  0.24589687019E+04  0.46999998093E+01 0.  1.
</event>
<event>
 5   0  0.1914439E-07  0.2999353E+04  0.7818609E-02  0.8243916E-01
        2   -1    0    0  501    0  0.00000000000E+00  0.00000000000E+00  0.21623912048E+04  0.21623912048E+04  0.25500000920E-02 0. -1.
       -2   -1    0    0    0  501  0.00000000000E+00  0.00000000000E+00 -0.10400658432E+04  0.10400658432E+04  0.25500000920E-02 0.  1.
    10030    2    1    2    0    0  0.00000000000E+00  0.00000000000E+00  0.11223253616E+04  0.32024570480E+04  0.29993527513E+04 0.  0.
        5    1    3    3  502    0 -0.91147994792E+02  0.57560624904E+03  0.20365347903E+04  0.21182838698E+04  0.46999998093E+01 0. -1.
       -5    1    3    3    0  502  0.91147994792E+02 -0.57560624904E+03 -0.91420942867E+03  0.10841731782E+04  0.46999998093E+01 0.  1.
</event>
<event>
 5   0  0.1810055E-07  0.2999315E+04  0.7818609E-02  0.8243927E-01
        2   -1    0    0  501    0  0.00000000000E+00  0.00000000000E+00  0.22093694453E+04  0.22093694453E+04  0.25500000920E-02 0. -1.
       -2   -1    0    0    0  501  0.00000000000E+00  0.00000000000E+00 -0.10179250097E+04  0.10179250097E+04  0.25500000920E-02 0.  1.
    10030    2    1    2    0    0  0.00000000000E+00  0.00000000000E+00  0.11914444356E+04  0.32272944549E+04  0.29993148644E+04 0.  0.
        4    1    3    3  502    0  0.94935529629E+03  0.60281236090E+03 -0.47181506113E+03  0.12195365045E+04  0.12699999809E+01 0.  1.
       -4    1    3    3    0  502 -0.94935529629E+03 -0.60281236090E+03  0.16632594967E+04  0.20077579504E+04  0.12699999809E+01 0. -1.
</event>
<event>
 5   0  0.1810055E-07  0.3000103E+04  0.7818609E-02  0.8243701E-01
       -2   -1    0    0    0  501  0.00000000000E+00  0.00000000000E+00  0.15910165565E+04  0.15910165565E+04  0.25500000920E-02 0. -1.
        2   -1    0    0  501    0  0.00000000000E+00  0.00000000000E+00 -0.14142877476E+04  0.14142877476E+04  0.25500000920E-02 0.  1.
    10030    2    1    2    0    0  0.00000000000E+00  0.00000000000E+00  0.17672880895E+03  0.30053043041E+04  0.30001034796E+04 0.  0.
        4    1    3    3  502    0  0.30685022588E+03 -0.69680228264E+02  0.15575838888E+04  0.15890505275E+04  0.12699999809E+01 0. -1.
       -4    1    3    3    0  502 -0.30685022588E+03  0.69680228264E+02 -0.13808550798E+04  0.14162537766E+04  0.12699999809E+01 0.  1.
</event>
<event>
 5   0  0.6525507E-08  0.3001487E+04  0.7818609E-02  0.8243306E-01
       -1   -1    0    0    0  501  0.00000000000E+00  0.00000000000E+00  0.12512446816E+04  0.12512446816E+04  0.50400001928E-02 0.  1.
        1   -1    0    0  501    0  0.00000000000E+00  0.00000000000E+00 -0.17999928935E+04  0.17999928935E+04  0.50400001928E-02 0. -1.
    10030    2    1    2    0    0  0.00000000000E+00  0.00000000000E+00 -0.54874821191E+03  0.30512375752E+04  0.30014873213E+04 0.  0.
        4    1    3    3  502    0  0.44954354248E+03 -0.11941325294E+04 -0.10775251494E+04  0.16700610633E+04  0.12699999809E+01 0. -1.
       -4    1    3    3    0  502 -0.44954354248E+03  0.11941325294E+04  0.52877693753E+03  0.13811765119E+04  0.12699999809E+01 0.  1.
</event>
<event>
 5   0  0.1813720E-07  0.3001660E+04  0.7818609E-02  0.8243257E-01
       -2   -1    0    0    0  501  0.00000000000E+00  0.00000000000E+00  0.13400125220E+04  0.13400125220E+04  0.25500000920E-02 0. -1.
        2   -1    0    0  501    0  0.00000000000E+00  0.00000000000E+00 -0.16809472266E+04  0.16809472266E+04  0.25500000920E-02 0.  1.
    10030    2    1    2    0    0  0.00000000000E+00  0.00000000000E+00 -0.34093470456E+03  0.30209597486E+04  0.30016597625E+04 0.  0.
        3    1    3    3  502    0 -0.11968887476E+03  0.40395234779E+03  0.12792762697E+04  0.13468669981E+04  0.10100000352E+00 0. -1.
       -3    1    3    3    0  502  0.11968887476E+03 -0.40395234779E+03 -0.16202109743E+04  0.16740927505E+04  0.10100000352E+00 0.  1.
</event>
<event>
 5   0  0.6525507E-08  0.2995001E+04  0.7818609E-02  0.8245160E-01
        1   -1    0    0  501    0  0.00000000000E+00  0.00000000000E+00  0.16671462317E+04  0.16671462317E+04  0.50400001928E-02 0. -1.
       -1   -1    0    0    0  501  0.00000000000E+00  0.00000000000E+00 -0.13451173481E+04  0.13451173482E+04  0.50400001928E-02 0.  1.
    10030    2    1    2    0    0  0.00000000000E+00  0.00000000000E+00  0.32202888353E+03  0.30122635798E+04  0.29950007133E+04 0.  0.
        4    1    3    3  502    0  0.71061502227E+03 -0.11002219557E+04  0.89117661590E+03  0.15841904669E+04  0.12699999809E+01 0. -1.
       -4    1    3    3    0  502 -0.71061502227E+03  0.11002219557E+04 -0.56914773237E+03  0.14280731129E+04  0.12699999809E+01 0.  1.
</event>
<event>
 5   0  0.1817566E-07  0.3000132E+04  0.7818609E-02  0.8243693E-01
       -2   -1    0    0    0  501  0.00000000000E+00  0.00000000000E+00  0.15601387730E+04  0.15601387731E+04  0.25500000920E-02 0. -1.
        2   -1    0    0  501    0  0.00000000000E+00  0.00000000000E+00 -0.14423064247E+04  0.14423064247E+04  0.25500000920E-02 0.  1.
    10030    2    1    2    0    0  0.00000000000E+00  0.00000000000E+00  0.11783234831E+03  0.30024451978E+04  0.30001321143E+04 0.  0.
        1    1    3    3  502    0 -0.75436055794E+02 -0.14936067209E+04  0.17582464896E+03  0.15058107260E+04  0.50400001928E-02 0. -1.
       -1    1    3    3    0  502  0.75436055794E+02  0.14936067209E+04 -0.57992300651E+02  0.14966344718E+04  0.50400001928E-02 0.  1.
</event>
<event>
 5   0  0.1821305E-07  0.2996414E+04  0.7818609E-02  0.8244756E-01
       -2   -1    0    0    0  501  0.00000000000E+00  0.00000000000E+00  0.87087393943E+03  0.87087393943E+03  0.25500000920E-02 0.  1.
        2   -1    0    0  501    0  0.00000000000E+00  0.00000000000E+00 -0.25774386772E+04  0.25774386772E+04  0.25500000920E-02 0. -1.
    10030    2    1    2    0    0  0.00000000000E+00  0.00000000000E+00 -0.17065647377E+04  0.34483126166E+04  0.29964139730E+04 0.  0.
        2    1    3    3  502    0 -0.47148224034E+03  0.13976697072E+04 -0.11552432431E+04  0.18735962917E+04  0.25500000920E-02 0. -1.
       -2    1    3    3    0  502  0.47148224034E+03 -0.13976697072E+04 -0.55132149466E+03  0.15747163249E+04  0.25500000920E-02 0.  1.
</event>
<event>
 5   0  0.6525507E-08  0.2998307E+04  0.7818609E-02  0.8244214E-01
        1   -1    0    0  501    0  0.00000000000E+00  0.00000000000E+00  0.21538220562E+04  0.21538220562E+04  0.50400001928E-02 0. -1.
       -1   -1    0    0    0  501  0.00000000000E+00  0.00000000000E+00 -0.10434759670E+04  0.10434759670E+04  0.50400001928E-02 0.  1.
    10030    2    1    2    0    0  0.00000000000E+00  0.00000000000E+00  0.11103460892E+04  0.31972980233E+04  0.29983072244E+04 0.  0.
        4    1    3    3  502    0  0.57247641470E+03 -0.13820455519E+04  0.66009402161E+03  0.16350855889E+04  0.12699999809E+01 0. -1.
       -4    1    3    3    0  502 -0.57247641470E+03  0.13820455519E+04  0.45025206758E+03  0.15622124344E+04  0.12699999809E+01 0.  1.
</event>
<event>
 5   0  0.6636007E-08  0.2999635E+04  0.7818609E-02  0.8243835E-01
        1   -1    0    0  501    0  0.00000000000E+00  0.00000000000E+00  0.26146351433E+04  0.26146351433E+04  0.50400001928E-02 0.  1.
       -1   -1    0    0    0  501  0.00000000000E+00  0.00000000000E+00 -0.86033127807E+03  0.86033127809E+03  0.50400001928E-02 0. -1.
    10030    2    1    2    0    0  0.00000000000E+00  0.00000000000E+00  0.17543038653E+04  0.34749664214E+04  0.29996349075E+04 0.  0.
        2    1    3    3  502    0  0.38002681949E+03 -0.64033968283E+02 -0.80199297411E+03  0.88978281797E+03  0.25500000920E-02 0. -1.
       -2    1    3    3    0  502 -0.38002681949E+03  0.64033968283E+02  0.25562968394E+04  0.25851836035E+04  0.25500000920E-02 0.  1.
</event>
<event>
 5   0  0.1810055E-07  0.2999417E+04  0.7818609E-02  0.8243897E-01
       -2   -1    0    0    0  501  0.00000000000E+00  0.00000000000E+00  0.13993967335E+04  0.13993967335E+04  0.25500000920E-02 0. -1.
        2   -1    0    0  501    0  0.00000000000E+00  0.00000000000E+00 -0.16072110566E+04  0.16072110566E+04  0.25500000920E-02 0.  1.
    10030    2    1    2    0    0  0.00000000000E+00  0.00000000000E+00 -0.20781432305E+03  0.30066077901E+04  0.29994172118E+04 0.  0.
        4    1    3    3  502    0 -0.94486546197E+03 -0.28821569640E+03  0.10271974031E+04  0.14251228532E+04  0.12699999809E+01 0. -1.
       -4    1    3    3    0  502  0.94486546197E+03  0.28821569640E+03 -0.12350117262E+04  0.15814849369E+04  0.12699999809E+01 0.  1.
</event>
<event>
 5   0  0.1810055E-07  0.2996879E+04  0.7818609E-02  0.8244623E-01
       -2   -1    0    0    0  501  0.00000000000E+00  0.00000000000E+00  0.91331543364E+03  0.91331543364E+03  0.25500000920E-02 0.  1.
        2   -1    0    0  501    0  0.00000000000E+00  0.00000000000E+00 -0.24584294378E+04  0.24584294378E+04  0.25500000920E-02 0. -1.
    10030    2    1    2    0    0  0.00000000000E+00  0.00000000000E+00 -0.15451140041E+04  0.33717448714E+04  0.29968794090E+04 0.  0.
        4    1    3    3  502    0  0.69933611896E+03 -0.39153543915E+03 -0.21970006748E+04  0.23386287832E+04  0.12699999809E+01 0. -1.
       -4    1    3    3    0  502 -0.69933611896E+03  0.39153543915E+03  0.65188667071E+03  0.10331160882E+04  0.12699999809E+01 0.  1.
</event>
<event>
 5   0  0.6525507E-08  0.3000455E+04  0.7818609E-02  0.8243601E-01
        1   -1    0    0  501    0  0.00000000000E+00  0.00000000000E+00  0.13040892110E+04  0.13040892110E+04  0.50400001928E-02 0. -1.
       -1   -1    0    0    0  501  0.00000000000E+00  0.00000000000E+00 -0.17258649255E+04  0.17258649255E+04  0.50400001928E-02 0.  1.
    10030    2    1    2    0    0  0.00000000000E+00  0.00000000000E+00 -0.42177571449E+03  0.30299541365E+04  0.30004545182E+04 0.  0.
        4    1    3    3  502    0 -0.42670489204E+03  0.13967716071E+03 -0.16564271077E+04  0.17161990415E+04  0.12699999809E+01 0.  1.
       -4    1    3    3    0  502  0.42670489204E+03 -0.13967716071E+03  0.12346513932E+04  0.13137550950E+04  0.12699999809E+01 0. -1.
</event>
<event>
 5   0  0.6636007E-08  0.3000268E+04  0.7818609E-02  0.8243654E-01
        1   -1    0    0  501    0  0.00000000000E+00  0.00000000000E+00  0.14595400331E+04  0.14595400332E+04  0.50400001928E-02 0.  1.
       -1   -1    0    0    0  501  0.00000000000E+00  0.00000000000E+00 -0.15418565716E+04  0.15418565716E+04  0.50400001928E-02 0. -1.
    10030    2    1    2    0    0  0.00000000000E+00  0.00000000000E+00 -0.82316538449E+02  0.30013966048E+04  0.30002675825E+04 0.  0.
        2    1    3    3  502    0 -0.91551469087E+03 -0.79029402372E+02  0.11450318346E+04  0.14681657597E+04  0.25500000920E-02 0.  1.
       -2    1    3    3    0  502  0.91551469087E+03  0.79029402372E+02 -0.12273483730E+04  0.15332308451E+04  0.25500000920E-02 0. -1.
</event>
<event>
 5   0  0.1914439E-07  0.3000195E+04  0.7818609E-02  0.8243675E-01
       -2   -1    0    0    0  501  0.00000000000E+00  0.00000000000E+00  0.80882990787E+03  0.80882990787E+03  0.25500000920E-02 0.  1.
        2   -1    0    0  501    0  0.00000000000E+00  0.00000000000E+00 -0.27821584233E+04  0.27821584233E+04  0.25500000920E-02 0. -1.
    10030    2    1    2    0    0  0.00000000000E+00  0.00000000000E+00 -0.19733285154E+04  0.35909883312E+04  0.30001952878E+04 0.  0.
        5    1    3    3  502    0  0.32224166672E+03  0.73832007927E+02 -0.27380054955E+04  0.27578954006E+04  0.46999998093E+01 0. -1.
       -5    1    3    3    0  502 -0.32224166672E+03 -0.73832007927E+02  0.76467698007E+03  0.83309293060E+03  0.46999998093E+01 0.  1.
</event>
<event>
 5   0  0.1914439E-07  0.3001089E+04  0.7818609E-02  0.8243420E-01
        2   -1    0    0  501    0  0.00000000000E+00  0.00000000000E+00  0.13467340635E+04  0.13467340635E+04  0.25500000920E-02 0.  1.
       -2   -1    0    0    0  501  0.00000000000E+00  0.00000000000E+00 -0.16719213745E+04  0.16719213745E+04  0.25500000920E-02 0. -1.
    10030    2    1    2    0    0  0.00000000000E+00  0.00000000000E+00 -0.32518731097E+03  0.30186554380E+04  0.30010887801E+04 0.  0.
        5    1    3    3  502    0  0.92672783118E+03 -0.28290324244E+03 -0.13150544332E+04  0.16334775695E+04  0.46999998093E+01 0. -1.
       -5    1    3    3    0  502 -0.92672783118E+03  0.28290324244E+03  0.98986712224E+03  0.13851778685E+04  0.46999998093E+01 0.  1.
</event>
<event>
 5   0  0.6464436E-08  0.3000047E+04  0.7818609E-02  0.8243717E-01
       -1   -1    0    0    0  501  0.00000000000E+00  0.00000000000E+00  0.12629100533E+04  0.12629100533E+04  0.50400001928E-02 0.  1.
        1   -1    0    0  501    0  0.00000000000E+00  0.00000000000E+00 -0.17816554943E+04  0.17816554943E+04  0.50400001928E-02 0. -1.
    10030    2    1    2    0    0  0.00000000000E+00  0.00000000000E+00 -0.51874544097E+03  0.30445655476E+04  0.30000470898E+04 0.  0.
        5    1    3    3  502    0  0.11460431074E+04 -0.88687965504E+03 -0.65252073825E+03  0.15892689295E+04  0.46999998093E+01 0. -1.
       -5    1    3    3    0  502 -0.11460431074E+04  0.88687965504E+03  0.13377529727E+03  0.14552966181E+04  0.46999998093E+01 0.  1.
</event>
<event>
 5   0  0.1821305E-07  0.2999788E+04  0.7818609E-02  0.8243791E-01
        2   -1    0    0  501    0  0.00000000000E+00  0.00000000000E+00  0.10800636183E+04  0.10800636183E+04  0.25500000920E-02 0.  1.
       -2   -1    0    0    0  501  0.00000000000E+00  0.00000000000E+00 -0.20829166783E+04  0.20829166783E+04  0.25500000920E-02 0. -1.
    10030    2    1    2    0    0  0.00000000000E+00  0.00000000000E+00 -0.10028530600E+04  0.31629802966E+04  0.29997883420E+04 0.  0.
        2    1    3    3  502    0  0.14842707226E+04 -0.96006667073E+02 -0.70535345501E+03  0.16461471242E+04  0.25500000920E-02 0.  1.
       -2    1    3    3    0  502 -0.14842707226E+04  0.96006667073E+02 -0.29749960502E+03  0.15168331724E+04  0.25500000920E-02 0. -1.
</event>
<event>
 5   0  0.6525507E-08  0.3001912E+04  0.7818609E-02  0.8243185E-01
        1   -1    0    0  501    0  0.00000000000E+00  0.00000000000E+00  0.17004187065E+04  0.17004187065E+04  0.50400001928E-02 0.  1.
       -1   -1    0    0    0  501  0.00000000000E+00  0.00000000000E+00 -0.13248910991E+04  0.13248910991E+04  0.50400001928E-02 0. -1.
    10030    2    1    2    0    0  0.00000000000E+00  0.00000000000E+00  0.37552760737E+03  0.30253098056E+04  0.30019124631E+04 0.  0.
        4    1    3    3  502    0 -0.12866731690E+04 -0.62388869414E+03  0.64750249321E+03  0.15697216435E+04  0.12699999809E+01 0.  1.
       -4    1    3    3    0  502  0.12866731690E+04  0.62388869414E+03 -0.27197488583E+03  0.14555881622E+04  0.12699999809E+01 0. -1.
</event>
<event>
 5   0  0.1813720E-07  0.3001631E+04  0.7818609E-02  0.8243265E-01
       -2   -1    0    0    0  501  0.00000000000E+00  0.00000000000E+00  0.15509284486E+04  0.15509284486E+04  0.25500000920E-02 0.  1.
        2   -1    0    0  501    0  0.00000000000E+00  0.00000000000E+00 -0.14523217755E+04  0.14523217755E+04  0.25500000920E-02 0. -1.
    10030    2    1    2    0    0  0.00000000000E+00  0.00000000000E+00  0.98606673071E+02  0.30032502241E+04  0.30016309954E+04 0.  0.
        3    1    3    3  502    0 -0.51912268133E+03  0.10674669084E+04 -0.86960006280E+03  0.14714544635E+04  0.10100000352E+00 0. -1.
       -3    1    3    3    0  502  0.51912268133E+03 -0.10674669084E+04  0.96820673587E+03  0.15317957606E+04  0.10100000352E+00 0.  1.
</event>
<event>
 5   0  0.6017625E-08  0.2998348E+04  0.7818609E-02  0.8244203E-01
        4   -1    0    0  501    0  0.00000000000E+00  0.00000000000E+00  0.14298289108E+04  0.14298294748E+04  0.12699999809E+01 0. -1.
       -4   -1    0    0    0  501  0.00000000000E+00  0.00000000000E+00 -0.15718811786E+04  0.15718816916E+04  0.12699999809E+01 0.  1.
    10030    2    1    2    0    0  0.00000000000E+00  0.00000000000E+00 -0.14205226782E+03  0.30017111664E+04  0.29983480585E+04 0.  0.
        1    1    3    3  502    0 -0.90510053448E+03 -0.20975066051E+03 -0.12489173218E+04  0.15565978266E+04  0.50400001928E-02 0.  1.
       -1    1    3    3    0  502  0.90510053448E+03  0.20975066051E+03  0.11068650540E+04  0.14451133398E+04  0.50400001928E-02 0. -1.
</event>
<event>
 5   0  0.1821305E-07  0.2998743E+04  0.7818609E-02  0.8244090E-01
        2   -1    0    0  501    0  0.00000000000E+00  0.00000000000E+00  0.70435019201E+03  0.70435019202E+03  0.25500000920E-02 0.  1.
       -2   -1    0    0    0  501  0.00000000000E+00  0.00000000000E+00 -0.31917569066E+04  0.31917569066E+04  0.25500000920E-02 0. -1.
    10030    2    1    2    0    0  0.00000000000E+00  0.00000000000E+00 -0.24874067145E+04  0.38961070986E+04  0.29987427966E+04 0.  0.
        2    1    3    3  502    0 -0.62889679775E+03  0.11894535949E+04 -0.21033724438E+04  0.24968954071E+04  0.25500000920E-02 0. -1.
       -2    1    3    3    0  502  0.62889679775E+03 -0.11894535949E+04 -0.38403427077E+03  0.13992116915E+04  0.25500000920E-02 0.  1.
</event>
<event>
 5   0  0.6679022E-08  0.3000704E+04  0.7818609E-02  0.8243530E-01
       -1   -1    0    0    0  501  0.00000000000E+00  0.00000000000E+00  0.77454589612E+03  0.77454589614E+03  0.50400001928E-02 0.  1.
        1   -1    0    0  501    0  0.00000000000E+00  0.00000000000E+00 -0.29062918488E+04  0.29062918488E+04  0.50400001928E-02 0. -1.
    10030    2    1    2    0    0  0.00000000000E+00  0.00000000000E+00 -0.21317459527E+04  0.36808377449E+04  0.30007042003E+04 0.  0.
        3    1    3    3  502    0 -0.60229616186E+03  0.10225818030E+04 -0.21918769859E+04  0.24925406601E+04  0.10100000352E+00 0. -1.
       -3    1    3    3    0  502  0.60229616186E+03 -0.10225818030E+04  0.60131033282E+02  0.11882970848E+04  0.10100000352E+00 0.  1.
</event>
<event>
 5   0  0.1821305E-07  0.2987693E+04  0.7818609E-02  0.8247254E-01
        2   -1    0    0  501    0  0.00000000000E+00  0.00000000000E+00  0.10888116651E+04  0.10888116651E+04  0.25500000920E-02 0. -1.
       -2   -1    0    0    0  501  0.00000000000E+00  0.00000000000E+00 -0.20495533044E+04  0.20495533044E+04  0.25500000920E-02 0.  1.
    10030    2    1    2    0    0  0.00000000000E+00  0.00000000000E+00 -0.96074163931E+03  0.31383649695E+04  0.29876931209E+04 0.  0.
        2    1    3    3  502    0 -0.13628501458E+04 -0.16245119536E+03 -0.10998816144E+04  0.17588321343E+04  0.25500000920E-02 0.  1.
       -2    1    3    3    0  502  0.13628501458E+04  0.16245119536E+03  0.13913997511E+03  0.13795328352E+04  0.25500000920E-02 0. -1.
</event>
<event>
 5   0  0.6464436E-08  0.2999793E+04  0.7818609E-02  0.8243790E-01
       -1   -1    0    0    0  501  0.00000000000E+00  0.00000000000E+00  0.23853714212E+04  0.23853714212E+04  0.50400001928E-02 0. -1.
        1   -1    0    0  501    0  0.00000000000E+00  0.00000000000E+00 -0.94311924942E+03  0.94311924943E+03  0.50400001928E-02 0.  1.
    10030    2    1    2    0    0  0.00000000000E+00  0.00000000000E+00  0.14422521717E+04  0.33284906706E+04  0.29997931291E+04 0.  0.
        5    1    3    3  502    0 -0.18843569324E+03 -0.14071885163E+04  0.12578432493E+04  0.18968076499E+04  0.46999998093E+01 0. -1.
       -5    1    3    3    0  502  0.18843569324E+03  0.14071885163E+04  0.18440892246E+03  0.14316830207E+04  0.46999998093E+01 0.  1.
</event>
<event>
 5   0  0.6525507E-08  0.2998985E+04  0.7818609E-02  0.8244021E-01
        1   -1    0    0  501    0  0.00000000000E+00  0.00000000000E+00  0.19435108462E+04  0.19435108462E+04  0.50400001928E-02 0. -1.
       -1   -1    0    0    0  501  0.00000000000E+00  0.00000000000E+00 -0.11569157301E+04  0.11569157302E+04  0.50400001928E-02 0.  1.
    10030    2    1    2    0    0  0.00000000000E+00  0.00000000000E+00  0.78659511604E+03  0.31004265763E+04  0.29989853415E+04 0.  0.
        4    1    3    3  502    0 -0.21779617246E+03 -0.27783892469E+02  0.19268020452E+04  0.19392717323E+04  0.12699999809E+01 0. -1.
       -4    1    3    3    0  502  0.21779617246E+03  0.27783892469E+02 -0.11402069292E+04  0.11611548440E+04  0.12699999809E+01 0.  1.
</event>
<event>
 5   0  0.1813720E-07  0.2999547E+04  0.7818609E-02  0.8243860E-01
       -2   -1    0    0    0  501  0.00000000000E+00  0.00000000000E+00  0.10200803935E+04  0.10200803935E+04  0.25500000920E-02 0. -1.
        2   -1    0    0  501    0  0.00000000000E+00  0.00000000000E+00 -0.22050421006E+04  0.22050421006E+04  0.25500000920E-02 0.  1.
    10030    2    1    2    0    0  0.00000000000E+00  0.00000000000E+00 -0.11849617071E+04  0.32251224941E+04  0.29995467748E+04 0.  0.
        3    1    3    3  502    0 -0.12816941514E+03 -0.10233113078E+04  0.57831961732E+03  0.11823903846E+04  0.10100000352E+00 0. -1.
       -3    1    3    3    0  502  0.12816941514E+03  0.10233113078E+04 -0.17632813244E+04  0.20427321094E+04  0.10100000352E+00 0.  1.
</event>
<event>
 5   0  0.6679022E-08  0.3000328E+04  0.7818609E-02  0.8243637E-01
       -1   -1    0    0    0  501  0.00000000000E+00  0.00000000000E+00  0.12709620367E+04  0.12709620367E+04  0.50400001928E-02 0. -1.
        1   -1    0    0  501    0  0.00000000000E+00  0.00000000000E+00 -0.17707000295E+04  0.17707000295E+04  0.50400001928E-02 0.  1.
    10030    2    1    2    0    0  0.00000000000E+00  0.00000000000E+00 -0.49973799280E+03  0.30416620663E+04  0.30003283260E+04 0.  0.
        3    1    3    3  502    0  0.16995070857E+03  0.29538437036E+03 -0.17309395415E+04  0.17641674740E+04  0.10100000352E+00 0.  1.
       -3    1    3    3    0  502 -0.16995070857E+03 -0.29538437036E+03  0.12312015487E+04  0.12774945923E+04  0.10100000352E+00 0. -1.
</event>
<event>
 5   0  0.6636007E-08  0.2999394E+04  0.7818609E-02  0.8243904E-01
       -1   -1    0    0    0  501  0.00000000000E+00  0.00000000000E+00  0.15111504696E+04  0.15111504697E+04  0.50400001928E-02 0.  1.
        1   -1    0    0  501    0  0.00000000000E+00  0.00000000000E+00 -0.14883303406E+04  0.14883303407E+04  0.50400001928E-02 0. -1.
    10030    2    1    2    0    0  0.00000000000E+00  0.00000000000E+00  0.22820129004E+02  0.29994808103E+04  0.29993940010E+04 0.  0.
        2    1    3    3  502    0 -0.90377213526E+03 -0.15742736351E+03  0.11978269895E+04  0.15087666964E+04  0.25500000920E-02 0.  1.
       -2    1    3    3    0  502  0.90377213526E+03  0.15742736351E+03 -0.11750068605E+04  0.14907141139E+04  0.25500000920E-02 0. -1.
</event>
<event>
 5   0  0.6636007E-08  0.3001315E+04  0.7818609E-02  0.8243355E-01
       -1   -1    0    0    0  501  0.00000000000E+00  0.00000000000E+00  0.11925375076E+04  0.11925375076E+04  0.50400001928E-02 0.  1.
        1   -1    0    0  501    0  0.00000000000E+00  0.00000000000E+00 -0.18883880768E+04  0.18883880768E+04  0.50400001928E-02 0. -1.
    10030    2    1    2    0    0  0.00000000000E+00  0.00000000000E+00 -0.69585056917E+03  0.30809255844E+04  0.30013154520E+04 0.  0.
        2    1    3    3  502    0 -0.14474171381E+04 -0.29436054292E+03 -0.62011728899E+03  0.16019394349E+04  0.25500000920E-02 0. -1.
       -2    1    3    3    0  502  0.14474171381E+04  0.29436054292E+03 -0.75733280176E+02  0.14789861496E+04  0.25500000920E-02 0.  1.
</event>
<event>
 5   0  0.1810055E-07  0.2999998E+04  0.7818609E-02  0.8243731E-01
        2   -1    0    0  501    0  0.00000000000E+00  0.00000000000E+00  0.20220629178E+04  0.20220629178E+04  0.25500000920E-02 0.  1.
       -2   -1    0    0    0  501  0.00000000000E+00  0.00000000000E+00 -0.11127235165E+04  0.11127235165E+04  0.25500000920E-02 0. -1.
    10030    2    1    2    0    0  0.00000000000E+00  0.00000000000E+00  0.90933940128E+03  0.31347864342E+04  0.29999979736E+04 0.  0.
        4    1    3    3  502    0 -0.14392452988E+04 -0.27927028968E+03  0.78605641249E+03  0.16635219329E+04  0.12699999809E+01 0.  1.
       -4    1    3    3    0  502  0.14392452988E+04  0.27927028968E+03  0.12328298880E+03  0.14712645013E+04  0.12699999809E+01 0. -1.
</event>
<event>
 5   0  0.6374748E-08  0.2999713E+04  0.7818609E-02  0.8243813E-01
       -1   -1    0    0    0  501  0.00000000000E+00  0.00000000000E+00  0.14182090342E+04  0.14182090342E+04  0.50400001928E-02 0.  1.
        1   -1    0    0  501    0  0.00000000000E+00  0.00000000000E+00 -0.15862039578E+04  0.15862039578E+04  0.50400001928E-02 0. -1.
    10030    2    1    2    0    0  0.00000000000E+00  0.00000000000E+00 -0.16799492358E+03  0.30044129919E+04  0.29997125082E+04 0.  0.
        1    1    3    3  502    0 -0.76833924762E+03  0.36417274188E+03 -0.13214908352E+04  0.15714022441E+04  0.50400001928E-02 0. -1.
       -1    1    3    3    0  502  0.76833924762E+03 -0.36417274188E+03  0.11534959116E+04  0.14330107478E+04  0.50400001928E-02 0.  1.
</event>
<event>
 5   0  0.6374748E-08  0.2998751E+04  0.7818609E-02  0.8244088E-01
       -1   -1    0    0    0  501  0.00000000000E+00  0.00000000000E+00  0.19462044058E+04  0.19462044058E+04  0.50400001928E-02 0. -1.
        1   -1    0    0  501    0  0.00000000000E+00  0.00000000000E+00 -0.11551342892E+04  0.11551342892E+04  0.50400001928E-02 0.  1.
    10030    2    1    2    0    0  0.00000000000E+00  0.00000000000E+00  0.79107011666E+03  0.31013386950E+04  0.29987513688E+04 0.  0.
        1    1    3    3  502    0  0.12233888015E+04  0.84578208693E+02  0.12877735235E+04  0.17782559661E+04  0.50400001928E-02 0. -1.
       -1    1    3    3    0  502 -0.12233888015E+04 -0.84578208693E+02 -0.49670340686E+03  0.13230827289E+04  0.50400001928E-02 0.  1.
</event>
<event>
 5   0  0.1914439E-07  0.3001482E+04  0.7818609E-02  0.8243308E-01
        2   -1    0    0  501    0  0.00000000000E+00  0.00000000000E+00  0.22596471951E+04  0.22596471951E+04  0.25500000920E-02 0. -1.
       -2   -1    0    0    0  501  0.00000000000E+00  0.00000000000E+00 -0.99671476652E+03  0.99671476652E+03  0.25500000920E-02 0.  1.
    10030    2    1    2    0    0  0.00000000000E+00  0.00000000000E+00  0.12629324286E+04  0.32563619616E+04  0.30014821182E+04 0.  0.
        5    1    3    3  502    0 -0.75657542942E+03  0.97374631292E+03  0.15594443218E+04  0.19880837370E+04  0.46999998093E+01 0. -1.
       -5    1    3    3    0  502  0.75657542942E+03 -0.97374631292E+03 -0.29651189323E+03  0.12682782247E+04  0.46999998093E+01 0.  1.
</event>
<event>
 5   0  0.1817566E-07  0.3000479E+04  0.7818609E-02  0.8243594E-01
       -2   -1    0    0    0  501  0.00000000000E+00  0.00000000000E+00  0.12456443844E+04  0.12456443844E+04  0.25500000920E-02 0. -1.
        2   -1    0    0  501    0  0.00000000000E+00  0.00000000000E+00 -0.18068705717E+04  0.18068705717E+04  0.25500000920E-02 0.  1.
    10030    2    1    2    0    0  0.00000000000E+00  0.00000000000E+00 -0.56122618732E+03  0.30525149561E+04  0.30004787491E+04 0.  0.
        1    1    3    3  502    0  0.13764691392E+04 -0.59424220236E+03 -0.33565400704E+03  0.15363771343E+04  0.50400001928E-02 0.  1.
       -1    1    3    3    0  502 -0.13764691392E+04  0.59424220236E+03 -0.22557218029E+03  0.15161378218E+04  0.50400001928E-02 0. -1.
</event>
<event>
 5   0  0.1817566E-07  0.3000173E+04  0.7818609E-02  0.8243681E-01
       -2   -1    0    0    0  501  0.00000000000E+00  0.00000000000E+00  0.11628573948E+04  0.11628573948E+04  0.25500000920E-02 0. -1.
        2   -1    0    0  501    0  0.00000000000E+00  0.00000000000E+00 -0.19351126117E+04  0.19351126117E+04  0.25500000920E-02 0.  1.
    10030    2    1    2    0    0  0.00000000000E+00  0.00000000000E+00 -0.77225521691E+03  0.30979700065E+04  0.30001733352E+04 0.  0.
        1    1    3    3  502    0  0.52728157305E+03  0.53964115565E+03  0.95267794685E+03  0.12152504699E+04  0.50400001928E-02 0. -1.
       -1    1    3    3    0  502 -0.52728157305E+03 -0.53964115565E+03 -0.17249331638E+04  0.18827195366E+04  0.50400001928E-02 0.  1.
</event>
<event>
 5   0  0.6679022E-08  0.3003011E+04  0.7818609E-02  0.8242872E-01
       -1   -1    0    0    0  501  0.00000000000E+00  0.00000000000E+00  0.92702129889E+03  0.92702129891E+03  0.50400001928E-02 0.  1.
        1   -1    0    0  501    0  0.00000000000E+00  0.00000000000E+00 -0.24320027002E+04  0.24320027002E+04  0.50400001928E-02 0. -1.
    10030    2    1    2    0    0  0.00000000000E+00  0.00000000000E+00 -0.15049814013E+04  0.33590239991E+04  0.30030106907E+04 0.  0.
        3    1    3    3  502    0 -0.85640633479E+03  0.23163313415E+03 -0.21074782541E+04  0.22866023530E+04  0.10100000352E+00 0. -1.
       -3    1    3    3    0  502  0.85640633479E+03 -0.23163313415E+03  0.60249685283E+03  0.10724216461E+04  0.10100000352E+00 0.  1.
</event>
<event>
 5   0  0.1914439E-07  0.3002154E+04  0.7818609E-02  0.8243116E-01
        2   -1    0    0  501    0  0.00000000000E+00  0.00000000000E+00  0.16375799059E+04  0.16375799059E+04  0.25500000920E-02 0. -1.
       -2   -1    0    0    0  501  0.00000000000E+00  0.00000000000E+00 -0.13759522081E+04  0.13759522081E+04  0.25500000920E-02 0.  1.
    10030    2    1    2    0    0  0.00000000000E+00  0.00000000000E+00  0.26162769774E+03  0.30135321140E+04  0.30021536853E+04 0.  0.
        5    1    3    3  502    0 -0.25179115936E+03 -0.44962371137E+03  0.15459974463E+04  0.16296289343E+04  0.46999998093E+01 0. -1.
       -5    1    3    3    0  502  0.25179115936E+03  0.44962371137E+03 -0.12843697485E+04  0.13839031797E+04  0.46999998093E+01 0.  1.
</event>
<event>
 5   0  0.1821305E-07  0.2999659E+04  0.7818609E-02  0.8243828E-01
        2   -1    0    0  501    0  0.00000000000E+00  0.00000000000E+00  0.28093171047E+04  0.28093171047E+04  0.25500000920E-02 0.  1.
       -2   -1    0    0    0  501  0.00000000000E+00  0.00000000000E+00 -0.80072422423E+03  0.80072422423E+03  0.25500000920E-02 0. -1.
    10030    2    1    2    0    0  0.00000000000E+00  0.00000000000E+00  0.20085928805E+04  0.36100413290E+04  0.29996588201E+04 0.  0.
        2    1    3    3  502    0 -0.72164412003E+03 -0.11347363044E+04  0.20500589042E+03  0.13603029559E+04  0.25500000920E-02 0. -1.
       -2    1    3    3    0  502  0.72164412003E+03  0.11347363044E+04  0.18035869901E+04  0.22497383731E+04  0.25500000920E-02 0.  1.
</event>
<event>
 5   0  0.6464436E-08  0.3003677E+04  0.7818609E-02  0.8242682E-01
       -1   -1    0    0    0  501  0.00000000000E+00  0.00000000000E+00  0.12612195786E+04  0.12612195786E+04  0.50400001928E-02 0.  1.
        1   -1    0    0  501    0  0.00000000000E+00  0.00000000000E+00 -0.17883634208E+04  0.17883634208E+04  0.50400001928E-02 0. -1.
    10030    2    1    2    0    0  0.00000000000E+00  0.00000000000E+00 -0.52714384221E+03  0.30495829995E+04  0.30036770533E+04 0.  0.
        5    1    3    3  502    0 -0.12508261577E+04  0.82567254942E+03 -0.36093136132E+03  0.15416208267E+04  0.46999998093E+01 0.  1.
       -5    1    3    3    0  502  0.12508261577E+04 -0.82567254942E+03 -0.16621248089E+03  0.15079621728E+04  0.46999998093E+01 0. -1.
</event>
<event>
 5   0  0.1817566E-07  0.3001194E+04  0.7818609E-02  0.8243390E-01
       -2   -1    0    0    0  501  0.00000000000E+00  0.00000000000E+00  0.24346136979E+04  0.24346136979E+04  0.25500000920E-02 0. -1.
        2   -1    0    0  501    0  0.00000000000E+00  0.00000000000E+00 -0.92490689796E+03  0.92490689797E+03  0.25500000920E-02 0.  1.
    10030    2    1    2    0    0  0.00000000000E+00  0.00000000000E+00  0.15097067999E+04  0.33595205959E+04  0.30011937645E+04 0.  0.
        1    1    3    3  502    0 -0.31091288362E+03  0.60515581437E+03  0.22520457309E+04  0.23525710096E+04  0.50400001928E-02 0. -1.
       -1    1    3    3    0  502  0.31091288362E+03 -0.60515581437E+03 -0.74233893098E+03  0.10069495863E+04  0.50400001928E-02 0.  1.
</event>
<event>
 5   0  0.1810055E-07  0.2996492E+04  0.7818609E-02  0.8244733E-01
        2   -1    0    0  501    0  0.00000000000E+00  0.00000000000E+00  0.19816427354E+04  0.19816427354E+04  0.25500000920E-02 0. -1.
       -2   -1    0    0    0  501  0.00000000000E+00  0.00000000000E+00 -0.11327681164E+04  0.11327681164E+04  0.25500000920E-02 0.  1.
    10030    2    1    2    0    0  0.00000000000E+00  0.00000000000E+00  0.84887461908E+03  0.31144108518E+04  0.29964924220E+04 0.  0.
        4    1    3    3  502    0 -0.78292905899E+03 -0.11789637677E+04  0.93552663732E+03  0.16965097050E+04  0.12699999809E+01 0. -1.
       -4    1    3    3    0  502  0.78292905899E+03  0.11789637677E+04 -0.86652018237E+02  0.14179011468E+04  0.12699999809E+01 0.  1.
</event>
<event>
 5   0  0.1817566E-07  0.3004503E+04  0.7818609E-02  0.8242446E-01
        2   -1    0    0  501    0  0.00000000000E+00  0.00000000000E+00  0.15527719929E+04  0.15527719929E+04  0.25500000920E-02 0. -1.
       -2   -1    0    0    0  501  0.00000000000E+00  0.00000000000E+00 -0.14533742879E+04  0.14533742879E+04  0.25500000920E-02 0.  1.
    10030    2    1    2    0    0  0.00000000000E+00  0.00000000000E+00  0.99397704983E+02  0.30061462808E+04  0.30045025474E+04 0.  0.
        1    1    3    3  502    0 -0.64534912055E+03  0.68187341880E+03 -0.11236882598E+04  0.14642752992E+04  0.50400001928E-02 0.  1.
       -1    1    3    3    0  502  0.64534912055E+03 -0.68187341880E+03  0.12230859647E+04  0.15418709816E+04  0.50400001928E-02 0. -1.
</event>
<event>
 5   0  0.1821305E-07  0.3000052E+04  0.7818609E-02  0.8243716E-01
        2   -1    0    0  501    0  0.00000000000E+00  0.00000000000E+00  0.19120422532E+04  0.19120422532E+04  0.25500000920E-02 0.  1.
       -2   -1    0    0    0  501  0.00000000000E+00  0.00000000000E+00 -0.11767927961E+04  0.11767927961E+04  0.25500000920E-02 0. -1.
    10030    2    1    2    0    0  0.00000000000E+00  0.00000000000E+00  0.73524945708E+03  0.30888350493E+04  0.30000516992E+04 0.  0.
        2    1    3    3  502    0  0.56393774267E+03 -0.13074229326E+04 -0.11824876489E+03  0.14287628469E+04  0.25500000920E-02 0. -1.
       -2    1    3    3    0  502 -0.56393774267E+03  0.13074229326E+04  0.85349822197E+03  0.16600722024E+04  0.25500000920E-02 0.  1.
</event>
<event>
 5   0  0.6636007E-08  0.3000704E+04  0.7818609E-02  0.8243530E-01
        1   -1    0    0  501    0  0.00000000000E+00  0.00000000000E+00  0.16362160675E+04  0.16362160675E+04  0.50400001928E-02 0.  1.
       -1   -1    0    0    0  501  0.00000000000E+00  0.00000000000E+00 -0.13757698116E+04  0.13757698116E+04  0.50400001928E-02 0. -1.
    10030    2    1    2    0    0  0.00000000000E+00  0.00000000000E+00  0.26044625594E+03  0.30119858791E+04  0.30007043646E+04 0.  0.
        2    1    3    3  502    0  0.49085257806E+03 -0.74829193357E+03 -0.10785383672E+04  0.14014713985E+04  0.25500000920E-02 0. -1.
       -2    1    3    3    0  502 -0.49085257806E+03  0.74829193357E+03  0.13389846231E+04  0.16105144806E+04  0.25500000920E-02 0.  1.
</event>
<event>
 5   0  0.6636007E-08  0.2999681E+04  0.7818609E-02  0.8243822E-01
        1   -1    0    0  501    0  0.00000000000E+00  0.00000000000E+00  0.16568687004E+04  0.16568687004E+04  0.50400001928E-02 0.  1.
       -1   -1    0    0    0  501  0.00000000000E+00  0.00000000000E+00 -0.13576944593E+04  0.13576944593E+04  0.50400001928E-02 0. -1.
    10030    2    1    2    0    0  0.00000000000E+00  0.00000000000E+00  0.29917424113E+03  0.30145631597E+04  0.29996809526E+04 0.  0.
        2    1    3    3  502    0  0.99211905573E+02 -0.61889026480E+03 -0.12197637052E+04  0.13713831188E+04  0.25500000920E-02 0. -1.
       -2    1    3    3    0  502 -0.99211905573E+02  0.61889026480E+03  0.15189379463E+04  0.16431800409E+04  0.25500000920E-02 0.  1.
</event>
<event>
 5   0  0.1817566E-07  0.2999172E+04  0.7818609E-02  0.8243967E-01
        2   -1    0    0  501    0  0.00000000000E+00  0.00000000000E+00  0.12971872679E+04  0.12971872679E+04  0.25500000920E-02 0.  1.
       -2   -1    0    0    0  501  0.00000000000E+00  0.00000000000E+00 -0.17335651512E+04  0.17335651512E+04  0.25500000920E-02 0. -1.
    10030    2    1    2    0    0  0.00000000000E+00  0.00000000000E+00 -0.43637788322E+03  0.30307524191E+04  0.29991723140E+04 0.  0.
        1    1    3    3  502    0  0.89938305905E+02  0.98684343401E+03  0.91918885502E+03  0.13516127453E+04  0.50400001928E-02 0.  1.
       -1    1    3    3    0  502 -0.89938305905E+02 -0.98684343401E+03 -0.13555667382E+04  0.16791396738E+04  0.50400001928E-02 0. -1.
</event>
<event>
 5   0  0.6374748E-08  0.2998230E+04  0.7818609E-02  0.8244236E-01
        1   -1    0    0  501    0  0.00000000000E+00  0.00000000000E+00  0.28036045223E+04  0.28036045223E+04  0.50400001928E-02 0. -1.
       -1   -1    0    0    0  501  0.00000000000E+00  0.00000000000E+00 -0.80159182956E+03  0.80159182957E+03  0.50400001928E-02 0.  1.
    10030    2    1    2    0    0  0.00000000000E+00  0.00000000000E+00  0.20020126927E+04  0.36051963519E+04  0.29982304637E+04 0.  0.
        1    1    3    3  502    0 -0.38629192861E+03 -0.12763817317E+04  0.18244589692E+04  0.22598721888E+04  0.50400001928E-02 0. -1.
       -1    1    3    3    0  502  0.38629192861E+03  0.12763817317E+04  0.17755372353E+03  0.13453241631E+04  0.50400001928E-02 0.  1.
</event>
<event>
 5   0  0.6464436E-08  0.3000660E+04  0.7818609E-02  0.8243542E-01
       -1   -1    0    0    0  501  0.00000000000E+00  0.00000000000E+00  0.31853735755E+04  0.31853735755E+04  0.50400001928E-02 0. -1.
        1   -1    0    0  501    0  0.00000000000E+00  0.00000000000E+00 -0.70666452236E+03  0.70666452237E+03  0.50400001928E-02 0.  1.
    10030    2    1    2    0    0  0.00000000000E+00  0.00000000000E+00  0.24787090531E+04  0.38920380979E+04  0.30006602582E+04 0.  0.
        5    1    3    3  502    0 -0.30174995927E+03 -0.95789143206E+03  0.26850734871E+04  0.28667491614E+04  0.46999998093E+01 0. -1.
       -5    1    3    3    0  502  0.30174995927E+03  0.95789143206E+03 -0.20636443397E+03  0.10252889364E+04  0.46999998093E+01 0.  1.
</event>
<event>
 5   0  0.1817566E-07  0.3000186E+04  0.7818609E-02  0.8243678E-01
       -2   -1    0    0    0  501  0.00000000000E+00  0.00000000000E+00  0.12970814744E+04  0.12970814744E+04  0.25500000920E-02 0.  1.
        2   -1    0    0  501    0  0.00000000000E+00  0.00000000000E+00 -0.17348783498E+04  0.17348783498E+04  0.25500000920E-02 0. -1.
    10030    2    1    2    0    0  0.00000000000E+00  0.00000000000E+00 -0.43779687536E+03  0.30319598242E+04  0.30001857062E+04 0.  0.
        1    1    3    3  502    0  0.12737710261E+04 -0.72044772173E+03 -0.55214985749E+03  0.15640994251E+04  0.50400001928E-02 0. -1.
       -1    1    3    3    0  502 -0.12737710261E+04  0.72044772173E+03  0.11435298212E+03  0.14678603991E+04  0.50400001928E-02 0.  1.
</event>
<event>
 5   0  0.6525507E-08  0.3000388E+04  0.7818609E-02  0.8243620E-01
        1   -1    0    0  501    0  0.00000000000E+00  0.00000000000E+00  0.14362544651E+04  0.14362544651E+04  0.50400001928E-02 0. -1.
       -1   -1    0    0    0  501  0.00000000000E+00  0.00000000000E+00 -0.15669801756E+04  0.15669801756E+04  0.50400001928E-02 0.  1.
    10030    2    1    2    0    0  0.00000000000E+00  0.00000000000E+00 -0.13072571052E+03  0.30032346407E+04  0.30003881575E+04 0.  0.
        4    1    3    3  502    0  0.20091888613E+02 -0.13764712892E+04 -0.66216987884E+03  0.15275953179E+04  0.12699999809E+01 0.  1.
       -4    1    3    3    0  502 -0.20091888613E+02  0.13764712892E+04  0.53144416833E+03  0.14756393228E+04  0.12699999809E+01 0. -1.
</event>
<event>
 5   0  0.1821305E-07  0.3023392E+04  0.7818609E-02  0.8237082E-01
        2   -1    0    0  501    0  0.00000000000E+00  0.00000000000E+00  0.15606471287E+04  0.15606471287E+04  0.25500000920E-02 0.  1.
       -2   -1    0    0    0  501  0.00000000000E+00  0.00000000000E+00 -0.14642805313E+04  0.14642805313E+04  0.25500000920E-02 0. -1.
    10030    2    1    2    0    0  0.00000000000E+00  0.00000000000E+00  0.96366597326E+02  0.30249276600E+04  0.30233922715E+04 0.  0.
        2    1    3    3  502    0 -0.14634237206E+04 -0.29573624591E+03 -0.18891023676E+03  0.15049106255E+04  0.25500000920E-02 0. -1.
       -2    1    3    3    0  502  0.14634237206E+04  0.29573624591E+03  0.28527683409E+03  0.15200170345E+04  0.25500000920E-02 0.  1.
</event>
<event>
 5   0  0.6525507E-08  0.2999644E+04  0.7818609E-02  0.8243833E-01
        1   -1    0    0  501    0  0.00000000000E+00  0.00000000000E+00  0.16133003016E+04  0.16133003016E+04  0.50400001928E-02 0. -1.
       -1   -1    0    0    0  501  0.00000000000E+00  0.00000000000E+00 -0.13943256985E+04  0.13943256985E+04  0.50400001928E-02 0.  1.
    10030    2    1    2    0    0  0.00000000000E+00  0.00000000000E+00  0.21897460310E+03  0.30076260001E+04  0.29996440254E+04 0.  0.
        4    1    3    3  502    0 -0.14907413340E+04 -0.16315120232E+03  0.86264987818E+02  0.15021222656E+04  0.12699999809E+01 0. -1.
       -4    1    3    3    0  502  0.14907413340E+04  0.16315120232E+03  0.13270961529E+03  0.15055037345E+04  0.12699999809E+01 0.  1.
</event>
<event>
 5   0  0.6374748E-08  0.3000156E+04  0.7818609E-02  0.8243686E-01
       -1   -1    0    0    0  501  0.00000000000E+00  0.00000000000E+00  0.10903675342E+04  0.10903675342E+04  0.50400001928E-02 0. -1.
        1   -1    0    0  501    0  0.00000000000E+00  0.00000000000E+00 -0.20637384339E+04  0.20637384339E+04  0.50400001928E-02 0.  1.
    10030    2    1    2    0    0  0.00000000000E+00  0.00000000000E+00 -0.97337089972E+03  0.31541059682E+04  0.30001555876E+04 0.  0.
        1    1    3    3  502    0 -0.56422049446E+03 -0.35710048212E+03  0.92551076983E+03  0.11412430529E+04  0.50400001928E-02 0. -1.
       -1    1    3    3    0  502  0.56422049446E+03  0.35710048212E+03 -0.18988816696E+04  0.20128629153E+04  0.50400001928E-02 0.  1.
</event>
<event>
 5   0  0.1914439E-07  0.3005148E+04  0.7818609E-02  0.8242262E-01
       -2   -1    0    0    0  501  0.00000000000E+00  0.00000000000E+00  0.14294091039E+04  0.14294091039E+04  0.25500000920E-02 0.  1.
        2   -1    0    0  501    0  0.00000000000E+00  0.00000000000E+00 -0.15794843744E+04  0.15794843744E+04  0.25500000920E-02 0. -1.
    10030    2    1    2    0    0  0.00000000000E+00  0.00000000000E+00 -0.15007527052E+03  0.30088934784E+04  0.30051484784E+04 0.  0.
        5    1    3    3  502    0  0.55011345206E+03  0.55479083251E+03 -0.13601048792E+04  0.15685423330E+04  0.46999998093E+01 0. -1.
       -5    1    3    3    0  502 -0.55011345206E+03 -0.55479083251E+03  0.12100296087E+04  0.14403511453E+04  0.46999998093E+01 0.  1.
</event>
<event>
 5   0  0.6679022E-08  0.2999259E+04  0.7818609E-02  0.8243943E-01
       -1   -1    0    0    0  501  0.00000000000E+00  0.00000000000E+00  0.11184677778E+04  0.11184677778E+04  0.50400001928E-02 0. -1.
        1   -1    0    0  501    0  0.00000000000E+00  0.00000000000E+00 -0.20106864484E+04  0.20106864484E+04  0.50400001928E-02 0.  1.
    10030    2    1    2    0    0  0.00000000000E+00  0.00000000000E+00 -0.89221867059E+03  0.31291542263E+04  0.29992585776E+04 0.  0.
        3    1    3    3  502    0  0.84283660320E+03  0.10910389866E+04 -0.10617045720E+04  0.17401023586E+04  0.10100000352E+00 0. -1.
       -3    1    3    3    0  502 -0.84283660320E+03 -0.10910389866E+04  0.16948590145E+03  0.13890518676E+04  0.10100000352E+00 0.  1.
</event>
<event>
 5   0  0.6679022E-08  0.3002224E+04  0.7818609E-02  0.8243096E-01
        1   -1    0    0  501    0  0.00000000000E+00  0.00000000000E+00  0.19123802927E+04  0.19123802927E+04  0.50400001928E-02 0.  1.
       -1   -1    0    0    0  501  0.00000000000E+00  0.00000000000E+00 -0.11782891935E+04  0.11782891935E+04  0.50400001928E-02 0. -1.
    10030    2    1    2    0    0  0.00000000000E+00  0.00000000000E+00  0.73409109918E+03  0.30906694862E+04  0.30022238643E+04 0.  0.
        3    1    3    3  502    0 -0.78596300342E+03  0.12755563064E+04  0.27182584402E+03  0.15227183040E+04  0.10100000352E+00 0. -1.
       -3    1    3    3    0  502  0.78596300342E+03 -0.12755563064E+04  0.46226525516E+03  0.15679511823E+04  0.10100000352E+00 0.  1.
</event>
<event>
 5   0  0.1821305E-07  0.3000604E+04  0.7818609E-02  0.8243558E-01
       -2   -1    0    0    0  501  0.00000000000E+00  0.00000000000E+00  0.12918493324E+04  0.12918493324E+04  0.25500000920E-02 0. -1.
        2   -1    0    0  501    0  0.00000000000E+00  0.00000000000E+00 -0.17423909306E+04  0.17423909306E+04  0.25500000920E-02 0.  1.
    10030    2    1    2    0    0  0.00000000000E+00  0.00000000000E+00 -0.45054159822E+03  0.30342402630E+04  0.30006043127E+04 0.  0.
        2    1    3    3  502    0 -0.21274715827E+03  0.14793430911E+04 -0.35784816829E+03  0.15368059884E+04  0.25500000920E-02 0. -1.
       -2    1    3    3    0  502  0.21274715827E+03 -0.14793430911E+04 -0.92693429928E+02  0.14974342745E+04  0.25500000920E-02 0.  1.
</event>
<event>
 5   0  0.1810055E-07  0.2999379E+04  0.7818609E-02  0.8243908E-01
        2   -1    0    0  501    0  0.00000000000E+00  0.00000000000E+00  0.15758571689E+04  0.15758571689E+04  0.25500000920E-02 0.  1.
       -2   -1    0    0    0  501  0.00000000000E+00  0.00000000000E+00 -0.14272035157E+04  0.14272035157E+04  0.25500000920E-02 0. -1.
    10030    2    1    2    0    0  0.00000000000E+00  0.00000000000E+00  0.14865365323E+03  0.30030606846E+04  0.29993791969E+04 0.  0.
        4    1    3    3  502    0 -0.11404982290E+04 -0.88168649183E+03  0.48830742318E+03  0.15220226781E+04  0.12699999809E+01 0. -1.
       -4    1    3    3    0  502  0.11404982290E+04  0.88168649183E+03 -0.33965376995E+03  0.14810380065E+04  0.12699999809E+01 0.  1.
</event>
<event>
 5   0  0.6679022E-08  0.2997287E+04  0.7818609E-02  0.8244506E-01
       -1   -1    0    0    0  501  0.00000000000E+00  0.00000000000E+00  0.16340249488E+04  0.16340249488E+04  0.50400001928E-02 0.  1.
        1   -1    0    0  501    0  0.00000000000E+00  0.00000000000E+00 -0.13744784783E+04  0.13744784783E+04  0.50400001928E-02 0. -1.
    10030    2    1    2    0    0  0.00000000000E+00  0.00000000000E+00  0.25954647047E+03  0.30085034271E+04  0.29972868566E+04 0.  0.
        3    1    3    3  502    0 -0.75703350455E+03 -0.86097335294E+03  0.10985572893E+04  0.15878296413E+04  0.10100000352E+00 0.  1.
       -3    1    3    3    0  502  0.75703350455E+03  0.86097335294E+03 -0.83901081886E+03  0.14206737859E+04  0.10100000352E+00 0. -1.
</event>
<event>
 5   0  0.1821305E-07  0.3001574E+04  0.7818609E-02  0.8243282E-01
        2   -1    0    0  501    0  0.00000000000E+00  0.00000000000E+00  0.19717186586E+04  0.19717186586E+04  0.25500000920E-02 0. -1.
       -2   -1    0    0    0  501  0.00000000000E+00  0.00000000000E+00 -0.11423341176E+04  0.11423341176E+04  0.25500000920E-02 0.  1.
    10030    2    1    2    0    0  0.00000000000E+00  0.00000000000E+00  0.82938454103E+03  0.31140527762E+04  0.30015739165E+04 0.  0.
        2    1    3    3  502    0  0.10355211366E+04  0.10510152053E+03  0.15364168872E+04  0.18557821008E+04  0.25500000920E-02 0. -1.
       -2    1    3    3    0  502 -0.10355211366E+04 -0.10510152053E+03 -0.70703234621E+03  0.12582706754E+04  0.25500000920E-02 0.  1.
</event>
<event>
 5   0  0.1810055E-07  0.3003164E+04  0.7818609E-02  0.8242828E-01
        2   -1    0    0  501    0  0.00000000000E+00  0.00000000000E+00  0.18508284933E+04  0.18508284933E+04  0.25500000920E-02 0.  1.
       -2   -1    0    0    0  501  0.00000000000E+00  0.00000000000E+00 -0.12182371722E+04  0.12182371722E+04  0.25500000920E-02 0. -1.
    10030    2    1    2    0    0  0.00000000000E+00  0.00000000000E+00  0.63259132110E+03  0.30690656655E+04  0.30031637117E+04 0.  0.
        4    1    3    3  502    0 -0.11093461408E+04 -0.92941516845E+03  0.72543728960E+03  0.16188645062E+04  0.12699999809E+01 0.  1.
       -4    1    3    3    0  502  0.11093461408E+04  0.92941516845E+03 -0.92845968499E+02  0.14502011592E+04  0.12699999809E+01 0. -1.
</event>
<event>
 5   0  0.1813720E-07  0.2993339E+04  0.7818609E-02  0.8245635E-01
        2   -1    0    0  501    0  0.00000000000E+00  0.00000000000E+00  0.26869216150E+04  0.26869216150E+04  0.25500000920E-02 0.  1.
       -2   -1    0    0    0  501  0.00000000000E+00  0.00000000000E+00 -0.83367524636E+03  0.83367524636E+03  0.25500000920E-02 0. -1.
    10030    2    1    2    0    0  0.00000000000E+00  0.00000000000E+00  0.18532463687E+04  0.35205968614E+04  0.29933392988E+04 0.  0.
        3    1    3    3  502    0 -0.10504818671E+04  0.62423654955E+03  0.19430430588E+04  0.22953430597E+04  0.10100000352E+00 0.  1.
       -3    1    3    3    0  502  0.10504818671E+04 -0.62423654955E+03 -0.89796690178E+02  0.12252538017E+04  0.10100000352E+00 0. -1.
</event>
<event>
 5   0  0.6679022E-08  0.2996757E+04  0.7818609E-02  0.8244658E-01
        1   -1    0    0  501    0  0.00000000000E+00  0.00000000000E+00  0.17315171210E+04  0.17315171210E+04  0.50400001928E-02 0. -1.
       -1   -1    0    0    0  501  0.00000000000E+00  0.00000000000E+00 -0.12966306445E+04  0.12966306445E+04  0.50400001928E-02 0.  1.
    10030    2    1    2    0    0  0.00000000000E+00  0.00000000000E+00  0.43488647654E+03  0.30281477655E+04  0.29967570209E+04 0.  0.
        3    1    3    3  502    0  0.42031348986E+03 -0.94985408520E+03  0.13086868678E+04  0.16707924889E+04  0.10100000352E+00 0. -1.
       -3    1    3    3    0  502 -0.42031348986E+03  0.94985408520E+03 -0.87380039125E+03  0.13573552766E+04  0.10100000352E+00 0.  1.
</event>
<event>
 5   0  0.1821305E-07  0.2999589E+04  0.7818609E-02  0.8243848E-01
        2   -1    0    0  501    0  0.00000000000E+00  0.00000000000E+00  0.16482924030E+04  0.16482924030E+04  0.25500000920E-02 0. -1.
       -2   -1    0    0    0  501  0.00000000000E+00  0.00000000000E+00 -0.13646752722E+04  0.13646752722E+04  0.25500000920E-02 0.  1.
    10030    2    1    2    0    0  0.00000000000E+00  0.00000000000E+00  0.28361713076E+03  0.30129676752E+04  0.29995892277E+04 0.  0.
        2    1    3    3  502    0  0.61841310112E+03 -0.12817709866E+04 -0.33360172602E+03  0.14617324438E+04  0.25500000920E-02 0.  1.
       -2    1    3    3    0  502 -0.61841310112E+03  0.12817709866E+04  0.61721885678E+03  0.15512352313E+04  0.25500000920E-02 0. -1.
</event>
<event>
 5   0  0.6017625E-08  0.3000379E+04  0.7818609E-02  0.8243623E-01
        3   -1    0    0  501    0  0.00000000000E+00  0.00000000000E+00  0.14673173442E+04  0.14673173477E+04  0.10100000352E+00 0.  1.
       -3   -1    0    0    0  501  0.00000000000E+00  0.00000000000E+00 -0.15337982976E+04  0.15337983009E+04  0.10100000352E+00 0. -1.
    10030    2    1    2    0    0  0.00000000000E+00  0.00000000000E+00 -0.66480953343E+02  0.30011156486E+04  0.30003792125E+04 0.  0.
        2    1    3    3  502    0  0.12686192564E+04  0.67786825905E+03 -0.45957116001E+03  0.15100019356E+04  0.25500000920E-02 0. -1.
       -2    1    3    3    0  502 -0.12686192564E+04 -0.67786825905E+03  0.39309020667E+03  0.14911137130E+04  0.25500000920E-02 0.  1.
</event>
<event>
 5   0  0.6525507E-08  0.2999125E+04  0.7818609E-02  0.8243981E-01
       -1   -1    0    0    0  501  0.00000000000E+00  0.00000000000E+00  0.16470767678E+04  0.16470767678E+04  0.50400001928E-02 0. -1.
        1   -1    0    0  501    0  0.00000000000E+00  0.00000000000E+00 -0.13652595186E+04  0.13652595186E+04  0.50400001928E-02 0.  1.
    10030    2    1    2    0    0  0.00000000000E+00  0.00000000000E+00  0.28181724917E+03  0.30123362864E+04  0.29991246957E+04 0.  0.
        4    1    3    3  502    0  0.11837520284E+04 -0.76650912339E+03  0.65293908170E+03  0.15540708344E+04  0.12699999809E+01 0. -1.
       -4    1    3    3    0  502 -0.11837520284E+04  0.76650912339E+03 -0.37112183254E+03  0.14582654520E+04  0.12699999809E+01 0.  1.
</event>
<event>
 5   0  0.1821305E-07  0.3000115E+04  0.7818609E-02  0.8243698E-01
       -2   -1    0    0    0  501  0.00000000000E+00  0.00000000000E+00  0.90152742133E+03  0.90152742134E+03  0.25500000920E-02 0.  1.
        2   -1    0    0  501    0  0.00000000000E+00  0.00000000000E+00 -0.24959555686E+04  0.24959555686E+04  0.25500000920E-02 0. -1.
    10030    2    1    2    0    0  0.00000000000E+00  0.00000000000E+00 -0.15944281473E+04  0.33974829899E+04  0.30001149228E+04 0.  0.
        2    1    3    3  502    0  0.14155969231E+04  0.28926523957E+03 -0.12538367204E+04  0.19130330758E+04  0.25500000920E-02 0. -1.
       -2    1    3    3    0  502 -0.14155969231E+04 -0.28926523957E+03 -0.34059142682E+03  0.14844499141E+04  0.25500000920E-02 0.  1.
</event>
<event>
 5   0  0.6464436E-08  0.2999493E+04  0.7818609E-02  0.8243876E-01
       -1   -1    0    0    0  501  0.00000000000E+00  0.00000000000E+00  0.11432152911E+04  0.11432152911E+04  0.50400001928E-02 0. -1.
        1   -1    0    0  501    0  0.00000000000E+00  0.00000000000E+00 -0.19674674939E+04  0.19674674939E+04  0.50400001928E-02 0.  1.
    10030    2    1    2    0    0  0.00000000000E+00  0.00000000000E+00 -0.82425220277E+03  0.31106827851E+04  0.29994925730E+04 0.  0.
        5    1    3    3  502    0 -0.75113687551E+03 -0.56783105621E+02 -0.17570363073E+04  0.19117085557E+04  0.46999998093E+01 0.  1.
       -5    1    3    3    0  502  0.75113687551E+03  0.56783105621E+02  0.93278410456E+03  0.11989742293E+04  0.46999998093E+01 0. -1.
</event>
<event>
 5   0  0.6464436E-08  0.3000204E+04  0.7818609E-02  0.8243673E-01
        1   -1    0    0  501    0  0.00000000000E+00  0.00000000000E+00  0.15054794856E+04  0.15054794856E+04  0.50400001928E-02 0. -1.
       -1   -1    0    0    0  501  0.00000000000E+00  0.00000000000E+00 -0.14947434262E+04  0.14947434262E+04  0.50400001928E-02 0.  1.
    10030    2    1    2    0    0  0.00000000000E+00  0.00000000000E+00  0.10736059349E+02  0.30002229118E+04  0.30002037027E+04 0.  0.
        5    1    3    3  502    0 -0.37230702352E+03 -0.46899488967E+03  0.13807730507E+04  0.15050332335E+04  0.46999998093E+01 0. -1.
       -5    1    3    3    0  502  0.37230702352E+03  0.46899488967E+03 -0.13700369914E+04  0.14951896783E+04  0.46999998093E+01 0.  1.
</event>
<event>
 5   0  0.6679022E-08  0.2996645E+04  0.7818609E-02  0.8244690E-01
       -1   -1    0    0    0  501  0.00000000000E+00  0.00000000000E+00  0.13282591527E+04  0.13282591527E+04  0.50400001928E-02 0. -1.
        1   -1    0    0  501    0  0.00000000000E+00  0.00000000000E+00 -0.16901597362E+04  0.16901597362E+04  0.50400001928E-02 0.  1.
    10030    2    1    2    0    0  0.00000000000E+00  0.00000000000E+00 -0.36190058349E+03  0.30184188888E+04  0.29966448832E+04 0.  0.
        3    1    3    3  502    0  0.28347295393E+03 -0.13854460394E+04 -0.67967671671E+03  0.15690054472E+04  0.10100000352E+00 0.  1.
       -3    1    3    3    0  502 -0.28347295393E+03  0.13854460394E+04  0.31777613322E+03  0.14494134417E+04  0.10100000352E+00 0. -1.
</event>
<event>
 5   0  0.6636007E-08  0.2999407E+04  0.7818609E-02  0.8243900E-01
       -1   -1    0    0    0  501  0.00000000000E+00  0.00000000000E+00  0.96968438554E+03  0.96968438555E+03  0.50400001928E-02 0. -1.
        1   -1    0    0  501    0  0.00000000000E+00  0.00000000000E+00 -0.23194257537E+04  0.23194257537E+04  0.50400001928E-02 0.  1.
    10030    2    1    2    0    0  0.00000000000E+00  0.00000000000E+00 -0.13497413682E+04  0.32891101393E+04  0.29994072327E+04 0.  0.
        2    1    3    3  502    0 -0.69979661292E+03 -0.44832095005E+03 -0.20438062413E+04  0.22063206760E+04  0.25500000920E-02 0.  1.
       -2    1    3    3    0  502  0.69979661292E+03  0.44832095005E+03  0.69406487307E+03  0.10827894633E+04  0.25500000920E-02 0. -1.
</event>
<event>
 5   0  0.1914439E-07  0.3004101E+04  0.7818609E-02  0.8242561E-01
        2   -1    0    0  501    0  0.00000000000E+00  0.00000000000E+00  0.13257753296E+04  0.13257753296E+04  0.25500000920E-02 0.  1.
       -2   -1    0    0    0  501  0.00000000000E+00  0.00000000000E+00 -0.17017631083E+04  0.17017631083E+04  0.25500000920E-02 0. -1.
    10030    2    1    2    0    0  0.00000000000E+00  0.00000000000E+00 -0.37598777867E+03  0.30275384379E+04  0.30041008944E+04 0.  0.
        5    1    3    3  502    0  0.71748646987E+03  0.13191270320E+04 -0.15235565911E+03  0.15093433333E+04  0.46999998093E+01 0.  1.
       -5    1    3    3    0  502 -0.71748646987E+03 -0.13191270320E+04 -0.22363211956E+03  0.15181951046E+04  0.46999998093E+01 0. -1.
</event>
<event>
 5   0  0.6525507E-08  0.2998881E+04  0.7818609E-02  0.8244051E-01
       -1   -1    0    0    0  501  0.00000000000E+00  0.00000000000E+00  0.13510209319E+04  0.13510209319E+04  0.50400001928E-02 0. -1.
        1   -1    0    0  501    0  0.00000000000E+00  0.00000000000E+00 -0.16641649398E+04  0.16641649398E+04  0.50400001928E-02 0.  1.
    10030    2    1    2    0    0  0.00000000000E+00  0.00000000000E+00 -0.31314400791E+03  0.30151858717E+04  0.29988809031E+04 0.  0.
        4    1    3    3  502    0 -0.10074734597E+04 -0.90829853512E+03  0.48589442552E+03  0.14408691844E+04  0.12699999809E+01 0. -1.
       -4    1    3    3    0  502  0.10074734597E+04  0.90829853512E+03 -0.79903843342E+03  0.15743166873E+04  0.12699999809E+01 0.  1.
</event>
<event>
 5   0  0.6464436E-08  0.3000189E+04  0.7818609E-02  0.8243677E-01
        1   -1    0    0  501    0  0.00000000000E+00  0.00000000000E+00  0.15513055577E+04  0.15513055577E+04  0.50400001928E-02 0. -1.
       -1   -1    0    0    0  501  0.00000000000E+00  0.00000000000E+00 -0.14505743625E+04  0.14505743625E+04  0.50400001928E-02 0.  1.
    10030    2    1    2    0    0  0.00000000000E+00  0.00000000000E+00  0.10073119516E+03  0.30018799202E+04  0.30001893743E+04 0.  0.
        5    1    3    3  502    0  0.12362298896E+04 -0.71862148507E+03 -0.40330008109E+03  0.14857167376E+04  0.46999998093E+01 0.  1.
       -5    1    3    3    0  502 -0.12362298896E+04  0.71862148507E+03  0.50403127625E+03  0.15161631826E+04  0.46999998093E+01 0. -1.
</event>
<event>
 5   0  0.1821305E-07  0.2998530E+04  0.7818609E-02  0.8244151E-01
       -2   -1    0    0    0  501  0.00000000000E+00  0.00000000000E+00  0.11408324693E+04  0.11408324693E+04  0.25500000920E-02 0.  1.
        2   -1    0    0  501    0  0.00000000000E+00  0.00000000000E+00 -0.19703118464E+04  0.19703118464E+04  0.25500000920E-02 0. -1.
    10030    2    1    2    0    0  0.00000000000E+00  0.00000000000E+00 -0.82947937704E+03  0.31111443157E+04  0.29985301260E+04 0.  0.
        2    1    3    3  502    0 -0.11019547125E+04  0.29668511259E+03 -0.14236103641E+04  0.18245527433E+04  0.25500000920E-02 0. -1.
       -2    1    3    3    0  502  0.11019547125E+04 -0.29668511259E+03  0.59413098705E+03  0.12865915724E+04  0.25500000920E-02 0.  1.
</event>
<event>
 5   0  0.6636007E-08  0.2999177E+04  0.7818609E-02  0.8243966E-01
       -1   -1    0    0    0  501  0.00000000000E+00  0.00000000000E+00  0.92067641107E+03  0.92067641108E+03  0.50400001928E-02 0.  1.
        1   -1    0    0  501    0  0.00000000000E+00  0.00000000000E+00 -0.24425147554E+04  0.24425147554E+04  0.50400001928E-02 0. -1.
    10030    2    1    2    0    0  0.00000000000E+00  0.00000000000E+00 -0.15218383444E+04  0.33631911665E+04  0.29991770332E+04 0.  0.
        2    1    3    3  502    0 -0.88689453942E+03  0.11918215612E+04 -0.53180469962E+03  0.15779216699E+04  0.25500000920E-02 0. -1.
       -2    1    3    3    0  502  0.88689453942E+03 -0.11918215612E+04 -0.99003364475E+03  0.17852694966E+04  0.25500000920E-02 0.  1.
</event>
<event>
 5   0  0.1914439E-07  0.3000792E+04  0.7818609E-02  0.8243505E-01
       -2   -1    0    0    0  501  0.00000000000E+00  0.00000000000E+00  0.10574070583E+04  0.10574070583E+04  0.25500000920E-02 0.  1.
        2   -1    0    0  501    0  0.00000000000E+00  0.00000000000E+00 -0.21289706684E+04  0.21289706684E+04  0.25500000920E-02 0. -1.
    10030    2    1    2    0    0  0.00000000000E+00  0.00000000000E+00 -0.10715636102E+04  0.31863777267E+04  0.30007923031E+04 0.  0.
        5    1    3    3  502    0 -0.64176320631E+03  0.53160538382E+03 -0.18606238228E+04  0.20387269060E+04  0.46999998093E+01 0. -1.
       -5    1    3    3    0  502  0.64176320631E+03 -0.53160538382E+03  0.78906021266E+03  0.11476508207E+04  0.46999998093E+01 0.  1.
</event>
<event>
 5   0  0.6374748E-08  0.3005844E+04  0.7818609E-02  0.8242064E-01
        1   -1    0    0  501    0  0.00000000000E+00  0.00000000000E+00  0.15358156405E+04  0.15358156405E+04  0.50400001928E-02 0.  1.
       -1   -1    0    0    0  501  0.00000000000E+00  0.00000000000E+00 -0.14707329995E+04  0.14707329995E+04  0.50400001928E-02 0. -1.
    10030    2    1    2    0    0  0.00000000000E+00  0.00000000000E+00  0.65082641015E+02  0.30065486401E+04  0.30058441368E+04 0.  0.
        1    1    3    3  502    0  0.14192075824E+04 -0.45786880774E+03  0.21961653563E+03  0.15073239299E+04  0.50400001928E-02 0. -1.
       -1    1    3    3    0  502 -0.14192075824E+04  0.45786880774E+03 -0.15453389462E+03  0.14992247102E+04  0.50400001928E-02 0.  1.
</event>
<event>
 5   0  0.1813720E-07  0.2999311E+04  0.7818609E-02  0.8243928E-01
        2   -1    0    0  501    0  0.00000000000E+00  0.00000000000E+00  0.26363927144E+04  0.26363927144E+04  0.25500000920E-02 0.  1.
       -2   -1    0    0    0  501  0.00000000000E+00  0.00000000000E+00 -0.85304665013E+03  0.85304665013E+03  0.25500000920E-02 0. -1.
    10030    2    1    2    0    0  0.00000000000E+00  0.00000000000E+00  0.17833460642E+04  0.34894393645E+04  0.29993105697E+04 0.  0.
        3    1    3    3  502    0  0.14237980885E+04 -0.46858463478E+03  0.83718592022E+03  0.17168729807E+04  0.10100000352E+00 0.  1.
       -3    1    3    3    0  502 -0.14237980885E+04  0.46858463478E+03  0.94616014401E+03  0.17725663838E+04  0.10100000352E+00 0. -1.
</event>
<event>
 5   0  0.1914439E-07  0.2998156E+04  0.7818609E-02  0.8244258E-01
       -2   -1    0    0    0  501  0.00000000000E+00  0.00000000000E+00  0.10597458509E+04  0.10597458509E+04  0.25500000920E-02 0. -1.
        2   -1    0    0  501    0  0.00000000000E+00  0.00000000000E+00 -0.21205414880E+04  0.21205414880E+04  0.25500000920E-02 0.  1.
    10030    2    1    2    0    0  0.00000000000E+00  0.00000000000E+00 -0.10607956371E+04  0.31802873389E+04  0.29981561291E+04 0.  0.
        5    1    3    3  502    0 -0.34999383563E+00  0.68948679113E+03 -0.19423565800E+04  0.20611073071E+04  0.46999998093E+01 0.  1.
       -5    1    3    3    0  502  0.34999383563E+00 -0.68948679113E+03  0.88156094288E+03  0.11191800318E+04  0.46999998093E+01 0. -1.
</event>
<event>
 5   0  0.6374748E-08  0.2999449E+04  0.7818609E-02  0.8243888E-01
       -1   -1    0    0    0  501  0.00000000000E+00  0.00000000000E+00  0.98438011740E+03  0.98438011742E+03  0.50400001928E-02 0.  1.
        1   -1    0    0  501    0  0.00000000000E+00  0.00000000000E+00 -0.22848622492E+04  0.22848622492E+04  0.50400001928E-02 0. -1.
    10030    2    1    2    0    0  0.00000000000E+00  0.00000000000E+00 -0.13004821318E+04  0.32692423667E+04  0.29994485954E+04 0.  0.
        1    1    3    3  502    0  0.28877244658E+03  0.53017265835E+03 -0.21465692489E+04  0.22298502447E+04  0.50400001928E-02 0. -1.
       -1    1    3    3    0  502 -0.28877244658E+03 -0.53017265835E+03  0.84608711703E+03  0.10393921220E+04  0.50400001928E-02 0.  1.
</event>
<event>
 5   0  0.1821305E-07  0.2999982E+04  0.7818609E-02  0.8243736E-01
        2   -1    0    0  501    0  0.00000000000E+00  0.00000000000E+00  0.17306126004E+04  0.17306126004E+04  0.25500000920E-02 0.  1.
       -2   -1    0    0    0  501  0.00000000000E+00  0.00000000000E+00 -0.13001019171E+04  0.13001019171E+04  0.25500000920E-02 0. -1.
    10030    2    1    2    0    0  0.00000000000E+00  0.00000000000E+00  0.43051068336E+03  0.30307145175E+04  0.29999818396E+04 0.  0.
        2    1    3    3  502    0  0.75935575265E+03  0.20771633524E+03  0.15051302181E+04  0.16985830002E+04  0.25500000920E-02 0.  1.
       -2    1    3    3    0  502 -0.75935575265E+03 -0.20771633524E+03 -0.10746195348E+04  0.13321315173E+04  0.25500000920E-02 0. -1.
</event>
<event>
 5   0  0.1914439E-07  0.3000539E+04  0.7818609E-02  0.8243577E-01
       -2   -1    0    0    0  501  0.00000000000E+00  0.00000000000E+00  0.10312933510E+04  0.10312933510E+04  0.25500000920E-02 0. -1.
        2   -1    0    0  501    0  0.00000000000E+00  0.00000000000E+00 -0.21825109995E+04  0.21825109995E+04  0.25500000920E-02 0.  1.
    10030    2    1    2    0    0  0.00000000000E+00  0.00000000000E+00 -0.11512176484E+04  0.32138043505E+04  0.30005393397E+04 0.  0.
        5    1    3    3  502    0  0.12758286434E+04 -0.49874869584E+03 -0.12308917687E+04  0.18416312403E+04  0.46999998093E+01 0.  1.
       -5    1    3    3    0  502 -0.12758286434E+04  0.49874869584E+03  0.79674120244E+02  0.13721731102E+04  0.46999998093E+01 0. -1.
</event>
<event>
 5   0  0.6636007E-08  0.2997416E+04  0.7818609E-02  0.8244469E-01
       -1   -1    0    0    0  501  0.00000000000E+00  0.00000000000E+00  0.10808063596E+04  0.10808063596E+04  0.50400001928E-02 0.  1.
        1   -1    0    0  501    0  0.00000000000E+00  0.00000000000E+00 -0.20781939255E+04  0.20781939255E+04  0.50400001928E-02 0. -1.
    10030    2    1    2    0    0  0.00000000000E+00  0.00000000000E+00 -0.99738756585E+03  0.31590002851E+04  0.29974156943E+04 0.  0.
        2    1    3    3  502    0  0.91415113207E+03  0.11350429426E+04 -0.86700474449E+03  0.16957865434E+04  0.25500000920E-02 0. -1.
       -2    1    3    3    0  502 -0.91415113207E+03 -0.11350429426E+04 -0.13038282136E+03  0.14632137417E+04  0.25500000920E-02 0.  1.
</event>
<event>
 5   0  0.1914439E-07  0.3000889E+04  0.7818609E-02  0.8243477E-01
       -2   -1    0    0    0  501  0.00000000000E+00  0.00000000000E+00  0.10750404382E+04  0.10750404382E+04  0.25500000920E-02 0.  1.
        2   -1    0    0  501    0  0.00000000000E+00  0.00000000000E+00 -0.20941851436E+04  0.20941851436E+04  0.25500000920E-02 0. -1.
    10030    2    1    2    0    0  0.00000000000E+00  0.00000000000E+00 -0.10191447054E+04  0.31692255818E+04  0.30008890113E+04 0.  0.
        5    1    3    3  502    0 -0.44376604120E+03 -0.13610492640E+04 -0.98414394152E+03  0.17372232977E+04  0.46999998093E+01 0. -1.
       -5    1    3    3    0  502  0.44376604120E+03  0.13610492640E+04 -0.35000763880E+02  0.14320022841E+04  0.46999998093E+01 0.  1.
</event>
<event>
 5   0  0.6525507E-08  0.2996692E+04  0.7818609E-02  0.8244676E-01
       -1   -1    0    0    0  501  0.00000000000E+00  0.00000000000E+00  0.10603968009E+04  0.10603968009E+04  0.50400001928E-02 0. -1.
        1   -1    0    0  501    0  0.00000000000E+00  0.00000000000E+00 -0.21171700343E+04  0.21171700343E+04  0.50400001928E-02 0.  1.
    10030    2    1    2    0    0  0.00000000000E+00  0.00000000000E+00 -0.10567732334E+04  0.31775668352E+04  0.29966917301E+04 0.  0.
        4    1    3    3  502    0  0.12366710462E+04  0.84592077481E+03 -0.51770460505E+03  0.15852308679E+04  0.12699999809E+01 0. -1.
       -4    1    3    3    0  502 -0.12366710462E+04 -0.84592077481E+03 -0.53906862833E+03  0.15923359673E+04  0.12699999809E+01 0.  1.
</event>
<event>
 5   0  0.6464436E-08  0.2987105E+04  0.7818609E-02  0.8247423E-01
       -1   -1    0    0    0  501  0.00000000000E+00  0.00000000000E+00  0.14140109068E+04  0.14140109068E+04  0.50400001928E-02 0. -1.
        1   -1    0    0  501    0  0.00000000000E+00  0.00000000000E+00 -0.15775684674E+04  0.15775684674E+04  0.50400001928E-02 0.  1.
    10030    2    1    2    0    0  0.00000000000E+00  0.00000000000E+00 -0.16355756069E+03  0.29915793742E+04  0.29871049658E+04 0.  0.
        5    1    3    3  502    0  0.35626584459E+03  0.33063304624E+02 -0.15340054467E+04  0.15751867618E+04  0.46999998093E+01 0.  1.
       -5    1    3    3    0  502 -0.35626584459E+03 -0.33063304624E+02  0.13704478860E+04  0.14163926124E+04  0.46999998093E+01 0. -1.
</event>
<event>
 5   0  0.6464436E-08  0.2989565E+04  0.7818609E-02  0.8246717E-01
        1   -1    0    0  501    0  0.00000000000E+00  0.00000000000E+00  0.25434246467E+04  0.25434246467E+04  0.50400001928E-02 0.  1.
       -1   -1    0    0    0  501  0.00000000000E+00  0.00000000000E+00 -0.87849065519E+03  0.87849065520E+03  0.50400001928E-02 0. -1.
    10030    2    1    2    0    0  0.00000000000E+00  0.00000000000E+00  0.16649339915E+04  0.34219153019E+04  0.29895650415E+04 0.  0.
        5    1    3    3  502    0 -0.17112429619E+03  0.13455169272E+04  0.15515336613E+04  0.20608197685E+04  0.46999998093E+01 0.  1.
       -5    1    3    3    0  502  0.17112429619E+03 -0.13455169272E+04  0.11340033018E+03  0.13610955334E+04  0.46999998093E+01 0. -1.
</event>
<event>
 5   0  0.6017625E-08  0.3003460E+04  0.7818609E-02  0.8242743E-01
        3   -1    0    0  501    0  0.00000000000E+00  0.00000000000E+00  0.17404356941E+04  0.17404356970E+04  0.10100000352E+00 0.  1.
       -3   -1    0    0    0  501  0.00000000000E+00  0.00000000000E+00 -0.12957638873E+04  0.12957638912E+04  0.10100000352E+00 0. -1.
    10030    2    1    2    0    0  0.00000000000E+00  0.00000000000E+00  0.44467180683E+03  0.30361995882E+04  0.30034604915E+04 0.  0.
        4    1    3    3  502    0  0.33300312301E+03 -0.14630080234E+04  0.15913593382E+03  0.15088437344E+04  0.12699999809E+01 0.  1.
       -4    1    3    3    0  502 -0.33300312301E+03  0.14630080234E+04  0.28553587301E+03  0.15273558538E+04  0.12699999809E+01 0. -1.
</event>
<event>
 5   0  0.1813720E-07  0.2999625E+04  0.7818609E-02  0.8243838E-01
        2   -1    0    0  501    0  0.00000000000E+00  0.00000000000E+00  0.18299285795E+04  0.18299285795E+04  0.25500000920E-02 0. -1.
       -2   -1    0    0    0  501  0.00000000000E+00  0.00000000000E+00 -0.12292490330E+04  0.12292490330E+04  0.25500000920E-02 0.  1.
    10030    2    1    2    0    0  0.00000000000E+00  0.00000000000E+00  0.60067954650E+03  0.30591776125E+04  0.29996252678E+04 0.  0.
        3    1    3    3  502    0  0.97470448219E+03 -0.47033999689E+02 -0.86120857746E+03  0.13015149822E+04  0.10100000352E+00 0.  1.
       -3    1    3    3    0  502 -0.97470448219E+03  0.47033999689E+02  0.14618881240E+04  0.17576626303E+04  0.10100000352E+00 0. -1.
</event>
<event>
 5   0  0.6464436E-08  0.3000131E+04  0.7818609E-02  0.8243693E-01
       -1   -1    0    0    0  501  0.00000000000E+00  0.00000000000E+00  0.99414722619E+03  0.99414722621E+03  0.50400001928E-02 0.  1.
        1   -1    0    0  501    0  0.00000000000E+00  0.00000000000E+00 -0.22634445668E+04  0.22634445668E+04  0.50400001928E-02 0. -1.
    10030    2    1    2    0    0  0.00000000000E+00  0.00000000000E+00 -0.12692973406E+04  0.32575917930E+04  0.30001314223E+04 0.  0.
        5    1    3    3  502    0 -0.16978536521E+03 -0.71457588813E+03  0.78554321408E+03  0.10754282874E+04  0.46999998093E+01 0.  1.
       -5    1    3    3    0  502  0.16978536521E+03  0.71457588813E+03 -0.20548405547E+04  0.21821635056E+04  0.46999998093E+01 0. -1.
</event>
<event>
 5   0  0.6464436E-08  0.3000289E+04  0.7818609E-02  0.8243648E-01
        1   -1    0    0  501    0  0.00000000000E+00  0.00000000000E+00  0.16805998702E+04  0.16805998702E+04  0.50400001928E-02 0.  1.
       -1   -1    0    0    0  501  0.00000000000E+00  0.00000000000E+00 -0.13390652295E+04  0.13390652295E+04  0.50400001928E-02 0. -1.
    10030    2    1    2    0    0  0.00000000000E+00  0.00000000000E+00  0.34153464073E+03  0.30196650997E+04  0.30002885534E+04 0.  0.
        5    1    3    3  502    0  0.35885110963E+02  0.10419531768E+04  0.12563698527E+04  0.16326179776E+04  0.46999998093E+01 0.  1.
       -5    1    3    3    0  502 -0.35885110963E+02 -0.10419531768E+04 -0.91483521197E+03  0.13870471221E+04  0.46999998093E+01 0. -1.
</event>
<event>
 5   0  0.1813720E-07  0.3000153E+04  0.7818609E-02  0.8243687E-01
        2   -1    0    0  501    0  0.00000000000E+00  0.00000000000E+00  0.18005953823E+04  0.18005953823E+04  0.25500000920E-02 0. -1.
       -2   -1    0    0    0  501  0.00000000000E+00  0.00000000000E+00 -0.12497143273E+04  0.12497143273E+04  0.25500000920E-02 0.  1.
    10030    2    1    2    0    0  0.00000000000E+00  0.00000000000E+00  0.55088105493E+03  0.30503097096E+04  0.30001532274E+04 0.  0.
        3    1    3    3  502    0 -0.97516256184E+03 -0.80300051261E+03 -0.54708242263E+03  0.13766085256E+04  0.10100000352E+00 0.  1.
       -3    1    3    3    0  502  0.97516256184E+03  0.80300051261E+03  0.10979634776E+04  0.16737011841E+04  0.10100000352E+00 0. -1.
</event>
<event>
 5   0  0.1817566E-07  0.3009608E+04  0.7818609E-02  0.8240993E-01
        2   -1    0    0  501    0  0.00000000000E+00  0.00000000000E+00  0.20854642069E+04  0.20854642069E+04  0.25500000920E-02 0. -1.
       -2   -1    0    0    0  501  0.00000000000E+00  0.00000000000E+00 -0.10858181824E+04  0.10858181825E+04  0.25500000920E-02 0.  1.
    10030    2    1    2    0    0  0.00000000000E+00  0.00000000000E+00  0.99964602449E+03  0.31712823894E+04  0.30096079178E+04 0.  0.
        1    1    3    3  502    0  0.45385905245E+03  0.11241973085E+04  0.14391282480E+04  0.18817273294E+04  0.50400001928E-02 0. -1.
       -1    1    3    3    0  502 -0.45385905245E+03 -0.11241973085E+04 -0.43948222348E+03  0.12895550600E+04  0.50400001928E-02 0.  1.
</event>
<event>
 5   0  0.1810055E-07  0.2998935E+04  0.7818609E-02  0.8244035E-01
       -2   -1    0    0    0  501  0.00000000000E+00  0.00000000000E+00  0.17705431855E+04  0.17705431855E+04  0.25500000920E-02 0.  1.
        2   -1    0    0  501    0  0.00000000000E+00  0.00000000000E+00 -0.12698939850E+04  0.12698939850E+04  0.25500000920E-02 0. -1.
    10030    2    1    2    0    0  0.00000000000E+00  0.00000000000E+00  0.50064920053E+03  0.30404371705E+04  0.29989345717E+04 0.  0.
        4    1    3    3  502    0  0.36552664430E+03 -0.14494575202E+04  0.13095091888E+03  0.15005620902E+04  0.12699999809E+01 0. -1.
       -4    1    3    3    0  502 -0.36552664430E+03  0.14494575202E+04  0.36969828165E+03  0.15398750803E+04  0.12699999809E+01 0.  1.
</event>
<event>
 5   0  0.6636007E-08  0.3011339E+04  0.7818609E-02  0.8240500E-01
        1   -1    0    0  501    0  0.00000000000E+00  0.00000000000E+00  0.22346238748E+04  0.22346238748E+04  0.50400001928E-02 0. -1.
       -1   -1    0    0    0  501  0.00000000000E+00  0.00000000000E+00 -0.10145066658E+04  0.10145066659E+04  0.50400001928E-02 0.  1.
    10030    2    1    2    0    0  0.00000000000E+00  0.00000000000E+00  0.12201172090E+04  0.32491305407E+04  0.30113391152E+04 0.  0.
        2    1    3    3  502    0 -0.83007201016E+03  0.11530759167E+04  0.72264778250E+02  0.14226123189E+04  0.25500000920E-02 0.  1.
       -2    1    3    3    0  502  0.83007201016E+03 -0.11530759167E+04  0.11478524307E+04  0.18265182218E+04  0.25500000920E-02 0. -1.
</event>
<event>
 5   0  0.1914439E-07  0.3000806E+04  0.7818609E-02  0.8243501E-01
        2   -1    0    0  501    0  0.00000000000E+00  0.00000000000E+00  0.18304106460E+04  0.18304106460E+04  0.25500000920E-02 0. -1.
       -2   -1    0    0    0  501  0.00000000000E+00  0.00000000000E+00 -0.12298930763E+04  0.12298930763E+04  0.25500000920E-02 0.  1.
    10030    2    1    2    0    0  0.00000000000E+00  0.00000000000E+00  0.60051756972E+03  0.30603037223E+04  0.30008061452E+04 0.  0.
        5    1    3    3  502    0  0.39982244474E+03  0.12235585190E+04 -0.48589097308E+03  0.13758871917E+04  0.46999998093E+01 0.  1.
       -5    1    3    3    0  502 -0.39982244474E+03 -0.12235585190E+04  0.10864085428E+04  0.16844165306E+04  0.46999998093E+01 0. -1.
</event>
<event>
 5   0  0.6525507E-08  0.3000210E+04  0.7818609E-02  0.8243671E-01
        1   -1    0    0  501    0  0.00000000000E+00  0.00000000000E+00  0.14052576832E+04  0.14052576832E+04  0.50400001928E-02 0. -1.
       -1   -1    0    0    0  501  0.00000000000E+00  0.00000000000E+00 -0.16013542363E+04  0.16013542363E+04  0.50400001928E-02 0.  1.
    10030    2    1    2    0    0  0.00000000000E+00  0.00000000000E+00 -0.19609655310E+03  0.30066119195E+04  0.30002102220E+04 0.  0.
        4    1    3    3  502    0  0.11206496236E+02  0.13155304432E+04  0.62430026775E+03  0.14561931087E+04  0.12699999809E+01 0. -1.
       -4    1    3    3    0  502 -0.11206496236E+02 -0.13155304432E+04 -0.82039682085E+03  0.15504188109E+04  0.12699999809E+01 0.  1.
</event>
<event>
 5   0  0.1817566E-07  0.3000468E+04  0.7818609E-02  0.8243597E-01
        2   -1    0    0  501    0  0.00000000000E+00  0.00000000000E+00  0.25794904682E+04  0.25794904682E+04  0.25500000920E-02 0.  1.
       -2   -1    0    0    0  501  0.00000000000E+00  0.00000000000E+00 -0.87253740870E+03  0.87253740870E+03  0.25500000920E-02 0. -1.
    10030    2    1    2    0    0  0.00000000000E+00  0.00000000000E+00  0.17069530595E+04  0.34520278769E+04  0.30004679161E+04 0.  0.
        1    1    3    3  502    0 -0.69387162181E+03  0.99483872992E+03 -0.16231481993E+03  0.12237271047E+04  0.50400001928E-02 0. -1.
       -1    1    3    3    0  502  0.69387162181E+03 -0.99483872992E+03  0.18692678794E+04  0.22283007721E+04  0.50400001928E-02 0.  1.
</event>
<event>
 5   0  0.1914439E-07  0.2999107E+04  0.7818609E-02  0.8243986E-01
        2   -1    0    0  501    0  0.00000000000E+00  0.00000000000E+00  0.28004188144E+04  0.28004188144E+04  0.25500000920E-02 0. -1.
       -2   -1    0    0    0  501  0.00000000000E+00  0.00000000000E+00 -0.80297293767E+03  0.80297293768E+03  0.25500000920E-02 0.  1.
    10030    2    1    2    0    0  0.00000000000E+00  0.00000000000E+00  0.19974458768E+04  0.36033917521E+04  0.29991068818E+04 0.  0.
        5    1    3    3  502    0  0.76889118232E+03  0.85908609692E+03 -0.15333821373E+03  0.11630809387E+04  0.46999998093E+01 0.  1.
       -5    1    3    3    0  502 -0.76889118232E+03 -0.85908609692E+03  0.21507840905E+04  0.24403108134E+04  0.46999998093E+01 0. -1.
</event>
<event>
 5   0  0.1821305E-07  0.2999722E+04  0.7818609E-02  0.8243810E-01
        2   -1    0    0  501    0  0.00000000000E+00  0.00000000000E+00  0.27102431508E+04  0.27102431508E+04  0.25500000920E-02 0. -1.
       -2   -1    0    0    0  501  0.00000000000E+00  0.00000000000E+00 -0.83002991280E+03  0.83002991281E+03  0.25500000920E-02 0.  1.
    10030    2    1    2    0    0  0.00000000000E+00  0.00000000000E+00  0.18802132380E+04  0.35402730636E+04  0.29997219112E+04 0.  0.
        2    1    3    3  502    0  0.14042073064E+04  0.25087014951E+03  0.39306253281E+03  0.14796054021E+04  0.25500000920E-02 0.  1.
       -2    1    3    3    0  502 -0.14042073064E+04 -0.25087014951E+03  0.14871507051E+04  0.20606676615E+04  0.25500000920E-02 0. -1.
</event>
<event>
 5   0  0.6374748E-08  0.3000261E+04  0.7818609E-02  0.8243656E-01
        1   -1    0    0  501    0  0.00000000000E+00  0.00000000000E+00  0.19829205948E+04  0.19829205948E+04  0.50400001928E-02 0.  1.
       -1   -1    0    0    0  501  0.00000000000E+00  0.00000000000E+00 -0.11348874249E+04  0.11348874249E+04  0.50400001928E-02 0. -1.
    10030    2    1    2    0    0  0.00000000000E+00  0.00000000000E+00  0.84803316994E+03  0.31178080197E+04  0.30002610871E+04 0.  0.
        1    1    3    3  502    0 -0.51162257643E+03  0.71380537576E+02 -0.10395438861E+04  0.11608205430E+04  0.50400001928E-02 0. -1.
       -1    1    3    3    0  502  0.51162257643E+03 -0.71380537576E+02  0.18875770560E+04  0.19569874768E+04  0.50400001928E-02 0.  1.
</event>
<event>
 5   0  0.6525507E-08  0.2999093E+04  0.7818609E-02  0.8243990E-01
       -1   -1    0    0    0  501  0.00000000000E+00  0.00000000000E+00  0.20594262740E+04  0.20594262740E+04  0.50400001928E-02 0. -1.
        1   -1    0    0  501    0  0.00000000000E+00  0.00000000000E+00 -0.10918767857E+04  0.10918767857E+04  0.50400001928E-02 0.  1.
    10030    2    1    2    0    0  0.00000000000E+00  0.00000000000E+00  0.96754948838E+03  0.31513030597E+04  0.29990930232E+04 0.  0.
        4    1    3    3  502    0  0.56763744061E+03 -0.56669049171E+03  0.18150770384E+04  0.19844033475E+04  0.12699999809E+01 0. -1.
       -4    1    3    3    0  502 -0.56763744061E+03  0.56669049171E+03 -0.84752755002E+03  0.11668997122E+04  0.12699999809E+01 0.  1.
</event>
<event>
 5   0  0.1821305E-07  0.3000039E+04  0.7818609E-02  0.8243720E-01
       -2   -1    0    0    0  501  0.00000000000E+00  0.00000000000E+00  0.12635774008E+04  0.12635774008E+04  0.25500000920E-02 0.  1.
        2   -1    0    0  501    0  0.00000000000E+00  0.00000000000E+00 -0.17807043339E+04  0.17807043339E+04  0.25500000920E-02 0. -1.
    10030    2    1    2    0    0  0.00000000000E+00  0.00000000000E+00 -0.51712693307E+03  0.30442817348E+04  0.30000385024E+04 0.  0.
        2    1    3    3  502    0  0.52176544446E+03 -0.49344860486E+03  0.10777966703E+04  0.12951356559E+04  0.25500000920E-02 0.  1.
       -2    1    3    3    0  502 -0.52176544446E+03  0.49344860486E+03 -0.15949236034E+04  0.17491460789E+04  0.25500000920E-02 0. -1.
</event>
<event>
 5   0  0.1914439E-07  0.2997712E+04  0.7818609E-02  0.8244385E-01
       -2   -1    0    0    0  501  0.00000000000E+00  0.00000000000E+00  0.14759048642E+04  0.14759048642E+04  0.25500000920E-02 0. -1.
        2   -1    0    0  501    0  0.00000000000E+00  0.00000000000E+00 -0.15221638626E+04  0.15221638626E+04  0.25500000920E-02 0.  1.
    10030    2    1    2    0    0  0.00000000000E+00  0.00000000000E+00 -0.46258998452E+02  0.29980687268E+04  0.29977118267E+04 0.  0.
        5    1    3    3  502    0  0.14717212088E+04 -0.22204770749E+03 -0.20000772399E+03  0.15017635235E+04  0.46999998093E+01 0.  1.
       -5    1    3    3    0  502 -0.14717212088E+04  0.22204770749E+03  0.15374872554E+03  0.14963052033E+04  0.46999998093E+01 0. -1.
</event>
<event>
 5   0  0.6525507E-08  0.2999111E+04  0.7818609E-02  0.8243985E-01
        1   -1    0    0  501    0  0.00000000000E+00  0.00000000000E+00  0.14554009581E+04  0.14554009581E+04  0.50400001928E-02 0.  1.
       -1   -1    0    0    0  501  0.00000000000E+00  0.00000000000E+00 -0.15450491981E+04  0.15450491981E+04  0.50400001928E-02 0. -1.
    10030    2    1    2    0    0  0.00000000000E+00  0.00000000000E+00 -0.89648239999E+02  0.30004501562E+04  0.29991105903E+04 0.  0.
        4    1    3    3  502    0  0.14825960824E+04 -0.13131397220E+03  0.13782239129E+03  0.14947679175E+04  0.12699999809E+01 0.  1.
       -4    1    3    3    0  502 -0.14825960824E+04  0.13131397220E+03 -0.22747063129E+03  0.15056822387E+04  0.12699999809E+01 0. -1.
</event>
<event>
 5   0  0.6636007E-08  0.2999378E+04  0.7818609E-02  0.8243909E-01
       -1   -1    0    0    0  501  0.00000000000E+00  0.00000000000E+00  0.25546298936E+04  0.25546298936E+04  0.50400001928E-02 0.  1.
        1   -1    0    0  501    0  0.00000000000E+00  0.00000000000E+00 -0.88038836084E+03  0.88038836085E+03  0.50400001928E-02 0. -1.
    10030    2    1    2    0    0  0.00000000000E+00  0.00000000000E+00  0.16742415328E+04  0.34350182545E+04  0.29993775518E+04 0.  0.
        2    1    3    3  502    0  0.11949731638E+04  0.90590687873E+03  0.86109686290E+03  0.17291951718E+04  0.25500000920E-02 0. -1.
       -2    1    3    3    0  502 -0.11949731638E+04 -0.90590687873E+03  0.81314466986E+03  0.17058230826E+04  0.25500000920E-02 0.  1.
</event>
<event>
 5   0  0.1810055E-07  0.2999692E+04  0.7818609E-02  0.8243819E-01
       -2   -1    0    0    0  501  0.00000000000E+00  0.00000000000E+00  0.79981886146E+03  0.79981886146E+03  0.25500000920E-02 0. -1.
        2   -1    0    0  501    0  0.00000000000E+00  0.00000000000E+00 -0.28125589023E+04  0.28125589023E+04  0.25500000920E-02 0.  1.
    10030    2    1    2    0    0  0.00000000000E+00  0.00000000000E+00 -0.20127400409E+04  0.36123777638E+04  0.29996917569E+04 0.  0.
        4    1    3    3  502    0 -0.64133224632E+03  0.12379949411E+04 -0.16720897753E+04  0.21771137669E+04  0.12699999809E+01 0.  1.
       -4    1    3    3    0  502  0.64133224632E+03 -0.12379949411E+04 -0.34065026555E+03  0.14352639969E+04  0.12699999809E+01 0. -1.
</event>
<event>
 5   0  0.6464436E-08  0.2998894E+04  0.7818609E-02  0.8244047E-01
       -1   -1    0    0    0  501  0.00000000000E+00  0.00000000000E+00  0.10065099149E+04  0.10065099149E+04  0.50400001928E-02 0.  1.
        1   -1    0    0  501    0  0.00000000000E+00  0.00000000000E+00 -0.22338000106E+04  0.22338000106E+04  0.50400001928E-02 0. -1.
    10030    2    1    2    0    0  0.00000000000E+00  0.00000000000E+00 -0.12272900957E+04  0.32403099255E+04  0.29988943687E+04 0.  0.
        5    1    3    3  502    0  0.35918220188E+03  0.14395358665E+04 -0.84800282247E+03  0.17089196125E+04  0.46999998093E+01 0. -1.
       -5    1    3    3    0  502 -0.35918220188E+03 -0.14395358665E+04 -0.37928727320E+03  0.15313903130E+04  0.46999998093E+01 0.  1.
</event>
<event>
 5   0  0.1810055E-07  0.3003459E+04  0.7818609E-02  0.8242744E-01
       -2   -1    0    0    0  501  0.00000000000E+00  0.00000000000E+00  0.14233931281E+04  0.14233931281E+04  0.25500000920E-02 0. -1.
        2   -1    0    0  501    0  0.00000000000E+00  0.00000000000E+00 -0.15843775829E+04  0.15843775829E+04  0.25500000920E-02 0.  1.
    10030    2    1    2    0    0  0.00000000000E+00  0.00000000000E+00 -0.16098445480E+03  0.30077707111E+04  0.30034594480E+04 0.  0.
        4    1    3    3  502    0  0.10750883642E+04  0.94665261480E+03 -0.53194348224E+03  0.15280483125E+04  0.12699999809E+01 0.  1.
       -4    1    3    3    0  502 -0.10750883642E+04 -0.94665261480E+03  0.37095902744E+03  0.14797223986E+04  0.12699999809E+01 0. -1.
</event>
<event>
 5   0  0.1810055E-07  0.3000224E+04  0.7818609E-02  0.8243667E-01
       -2   -1    0    0    0  501  0.00000000000E+00  0.00000000000E+00  0.99897055921E+03  0.99897055922E+03  0.25500000920E-02 0. -1.
        2   -1    0    0  501    0  0.00000000000E+00  0.00000000000E+00 -0.22526551819E+04  0.22526551819E+04  0.25500000920E-02 0.  1.
    10030    2    1    2    0    0  0.00000000000E+00  0.00000000000E+00 -0.12536846227E+04  0.32516257411E+04  0.30002241295E+04 0.  0.
        4    1    3    3  502    0 -0.63591415978E+03  0.14489243816E+03 -0.20909492851E+04  0.21903084629E+04  0.12699999809E+01 0.  1.
       -4    1    3    3    0  502  0.63591415978E+03 -0.14489243816E+03  0.83726466236E+03  0.10613172782E+04  0.12699999809E+01 0. -1.
</event>
<event>
 5   0  0.1813720E-07  0.2997698E+04  0.7818609E-02  0.8244388E-01
        2   -1    0    0  501    0  0.00000000000E+00  0.00000000000E+00  0.11774496190E+04  0.11774496190E+04  0.25500000920E-02 0.  1.
       -2   -1    0    0    0  501  0.00000000000E+00  0.00000000000E+00 -0.19079787970E+04  0.19079787970E+04  0.25500000920E-02 0. -1.
    10030    2    1    2    0    0  0.00000000000E+00  0.00000000000E+00 -0.73052917803E+03  0.30854284160E+04  0.29976983888E+04 0.  0.
        3    1    3    3  502    0 -0.65482060872E+03  0.12119952784E+04 -0.97316461105E+03  0.16866451775E+04  0.10100000352E+00 0. -1.
       -3    1    3    3    0  502  0.65482060872E+03 -0.12119952784E+04  0.24263543302E+03  0.13987832384E+04  0.10100000352E+00 0.  1.
</event>
<event>
 5   0  0.6636007E-08  0.2999289E+04  0.7818609E-02  0.8243934E-01
        1   -1    0    0  501    0  0.00000000000E+00  0.00000000000E+00  0.14328533564E+04  0.14328533564E+04  0.50400001928E-02 0.  1.
       -1   -1    0    0    0  501  0.00000000000E+00  0.00000000000E+00 -0.15695493783E+04  0.15695493783E+04  0.50400001928E-02 0. -1.
    10030    2    1    2    0    0  0.00000000000E+00  0.00000000000E+00 -0.13669602191E+03  0.30024027347E+04  0.29992893123E+04 0.  0.
        2    1    3    3  502    0 -0.53949999475E+03  0.46390614309E+03  0.12531226762E+04  0.14410362922E+04  0.25500000920E-02 0.  1.
       -2    1    3    3    0  502  0.53949999475E+03 -0.46390614309E+03 -0.13898186981E+04  0.15613664424E+04  0.25500000920E-02 0. -1.
</event>
<event>
 5   0  0.6374748E-08  0.2999501E+04  0.7818609E-02  0.8243873E-01
       -1   -1    0    0    0  501  0.00000000000E+00  0.00000000000E+00  0.16291789268E+04  0.16291789268E+04  0.50400001928E-02 0. -1.
        1   -1    0    0  501    0  0.00000000000E+00  0.00000000000E+00 -0.13806046663E+04  0.13806046663E+04  0.50400001928E-02 0.  1.
    10030    2    1    2    0    0  0.00000000000E+00  0.00000000000E+00  0.24857426048E+03  0.30097835932E+04  0.29995013110E+04 0.  0.
        1    1    3    3  502    0  0.55600208240E+03  0.67739055962E+03  0.13455277414E+04  0.16057525304E+04  0.50400001928E-02 0. -1.
       -1    1    3    3    0  502 -0.55600208240E+03 -0.67739055962E+03 -0.10969534809E+04  0.14040310628E+04  0.50400001928E-02 0.  1.
</event>
<event>
 5   0  0.6464436E-08  0.2999313E+04  0.7818609E-02  0.8243927E-01
        1   -1    0    0  501    0  0.00000000000E+00  0.00000000000E+00  0.22460856340E+04  0.22460856340E+04  0.50400001928E-02 0.  1.
       -1   -1    0    0    0  501  0.00000000000E+00  0.00000000000E+00 -0.10012840479E+04  0.10012840479E+04  0.50400001928E-02 0. -1.
    10030    2    1    2    0    0  0.00000000000E+00  0.00000000000E+00  0.12448015861E+04  0.32473696819E+04  0.29993130651E+04 0.  0.
        5    1    3    3  502    0  0.13961873100E+03  0.11973517426E+04 -0.34345597926E+03  0.12534467222E+04  0.46999998093E+01 0. -1.
       -5    1    3    3    0  502 -0.13961873100E+03 -0.11973517426E+04  0.15882575654E+04  0.19939229598E+04  0.46999998093E+01 0.  1.
</event>
<event>
 5   0  0.1817566E-07  0.3000124E+04  0.7818609E-02  0.8243695E-01
        2   -1    0    0  501    0  0.00000000000E+00  0.00000000000E+00  0.13261749860E+04  0.13261749860E+04  0.25500000920E-02 0.  1.
       -2   -1    0    0    0  501  0.00000000000E+00  0.00000000000E+00 -0.16967493317E+04  0.16967493317E+04  0.25500000920E-02 0. -1.
    10030    2    1    2    0    0  0.00000000000E+00  0.00000000000E+00 -0.37057434573E+03  0.30229243177E+04  0.30001243449E+04 0.  0.
        1    1    3    3  502    0  0.24105322397E+03  0.36537864174E-01 -0.16771064179E+04  0.16943413456E+04  0.50400001928E-02 0. -1.
       -1    1    3    3    0  502 -0.24105322397E+03 -0.36537864174E-01  0.13065320722E+04  0.13285829721E+04  0.50400001928E-02 0.  1.
</event>
<event>
 5   0  0.1914439E-07  0.3003738E+04  0.7818609E-02  0.8242664E-01
        2   -1    0    0  501    0  0.00000000000E+00  0.00000000000E+00  0.15915331716E+04  0.15915331716E+04  0.25500000920E-02 0. -1.
       -2   -1    0    0    0  501  0.00000000000E+00  0.00000000000E+00 -0.14172560110E+04  0.14172560110E+04  0.25500000920E-02 0.  1.
    10030    2    1    2    0    0  0.00000000000E+00  0.00000000000E+00  0.17427716061E+03  0.30087891825E+04  0.30037376411E+04 0.  0.
        5    1    3    3  502    0 -0.22123812067E+03  0.51036040250E+03  0.14845380525E+04  0.15853357266E+04  0.46999998093E+01 0. -1.
       -5    1    3    3    0  502  0.22123812067E+03 -0.51036040250E+03 -0.13102608919E+04  0.14234534560E+04  0.46999998093E+01 0.  1.
</event>
<event>
 5   0  0.1810055E-07  0.2999499E+04  0.7818609E-02  0.8243874E-01
        2   -1    0    0  501    0  0.00000000000E+00  0.00000000000E+00  0.19813603528E+04  0.19813603528E+04  0.25500000920E-02 0. -1.
       -2   -1    0    0    0  501  0.00000000000E+00  0.00000000000E+00 -0.11352042517E+04  0.11352042517E+04  0.25500000920E-02 0.  1.
    10030    2    1    2    0    0  0.00000000000E+00  0.00000000000E+00  0.84615610109E+03  0.31165646045E+04  0.29994990892E+04 0.  0.
        4    1    3    3  502    0 -0.72081190392E+02 -0.12088407060E+04 -0.49618641519E+03  0.13086994009E+04  0.12699999809E+01 0.  1.
       -4    1    3    3    0  502  0.72081190392E+02  0.12088407060E+04  0.13423425163E+04  0.18078652036E+04  0.12699999809E+01 0. -1.
</event>
<event>
 5   0  0.6464436E-08  0.2992552E+04  0.7818609E-02  0.8245861E-01
        1   -1    0    0  501    0  0.00000000000E+00  0.00000000000E+00  0.17511784566E+04  0.17511784566E+04  0.50400001928E-02 0.  1.
       -1   -1    0    0    0  501  0.00000000000E+00  0.00000000000E+00 -0.12784768906E+04  0.12784768906E+04  0.50400001928E-02 0. -1.
    10030    2    1    2    0    0  0.00000000000E+00  0.00000000000E+00  0.47270156599E+03  0.30296553472E+04  0.29925515455E+04 0.  0.
        5    1    3    3  502    0  0.56686781216E+03 -0.41119753407E+03  0.15750147059E+04  0.17236925312E+04  0.46999998093E+01 0.  1.
       -5    1    3    3    0  502 -0.56686781216E+03  0.41119753407E+03 -0.11023131399E+04  0.13059628160E+04  0.46999998093E+01 0. -1.
</event>
<event>
 5   0  0.6374748E-08  0.3000225E+04  0.7818609E-02  0.8243667E-01
        1   -1    0    0  501    0  0.00000000000E+00  0.00000000000E+00  0.24912956331E+04  0.24912956331E+04  0.50400001928E-02 0. -1.
       -1   -1    0    0    0  501  0.00000000000E+00  0.00000000000E+00 -0.90327989079E+03  0.90327989080E+03  0.50400001928E-02 0.  1.
    10030    2    1    2    0    0  0.00000000000E+00  0.00000000000E+00  0.15880157423E+04  0.33945755239E+04  0.30002248232E+04 0.  0.
        1    1    3    3  502    0  0.64723547465E+02 -0.10308827628E+03 -0.89768315053E+03  0.90589810082E+03  0.50400001928E-02 0.  1.
       -1    1    3    3    0  502 -0.64723547465E+02  0.10308827628E+03  0.24856988929E+04  0.24886774231E+04  0.50400001928E-02 0. -1.
</event>
<event>
 5   0  0.6636007E-08  0.3002489E+04  0.7818609E-02  0.8243021E-01
        1   -1    0    0  501    0  0.00000000000E+00  0.00000000000E+00  0.13527615735E+04  0.13527615735E+04  0.50400001928E-02 0. -1.
       -1   -1    0    0    0  501  0.00000000000E+00  0.00000000000E+00 -0.16660248462E+04  0.16660248462E+04  0.50400001928E-02 0.  1.
    10030    2    1    2    0    0  0.00000000000E+00  0.00000000000E+00 -0.31326327268E+03  0.30187864197E+04  0.30024885628E+04 0.  0.
        2    1    3    3  502    0  0.14519956580E+04 -0.32593587922E+03 -0.35571860024E+03  0.15300527151E+04  0.25500000920E-02 0. -1.
       -2    1    3    3    0  502 -0.14519956580E+04  0.32593587922E+03  0.42455327555E+02  0.14887337046E+04  0.25500000920E-02 0.  1.
</event>
<event>
 5   0  0.6636007E-08  0.3001930E+04  0.7818609E-02  0.8243180E-01
        1   -1    0    0  501    0  0.00000000000E+00  0.00000000000E+00  0.11278651423E+04  0.11278651423E+04  0.50400001928E-02 0.  1.
       -1   -1    0    0    0  501  0.00000000000E+00  0.00000000000E+00 -0.19974868024E+04  0.19974868024E+04  0.50400001928E-02 0. -1.
    10030    2    1    2    0    0  0.00000000000E+00  0.00000000000E+00 -0.86962166009E+03  0.31253519447E+04  0.30019298703E+04 0.  0.
        2    1    3    3  502    0  0.82896413369E+01 -0.14635257177E+04 -0.88072124188E+02  0.14661967616E+04  0.25500000920E-02 0.  1.
       -2    1    3    3    0  502 -0.82896413369E+01  0.14635257177E+04 -0.78154953590E+03  0.16591551831E+04  0.25500000920E-02 0. -1.
</event>
<event>
 5   0  0.6464436E-08  0.2999226E+04  0.7818609E-02  0.8243952E-01
       -1   -1    0    0    0  501  0.00000000000E+00  0.00000000000E+00  0.15781055023E+04  0.15781055024E+04  0.50400001928E-02 0.  1.
        1   -1    0    0  501    0  0.00000000000E+00  0.00000000000E+00 -0.14250246257E+04  0.14250246257E+04  0.50400001928E-02 0. -1.
    10030    2    1    2    0    0  0.00000000000E+00  0.00000000000E+00  0.15308087663E+03  0.30031301281E+04  0.29992260354E+04 0.  0.
        5    1    3    3  502    0 -0.13498115639E+04 -0.60896846047E+03 -0.16037539196E+03  0.14894885700E+04  0.46999998093E+01 0. -1.
       -5    1    3    3    0  502  0.13498115639E+04  0.60896846047E+03  0.31345626859E+03  0.15136415580E+04  0.46999998093E+01 0.  1.
</event>
<event>
 5   0  0.1817566E-07  0.3000625E+04  0.7818609E-02  0.8243553E-01
       -2   -1    0    0    0  501  0.00000000000E+00  0.00000000000E+00  0.15175919715E+04  0.15175919715E+04  0.25500000920E-02 0.  1.
        2   -1    0    0  501    0  0.00000000000E+00  0.00000000000E+00 -0.14832293974E+04  0.14832293974E+04  0.25500000920E-02 0. -1.
    10030    2    1    2    0    0  0.00000000000E+00  0.00000000000E+00  0.34362574072E+02  0.30008213689E+04  0.30006246185E+04 0.  0.
        1    1    3    3  502    0  0.55152709569E+03 -0.22498825159E+03  0.13942738189E+04  0.15161798484E+04  0.50400001928E-02 0.  1.
       -1    1    3    3    0  502 -0.55152709569E+03  0.22498825159E+03 -0.13599112448E+04  0.14846415205E+04  0.50400001928E-02 0. -1.
</event>
<event>
 5   0  0.6525507E-08  0.3000597E+04  0.7818609E-02  0.8243560E-01
       -1   -1    0    0    0  501  0.00000000000E+00  0.00000000000E+00  0.85219816593E+03  0.85219816594E+03  0.50400001928E-02 0.  1.
        1   -1    0    0  501    0  0.00000000000E+00  0.00000000000E+00 -0.26412818414E+04  0.26412818414E+04  0.50400001928E-02 0. -1.
    10030    2    1    2    0    0  0.00000000000E+00  0.00000000000E+00 -0.17890836755E+04  0.34934800074E+04  0.30005969679E+04 0.  0.
        4    1    3    3  502    0 -0.19379383363E+03  0.15025739799E+03 -0.26177909214E+04  0.26292516533E+04  0.12699999809E+01 0. -1.
       -4    1    3    3    0  502  0.19379383363E+03 -0.15025739799E+03  0.82870724590E+03  0.86422835403E+03  0.12699999809E+01 0.  1.
</event>
<event>
 5   0  0.6374748E-08  0.2998984E+04  0.7818609E-02  0.8244021E-01
        1   -1    0    0  501    0  0.00000000000E+00  0.00000000000E+00  0.14950394746E+04  0.14950394746E+04  0.50400001928E-02 0.  1.
       -1   -1    0    0    0  501  0.00000000000E+00  0.00000000000E+00 -0.15039578870E+04  0.15039578870E+04  0.50400001928E-02 0. -1.
    10030    2    1    2    0    0  0.00000000000E+00  0.00000000000E+00 -0.89184123663E+01  0.29989973616E+04  0.29989841008E+04 0.  0.
        1    1    3    3  502    0  0.92748910239E+03 -0.18590411617E+03 -0.11679419113E+04  0.15029586434E+04  0.50400001928E-02 0. -1.
       -1    1    3    3    0  502 -0.92748910239E+03  0.18590411617E+03  0.11590234989E+04  0.14960387183E+04  0.50400001928E-02 0.  1.
</event>
<event>
 5   0  0.1810055E-07  0.2999194E+04  0.7818609E-02  0.8243961E-01
       -2   -1    0    0    0  501  0.00000000000E+00  0.00000000000E+00  0.11634066975E+04  0.11634066975E+04  0.25500000920E-02 0.  1.
        2   -1    0    0  501    0  0.00000000000E+00  0.00000000000E+00 -0.19329364585E+04  0.19329364585E+04  0.25500000920E-02 0. -1.
    10030    2    1    2    0    0  0.00000000000E+00  0.00000000000E+00 -0.76952976095E+03  0.30963431560E+04  0.29991940396E+04 0.  0.
        4    1    3    3  502    0  0.58826709672E+03 -0.12495654148E+04  0.21838317287E+03  0.13982720501E+04  0.12699999809E+01 0.  1.
       -4    1    3    3    0  502 -0.58826709672E+03  0.12495654148E+04 -0.98791293382E+03  0.16980711059E+04  0.12699999809E+01 0. -1.
</event>
<event>
 5   0  0.6464436E-08  0.3015541E+04  0.7818609E-02  0.8239307E-01
        1   -1    0    0  501    0  0.00000000000E+00  0.00000000000E+00  0.12439042682E+04  0.12439042682E+04  0.50400001928E-02 0. -1.
       -1   -1    0    0    0  501  0.00000000000E+00  0.00000000000E+00 -0.18276099621E+04  0.18276099621E+04  0.50400001928E-02 0.  1.
    10030    2    1    2    0    0  0.00000000000E+00  0.00000000000E+00 -0.58370569392E+03  0.30715142303E+04  0.30155409680E+04 0.  0.
        5    1    3    3  502    0 -0.51273727234E+03  0.10749919440E+04 -0.12335914323E+04  0.17147236226E+04  0.46999998093E+01 0.  1.
       -5    1    3    3    0  502  0.51273727234E+03 -0.10749919440E+04  0.64988573840E+03  0.13567906077E+04  0.46999998093E+01 0. -1.
</event>
<event>
 5   0  0.6464436E-08  0.3001077E+04  0.7818609E-02  0.8243424E-01
       -1   -1    0    0    0  501  0.00000000000E+00  0.00000000000E+00  0.23519852545E+04  0.23519852545E+04  0.50400001928E-02 0.  1.
        1   -1    0    0  501    0  0.00000000000E+00  0.00000000000E+00 -0.95732532894E+03  0.95732532895E+03  0.50400001928E-02 0. -1.
    10030    2    1    2    0    0  0.00000000000E+00  0.00000000000E+00  0.13946599256E+04  0.33093105835E+04  0.30010765118E+04 0.  0.
        5    1    3    3  502    0 -0.40400204907E+03 -0.11435051740E+04  0.16716965013E+04  0.20652876364E+04  0.46999998093E+01 0.  1.
       -5    1    3    3    0  502  0.40400204907E+03  0.11435051740E+04 -0.27703657570E+03  0.12440229471E+04  0.46999998093E+01 0. -1.
</event>
<event>
 5   0  0.6636007E-08  0.3000293E+04  0.7818609E-02  0.8243647E-01
        1   -1    0    0  501    0  0.00000000000E+00  0.00000000000E+00  0.13687950135E+04  0.13687950135E+04  0.50400001928E-02 0. -1.
       -1   -1    0    0    0  501  0.00000000000E+00  0.00000000000E+00 -0.16441028047E+04  0.16441028047E+04  0.50400001928E-02 0.  1.
    10030    2    1    2    0    0  0.00000000000E+00  0.00000000000E+00 -0.27530779120E+03  0.30128978182E+04  0.30002931329E+04 0.  0.
        2    1    3    3  502    0 -0.63480687741E+03  0.13588474896E+04 -0.10600245073E+03  0.15035567137E+04  0.25500000920E-02 0. -1.
       -2    1    3    3    0  502  0.63480687741E+03 -0.13588474896E+04 -0.16930534047E+03  0.15093411046E+04  0.25500000920E-02 0.  1.
</event>
<event>
 5   0  0.1817566E-07  0.3000376E+04  0.7818609E-02  0.8243624E-01
        2   -1    0    0  501    0  0.00000000000E+00  0.00000000000E+00  0.20460680474E+04  0.20460680474E+04  0.25500000920E-02 0.  1.
       -2   -1    0    0    0  501  0.00000000000E+00  0.00000000000E+00 -0.10999458951E+04  0.10999458951E+04  0.25500000920E-02 0. -1.
    10030    2    1    2    0    0  0.00000000000E+00  0.00000000000E+00  0.94612215227E+03  0.31460139425E+04  0.30003760764E+04 0.  0.
        1    1    3    3  502    0 -0.43533568019E+02  0.92418314443E+02 -0.10962944831E+04  0.11010440091E+04  0.50400001928E-02 0. -1.
       -1    1    3    3    0  502  0.43533568019E+02 -0.92418314443E+02  0.20424166353E+04  0.20449699334E+04  0.50400001928E-02 0.  1.
</event>
<event>
 5   0  0.6525507E-08  0.3000002E+04  0.7818609E-02  0.8243730E-01
        1   -1    0    0  501    0  0.00000000000E+00  0.00000000000E+00  0.19283558400E+04  0.19283558400E+04  0.50400001928E-02 0.  1.
       -1   -1    0    0    0  501  0.00000000000E+00  0.00000000000E+00 -0.11667984868E+04  0.11667984868E+04  0.50400001928E-02 0. -1.
    10030    2    1    2    0    0  0.00000000000E+00  0.00000000000E+00  0.76155735320E+03  0.30951543268E+04  0.30000017841E+04 0.  0.
        4    1    3    3  502    0  0.92724205384E+03 -0.29267214464E+03  0.15591817459E+04  0.18375211945E+04  0.12699999809E+01 0.  1.
       -4    1    3    3    0  502 -0.92724205384E+03  0.29267214464E+03 -0.79762439270E+03  0.12576331323E+04  0.12699999809E+01 0. -1.
</event>
<event>
 5   0  0.1817566E-07  0.3000366E+04  0.7818609E-02  0.8243626E-01
        2   -1    0    0  501    0  0.00000000000E+00  0.00000000000E+00  0.15667239933E+04  0.15667239933E+04  0.25500000920E-02 0.  1.
       -2   -1    0    0    0  501  0.00000000000E+00  0.00000000000E+00 -0.14364677924E+04  0.14364677924E+04  0.25500000920E-02 0. -1.
    10030    2    1    2    0    0  0.00000000000E+00  0.00000000000E+00  0.13025620087E+03  0.30031917857E+04  0.30003656817E+04 0.  0.
        1    1    3    3  502    0  0.49543272601E+03 -0.59445310383E+03 -0.12212752264E+04  0.14458012510E+04  0.50400001928E-02 0. -1.
       -1    1    3    3    0  502 -0.49543272601E+03  0.59445310383E+03  0.13515314273E+04  0.15573905347E+04  0.50400001928E-02 0.  1.
</event>
<event>
 5   0  0.1813720E-07  0.3002033E+04  0.7818609E-02  0.8243151E-01
       -2   -1    0    0    0  501  0.00000000000E+00  0.00000000000E+00  0.13040414797E+04  0.13040414797E+04  0.25500000920E-02 0.  1.
        2   -1    0    0  501    0  0.00000000000E+00  0.00000000000E+00 -0.17277447387E+04  0.17277447387E+04  0.25500000920E-02 0. -1.
    10030    2    1    2    0    0  0.00000000000E+00  0.00000000000E+00 -0.42370325897E+03  0.30317862184E+04  0.30020331815E+04 0.  0.
        3    1    3    3  502    0 -0.12800970618E+04  0.25284183225E+03  0.53744058816E+03  0.14111767699E+04  0.10100000352E+00 0.  1.
       -3    1    3    3    0  502  0.12800970618E+04 -0.25284183225E+03 -0.96114384713E+03  0.16206094486E+04  0.10100000352E+00 0. -1.
</event>
<event>
 5   0  0.1813720E-07  0.2999700E+04  0.7818609E-02  0.8243817E-01
       -2   -1    0    0    0  501  0.00000000000E+00  0.00000000000E+00  0.93941307079E+03  0.93941307080E+03  0.25500000920E-02 0.  1.
        2   -1    0    0  501    0  0.00000000000E+00  0.00000000000E+00 -0.23946336373E+04  0.23946336373E+04  0.25500000920E-02 0. -1.
    10030    2    1    2    0    0  0.00000000000E+00  0.00000000000E+00 -0.14552205665E+04  0.33340467081E+04  0.29997000774E+04 0.  0.
        3    1    3    3  502    0 -0.69312142929E+03  0.11140527457E+03  0.74553413870E+03  0.10240359433E+04  0.10100000352E+00 0.  1.
       -3    1    3    3    0  502  0.69312142929E+03 -0.11140527457E+03 -0.22007547052E+04  0.23100107648E+04  0.10100000352E+00 0. -1.
</event>
<event>
 5   0  0.6374748E-08  0.2984826E+04  0.7818609E-02  0.8248077E-01
        1   -1    0    0  501    0  0.00000000000E+00  0.00000000000E+00  0.13911985729E+04  0.13911985729E+04  0.50400001928E-02 0. -1.
       -1   -1    0    0    0  501  0.00000000000E+00  0.00000000000E+00 -0.16009916379E+04  0.16009916379E+04  0.50400001928E-02 0.  1.
    10030    2    1    2    0    0  0.00000000000E+00  0.00000000000E+00 -0.20979306499E+03  0.29921902108E+04  0.29848264820E+04 0.  0.
        1    1    3    3  502    0 -0.13109014928E+04  0.67934633902E+03  0.11317890174E+03  0.14808050635E+04  0.50400001928E-02 0.  1.
       -1    1    3    3    0  502  0.13109014928E+04 -0.67934633902E+03 -0.32297196673E+03  0.15113851473E+04  0.50400001928E-02 0. -1.
</event>
<event>
 5   0  0.6464436E-08  0.3000987E+04  0.7818609E-02  0.8243449E-01
        1   -1    0    0  501    0  0.00000000000E+00  0.00000000000E+00  0.26335311579E+04  0.26335311579E+04  0.50400001928E-02 0.  1.
       -1   -1    0    0    0  501  0.00000000000E+00  0.00000000000E+00 -0.85492857074E+03  0.85492857075E+03  0.50400001928E-02 0. -1.
    10030    2    1    2    0    0  0.00000000000E+00  0.00000000000E+00  0.17786025872E+04  0.34884597287E+04  0.30009871901E+04 0.  0.
        5    1    3    3  502    0 -0.70520537355E+02 -0.11766833873E+04 -0.18989020651E+03  0.11940005530E+04  0.46999998093E+01 0. -1.
       -5    1    3    3    0  502  0.70520537355E+02  0.11766833873E+04  0.19684927937E+04  0.22944591757E+04  0.46999998093E+01 0.  1.
</event>
<event>
 5   0  0.1813720E-07  0.2990401E+04  0.7818609E-02  0.8246477E-01
       -2   -1    0    0    0  501  0.00000000000E+00  0.00000000000E+00  0.10583636406E+04  0.10583636406E+04  0.25500000920E-02 0.  1.
        2   -1    0    0  501    0  0.00000000000E+00  0.00000000000E+00 -0.21123412167E+04  0.21123412167E+04  0.25500000920E-02 0. -1.
    10030    2    1    2    0    0  0.00000000000E+00  0.00000000000E+00 -0.10539775761E+04  0.31707048572E+04  0.29904014046E+04 0.  0.
        3    1    3    3  502    0 -0.29341636321E+03  0.12728730876E+04  0.24442602150E+03  0.13289255621E+04  0.10100000352E+00 0.  1.
       -3    1    3    3    0  502  0.29341636321E+03 -0.12728730876E+04 -0.12984035976E+04  0.18417792951E+04  0.10100000352E+00 0. -1.
</event>
<event>
 5   0  0.6464436E-08  0.3000204E+04  0.7818609E-02  0.8243673E-01
        1   -1    0    0  501    0  0.00000000000E+00  0.00000000000E+00  0.16868439618E+04  0.16868439618E+04  0.50400001928E-02 0.  1.
       -1   -1    0    0    0  501  0.00000000000E+00  0.00000000000E+00 -0.13340332974E+04  0.13340332974E+04  0.50400001928E-02 0. -1.
    10030    2    1    2    0    0  0.00000000000E+00  0.00000000000E+00  0.35281066437E+03  0.30208772592E+04  0.30002040014E+04 0.  0.
        5    1    3    3  502    0 -0.12399672159E+04 -0.68609267421E+03  0.67177307360E+03  0.15682930232E+04  0.46999998093E+01 0.  1.
       -5    1    3    3    0  502  0.12399672159E+04  0.68609267421E+03 -0.31896240923E+03  0.14525842360E+04  0.46999998093E+01 0. -1.
</event>
<event>
 5   0  0.1821305E-07  0.2999040E+04  0.7818609E-02  0.8244005E-01
       -2   -1    0    0    0  501  0.00000000000E+00  0.00000000000E+00  0.72225800117E+03  0.72225800117E+03  0.25500000920E-02 0. -1.
        2   -1    0    0  501    0  0.00000000000E+00  0.00000000000E+00 -0.31132365524E+04  0.31132365524E+04  0.25500000920E-02 0.  1.
    10030    2    1    2    0    0  0.00000000000E+00  0.00000000000E+00 -0.23909785512E+04  0.38354945536E+04  0.29990398527E+04 0.  0.
        2    1    3    3  502    0  0.80209645028E+03  0.11323272429E+04 -0.46860578825E+03  0.14646211406E+04  0.25500000920E-02 0. -1.
       -2    1    3    3    0  502 -0.80209645028E+03 -0.11323272429E+04 -0.19223727630E+04  0.23708734130E+04  0.25500000920E-02 0.  1.
</event>
<event>
 5   0  0.6679022E-08  0.2999827E+04  0.7818609E-02  0.8243780E-01
       -1   -1    0    0    0  501  0.00000000000E+00  0.00000000000E+00  0.20705364320E+04  0.20705364321E+04  0.50400001928E-02 0.  1.
        1   -1    0    0  501    0  0.00000000000E+00  0.00000000000E+00 -0.10865497223E+04  0.10865497223E+04  0.50400001928E-02 0. -1.
    10030    2    1    2    0    0  0.00000000000E+00  0.00000000000E+00  0.98398670974E+03  0.31570861544E+04  0.29998271852E+04 0.  0.
        3    1    3    3  502    0  0.10152908306E+04 -0.42135942678E+03  0.15659707342E+04  0.19132756173E+04  0.10100000352E+00 0.  1.
       -3    1    3    3    0  502 -0.10152908306E+04  0.42135942678E+03 -0.58198402445E+03  0.12438105371E+04  0.10100000352E+00 0. -1.
</event>
<event>
 5   0  0.6374748E-08  0.3000444E+04  0.7818609E-02  0.8243604E-01
       -1   -1    0    0    0  501  0.00000000000E+00  0.00000000000E+00  0.11232574767E+04  0.11232574767E+04  0.50400001928E-02 0.  1.
        1   -1    0    0  501    0  0.00000000000E+00  0.00000000000E+00 -0.20036952404E+04  0.20036952404E+04  0.50400001928E-02 0. -1.
    10030    2    1    2    0    0  0.00000000000E+00  0.00000000000E+00 -0.88043776370E+03  0.31269527172E+04  0.30004437405E+04 0.  0.
        1    1    3    3  502    0  0.55368661674E+03  0.13942963457E+04 -0.44633937082E+03  0.15651996688E+04  0.50400001928E-02 0.  1.
       -1    1    3    3    0  502 -0.55368661674E+03 -0.13942963457E+04 -0.43409839288E+03  0.15617530484E+04  0.50400001928E-02 0. -1.
</event>
<event>
 5   0  0.6525507E-08  0.3002692E+04  0.7818609E-02  0.8242963E-01
        1   -1    0    0  501    0  0.00000000000E+00  0.00000000000E+00  0.14474221119E+04  0.14474221119E+04  0.50400001928E-02 0. -1.
       -1   -1    0    0    0  501  0.00000000000E+00  0.00000000000E+00 -0.15572786646E+04  0.15572786646E+04  0.50400001928E-02 0.  1.
    10030    2    1    2    0    0  0.00000000000E+00  0.00000000000E+00 -0.10985655267E+03  0.30047007765E+04  0.30026918414E+04 0.  0.
        4    1    3    3  502    0 -0.98365736505E+03  0.22539866658E+03  0.10574140969E+04  0.14616814140E+04  0.12699999809E+01 0. -1.
       -4    1    3    3    0  502  0.98365736505E+03 -0.22539866658E+03 -0.11672706496E+04  0.15430193625E+04  0.12699999809E+01 0.  1.
</event>
<event>
 5   0  0.1810055E-07  0.2999667E+04  0.7818609E-02  0.8243826E-01
       -2   -1    0    0    0  501  0.00000000000E+00  0.00000000000E+00  0.15644241605E+04  0.15644241605E+04  0.25500000920E-02 0.  1.
        2   -1    0    0  501    0  0.00000000000E+00  0.00000000000E+00 -0.14379093614E+04  0.14379093614E+04  0.25500000920E-02 0. -1.
    10030    2    1    2    0    0  0.00000000000E+00  0.00000000000E+00  0.12651479913E+03  0.30023335220E+04  0.29996667453E+04 0.  0.
        4    1    3    3  502    0 -0.96839259781E+03 -0.11239732543E+04  0.28344942029E+03  0.15104453934E+04  0.12699999809E+01 0.  1.
       -4    1    3    3    0  502  0.96839259781E+03  0.11239732543E+04 -0.15693462117E+03  0.14918881285E+04  0.12699999809E+01 0. -1.
</event>
<event>
 5   0  0.6679022E-08  0.3000823E+04  0.7818609E-02  0.8243496E-01
       -1   -1    0    0    0  501  0.00000000000E+00  0.00000000000E+00  0.11227669708E+04  0.11227669709E+04  0.50400001928E-02 0. -1.
        1   -1    0    0  501    0  0.00000000000E+00  0.00000000000E+00 -0.20050768219E+04  0.20050768219E+04  0.50400001928E-02 0.  1.
    10030    2    1    2    0    0  0.00000000000E+00  0.00000000000E+00 -0.88230985106E+03  0.31278437928E+04  0.30008225737E+04 0.  0.
        3    1    3    3  502    0 -0.10139389845E+03 -0.52502832581E+03  0.10200765047E+04  0.11517341495E+04  0.10100000352E+00 0. -1.
       -3    1    3    3    0  502  0.10139389845E+03  0.52502832581E+03 -0.19023863557E+04  0.19761096433E+04  0.10100000352E+00 0.  1.
</event>
<event>
 5   0  0.6464436E-08  0.3001109E+04  0.7818609E-02  0.8243414E-01
       -1   -1    0    0    0  501  0.00000000000E+00  0.00000000000E+00  0.74374658461E+03  0.74374658463E+03  0.50400001928E-02 0.  1.
        1   -1    0    0  501    0  0.00000000000E+00  0.00000000000E+00 -0.30274601049E+04  0.30274601049E+04  0.50400001928E-02 0. -1.
    10030    2    1    2    0    0  0.00000000000E+00  0.00000000000E+00 -0.22837135203E+04  0.37712066896E+04  0.30011085373E+04 0.  0.
        5    1    3    3  502    0  0.31276274112E+02 -0.60335870516E+03  0.58414397296E+03  0.84039645617E+03  0.46999998093E+01 0.  1.
       -5    1    3    3    0  502 -0.31276274112E+02  0.60335870516E+03 -0.28678574933E+04  0.29308102334E+04  0.46999998093E+01 0. -1.
</event>
<event>
 5   0  0.6525507E-08  0.3002859E+04  0.7818609E-02  0.8242915E-01
       -1   -1    0    0    0  501  0.00000000000E+00  0.00000000000E+00  0.13051086835E+04  0.13051086835E+04  0.50400001928E-02 0. -1.
        1   -1    0    0  501    0  0.00000000000E+00  0.00000000000E+00 -0.17272821708E+04  0.17272821708E+04  0.50400001928E-02 0.  1.
    10030    2    1    2    0    0  0.00000000000E+00  0.00000000000E+00 -0.42217348725E+03  0.30323908543E+04  0.30028592774E+04 0.  0.
        4    1    3    3  502    0 -0.11407710759E+04 -0.97536801121E+03 -0.25132762984E+03  0.15217978168E+04  0.12699999809E+01 0.  1.
       -4    1    3    3    0  502  0.11407710759E+04  0.97536801121E+03 -0.17084585740E+03  0.15105930375E+04  0.12699999809E+01 0. -1.
</event>
<event>
 5   0  0.1821305E-07  0.2999747E+04  0.7818609E-02  0.8243803E-01
       -2   -1    0    0    0  501  0.00000000000E+00  0.00000000000E+00  0.23986744532E+04  0.23986744532E+04  0.25500000920E-02 0. -1.
        2   -1    0    0  501    0  0.00000000000E+00  0.00000000000E+00 -0.93785969237E+03  0.93785969237E+03  0.25500000920E-02 0.  1.
    10030    2    1    2    0    0  0.00000000000E+00  0.00000000000E+00  0.14608147608E+04  0.33365341455E+04  0.29997467125E+04 0.  0.
        2    1    3    3  502    0  0.26222056581E+03 -0.14552837927E+04  0.10096065682E+04  0.17905071809E+04  0.25500000920E-02 0.  1.
       -2    1    3    3    0  502 -0.26222056581E+03  0.14552837927E+04  0.45120819261E+03  0.15460269646E+04  0.25500000920E-02 0. -1.
</event>
<event>
 5   0  0.1810055E-07  0.2999171E+04  0.7818609E-02  0.8243968E-01
        2   -1    0    0  501    0  0.00000000000E+00  0.00000000000E+00  0.20778433435E+04  0.20778433435E+04  0.25500000920E-02 0. -1.
       -2   -1    0    0    0  501  0.00000000000E+00  0.00000000000E+00 -0.10822554532E+04  0.10822554532E+04  0.25500000920E-02 0.  1.
    10030    2    1    2    0    0  0.00000000000E+00  0.00000000000E+00  0.99558789024E+03  0.31600987967E+04  0.29991714119E+04 0.  0.
        4    1    3    3  502    0 -0.41334986762E+03 -0.11794439883E+04 -0.37541364355E+03  0.13049456890E+04  0.12699999809E+01 0.  1.
       -4    1    3    3    0  502  0.41334986762E+03  0.11794439883E+04  0.13710015338E+04  0.18551531077E+04  0.12699999809E+01 0. -1.
</event>
<event>
 5   0  0.1810055E-07  0.2999319E+04  0.7818609E-02  0.8243925E-01
        2   -1    0    0  501    0  0.00000000000E+00  0.00000000000E+00  0.21590195798E+04  0.21590195798E+04  0.25500000920E-02 0. -1.
       -2   -1    0    0    0  501  0.00000000000E+00  0.00000000000E+00 -0.10416666555E+04  0.10416666555E+04  0.25500000920E-02 0.  1.
    10030    2    1    2    0    0  0.00000000000E+00  0.00000000000E+00  0.11173529243E+04  0.32006862353E+04  0.29993190593E+04 0.  0.
        4    1    3    3  502    0  0.40353086678E+03 -0.12603316351E+03 -0.97676200277E+03  0.10643247351E+04  0.12699999809E+01 0.  1.
       -4    1    3    3    0  502 -0.40353086678E+03  0.12603316351E+03  0.20941149271E+04  0.21363615002E+04  0.12699999809E+01 0. -1.
</event>
<event>
 5   0  0.6525507E-08  0.3002695E+04  0.7818609E-02  0.8242962E-01
       -1   -1    0    0    0  501  0.00000000000E+00  0.00000000000E+00  0.16590069431E+04  0.16590069431E+04  0.50400001928E-02 0. -1.
        1   -1    0    0  501    0  0.00000000000E+00  0.00000000000E+00 -0.13586705962E+04  0.13586705962E+04  0.50400001928E-02 0.  1.
    10030    2    1    2    0    0  0.00000000000E+00  0.00000000000E+00  0.30033634691E+03  0.30176775393E+04  0.30026947581E+04 0.  0.
        4    1    3    3  502    0  0.12538680618E+04 -0.43721852335E+03 -0.55382496834E+03  0.14387733880E+04  0.12699999809E+01 0. -1.
       -4    1    3    3    0  502 -0.12538680618E+04  0.43721852335E+03  0.85416131525E+03  0.15789041513E+04  0.12699999809E+01 0.  1.
</event>
<event>
 5   0  0.1821305E-07  0.3000155E+04  0.7818609E-02  0.8243687E-01
       -2   -1    0    0    0  501  0.00000000000E+00  0.00000000000E+00  0.10567406906E+04  0.10567406906E+04  0.25500000920E-02 0. -1.
        2   -1    0    0  501    0  0.00000000000E+00  0.00000000000E+00 -0.21294080088E+04  0.21294080088E+04  0.25500000920E-02 0.  1.
    10030    2    1    2    0    0  0.00000000000E+00  0.00000000000E+00 -0.10726673182E+04  0.31861486994E+04  0.30001547225E+04 0.  0.
        2    1    3    3  502    0 -0.47895327778E+02 -0.91079810254E+03 -0.18011266333E+04  0.20188868951E+04  0.25500000920E-02 0.  1.
       -2    1    3    3    0  502  0.47895327778E+02  0.91079810254E+03  0.72845931509E+03  0.11672618043E+04  0.25500000920E-02 0. -1.
</event>
<event>
 5   0  0.1810055E-07  0.3007689E+04  0.7818609E-02  0.8241539E-01
        2   -1    0    0  501    0  0.00000000000E+00  0.00000000000E+00  0.32466594331E+04  0.32466594331E+04  0.25500000920E-02 0.  1.
       -2   -1    0    0    0  501  0.00000000000E+00  0.00000000000E+00 -0.69657698641E+03  0.69657698641E+03  0.25500000920E-02 0. -1.
    10030    2    1    2    0    0  0.00000000000E+00  0.00000000000E+00  0.25500824467E+04  0.39432364195E+04  0.30076889758E+04 0.  0.
        4    1    3    3  502    0  0.32561545582E+03  0.66111867661E+03 -0.44360898898E+03  0.86017084212E+03  0.12699999809E+01 0. -1.
       -4    1    3    3    0  502 -0.32561545582E+03 -0.66111867661E+03  0.29936914356E+04  0.30830655774E+04  0.12699999809E+01 0.  1.
</event>
<event>
 5   0  0.1914439E-07  0.2999135E+04  0.7818609E-02  0.8243978E-01
       -2   -1    0    0    0  501  0.00000000000E+00  0.00000000000E+00  0.18797166321E+04  0.18797166321E+04  0.25500000920E-02 0. -1.
        2   -1    0    0  501    0  0.00000000000E+00  0.00000000000E+00 -0.11962989293E+04  0.11962989293E+04  0.25500000920E-02 0.  1.
    10030    2    1    2    0    0  0.00000000000E+00  0.00000000000E+00  0.68341770273E+03  0.30760155614E+04  0.29991352050E+04 0.  0.
        5    1    3    3  502    0 -0.10448029480E+04 -0.10392574068E+04  0.57085210106E+02  0.14747711581E+04  0.46999998093E+01 0.  1.
       -5    1    3    3    0  502  0.10448029480E+04  0.10392574068E+04  0.62633249263E+03  0.16012444033E+04  0.46999998093E+01 0. -1.
</event>
<event>
 5   0  0.6636007E-08  0.2982268E+04  0.7818609E-02  0.8248813E-01
        1   -1    0    0  501    0  0.00000000000E+00  0.00000000000E+00  0.18032703915E+04  0.18032703915E+04  0.50400001928E-02 0.  1.
       -1   -1    0    0    0  501  0.00000000000E+00  0.00000000000E+00 -0.12330264115E+04  0.12330264115E+04  0.50400001928E-02 0. -1.
    10030    2    1    2    0    0  0.00000000000E+00  0.00000000000E+00  0.57024397993E+03  0.30362968030E+04  0.29822676069E+04 0.  0.
        2    1    3    3  502    0  0.61625586765E+03  0.68163255134E+03 -0.91049823486E+03  0.12936001179E+04  0.25500000920E-02 0. -1.
       -2    1    3    3    0  502 -0.61625586765E+03 -0.68163255134E+03  0.14807422148E+04  0.17426966851E+04  0.25500000920E-02 0.  1.
</event>
<event>
 5   0  0.1813720E-07  0.3000203E+04  0.7818609E-02  0.8243673E-01
        2   -1    0    0  501    0  0.00000000000E+00  0.00000000000E+00  0.13321706597E+04  0.13321706597E+04  0.25500000920E-02 0. -1.
       -2   -1    0    0    0  501  0.00000000000E+00  0.00000000000E+00 -0.16892012387E+04  0.16892012387E+04  0.25500000920E-02 0.  1.
    10030    2    1    2    0    0  0.00000000000E+00  0.00000000000E+00 -0.35703057899E+03  0.30213718985E+04  0.30002028789E+04 0.  0.
        3    1    3    3  502    0  0.13772664489E+04 -0.35852783223E+03 -0.65609685700E+03  0.15671209825E+04  0.10100000352E+00 0. -1.
       -3    1    3    3    0  502 -0.13772664489E+04  0.35852783223E+03  0.29906627801E+03  0.14542509160E+04  0.10100000352E+00 0.  1.
</event>
<event>
 5   0  0.6464436E-08  0.3018362E+04  0.7818609E-02  0.8238507E-01
       -1   -1    0    0    0  501  0.00000000000E+00  0.00000000000E+00  0.14496727925E+04  0.14496727925E+04  0.50400001928E-02 0. -1.
        1   -1    0    0  501    0  0.00000000000E+00  0.00000000000E+00 -0.15711315173E+04  0.15711315173E+04  0.50400001928E-02 0.  1.
    10030    2    1    2    0    0  0.00000000000E+00  0.00000000000E+00 -0.12145872473E+03  0.30208043098E+04  0.30183615516E+04 0.  0.
        5    1    3    3  502    0 -0.10975190698E+04  0.66693643043E+03 -0.85399445874E+03  0.15422972918E+04  0.46999998093E+01 0.  1.
       -5    1    3    3    0  502  0.10975190698E+04 -0.66693643043E+03  0.73253573402E+03  0.14785070180E+04  0.46999998093E+01 0. -1.
</event>
<event>
 5   0  0.6636007E-08  0.2999648E+04  0.7818609E-02  0.8243831E-01
        1   -1    0    0  501    0  0.00000000000E+00  0.00000000000E+00  0.99513442929E+03  0.99513442930E+03  0.50400001928E-02 0.  1.
       -1   -1    0    0    0  501  0.00000000000E+00  0.00000000000E+00 -0.22604709363E+04  0.22604709363E+04  0.50400001928E-02 0. -1.
    10030    2    1    2    0    0  0.00000000000E+00  0.00000000000E+00 -0.12653365070E+04  0.32556053656E+04  0.29996482828E+04 0.  0.
        2    1    3    3  502    0  0.32834752467E+03 -0.10074760055E+04  0.51934215795E+03  0.11800577425E+04  0.25500000920E-02 0.  1.
       -2    1    3    3    0  502 -0.32834752467E+03  0.10074760055E+04 -0.17846786650E+04  0.20755476231E+04  0.25500000920E-02 0. -1.
</event>
<event>
 5   0  0.1817566E-07  0.3001934E+04  0.7818609E-02  0.8243179E-01
       -2   -1    0    0    0  501  0.00000000000E+00  0.00000000000E+00  0.97859145478E+03  0.97859145478E+03  0.25500000920E-02 0. -1.
        2   -1    0    0  501    0  0.00000000000E+00  0.00000000000E+00 -0.23021880176E+04  0.23021880176E+04  0.25500000920E-02 0.  1.
    10030    2    1    2    0    0  0.00000000000E+00  0.00000000000E+00 -0.13235965628E+04  0.32807794723E+04  0.30019337243E+04 0.  0.
        1    1    3    3  502    0  0.10796638098E+04  0.29658012068E+03 -0.17542868166E+04  0.20811429420E+04  0.50400001928E-02 0.  1.
       -1    1    3    3    0  502 -0.10796638098E+04 -0.29658012068E+03  0.43069025385E+03  0.11996365303E+04  0.50400001928E-02 0. -1.
</event>
<event>
 5   0  0.6525507E-08  0.3000669E+04  0.7818609E-02  0.8243540E-01
        1   -1    0    0  501    0  0.00000000000E+00  0.00000000000E+00  0.23178478389E+04  0.23178478390E+04  0.50400001928E-02 0. -1.
       -1   -1    0    0    0  501  0.00000000000E+00  0.00000000000E+00 -0.97116133227E+03  0.97116133228E+03  0.50400001928E-02 0.  1.
    10030    2    1    2    0    0  0.00000000000E+00  0.00000000000E+00  0.13466865067E+04  0.32890091712E+04  0.30006693888E+04 0.  0.
        4    1    3    3  502    0  0.13359477275E+03  0.20621197901E+03  0.22956449206E+04  0.23087568426E+04  0.12699999809E+01 0. -1.
       -4    1    3    3    0  502 -0.13359477275E+03 -0.20621197901E+03 -0.94895841394E+03  0.98025232868E+03  0.12699999809E+01 0.  1.
</event>
<event>
 5   0  0.1813720E-07  0.3000499E+04  0.7818609E-02  0.8243589E-01
        2   -1    0    0  501    0  0.00000000000E+00  0.00000000000E+00  0.16431535453E+04  0.16431535453E+04  0.25500000920E-02 0.  1.
       -2   -1    0    0    0  501  0.00000000000E+00  0.00000000000E+00 -0.13697734006E+04  0.13697734006E+04  0.25500000920E-02 0. -1.
    10030    2    1    2    0    0  0.00000000000E+00  0.00000000000E+00  0.27338014474E+03  0.30129269459E+04  0.30004986382E+04 0.  0.
        3    1    3    3  502    0 -0.78180711364E+03  0.86768070543E+03 -0.80883425421E+03  0.14206706270E+04  0.10100000352E+00 0. -1.
       -3    1    3    3    0  502  0.78180711364E+03 -0.86768070543E+03  0.10822143990E+04  0.15922563189E+04  0.10100000352E+00 0.  1.
</event>
<event>
 5   0  0.6464436E-08  0.3000213E+04  0.7818609E-02  0.8243670E-01
       -1   -1    0    0    0  501  0.00000000000E+00  0.00000000000E+00  0.20548954706E+04  0.20548954706E+04  0.50400001928E-02 0. -1.
        1   -1    0    0  501    0  0.00000000000E+00  0.00000000000E+00 -0.10951016273E+04  0.10951016273E+04  0.50400001928E-02 0.  1.
    10030    2    1    2    0    0  0.00000000000E+00  0.00000000000E+00  0.95979384332E+03  0.31499970979E+04  0.30002129083E+04 0.  0.
        5    1    3    3  502    0  0.59126154763E+01  0.14999562285E+04  0.50072773486E+03  0.15813456298E+04  0.46999998093E+01 0.  1.
       -5    1    3    3    0  502 -0.59126154763E+01 -0.14999562285E+04  0.45906610847E+03  0.15686514681E+04  0.46999998093E+01 0. -1.
</event>
<event>
 5   0  0.6679022E-08  0.3001856E+04  0.7818609E-02  0.8243201E-01
        1   -1    0    0  501    0  0.00000000000E+00  0.00000000000E+00  0.13555746339E+04  0.13555746339E+04  0.50400001928E-02 0. -1.
       -1   -1    0    0    0  501  0.00000000000E+00  0.00000000000E+00 -0.16618668173E+04  0.16618668173E+04  0.50400001928E-02 0.  1.
    10030    2    1    2    0    0  0.00000000000E+00  0.00000000000E+00 -0.30629218343E+03  0.30174414512E+04  0.30018557610E+04 0.  0.
        3    1    3    3  502    0 -0.81698706468E+03  0.10928800735E+04 -0.78163613991E+03  0.15725170220E+04  0.10100000352E+00 0.  1.
       -3    1    3    3    0  502  0.81698706468E+03 -0.10928800735E+04  0.47534395648E+03  0.14449244292E+04  0.10100000352E+00 0. -1.
</event>
<event>
 5   0  0.6017625E-08  0.3000458E+04  0.7818609E-02  0.8243600E-01
       -3   -1    0    0    0  501  0.00000000000E+00  0.00000000000E+00  0.10084926787E+04  0.10084926838E+04  0.10100000352E+00 0. -1.
        3   -1    0    0  501    0  0.00000000000E+00  0.00000000000E+00 -0.22317338391E+04  0.22317338414E+04  0.10100000352E+00 0.  1.
    10030    2    1    2    0    0  0.00000000000E+00  0.00000000000E+00 -0.12232411603E+04  0.32402265252E+04  0.30004581314E+04 0.  0.
        4    1    3    3  502    0 -0.27329211059E+03 -0.59590459384E+03  0.84561654405E+03  0.10699812219E+04  0.12699999809E+01 0. -1.
       -4    1    3    3    0  502  0.27329211059E+03  0.59590459384E+03 -0.20688577044E+04  0.21702453033E+04  0.12699999809E+01 0.  1.
</event>
<event>
 5   0  0.1821305E-07  0.3000733E+04  0.7818609E-02  0.8243522E-01
       -2   -1    0    0    0  501  0.00000000000E+00  0.00000000000E+00  0.15507693477E+04  0.15507693477E+04  0.25500000920E-02 0. -1.
        2   -1    0    0  501    0  0.00000000000E+00  0.00000000000E+00 -0.14516016704E+04  0.14516016704E+04  0.25500000920E-02 0.  1.
    10030    2    1    2    0    0  0.00000000000E+00  0.00000000000E+00  0.99167677335E+02  0.30023710181E+04  0.30007328276E+04 0.  0.
        2    1    3    3  502    0 -0.13675479480E+04  0.55188640721E+03  0.32601963107E+03  0.15103161246E+04  0.25500000920E-02 0.  1.
       -2    1    3    3    0  502  0.13675479480E+04 -0.55188640721E+03 -0.22685195373E+03  0.14920548935E+04  0.25500000920E-02 0. -1.
</event>
<event>
 5   0  0.1914439E-07  0.3000457E+04  0.7818609E-02  0.8243600E-01
       -2   -1    0    0    0  501  0.00000000000E+00  0.00000000000E+00  0.15486415228E+04  0.15486415228E+04  0.25500000920E-02 0.  1.
        2   -1    0    0  501    0  0.00000000000E+00  0.00000000000E+00 -0.14533290645E+04  0.14533290645E+04  0.25500000920E-02 0. -1.
    10030    2    1    2    0    0  0.00000000000E+00  0.00000000000E+00  0.95312458271E+02  0.30019705873E+04  0.30004571222E+04 0.  0.
        5    1    3    3  502    0  0.14900731714E+04 -0.15390486158E+03 -0.33986910774E+02  0.14983931269E+04  0.46999998093E+01 0. -1.
       -5    1    3    3    0  502 -0.14900731714E+04  0.15390486158E+03  0.12929936905E+03  0.15035774604E+04  0.46999998093E+01 0.  1.
</event>
<event>
 5   0  0.6525507E-08  0.2999785E+04  0.7818609E-02  0.8243792E-01
       -1   -1    0    0    0  501  0.00000000000E+00  0.00000000000E+00  0.76645557440E+03  0.76645557442E+03  0.50400001928E-02 0.  1.
        1   -1    0    0  501    0  0.00000000000E+00  0.00000000000E+00 -0.29351693653E+04  0.29351693653E+04  0.50400001928E-02 0. -1.
    10030    2    1    2    0    0  0.00000000000E+00  0.00000000000E+00 -0.21687137909E+04  0.37016249397E+04  0.29997846068E+04 0.  0.
        4    1    3    3  502    0 -0.10321590462E+04  0.10524256650E+04 -0.74256183255E+03  0.16505610455E+04  0.12699999809E+01 0.  1.
       -4    1    3    3    0  502  0.10321590462E+04 -0.10524256650E+04 -0.14261519583E+04  0.20510638942E+04  0.12699999809E+01 0. -1.
</event>
<event>
 5   0  0.1810055E-07  0.2995752E+04  0.7818609E-02  0.8244945E-01
       -2   -1    0    0    0  501  0.00000000000E+00  0.00000000000E+00  0.10145398713E+04  0.10145398713E+04  0.25500000920E-02 0.  1.
        2   -1    0    0  501    0  0.00000000000E+00  0.00000000000E+00 -0.22114776925E+04  0.22114776925E+04  0.25500000920E-02 0. -1.
    10030    2    1    2    0    0  0.00000000000E+00  0.00000000000E+00 -0.11969378213E+04  0.32260175638E+04  0.29957518546E+04 0.  0.
        4    1    3    3  502    0  0.87651448477E+03  0.11738992571E+04 -0.93439798995E+03  0.17376473533E+04  0.12699999809E+01 0. -1.
       -4    1    3    3    0  502 -0.87651448477E+03 -0.11738992571E+04 -0.26253983131E+03  0.14883702106E+04  0.12699999809E+01 0.  1.
</event>
<event>
 5   0  0.6464436E-08  0.2998306E+04  0.7818609E-02  0.8244215E-01
        1   -1    0    0  501    0  0.00000000000E+00  0.00000000000E+00  0.17390856597E+04  0.17390856597E+04  0.50400001928E-02 0.  1.
       -1   -1    0    0    0  501  0.00000000000E+00  0.00000000000E+00 -0.12923228357E+04  0.12923228357E+04  0.50400001928E-02 0. -1.
    10030    2    1    2    0    0  0.00000000000E+00  0.00000000000E+00  0.44676282395E+03  0.30314084954E+04  0.29983062628E+04 0.  0.
        5    1    3    3  502    0  0.72695839863E+03  0.10124570148E+04  0.10655848490E+04  0.16398264788E+04  0.46999998093E+01 0.  1.
       -5    1    3    3    0  502 -0.72695839863E+03 -0.10124570148E+04 -0.61882202508E+03  0.13915820166E+04  0.46999998093E+01 0. -1.
</event>
<event>
 5   0  0.1821305E-07  0.3000521E+04  0.7818609E-02  0.8243582E-01
       -2   -1    0    0    0  501  0.00000000000E+00  0.00000000000E+00  0.12313665330E+04  0.12313665330E+04  0.25500000920E-02 0. -1.
        2   -1    0    0  501    0  0.00000000000E+00  0.00000000000E+00 -0.18278731341E+04  0.18278731341E+04  0.25500000920E-02 0.  1.
    10030    2    1    2    0    0  0.00000000000E+00  0.00000000000E+00 -0.59650660116E+03  0.30592396671E+04  0.30005211573E+04 0.  0.
        2    1    3    3  502    0 -0.47117329152E+03  0.74049501342E+03  0.94229277314E+03  0.12877316513E+04  0.25500000920E-02 0. -1.
       -2    1    3    3    0  502  0.47117329152E+03 -0.74049501342E+03 -0.15387993743E+04  0.17715080157E+04  0.25500000920E-02 0.  1.
</event>
<event>
 5   0  0.1813720E-07  0.2998829E+04  0.7818609E-02  0.8244065E-01
        2   -1    0    0  501    0  0.00000000000E+00  0.00000000000E+00  0.22523696959E+04  0.22523696959E+04  0.25500000920E-02 0.  1.
       -2   -1    0    0    0  501  0.00000000000E+00  0.00000000000E+00 -0.99816827749E+03  0.99816827750E+03  0.25500000920E-02 0. -1.
    10030    2    1    2    0    0  0.00000000000E+00  0.00000000000E+00  0.12542014184E+04  0.32505379734E+04  0.29988290913E+04 0.  0.
        3    1    3    3  502    0  0.82264127475E+03  0.10852585039E+04  0.13072384446E+04  0.18876962278E+04  0.10100000352E+00 0.  1.
       -3    1    3    3    0  502 -0.82264127475E+03 -0.10852585039E+04 -0.53037026118E+02  0.13628417456E+04  0.10100000352E+00 0. -1.
</event>
<event>
 5   0  0.6636007E-08  0.3003608E+04  0.7818609E-02  0.8242701E-01
        1   -1    0    0  501    0  0.00000000000E+00  0.00000000000E+00  0.14568420725E+04  0.14568420725E+04  0.50400001928E-02 0.  1.
       -1   -1    0    0    0  501  0.00000000000E+00  0.00000000000E+00 -0.15481535923E+04  0.15481535923E+04  0.50400001928E-02 0. -1.
    10030    2    1    2    0    0  0.00000000000E+00  0.00000000000E+00 -0.91311519797E+02  0.30049956647E+04  0.30036080223E+04 0.  0.
        2    1    3    3  502    0 -0.53873959137E+03 -0.35813539522E+03 -0.14016099073E+04  0.15437006319E+04  0.25500000920E-02 0. -1.
       -2    1    3    3    0  502  0.53873959137E+03  0.35813539522E+03  0.13102983875E+04  0.14612950328E+04  0.25500000920E-02 0.  1.
</event>
<event>
 5   0  0.6464436E-08  0.2999817E+04  0.7818609E-02  0.8243783E-01
       -1   -1    0    0    0  501  0.00000000000E+00  0.00000000000E+00  0.78409261556E+03  0.78409261558E+03  0.50400001928E-02 0.  1.
        1   -1    0    0  501    0  0.00000000000E+00  0.00000000000E+00 -0.28692089263E+04  0.28692089263E+04  0.50400001928E-02 0. -1.
    10030    2    1    2    0    0  0.00000000000E+00  0.00000000000E+00 -0.20851163107E+04  0.36533015419E+04  0.29998170155E+04 0.  0.
        5    1    3    3  502    0 -0.59740421527E+03 -0.21559989799E+03  0.61224074126E+03  0.88217681204E+03  0.46999998093E+01 0.  1.
       -5    1    3    3    0  502  0.59740421527E+03  0.21559989799E+03 -0.26973570520E+04  0.27711247299E+04  0.46999998093E+01 0. -1.
</event>
<event>
 5   0  0.1813720E-07  0.3000255E+04  0.7818609E-02  0.8243658E-01
       -2   -1    0    0    0  501  0.00000000000E+00  0.00000000000E+00  0.88420655665E+03  0.88420655666E+03  0.25500000920E-02 0. -1.
        2   -1    0    0  501    0  0.00000000000E+00  0.00000000000E+00 -0.25450862262E+04  0.25450862262E+04  0.25500000920E-02 0.  1.
    10030    2    1    2    0    0  0.00000000000E+00  0.00000000000E+00 -0.16608796696E+04  0.34292927829E+04  0.30002546082E+04 0.  0.
        3    1    3    3  502    0 -0.31513581594E+03 -0.14358067760E+04 -0.11724439429E+04  0.18802862787E+04  0.10100000352E+00 0.  1.
       -3    1    3    3    0  502  0.31513581594E+03  0.14358067760E+04 -0.48843572666E+03  0.15490065041E+04  0.10100000352E+00 0. -1.
</event>
<event>
 5   0  0.1813720E-07  0.2999698E+04  0.7818609E-02  0.8243817E-01
       -2   -1    0    0    0  501  0.00000000000E+00  0.00000000000E+00  0.17414369559E+04  0.17414369559E+04  0.25500000920E-02 0. -1.
        2   -1    0    0  501    0  0.00000000000E+00  0.00000000000E+00 -0.12917760596E+04  0.12917760596E+04  0.25500000920E-02 0.  1.
    10030    2    1    2    0    0  0.00000000000E+00  0.00000000000E+00  0.44966089630E+03  0.30332130154E+04  0.29996976973E+04 0.  0.
        3    1    3    3  502    0 -0.10188684657E+04  0.59736350214E+03 -0.70994978837E+03  0.13780293234E+04  0.10100000352E+00 0.  1.
       -3    1    3    3    0  502  0.10188684657E+04 -0.59736350214E+03  0.11596106847E+04  0.16551836920E+04  0.10100000352E+00 0. -1.
</event>
<event>
 5   0  0.1821305E-07  0.3000242E+04  0.7818609E-02  0.8243662E-01
       -2   -1    0    0    0  501  0.00000000000E+00  0.00000000000E+00  0.12787212870E+04  0.12787212870E+04  0.25500000920E-02 0.  1.
        2   -1    0    0  501    0  0.00000000000E+00  0.00000000000E+00 -0.17598542334E+04  0.17598542334E+04  0.25500000920E-02 0. -1.
    10030    2    1    2    0    0  0.00000000000E+00  0.00000000000E+00 -0.48113294641E+03  0.30385755204E+04  0.30002420371E+04 0.  0.
        2    1    3    3  502    0 -0.12428073038E+04  0.79381950168E+03 -0.51911447817E+03  0.15633935004E+04  0.25500000920E-02 0. -1.
       -2    1    3    3    0  502  0.12428073038E+04 -0.79381950168E+03  0.37981531752E+02  0.14751820200E+04  0.25500000920E-02 0.  1.
</event>
<event>
 5   0  0.6374748E-08  0.3001003E+04  0.7818609E-02  0.8243444E-01
       -1   -1    0    0    0  501  0.00000000000E+00  0.00000000000E+00  0.14407474702E+04  0.14407474702E+04  0.50400001928E-02 0. -1.
        1   -1    0    0  501    0  0.00000000000E+00  0.00000000000E+00 -0.15627339747E+04  0.15627339747E+04  0.50400001928E-02 0.  1.
    10030    2    1    2    0    0  0.00000000000E+00  0.00000000000E+00 -0.12198650447E+03  0.30034814449E+04  0.30010031794E+04 0.  0.
        1    1    3    3  502    0  0.27017028908E+03  0.14008868782E+04  0.40417976518E+03  0.14828477040E+04  0.50400001928E-02 0.  1.
       -1    1    3    3    0  502 -0.27017028908E+03 -0.14008868782E+04 -0.52616626965E+03  0.15206337409E+04  0.50400001928E-02 0. -1.
</event>
<event>
 5   0  0.1810055E-07  0.3000011E+04  0.7818609E-02  0.8243728E-01
        2   -1    0    0  501    0  0.00000000000E+00  0.00000000000E+00  0.16570204435E+04  0.16570204435E+04  0.25500000920E-02 0. -1.
       -2   -1    0    0    0  501  0.00000000000E+00  0.00000000000E+00 -0.13578686873E+04  0.13578686873E+04  0.25500000920E-02 0.  1.
    10030    2    1    2    0    0  0.00000000000E+00  0.00000000000E+00  0.29915175613E+03  0.30148891308E+04  0.30000107829E+04 0.  0.
        4    1    3    3  502    0 -0.13519298891E+04 -0.64771036068E+03  0.96670464889E+02  0.15021950366E+04  0.12699999809E+01 0.  1.
       -4    1    3    3    0  502  0.13519298891E+04  0.64771036068E+03  0.20248129124E+03  0.15126940942E+04  0.12699999809E+01 0. -1.
</event>
<event>
 5   0  0.1813720E-07  0.3000114E+04  0.7818609E-02  0.8243698E-01
        2   -1    0    0  501    0  0.00000000000E+00  0.00000000000E+00  0.13671385069E+04  0.13671385069E+04  0.25500000920E-02 0.  1.
       -2   -1    0    0    0  501  0.00000000000E+00  0.00000000000E+00 -0.16458984217E+04  0.16458984217E+04  0.25500000920E-02 0. -1.
    10030    2    1    2    0    0  0.00000000000E+00  0.00000000000E+00 -0.27875991477E+03  0.30130369285E+04  0.30001140716E+04 0.  0.
        3    1    3    3  502    0  0.51115997631E+03 -0.12860069047E+04 -0.72072809710E+03  0.15603035860E+04  0.10100000352E+00 0. -1.
       -3    1    3    3    0  502 -0.51115997631E+03  0.12860069047E+04  0.44196818233E+03  0.14527333426E+04  0.10100000352E+00 0.  1.
</event>
<event>
 5   0  0.6636007E-08  0.3000014E+04  0.7818609E-02  0.8243727E-01
       -1   -1    0    0    0  501  0.00000000000E+00  0.00000000000E+00  0.22848826899E+04  0.22848826900E+04  0.50400001928E-02 0. -1.
        1   -1    0    0  501    0  0.00000000000E+00  0.00000000000E+00 -0.98474278468E+03  0.98474278469E+03  0.50400001928E-02 0.  1.
    10030    2    1    2    0    0  0.00000000000E+00  0.00000000000E+00  0.13001399053E+04  0.32696254746E+04  0.30000144952E+04 0.  0.
        2    1    3    3  502    0 -0.82852902323E+02 -0.14977105083E+04  0.64515069873E+03  0.16328566361E+04  0.25500000920E-02 0. -1.
       -2    1    3    3    0  502  0.82852902323E+02  0.14977105083E+04  0.65498920654E+03  0.16367688385E+04  0.25500000920E-02 0.  1.
</event>
<event>
 5   0  0.6374748E-08  0.3021908E+04  0.7818609E-02  0.8237503E-01
        1   -1    0    0  501    0  0.00000000000E+00  0.00000000000E+00  0.27675605980E+04  0.27675605980E+04  0.50400001928E-02 0.  1.
       -1   -1    0    0    0  501  0.00000000000E+00  0.00000000000E+00 -0.82490760952E+03  0.82490760953E+03  0.50400001928E-02 0. -1.
    10030    2    1    2    0    0  0.00000000000E+00  0.00000000000E+00  0.19426529885E+04  0.35924682075E+04  0.30219078723E+04 0.  0.
        1    1    3    3  502    0  0.11616035755E+04  0.64220628816E+03  0.11305157583E+03  0.13321157765E+04  0.50400001928E-02 0. -1.
       -1    1    3    3    0  502 -0.11616035755E+04 -0.64220628816E+03  0.18296014126E+04  0.22603524310E+04  0.50400001928E-02 0.  1.
</event>
<event>
 5   0  0.1817566E-07  0.3000281E+04  0.7818609E-02  0.8243651E-01
       -2   -1    0    0    0  501  0.00000000000E+00  0.00000000000E+00  0.69397139485E+03  0.69397139485E+03  0.25500000920E-02 0. -1.
        2   -1    0    0  501    0  0.00000000000E+00  0.00000000000E+00 -0.32428160384E+04  0.32428160384E+04  0.25500000920E-02 0.  1.
    10030    2    1    2    0    0  0.00000000000E+00  0.00000000000E+00 -0.25488446436E+04  0.39367874333E+04  0.30002810331E+04 0.  0.
        1    1    3    3  502    0 -0.85595836799E+03  0.74122786515E+03 -0.25656223821E+04  0.28043718875E+04  0.50400001928E-02 0.  1.
       -1    1    3    3    0  502  0.85595836799E+03 -0.74122786515E+03  0.16777738519E+02  0.11324155458E+04  0.50400001928E-02 0. -1.
</event>
<event>
 5   0  0.6464436E-08  0.3000239E+04  0.7818609E-02  0.8243663E-01
        1   -1    0    0  501    0  0.00000000000E+00  0.00000000000E+00  0.17696605448E+04  0.17696605448E+04  0.50400001928E-02 0.  1.
       -1   -1    0    0    0  501  0.00000000000E+00  0.00000000000E+00 -0.12716329206E+04  0.12716329206E+04  0.50400001928E-02 0. -1.
    10030    2    1    2    0    0  0.00000000000E+00  0.00000000000E+00  0.49802762416E+03  0.30412934654E+04  0.30002390618E+04 0.  0.
        5    1    3    3  502    0 -0.25817820089E+03  0.14180868991E+04 -0.17225694256E+03  0.14516614554E+04  0.46999998093E+01 0. -1.
       -5    1    3    3    0  502  0.25817820089E+03 -0.14180868991E+04  0.67028456672E+03  0.15896320100E+04  0.46999998093E+01 0.  1.
</event>
<event>
 5   0  0.6374748E-08  0.3001166E+04  0.7818609E-02  0.8243398E-01
       -1   -1    0    0    0  501  0.00000000000E+00  0.00000000000E+00  0.17763618476E+04  0.17763618476E+04  0.50400001928E-02 0.  1.
        1   -1    0    0  501    0  0.00000000000E+00  0.00000000000E+00 -0.12676190331E+04  0.12676190331E+04  0.50400001928E-02 0. -1.
    10030    2    1    2    0    0  0.00000000000E+00  0.00000000000E+00  0.50874281453E+03  0.30439808807E+04  0.30011664983E+04 0.  0.
        1    1    3    3  502    0 -0.33982853090E+03 -0.13357907556E+04  0.85607111298E+03  0.16225529648E+04  0.50400001928E-02 0. -1.
       -1    1    3    3    0  502  0.33982853090E+03  0.13357907556E+04 -0.34732829845E+03  0.14214279159E+04  0.50400001928E-02 0.  1.
</event>
<event>
 5   0  0.1813720E-07  0.3000930E+04  0.7818609E-02  0.8243465E-01
        2   -1    0    0  501    0  0.00000000000E+00  0.00000000000E+00  0.18797002619E+04  0.18797002619E+04  0.25500000920E-02 0. -1.
       -2   -1    0    0    0  501  0.00000000000E+00  0.00000000000E+00 -0.11977419285E+04  0.11977419285E+04  0.25500000920E-02 0.  1.
    10030    2    1    2    0    0  0.00000000000E+00  0.00000000000E+00  0.68195833335E+03  0.30774421904E+04  0.30009304002E+04 0.  0.
        3    1    3    3  502    0 -0.33362311031E+03  0.11990977396E+04  0.12003521994E+04  0.17291573617E+04  0.10100000352E+00 0. -1.
       -3    1    3    3    0  502  0.33362311031E+03 -0.11990977396E+04 -0.51839386603E+03  0.13482848287E+04  0.10100000352E+00 0.  1.
</event>
<event>
 5   0  0.6374748E-08  0.3001060E+04  0.7818609E-02  0.8243428E-01
        1   -1    0    0  501    0  0.00000000000E+00  0.00000000000E+00  0.16373204371E+04  0.16373204371E+04  0.50400001928E-02 0. -1.
       -1   -1    0    0    0  501  0.00000000000E+00  0.00000000000E+00 -0.13751678830E+04  0.13751678830E+04  0.50400001928E-02 0.  1.
    10030    2    1    2    0    0  0.00000000000E+00  0.00000000000E+00  0.26215255407E+03  0.30124883201E+04  0.30010601322E+04 0.  0.
        1    1    3    3  502    0  0.14162105685E+04 -0.29457615030E+03  0.53154788161E+03  0.15410939728E+04  0.50400001928E-02 0. -1.
       -1    1    3    3    0  502 -0.14162105685E+04  0.29457615030E+03 -0.26939532755E+03  0.14713943472E+04  0.50400001928E-02 0.  1.
</event>
<event>
 5   0  0.6374748E-08  0.2999872E+04  0.7818609E-02  0.8243768E-01
        1   -1    0    0  501    0  0.00000000000E+00  0.00000000000E+00  0.16815680177E+04  0.16815680177E+04  0.50400001928E-02 0.  1.
       -1   -1    0    0    0  501  0.00000000000E+00  0.00000000000E+00 -0.13379224455E+04  0.13379224455E+04  0.50400001928E-02 0. -1.
    10030    2    1    2    0    0  0.00000000000E+00  0.00000000000E+00  0.34364557224E+03  0.30194904632E+04  0.29998717269E+04 0.  0.
        1    1    3    3  502    0  0.19039332311E+03  0.10206627388E+04  0.12614018576E+04  0.16337492740E+04  0.50400001928E-02 0.  1.
       -1    1    3    3    0  502 -0.19039332311E+03 -0.10206627388E+04 -0.91775628540E+03  0.13857411891E+04  0.50400001928E-02 0. -1.
</event>
<event>
 5   0  0.6636007E-08  0.2998813E+04  0.7818609E-02  0.8244070E-01
       -1   -1    0    0    0  501  0.00000000000E+00  0.00000000000E+00  0.19492975093E+04  0.19492975093E+04  0.50400001928E-02 0. -1.
        1   -1    0    0  501    0  0.00000000000E+00  0.00000000000E+00 -0.11533491050E+04  0.11533491050E+04  0.50400001928E-02 0.  1.
    10030    2    1    2    0    0  0.00000000000E+00  0.00000000000E+00  0.79594840424E+03  0.31026466143E+04  0.29988134572E+04 0.  0.
        2    1    3    3  502    0 -0.20296215027E+03 -0.13645703617E+04 -0.20970789462E+03  0.13954294348E+04  0.25500000920E-02 0. -1.
       -2    1    3    3    0  502  0.20296215027E+03  0.13645703617E+04  0.10056562989E+04  0.17072171795E+04  0.25500000920E-02 0.  1.
</event>
<event>
 5   0  0.1817566E-07  0.3000745E+04  0.7818609E-02  0.8243518E-01
       -2   -1    0    0    0  501  0.00000000000E+00  0.00000000000E+00  0.12728887049E+04  0.12728887049E+04  0.25500000920E-02 0.  1.
        2   -1    0    0  501    0  0.00000000000E+00  0.00000000000E+00 -0.17685106366E+04  0.17685106366E+04  0.25500000920E-02 0. -1.
    10030    2    1    2    0    0  0.00000000000E+00  0.00000000000E+00 -0.49562193168E+03  0.30413993415E+04  0.30007447168E+04 0.  0.
        1    1    3    3  502    0 -0.68126625386E+01 -0.46015440105E+03  0.11995871938E+04  0.12848338106E+04  0.50400001928E-02 0.  1.
       -1    1    3    3    0  502  0.68126625386E+01  0.46015440105E+03 -0.16952091255E+04  0.17565655309E+04  0.50400001928E-02 0. -1.
</event>
<event>
 5   0  0.6017625E-08  0.2994261E+04  0.7818609E-02  0.8245372E-01
        3   -1    0    0  501    0  0.00000000000E+00  0.00000000000E+00  0.15051971595E+04  0.15051971629E+04  0.10100000352E+00 0.  1.
       -3   -1    0    0    0  501  0.00000000000E+00  0.00000000000E+00 -0.14891068960E+04  0.14891068994E+04  0.10100000352E+00 0. -1.
    10030    2    1    2    0    0  0.00000000000E+00  0.00000000000E+00  0.16090263525E+02  0.29943040624E+04  0.29942608305E+04 0.  0.
        4    1    3    3  502    0  0.11362712223E+04 -0.65984213169E+03  0.72561659610E+03  0.15010079903E+04  0.12699999809E+01 0.  1.
       -4    1    3    3    0  502 -0.11362712223E+04  0.65984213169E+03 -0.70952633257E+03  0.14932960721E+04  0.12699999809E+01 0. -1.
</event>
<event>
 5   0  0.1813720E-07  0.3000583E+04  0.7818609E-02  0.8243564E-01
       -2   -1    0    0    0  501  0.00000000000E+00  0.00000000000E+00  0.10158928948E+04  0.10158928948E+04  0.25500000920E-02 0. -1.
        2   -1    0    0  501    0  0.00000000000E+00  0.00000000000E+00 -0.22156612890E+04  0.22156612890E+04  0.25500000920E-02 0.  1.
    10030    2    1    2    0    0  0.00000000000E+00  0.00000000000E+00 -0.11997683942E+04  0.32315541838E+04  0.30005829839E+04 0.  0.
        3    1    3    3  502    0  0.51202751981E+03  0.13273314805E+04 -0.11128835736E+04  0.18062366674E+04  0.10100000352E+00 0.  1.
       -3    1    3    3    0  502 -0.51202751981E+03 -0.13273314805E+04 -0.86884820641E+02  0.14253175164E+04  0.10100000352E+00 0. -1.
</event>
<event>
 5   0  0.1821305E-07  0.2999589E+04  0.7818609E-02  0.8243848E-01
       -2   -1    0    0    0  501  0.00000000000E+00  0.00000000000E+00  0.13619149938E+04  0.13619149938E+04  0.25500000920E-02 0. -1.
        2   -1    0    0  501    0  0.00000000000E+00  0.00000000000E+00 -0.16516327341E+04  0.16516327341E+04  0.25500000920E-02 0.  1.
    10030    2    1    2    0    0  0.00000000000E+00  0.00000000000E+00 -0.28971774039E+03  0.30135477279E+04  0.29995888950E+04 0.  0.
        2    1    3    3  502    0  0.35884849850E+03 -0.11409117217E+04 -0.10540185088E+04  0.15941790421E+04  0.25500000920E-02 0.  1.
       -2    1    3    3    0  502 -0.35884849850E+03  0.11409117217E+04  0.76430076839E+03  0.14193686858E+04  0.25500000920E-02 0. -1.
</event>
<event>
 5   0  0.1810055E-07  0.2996368E+04  0.7818609E-02  0.8244769E-01
       -2   -1    0    0    0  501  0.00000000000E+00  0.00000000000E+00  0.14528506209E+04  0.14528506209E+04  0.25500000920E-02 0.  1.
        2   -1    0    0  501    0  0.00000000000E+00  0.00000000000E+00 -0.15449314629E+04  0.15449314629E+04  0.25500000920E-02 0. -1.
    10030    2    1    2    0    0  0.00000000000E+00  0.00000000000E+00 -0.92080842037E+02  0.29977820838E+04  0.29963675576E+04 0.  0.
        4    1    3    3  502    0  0.41177202291E+03  0.43752535097E+03 -0.14191198803E+04  0.15410669937E+04  0.12699999809E+01 0. -1.
       -4    1    3    3    0  502 -0.41177202291E+03 -0.43752535097E+03  0.13270390383E+04  0.14567150901E+04  0.12699999809E+01 0.  1.
</event>
<event>
 5   0  0.1813720E-07  0.3002004E+04  0.7818609E-02  0.8243159E-01
        2   -1    0    0  501    0  0.00000000000E+00  0.00000000000E+00  0.25712745087E+04  0.25712745087E+04  0.25500000920E-02 0.  1.
       -2   -1    0    0    0  501  0.00000000000E+00  0.00000000000E+00 -0.87622194152E+03  0.87622194152E+03  0.25500000920E-02 0. -1.
    10030    2    1    2    0    0  0.00000000000E+00  0.00000000000E+00  0.16950525672E+04  0.34474964502E+04  0.30020040921E+04 0.  0.
        3    1    3    3  502    0  0.36037092065E+01  0.33215421926E+03  0.25285349839E+04  0.25502604940E+04  0.10100000352E+00 0.  1.
       -3    1    3    3    0  502 -0.36037092065E+01 -0.33215421926E+03 -0.83348241670E+03  0.89723595628E+03  0.10100000352E+00 0. -1.
</event>
<event>
 5   0  0.6374748E-08  0.3000043E+04  0.7818609E-02  0.8243719E-01
        1   -1    0    0  501    0  0.00000000000E+00  0.00000000000E+00  0.17504664926E+04  0.17504664926E+04  0.50400001928E-02 0.  1.
       -1   -1    0    0    0  501  0.00000000000E+00  0.00000000000E+00 -0.12854083885E+04  0.12854083885E+04  0.50400001928E-02 0. -1.
    10030    2    1    2    0    0  0.00000000000E+00  0.00000000000E+00  0.46505810414E+03  0.30358748811E+04  0.30000428753E+04 0.  0.
        1    1    3    3  502    0  0.14742414060E+04  0.33396537858E+01  0.51272136435E+03  0.15608594023E+04  0.50400001928E-02 0.  1.
       -1    1    3    3    0  502 -0.14742414060E+04 -0.33396537858E+01 -0.47663260214E+02  0.14750154788E+04  0.50400001928E-02 0. -1.
</event>
<event>
 5   0  0.6017625E-08  0.3000032E+04  0.7818609E-02  0.8243722E-01
       -3   -1    0    0    0  501  0.00000000000E+00  0.00000000000E+00  0.12298202214E+04  0.12298202255E+04  0.10100000352E+00 0. -1.
        3   -1    0    0  501    0  0.00000000000E+00  0.00000000000E+00 -0.18295746240E+04  0.18295746268E+04  0.10100000352E+00 0.  1.
    10030    2    1    2    0    0  0.00000000000E+00  0.00000000000E+00 -0.59975440263E+03  0.30593948523E+04  0.30000319197E+04 0.  0.
        2    1    3    3  502    0 -0.25769095942E+03  0.39863686916E+03 -0.17509640907E+04  0.18141640585E+04  0.25500000920E-02 0.  1.
       -2    1    3    3    0  502  0.25769095942E+03 -0.39863686916E+03  0.11512096881E+04  0.12452307939E+04  0.25500000920E-02 0. -1.
</event>
<event>
 5   0  0.6017625E-08  0.3000576E+04  0.7818609E-02  0.8243567E-01
        3   -1    0    0  501    0  0.00000000000E+00  0.00000000000E+00  0.11205146585E+04  0.11205146630E+04  0.10100000352E+00 0. -1.
       -3   -1    0    0    0  501  0.00000000000E+00  0.00000000000E+00 -0.20087764592E+04  0.20087764617E+04  0.10100000352E+00 0.  1.
    10030    2    1    2    0    0  0.00000000000E+00  0.00000000000E+00 -0.88826180071E+03  0.31292911247E+04  0.30005755975E+04 0.  0.
        5    1    3    3  502    0 -0.12361234747E+04  0.44687227953E+03 -0.11984455869E+04  0.17787608029E+04  0.46999998093E+01 0.  1.
       -5    1    3    3    0  502  0.12361234747E+04 -0.44687227953E+03  0.31018378623E+03  0.13505303218E+04  0.46999998093E+01 0. -1.
</event>
<event>
 5   0  0.1810055E-07  0.3000965E+04  0.7818609E-02  0.8243455E-01
        2   -1    0    0  501    0  0.00000000000E+00  0.00000000000E+00  0.17557578956E+04  0.17557578956E+04  0.25500000920E-02 0. -1.
       -2   -1    0    0    0  501  0.00000000000E+00  0.00000000000E+00 -0.12823222593E+04  0.12823222593E+04  0.25500000920E-02 0.  1.
    10030    2    1    2    0    0  0.00000000000E+00  0.00000000000E+00  0.47343563637E+03  0.30380801549E+04  0.30009647991E+04 0.  0.
        4    1    3    3  502    0 -0.10584538003E+04 -0.30248492486E+03 -0.79551229697E+03  0.13581837154E+04  0.12699999809E+01 0.  1.
       -4    1    3    3    0  502  0.10584538003E+04  0.30248492486E+03  0.12689479333E+04  0.16798964395E+04  0.12699999809E+01 0. -1.
</event>
<event>
 5   0  0.1821305E-07  0.3003169E+04  0.7818609E-02  0.8242827E-01
        2   -1    0    0  501    0  0.00000000000E+00  0.00000000000E+00  0.20189454217E+04  0.20189454217E+04  0.25500000920E-02 0. -1.
       -2   -1    0    0    0  501  0.00000000000E+00  0.00000000000E+00 -0.11167985488E+04  0.11167985488E+04  0.25500000920E-02 0.  1.
    10030    2    1    2    0    0  0.00000000000E+00  0.00000000000E+00  0.90214687286E+03  0.31357439705E+04  0.30031685381E+04 0.  0.
        2    1    3    3  502    0  0.13880251261E+03  0.26313853673E+03  0.19878647835E+04  0.20100035882E+04  0.25500000920E-02 0. -1.
       -2    1    3    3    0  502 -0.13880251261E+03 -0.26313853673E+03 -0.10857179106E+04  0.11257403824E+04  0.25500000920E-02 0.  1.
</event>
<event>
 5   0  0.6636007E-08  0.3000806E+04  0.7818609E-02  0.8243501E-01
        1   -1    0    0  501    0  0.00000000000E+00  0.00000000000E+00  0.15286293115E+04  0.15286293115E+04  0.50400001928E-02 0. -1.
       -1   -1    0    0    0  501  0.00000000000E+00  0.00000000000E+00 -0.14726978175E+04  0.14726978175E+04  0.50400001928E-02 0.  1.
    10030    2    1    2    0    0  0.00000000000E+00  0.00000000000E+00  0.55931494062E+02  0.30013271290E+04  0.30008059256E+04 0.  0.
        2    1    3    3  502    0  0.69505701722E+03  0.41370458721E+03  0.12918914169E+04  0.15242175618E+04  0.25500000920E-02 0. -1.
       -2    1    3    3    0  502 -0.69505701722E+03 -0.41370458721E+03 -0.12359599228E+04  0.14771095672E+04  0.25500000920E-02 0.  1.
</event>
<event>
 5   0  0.6636007E-08  0.3000987E+04  0.7818609E-02  0.8243449E-01
        1   -1    0    0  501    0  0.00000000000E+00  0.00000000000E+00  0.15718442695E+04  0.15718442695E+04  0.50400001928E-02 0.  1.
       -1   -1    0    0    0  501  0.00000000000E+00  0.00000000000E+00 -0.14323815918E+04  0.14323815918E+04  0.50400001928E-02 0. -1.
    10030    2    1    2    0    0  0.00000000000E+00  0.00000000000E+00  0.13946267770E+03  0.30042258614E+04  0.30009870356E+04 0.  0.
        2    1    3    3  502    0  0.10924670120E+04 -0.99103028395E+03  0.34544754102E+03  0.15149122746E+04  0.25500000920E-02 0.  1.
       -2    1    3    3    0  502 -0.10924670120E+04  0.99103028395E+03 -0.20598486332E+03  0.14893135868E+04  0.25500000920E-02 0. -1.
</event>
<event>
 5   0  0.1817566E-07  0.3000862E+04  0.7818609E-02  0.8243485E-01
       -2   -1    0    0    0  501  0.00000000000E+00  0.00000000000E+00  0.11924381154E+04  0.11924381154E+04  0.25500000920E-02 0.  1.
        2   -1    0    0  501    0  0.00000000000E+00  0.00000000000E+00 -0.18879751847E+04  0.18879751847E+04  0.25500000920E-02 0. -1.
    10030    2    1    2    0    0  0.00000000000E+00  0.00000000000E+00 -0.69553706929E+03  0.30804133001E+04  0.30008622568E+04 0.  0.
        1    1    3    3  502    0 -0.22474149678E+03 -0.79559979718E+03  0.93754494166E+03  0.12499913181E+04  0.50400001928E-02 0.  1.
       -1    1    3    3    0  502  0.22474149678E+03  0.79559979718E+03 -0.16330820109E+04  0.18304219820E+04  0.50400001928E-02 0. -1.
</event>
<event>
 5   0  0.6374748E-08  0.3001575E+04  0.7818609E-02  0.8243281E-01
        1   -1    0    0  501    0  0.00000000000E+00  0.00000000000E+00  0.25664808670E+04  0.25664808670E+04  0.50400001928E-02 0.  1.
       -1   -1    0    0    0  501  0.00000000000E+00  0.00000000000E+00 -0.87760782758E+03  0.87760782759E+03  0.50400001928E-02 0. -1.
    10030    2    1    2    0    0  0.00000000000E+00  0.00000000000E+00  0.16888730394E+04  0.34440886946E+04  0.30015753852E+04 0.  0.
        1    1    3    3  502    0  0.22350398599E+03 -0.95103116307E+03  0.21516723765E+04  0.23630717977E+04  0.50400001928E-02 0.  1.
       -1    1    3    3    0  502 -0.22350398599E+03  0.95103116307E+03 -0.46279933716E+03  0.10810168969E+04  0.50400001928E-02 0. -1.
</event>
<event>
 5   0  0.6464436E-08  0.3002657E+04  0.7818609E-02  0.8242972E-01
       -1   -1    0    0    0  501  0.00000000000E+00  0.00000000000E+00  0.10086226104E+04  0.10086226104E+04  0.50400001928E-02 0.  1.
        1   -1    0    0  501    0  0.00000000000E+00  0.00000000000E+00 -0.22347185459E+04  0.22347185459E+04  0.50400001928E-02 0. -1.
    10030    2    1    2    0    0  0.00000000000E+00  0.00000000000E+00 -0.12260959355E+04  0.32433411563E+04  0.30026572586E+04 0.  0.
        5    1    3    3  502    0 -0.11355214081E+04  0.13134120338E+03 -0.16643610218E+04  0.20191035340E+04  0.46999998093E+01 0. -1.
       -5    1    3    3    0  502  0.11355214081E+04 -0.13134120338E+03  0.43826508629E+03  0.12242376223E+04  0.46999998093E+01 0.  1.
</event>
<event>
 5   0  0.6374748E-08  0.3010535E+04  0.7818609E-02  0.8240729E-01
       -1   -1    0    0    0  501  0.00000000000E+00  0.00000000000E+00  0.69969909440E+03  0.69969909442E+03  0.50400001928E-02 0. -1.
        1   -1    0    0  501    0  0.00000000000E+00  0.00000000000E+00 -0.32382932057E+04  0.32382932057E+04  0.50400001928E-02 0.  1.
    10030    2    1    2    0    0  0.00000000000E+00  0.00000000000E+00 -0.25385941113E+04  0.39379923001E+04  0.30105353833E+04 0.  0.
        1    1    3    3  502    0  0.40390249122E+03  0.64954227552E+03 -0.29651479005E+04  0.30622123476E+04  0.50400001928E-02 0.  1.
       -1    1    3    3    0  502 -0.40390249122E+03 -0.64954227552E+03  0.42655378919E+03  0.87577995250E+03  0.50400001928E-02 0. -1.
</event>
<event>
 5   0  0.6679022E-08  0.3000772E+04  0.7818609E-02  0.8243511E-01
        1   -1    0    0  501    0  0.00000000000E+00  0.00000000000E+00  0.17262734713E+04  0.17262734713E+04  0.50400001928E-02 0. -1.
       -1   -1    0    0    0  501  0.00000000000E+00  0.00000000000E+00 -0.13040563585E+04  0.13040563585E+04  0.50400001928E-02 0.  1.
    10030    2    1    2    0    0  0.00000000000E+00  0.00000000000E+00  0.42221711280E+03  0.30303298297E+04  0.30007718318E+04 0.  0.
        3    1    3    3  502    0  0.85993838038E+03  0.59376362146E+03  0.12983324700E+04  0.16666482740E+04  0.10100000352E+00 0. -1.
       -3    1    3    3    0  502 -0.85993838038E+03 -0.59376362146E+03 -0.87611535721E+03  0.13636815558E+04  0.10100000352E+00 0.  1.
</event>
<event>
 5   0  0.1813720E-07  0.3000818E+04  0.7818609E-02  0.8243497E-01
       -2   -1    0    0    0  501  0.00000000000E+00  0.00000000000E+00  0.21307136285E+04  0.21307136285E+04  0.25500000920E-02 0.  1.
        2   -1    0    0  501    0  0.00000000000E+00  0.00000000000E+00 -0.10565598849E+04  0.10565598849E+04  0.25500000920E-02 0. -1.
    10030    2    1    2    0    0  0.00000000000E+00  0.00000000000E+00  0.10741537437E+04  0.31872735134E+04  0.30008175859E+04 0.  0.
        3    1    3    3  502    0 -0.54093626175E+02  0.11497197861E+04  0.15594031359E+04  0.19381743620E+04  0.10100000352E+00 0.  1.
       -3    1    3    3    0  502  0.54093626175E+02 -0.11497197861E+04 -0.48524939227E+03  0.12490991514E+04  0.10100000352E+00 0. -1.
</event>
<event>
 5   0  0.1817566E-07  0.2999511E+04  0.7818609E-02  0.8243871E-01
        2   -1    0    0  501    0  0.00000000000E+00  0.00000000000E+00  0.28770263380E+04  0.28770263380E+04  0.25500000920E-02 0. -1.
       -2   -1    0    0    0  501  0.00000000000E+00  0.00000000000E+00 -0.78180236942E+03  0.78180236942E+03  0.25500000920E-02 0.  1.
    10030    2    1    2    0    0  0.00000000000E+00  0.00000000000E+00  0.20952239686E+04  0.36588287075E+04  0.29995106321E+04 0.  0.
        1    1    3    3  502    0  0.84688080069E+03 -0.68105399590E+03  0.23083443825E+04  0.25513712831E+04  0.50400001928E-02 0. -1.
       -1    1    3    3    0  502 -0.84688080069E+03  0.68105399590E+03 -0.21312041391E+03  0.11074574244E+04  0.50400001928E-02 0.  1.
</event>
<event>
 5   0  0.6017625E-08  0.2996006E+04  0.7818609E-02  0.8244872E-01
       -3   -1    0    0    0  501  0.00000000000E+00  0.00000000000E+00  0.14288282403E+04  0.14288282439E+04  0.10100000352E+00 0.  1.
        3   -1    0    0  501    0  0.00000000000E+00  0.00000000000E+00 -0.15705272551E+04  0.15705272583E+04  0.10100000352E+00 0. -1.
    10030    2    1    2    0    0  0.00000000000E+00  0.00000000000E+00 -0.14169901475E+03  0.29993555023E+04  0.29960064783E+04 0.  0.
        1    1    3    3  502    0 -0.68053427841E+03 -0.11556021064E+04 -0.73903140545E+03  0.15312447716E+04  0.50400001928E-02 0. -1.
       -1    1    3    3    0  502  0.68053427841E+03  0.11556021064E+04  0.59733239069E+03  0.14681107306E+04  0.50400001928E-02 0.  1.
</event>
<event>
 5   0  0.1810055E-07  0.2996972E+04  0.7818609E-02  0.8244596E-01
        2   -1    0    0  501    0  0.00000000000E+00  0.00000000000E+00  0.15398772355E+04  0.15398772355E+04  0.25500000920E-02 0. -1.
       -2   -1    0    0    0  501  0.00000000000E+00  0.00000000000E+00 -0.14582072818E+04  0.14582072818E+04  0.25500000920E-02 0.  1.
    10030    2    1    2    0    0  0.00000000000E+00  0.00000000000E+00  0.81669953646E+02  0.29980845173E+04  0.29969719371E+04 0.  0.
        4    1    3    3  502    0  0.98477133183E+03  0.10383210320E+04  0.48549233153E+03  0.15111550411E+04  0.12699999809E+01 0. -1.
       -4    1    3    3    0  502 -0.98477133183E+03 -0.10383210320E+04 -0.40382237789E+03  0.14869294762E+04  0.12699999809E+01 0.  1.
</event>
<event>
 5   0  0.6636007E-08  0.3001089E+04  0.7818609E-02  0.8243420E-01
       -1   -1    0    0    0  501  0.00000000000E+00  0.00000000000E+00  0.89196096796E+03  0.89196096798E+03  0.50400001928E-02 0.  1.
        1   -1    0    0  501    0  0.00000000000E+00  0.00000000000E+00 -0.25243636888E+04  0.25243636888E+04  0.50400001928E-02 0. -1.
    10030    2    1    2    0    0  0.00000000000E+00  0.00000000000E+00 -0.16324027209E+04  0.34163246568E+04  0.30010890553E+04 0.  0.
        2    1    3    3  502    0  0.27603061194E+03 -0.89981775704E+03  0.51415771146E+03  0.10724845206E+04  0.25500000920E-02 0.  1.
       -2    1    3    3    0  502 -0.27603061194E+03  0.89981775704E+03 -0.21465604323E+04  0.23438401362E+04  0.25500000920E-02 0. -1.
</event>
<event>
 5   0  0.1914439E-07  0.2989250E+04  0.7818609E-02  0.8246807E-01
       -2   -1    0    0    0  501  0.00000000000E+00  0.00000000000E+00  0.13333065574E+04  0.13333065574E+04  0.25500000920E-02 0. -1.
        2   -1    0    0  501    0  0.00000000000E+00  0.00000000000E+00 -0.16754618925E+04  0.16754618925E+04  0.25500000920E-02 0.  1.
    10030    2    1    2    0    0  0.00000000000E+00  0.00000000000E+00 -0.34215533512E+03  0.30087684499E+04  0.29892502926E+04 0.  0.
        5    1    3    3  502    0  0.10295655961E+04  0.25846373328E+03 -0.12301233594E+04  0.16248182629E+04  0.46999998093E+01 0.  1.
       -5    1    3    3    0  502 -0.10295655961E+04 -0.25846373328E+03  0.88796802424E+03  0.13839501870E+04  0.46999998093E+01 0. -1.
</event>
<event>
 5   0  0.1914439E-07  0.3000786E+04  0.7818609E-02  0.8243507E-01
        2   -1    0    0  501    0  0.00000000000E+00  0.00000000000E+00  0.21749957558E+04  0.21749957558E+04  0.25500000920E-02 0. -1.
       -2   -1    0    0    0  501  0.00000000000E+00  0.00000000000E+00 -0.10350268445E+04  0.10350268445E+04  0.25500000920E-02 0.  1.
    10030    2    1    2    0    0  0.00000000000E+00  0.00000000000E+00  0.11399689113E+04  0.32100226003E+04  0.30007858931E+04 0.  0.
        5    1    3    3  502    0  0.13774525712E+04 -0.55396106646E+03  0.80166984400E+03  0.16872892691E+04  0.46999998093E+01 0.  1.
       -5    1    3    3    0  502 -0.13774525712E+04  0.55396106646E+03  0.33829906730E+03  0.15227333312E+04  0.46999998093E+01 0. -1.
</event>
<event>
 5   0  0.1813720E-07  0.3000845E+04  0.7818609E-02  0.8243490E-01
       -2   -1    0    0    0  501  0.00000000000E+00  0.00000000000E+00  0.12912076201E+04  0.12912076201E+04  0.25500000920E-02 0.  1.
        2   -1    0    0  501    0  0.00000000000E+00  0.00000000000E+00 -0.17435366130E+04  0.17435366130E+04  0.25500000920E-02 0. -1.
    10030    2    1    2    0    0  0.00000000000E+00  0.00000000000E+00 -0.45232899291E+03  0.30347442331E+04  0.30008450547E+04 0.  0.
        3    1    3    3  502    0  0.14996446605E+04  0.28598658049E+02 -0.26553705816E+03  0.15232406016E+04  0.10100000352E+00 0.  1.
       -3    1    3    3    0  502 -0.14996446605E+04 -0.28598658049E+02 -0.18679193475E+03  0.15115036315E+04  0.10100000352E+00 0. -1.
</event>
<event>
 5   0  0.1914439E-07  0.2999109E+04  0.7818609E-02  0.8243985E-01
        2   -1    0    0  501    0  0.00000000000E+00  0.00000000000E+00  0.25746992239E+04  0.25746992239E+04  0.25500000920E-02 0.  1.
       -2   -1    0    0    0  501  0.00000000000E+00  0.00000000000E+00 -0.87336970773E+03  0.87336970773E+03  0.25500000920E-02 0. -1.
    10030    2    1    2    0    0  0.00000000000E+00  0.00000000000E+00  0.17013295162E+04  0.34480689316E+04  0.29991094069E+04 0.  0.
        5    1    3    3  502    0  0.27016244232E+03  0.14444072692E+04  0.50701840216E+03  0.15544741409E+04  0.46999998093E+01 0. -1.
       -5    1    3    3    0  502 -0.27016244232E+03 -0.14444072692E+04  0.11943111140E+04  0.18935947908E+04  0.46999998093E+01 0.  1.
</event>
<event>
 5   0  0.1821305E-07  0.3001320E+04  0.7818609E-02  0.8243354E-01
        2   -1    0    0  501    0  0.00000000000E+00  0.00000000000E+00  0.31463358540E+04  0.31463358540E+04  0.25500000920E-02 0. -1.
       -2   -1    0    0    0  501  0.00000000000E+00  0.00000000000E+00 -0.71574723103E+03  0.71574723104E+03  0.25500000920E-02 0.  1.
    10030    2    1    2    0    0  0.00000000000E+00  0.00000000000E+00  0.24305886229E+04  0.38620830850E+04  0.30013204930E+04 0.  0.
        2    1    3    3  502    0  0.13064680253E+04 -0.66558450474E+03  0.80408390981E+03  0.16722476994E+04  0.25500000920E-02 0. -1.
       -2    1    3    3    0  502 -0.13064680253E+04  0.66558450474E+03  0.16265047131E+04  0.21898353856E+04  0.25500000920E-02 0.  1.
</event>
<event>
 5   0  0.1914439E-07  0.3000213E+04  0.7818609E-02  0.8243670E-01
        2   -1    0    0  501    0  0.00000000000E+00  0.00000000000E+00  0.20804272842E+04  0.20804272842E+04  0.25500000920E-02 0.  1.
       -2   -1    0    0    0  501  0.00000000000E+00  0.00000000000E+00 -0.10816621413E+04  0.10816621414E+04  0.25500000920E-02 0. -1.
    10030    2    1    2    0    0  0.00000000000E+00  0.00000000000E+00  0.99876514285E+03  0.31620894255E+04  0.30002129465E+04 0.  0.
        5    1    3    3  502    0  0.25742280516E+03  0.11995345341E+04 -0.41041183402E+03  0.12936806262E+04  0.46999998093E+01 0. -1.
       -5    1    3    3    0  502 -0.25742280516E+03 -0.11995345341E+04  0.14091769769E+04  0.18684087993E+04  0.46999998093E+01 0.  1.
</event>
<event>
 5   0  0.1821305E-07  0.3000700E+04  0.7818609E-02  0.8243531E-01
        2   -1    0    0  501    0  0.00000000000E+00  0.00000000000E+00  0.15773389558E+04  0.15773389558E+04  0.25500000920E-02 0.  1.
       -2   -1    0    0    0  501  0.00000000000E+00  0.00000000000E+00 -0.14271190055E+04  0.14271190055E+04  0.25500000920E-02 0. -1.
    10030    2    1    2    0    0  0.00000000000E+00  0.00000000000E+00  0.15021995033E+03  0.30044579613E+04  0.30007001862E+04 0.  0.
        2    1    3    3  502    0  0.73348028032E+03 -0.26038514351E+03 -0.12091719041E+04  0.14380161467E+04  0.25500000920E-02 0. -1.
       -2    1    3    3    0  502 -0.73348028032E+03  0.26038514351E+03  0.13593918544E+04  0.15664418146E+04  0.25500000920E-02 0.  1.
</event>
<event>
 5   0  0.1810055E-07  0.2998538E+04  0.7818609E-02  0.8244149E-01
       -2   -1    0    0    0  501  0.00000000000E+00  0.00000000000E+00  0.14327126720E+04  0.14327126720E+04  0.25500000920E-02 0. -1.
        2   -1    0    0  501    0  0.00000000000E+00  0.00000000000E+00 -0.15689170577E+04  0.15689170577E+04  0.25500000920E-02 0.  1.
    10030    2    1    2    0    0  0.00000000000E+00  0.00000000000E+00 -0.13620438572E+03  0.30016297298E+04  0.29985378770E+04 0.  0.
        4    1    3    3  502    0 -0.85881284508E+03  0.66073627420E+03 -0.11053529461E+04  0.15478819965E+04  0.12699999809E+01 0.  1.
       -4    1    3    3    0  502  0.85881284508E+03 -0.66073627420E+03  0.96914856035E+03  0.14537477332E+04  0.12699999809E+01 0. -1.
</event>
<event>
 5   0  0.1817566E-07  0.3000053E+04  0.7818609E-02  0.8243716E-01
       -2   -1    0    0    0  501  0.00000000000E+00  0.00000000000E+00  0.16238761115E+04  0.16238761115E+04  0.25500000920E-02 0.  1.
        2   -1    0    0  501    0  0.00000000000E+00  0.00000000000E+00 -0.13856229871E+04  0.13856229871E+04  0.25500000920E-02 0. -1.
    10030    2    1    2    0    0  0.00000000000E+00  0.00000000000E+00  0.23825312438E+03  0.30094990985E+04  0.30000533783E+04 0.  0.
        1    1    3    3  502    0  0.10921637640E+04 -0.76152305452E+03 -0.57394744770E+03  0.14498809340E+04  0.50400001928E-02 0.  1.
       -1    1    3    3    0  502 -0.10921637640E+04  0.76152305452E+03  0.81220057208E+03  0.15596181646E+04  0.50400001928E-02 0. -1.
</event>
<event>
 5   0  0.6374748E-08  0.2996239E+04  0.7818609E-02  0.8244806E-01
        1   -1    0    0  501    0  0.00000000000E+00  0.00000000000E+00  0.14759301255E+04  0.14759301255E+04  0.50400001928E-02 0. -1.
       -1   -1    0    0    0  501  0.00000000000E+00  0.00000000000E+00 -0.15206423514E+04  0.15206423514E+04  0.50400001928E-02 0.  1.
    10030    2    1    2    0    0  0.00000000000E+00  0.00000000000E+00 -0.44712225913E+02  0.29965724769E+04  0.29962388800E+04 0.  0.
        1    1    3    3  502    0 -0.84011452987E+03  0.68913706927E+03  0.10090974239E+04  0.14828957936E+04  0.50400001928E-02 0. -1.
       -1    1    3    3    0  502  0.84011452987E+03 -0.68913706927E+03 -0.10538096498E+04  0.15136766833E+04  0.50400001928E-02 0.  1.
</event>
<event>
 5   0  0.6464436E-08  0.2999633E+04  0.7818609E-02  0.8243836E-01
        1   -1    0    0  501    0  0.00000000000E+00  0.00000000000E+00  0.11065797565E+04  0.11065797565E+04  0.50400001928E-02 0. -1.
       -1   -1    0    0    0  501  0.00000000000E+00  0.00000000000E+00 -0.20327946870E+04  0.20327946870E+04  0.50400001928E-02 0.  1.
    10030    2    1    2    0    0  0.00000000000E+00  0.00000000000E+00 -0.92621493051E+03  0.31393744436E+04  0.29996329441E+04 0.  0.
        5    1    3    3  502    0  0.16692633153E+03 -0.54239848527E+03 -0.19160792993E+04  0.19983599496E+04  0.46999998093E+01 0.  1.
       -5    1    3    3    0  502 -0.16692633153E+03  0.54239848527E+03  0.98986436875E+03  0.11410144940E+04  0.46999998093E+01 0. -1.
</event>
<event>
 5   0  0.6636007E-08  0.3000006E+04  0.7818609E-02  0.8243729E-01
       -1   -1    0    0    0  501  0.00000000000E+00  0.00000000000E+00  0.13205624649E+04  0.13205624649E+04  0.50400001928E-02 0.  1.
        1   -1    0    0  501    0  0.00000000000E+00  0.00000000000E+00 -0.17038266741E+04  0.17038266741E+04  0.50400001928E-02 0. -1.
    10030    2    1    2    0    0  0.00000000000E+00  0.00000000000E+00 -0.38326420925E+03  0.30243891390E+04  0.30000063684E+04 0.  0.
        2    1    3    3  502    0  0.25652249265E+03 -0.46931874688E+03 -0.16044306161E+04  0.16912307581E+04  0.25500000920E-02 0. -1.
       -2    1    3    3    0  502 -0.25652249265E+03  0.46931874688E+03  0.12211664068E+04  0.13331583809E+04  0.25500000920E-02 0.  1.
</event>
<event>
 5   0  0.6464436E-08  0.3000070E+04  0.7818609E-02  0.8243711E-01
        1   -1    0    0  501    0  0.00000000000E+00  0.00000000000E+00  0.15429690430E+04  0.15429690430E+04  0.50400001928E-02 0.  1.
       -1   -1    0    0    0  501  0.00000000000E+00  0.00000000000E+00 -0.14582952916E+04  0.14582952917E+04  0.50400001928E-02 0. -1.
    10030    2    1    2    0    0  0.00000000000E+00  0.00000000000E+00  0.84673751356E+02  0.30012643347E+04  0.30000696596E+04 0.  0.
        5    1    3    3  502    0 -0.11270618398E+04  0.68106057190E+03 -0.67626003800E+03  0.14803586127E+04  0.46999998093E+01 0.  1.
       -5    1    3    3    0  502  0.11270618398E+04 -0.68106057190E+03  0.76093378936E+03  0.15209057219E+04  0.46999998093E+01 0. -1.
</event>
<event>
 5   0  0.1817566E-07  0.2998400E+04  0.7818609E-02  0.8244188E-01
        2   -1    0    0  501    0  0.00000000000E+00  0.00000000000E+00  0.23242482766E+04  0.23242482766E+04  0.25500000920E-02 0. -1.
       -2   -1    0    0    0  501  0.00000000000E+00  0.00000000000E+00 -0.96702229609E+03  0.96702229610E+03  0.25500000920E-02 0.  1.
    10030    2    1    2    0    0  0.00000000000E+00  0.00000000000E+00  0.13572259805E+04  0.32912705726E+04  0.29983995098E+04 0.  0.
        1    1    3    3  502    0  0.10821904695E+04  0.78305031687E+03 -0.68529291192E+02  0.13375351490E+04  0.50400001928E-02 0.  1.
       -1    1    3    3    0  502 -0.10821904695E+04 -0.78305031687E+03  0.14257552716E+04  0.19537354237E+04  0.50400001928E-02 0. -1.
</event>
<event>
 5   0  0.1810055E-07  0.2999003E+04  0.7818609E-02  0.8244016E-01
        2   -1    0    0  501    0  0.00000000000E+00  0.00000000000E+00  0.92512912268E+03  0.92512912268E+03  0.25500000920E-02 0.  1.
       -2   -1    0    0    0  501  0.00000000000E+00  0.00000000000E+00 -0.24304761358E+04  0.24304761358E+04  0.25500000920E-02 0. -1.
    10030    2    1    2    0    0  0.00000000000E+00  0.00000000000E+00 -0.15053470132E+04  0.33556052585E+04  0.29990026710E+04 0.  0.
        4    1    3    3  502    0 -0.10788488220E+04  0.25899490851E+03  0.37598679505E+03  0.11714780520E+04  0.12699999809E+01 0.  1.
       -4    1    3    3    0  502  0.10788488220E+04 -0.25899490851E+03 -0.18813338082E+04  0.21841272065E+04  0.12699999809E+01 0. -1.
</event>
<event>
 5   0  0.6525507E-08  0.2999885E+04  0.7818609E-02  0.8243764E-01
       -1   -1    0    0    0  501  0.00000000000E+00  0.00000000000E+00  0.98698927639E+03  0.98698927640E+03  0.50400001928E-02 0. -1.
        1   -1    0    0  501    0  0.00000000000E+00  0.00000000000E+00 -0.22794848350E+04  0.22794848350E+04  0.50400001928E-02 0.  1.
    10030    2    1    2    0    0  0.00000000000E+00  0.00000000000E+00 -0.12924955586E+04  0.32664741114E+04  0.29998847230E+04 0.  0.
        4    1    3    3  502    0 -0.24914190272E+03  0.42595953413E+03 -0.21885657466E+04  0.22435094946E+04  0.12699999809E+01 0.  1.
       -4    1    3    3    0  502  0.24914190272E+03 -0.42595953413E+03  0.89607018801E+03  0.10229646168E+04  0.12699999809E+01 0. -1.
</event>
<event>
 5   0  0.6636007E-08  0.3006788E+04  0.7818609E-02  0.8241795E-01
       -1   -1    0    0    0  501  0.00000000000E+00  0.00000000000E+00  0.11943183402E+04  0.11943183402E+04  0.50400001928E-02 0. -1.
        1   -1    0    0  501    0  0.00000000000E+00  0.00000000000E+00 -0.18924548739E+04  0.18924548739E+04  0.50400001928E-02 0.  1.
    10030    2    1    2    0    0  0.00000000000E+00  0.00000000000E+00 -0.69813653374E+03  0.30867732141E+04  0.30067880297E+04 0.  0.
        2    1    3    3  502    0  0.87963942458E+03 -0.25867570209E+03 -0.15721962221E+04  0.18200218672E+04  0.25500000920E-02 0.  1.
       -2    1    3    3    0  502 -0.87963942458E+03  0.25867570209E+03  0.87405968836E+03  0.12667513469E+04  0.25500000920E-02 0. -1.
</event>
<event>
 5   0  0.6636007E-08  0.3000121E+04  0.7818609E-02  0.8243696E-01
       -1   -1    0    0    0  501  0.00000000000E+00  0.00000000000E+00  0.90710929160E+03  0.90710929161E+03  0.50400001928E-02 0.  1.
        1   -1    0    0  501    0  0.00000000000E+00  0.00000000000E+00 -0.24806070400E+04  0.24806070400E+04  0.50400001928E-02 0. -1.
    10030    2    1    2    0    0  0.00000000000E+00  0.00000000000E+00 -0.15734977484E+04  0.33877163316E+04  0.30001211274E+04 0.  0.
        2    1    3    3  502    0  0.83313965840E+02  0.90121653999E+03 -0.21375628180E+04  0.23212727693E+04  0.25500000920E-02 0. -1.
       -2    1    3    3    0  502 -0.83313965840E+02 -0.90121653999E+03  0.56406506956E+03  0.10664435623E+04  0.25500000920E-02 0.  1.
</event>
<event>
 5   0  0.1821305E-07  0.3000631E+04  0.7818609E-02  0.8243551E-01
       -2   -1    0    0    0  501  0.00000000000E+00  0.00000000000E+00  0.17216937927E+04  0.17216937927E+04  0.25500000920E-02 0. -1.
        2   -1    0    0  501    0  0.00000000000E+00  0.00000000000E+00 -0.13074025620E+04  0.13074025620E+04  0.25500000920E-02 0.  1.
    10030    2    1    2    0    0  0.00000000000E+00  0.00000000000E+00  0.41429123069E+03  0.30290963547E+04  0.30006311840E+04 0.  0.
        2    1    3    3  502    0  0.10005109334E+04  0.30429936456E+03  0.12931421661E+04  0.16630805431E+04  0.25500000920E-02 0. -1.
       -2    1    3    3    0  502 -0.10005109334E+04 -0.30429936456E+03 -0.87885093537E+03  0.13660158117E+04  0.25500000920E-02 0.  1.
</event>
<event>
 5   0  0.6374748E-08  0.3000991E+04  0.7818609E-02  0.8243448E-01
        1   -1    0    0  501    0  0.00000000000E+00  0.00000000000E+00  0.11207001446E+04  0.11207001447E+04  0.50400001928E-02 0.  1.
       -1   -1    0    0    0  501  0.00000000000E+00  0.00000000000E+00 -0.20090003047E+04  0.20090003047E+04  0.50400001928E-02 0. -1.
    10030    2    1    2    0    0  0.00000000000E+00  0.00000000000E+00 -0.88830016007E+03  0.31297004494E+04  0.30009911244E+04 0.  0.
        1    1    3    3  502    0 -0.49738931302E+03 -0.14042416375E+04 -0.25702131514E+03  0.15117376299E+04  0.50400001928E-02 0. -1.
       -1    1    3    3    0  502  0.49738931302E+03  0.14042416375E+04 -0.63127884492E+03  0.16179628195E+04  0.50400001928E-02 0.  1.
</event>
<event>
 5   0  0.6525507E-08  0.2997999E+04  0.7818609E-02  0.8244302E-01
       -1   -1    0    0    0  501  0.00000000000E+00  0.00000000000E+00  0.12564023866E+04  0.12564023866E+04  0.50400001928E-02 0.  1.
        1   -1    0    0  501    0  0.00000000000E+00  0.00000000000E+00 -0.17884399437E+04  0.17884399437E+04  0.50400001928E-02 0. -1.
    10030    2    1    2    0    0  0.00000000000E+00  0.00000000000E+00 -0.53203755708E+03  0.30448423303E+04  0.29979994753E+04 0.  0.
        4    1    3    3  502    0 -0.29449814422E+03 -0.13601507203E+04  0.29969371949E+03  0.14235719431E+04  0.12699999809E+01 0.  1.
       -4    1    3    3    0  502  0.29449814422E+03  0.13601507203E+04 -0.83173127657E+03  0.16212703871E+04  0.12699999809E+01 0. -1.
</event>
<event>
 5   0  0.6679022E-08  0.3002373E+04  0.7818609E-02  0.8243054E-01
       -1   -1    0    0    0  501  0.00000000000E+00  0.00000000000E+00  0.13453802984E+04  0.13453802984E+04  0.50400001928E-02 0. -1.
        1   -1    0    0  501    0  0.00000000000E+00  0.00000000000E+00 -0.16750362811E+04  0.16750362811E+04  0.50400001928E-02 0.  1.
    10030    2    1    2    0    0  0.00000000000E+00  0.00000000000E+00 -0.32965598267E+03  0.30204165795E+04  0.30023729360E+04 0.  0.
        3    1    3    3  502    0 -0.12351271738E+04 -0.17510015026E+03 -0.10049284554E+04  0.16018990008E+04  0.10100000352E+00 0.  1.
       -3    1    3    3    0  502  0.12351271738E+04  0.17510015026E+03  0.67527247276E+03  0.14185175786E+04  0.10100000352E+00 0. -1.
</event>
<event>
 5   0  0.6525507E-08  0.2999770E+04  0.7818609E-02  0.8243797E-01
        1   -1    0    0  501    0  0.00000000000E+00  0.00000000000E+00  0.11102363719E+04  0.11102363719E+04  0.50400001928E-02 0. -1.
       -1   -1    0    0    0  501  0.00000000000E+00  0.00000000000E+00 -0.20262848789E+04  0.20262848789E+04  0.50400001928E-02 0.  1.
    10030    2    1    2    0    0  0.00000000000E+00  0.00000000000E+00 -0.91604850702E+03  0.31365212508E+04  0.29997701061E+04 0.  0.
        4    1    3    3  502    0 -0.33130233699E+03  0.13258751036E+04 -0.11042170536E+04  0.17569868933E+04  0.12699999809E+01 0. -1.
       -4    1    3    3    0  502  0.33130233699E+03 -0.13258751036E+04  0.18816854656E+03  0.13795343575E+04  0.12699999809E+01 0.  1.
</event>
<event>
 5   0  0.1810055E-07  0.3003449E+04  0.7818609E-02  0.8242747E-01
       -2   -1    0    0    0  501  0.00000000000E+00  0.00000000000E+00  0.79622311452E+03  0.79622311452E+03  0.25500000920E-02 0.  1.
        2   -1    0    0  501    0  0.00000000000E+00  0.00000000000E+00 -0.28323422102E+04  0.28323422102E+04  0.25500000920E-02 0. -1.
    10030    2    1    2    0    0  0.00000000000E+00  0.00000000000E+00 -0.20361190957E+04  0.36285653247E+04  0.30034489082E+04 0.  0.
        4    1    3    3  502    0  0.88484747665E+03 -0.70213721735E+03  0.17745674460E+03  0.11434352793E+04  0.12699999809E+01 0.  1.
       -4    1    3    3    0  502 -0.88484747665E+03  0.70213721735E+03 -0.22135758403E+04  0.24851300454E+04  0.12699999809E+01 0. -1.
</event>
<event>
 5   0  0.1821305E-07  0.3000457E+04  0.7818609E-02  0.8243600E-01
       -2   -1    0    0    0  501  0.00000000000E+00  0.00000000000E+00  0.10581206915E+04  0.10581206916E+04  0.25500000920E-02 0. -1.
        2   -1    0    0  501    0  0.00000000000E+00  0.00000000000E+00 -0.21270594618E+04  0.21270594618E+04  0.25500000920E-02 0.  1.
    10030    2    1    2    0    0  0.00000000000E+00  0.00000000000E+00 -0.10689387702E+04  0.31851801533E+04  0.30004570510E+04 0.  0.
        2    1    3    3  502    0 -0.13955154137E+04 -0.13724015822E+03  0.31641931303E+02  0.14026044855E+04  0.25500000920E-02 0. -1.
       -2    1    3    3    0  502  0.13955154137E+04  0.13724015822E+03 -0.11005807015E+04  0.17825756678E+04  0.25500000920E-02 0.  1.
</event>
<event>
 5   0  0.1914439E-07  0.3000055E+04  0.7818609E-02  0.8243715E-01
        2   -1    0    0  501    0  0.00000000000E+00  0.00000000000E+00  0.15970890923E+04  0.15970890923E+04  0.25500000920E-02 0.  1.
       -2   -1    0    0    0  501  0.00000000000E+00  0.00000000000E+00 -0.14088643710E+04  0.14088643710E+04  0.25500000920E-02 0. -1.
    10030    2    1    2    0    0  0.00000000000E+00  0.00000000000E+00  0.18822472123E+03  0.30059534633E+04  0.30000546125E+04 0.  0.
        5    1    3    3  502    0  0.10833862061E+02 -0.13475893752E+03 -0.14027402002E+04  0.14092478501E+04  0.46999998093E+01 0. -1.
       -5    1    3    3    0  502 -0.10833862061E+02  0.13475893752E+03  0.15909649215E+04  0.15967056132E+04  0.46999998093E+01 0.  1.
</event>
<event>
 5   0  0.1813720E-07  0.2997084E+04  0.7818609E-02  0.8244564E-01
       -2   -1    0    0    0  501  0.00000000000E+00  0.00000000000E+00  0.11628718318E+04  0.11628718318E+04  0.25500000920E-02 0.  1.
        2   -1    0    0  501    0  0.00000000000E+00  0.00000000000E+00 -0.19311059970E+04  0.19311059970E+04  0.25500000920E-02 0. -1.
    10030    2    1    2    0    0  0.00000000000E+00  0.00000000000E+00 -0.76823416519E+03  0.30939778287E+04  0.29970844286E+04 0.  0.
        3    1    3    3  502    0  0.16246064791E+03  0.97108267357E+03 -0.15503447232E+04  0.18365630379E+04  0.10100000352E+00 0. -1.
       -3    1    3    3    0  502 -0.16246064791E+03 -0.97108267357E+03  0.78211055805E+03  0.12574147908E+04  0.10100000352E+00 0.  1.
</event>
<event>
 5   0  0.1817566E-07  0.3000129E+04  0.7818609E-02  0.8243694E-01
        2   -1    0    0  501    0  0.00000000000E+00  0.00000000000E+00  0.18025861222E+04  0.18025861222E+04  0.25500000920E-02 0.  1.
       -2   -1    0    0    0  501  0.00000000000E+00  0.00000000000E+00 -0.12483140886E+04  0.12483140886E+04  0.25500000920E-02 0. -1.
    10030    2    1    2    0    0  0.00000000000E+00  0.00000000000E+00  0.55427203352E+03  0.30509002108E+04  0.30001290987E+04 0.  0.
        1    1    3    3  502    0  0.65305848716E+03 -0.10510075099E+04  0.11394791924E+04  0.16821162277E+04  0.50400001928E-02 0.  1.
       -1    1    3    3    0  502 -0.65305848716E+03  0.10510075099E+04 -0.58520715885E+03  0.13687839831E+04  0.50400001928E-02 0. -1.
</event>
<event>
 5   0  0.6679022E-08  0.3000985E+04  0.7818609E-02  0.8243450E-01
       -1   -1    0    0    0  501  0.00000000000E+00  0.00000000000E+00  0.17475847593E+04  0.17475847593E+04  0.50400001928E-02 0.  1.
        1   -1    0    0  501    0  0.00000000000E+00  0.00000000000E+00 -0.12883368518E+04  0.12883368518E+04  0.50400001928E-02 0. -1.
    10030    2    1    2    0    0  0.00000000000E+00  0.00000000000E+00  0.45924790751E+03  0.30359216112E+04  0.30009850697E+04 0.  0.
        3    1    3    3  502    0 -0.26717066645E+03  0.10617601625E+03  0.17194614718E+04  0.17433305122E+04  0.10100000352E+00 0.  1.
       -3    1    3    3    0  502  0.26717066645E+03 -0.10617601625E+03 -0.12602135643E+04  0.12925910990E+04  0.10100000352E+00 0. -1.
</event>
<event>
 5   0  0.6679022E-08  0.3000655E+04  0.7818609E-02  0.8243544E-01
       -1   -1    0    0    0  501  0.00000000000E+00  0.00000000000E+00  0.10007223006E+04  0.10007223006E+04  0.50400001928E-02 0. -1.
        1   -1    0    0  501    0  0.00000000000E+00  0.00000000000E+00 -0.22493571857E+04  0.22493571857E+04  0.50400001928E-02 0.  1.
    10030    2    1    2    0    0  0.00000000000E+00  0.00000000000E+00 -0.12486348851E+04  0.32500794864E+04  0.30006545272E+04 0.  0.
        3    1    3    3  502    0 -0.57969233957E+03  0.55222970880E+02 -0.21219640069E+04  0.22004145159E+04  0.10100000352E+00 0.  1.
       -3    1    3    3    0  502  0.57969233957E+03 -0.55222970880E+02  0.87332912179E+03  0.10496649705E+04  0.10100000352E+00 0. -1.
</event>
<event>
 5   0  0.1813720E-07  0.2998095E+04  0.7818609E-02  0.8244275E-01
       -2   -1    0    0    0  501  0.00000000000E+00  0.00000000000E+00  0.11189097579E+04  0.11189097579E+04  0.25500000920E-02 0. -1.
        2   -1    0    0  501    0  0.00000000000E+00  0.00000000000E+00 -0.20083324378E+04  0.20083324378E+04  0.25500000920E-02 0.  1.
    10030    2    1    2    0    0  0.00000000000E+00  0.00000000000E+00 -0.88942267993E+03  0.31272421957E+04  0.29980945694E+04 0.  0.
        3    1    3    3  502    0  0.20198561552E+03  0.13603385584E+04 -0.10669164099E+04  0.17405831833E+04  0.10100000352E+00 0.  1.
       -3    1    3    3    0  502 -0.20198561552E+03 -0.13603385584E+04  0.17749372995E+03  0.13866590124E+04  0.10100000352E+00 0. -1.
</event>
<event>
 5   0  0.6525507E-08  0.3000122E+04  0.7818609E-02  0.8243696E-01
       -1   -1    0    0    0  501  0.00000000000E+00  0.00000000000E+00  0.15577965005E+04  0.15577965005E+04  0.50400001928E-02 0. -1.
        1   -1    0    0  501    0  0.00000000000E+00  0.00000000000E+00 -0.14444650299E+04  0.14444650299E+04  0.50400001928E-02 0.  1.
    10030    2    1    2    0    0  0.00000000000E+00  0.00000000000E+00  0.11333147061E+03  0.30022615305E+04  0.30001217101E+04 0.  0.
        4    1    3    3  502    0  0.12546770495E+04 -0.66884017113E+03  0.53514825541E+03  0.15191928585E+04  0.12699999809E+01 0. -1.
       -4    1    3    3    0  502 -0.12546770495E+04  0.66884017113E+03 -0.42181678480E+03  0.14830686720E+04  0.12699999809E+01 0.  1.
</event>
<event>
 5   0  0.1817566E-07  0.2999493E+04  0.7818609E-02  0.8243876E-01
        2   -1    0    0  501    0  0.00000000000E+00  0.00000000000E+00  0.12154039849E+04  0.12154039849E+04  0.25500000920E-02 0. -1.
       -2   -1    0    0    0  501  0.00000000000E+00  0.00000000000E+00 -0.18506110329E+04  0.18506110329E+04  0.25500000920E-02 0.  1.
    10030    2    1    2    0    0  0.00000000000E+00  0.00000000000E+00 -0.63520704798E+03  0.30660150178E+04  0.29994933065E+04 0.  0.
        1    1    3    3  502    0 -0.20418849953E+03  0.14514606525E+04 -0.64214944252E+03  0.16002458798E+04  0.50400001928E-02 0.  1.
       -1    1    3    3    0  502  0.20418849953E+03 -0.14514606525E+04  0.69423945396E+01  0.14657691380E+04  0.50400001928E-02 0. -1.
</event>
<event>
 5   0  0.1813720E-07  0.2991958E+04  0.7818609E-02  0.8246031E-01
        2   -1    0    0  501    0  0.00000000000E+00  0.00000000000E+00  0.11007437850E+04  0.11007437850E+04  0.25500000920E-02 0.  1.
       -2   -1    0    0    0  501  0.00000000000E+00  0.00000000000E+00 -0.20331280628E+04  0.20331280628E+04  0.25500000920E-02 0. -1.
    10030    2    1    2    0    0  0.00000000000E+00  0.00000000000E+00 -0.93238427783E+03  0.31338718478E+04  0.29919579403E+04 0.  0.
        3    1    3    3  502    0  0.12600382272E+04 -0.19146812045E+03  0.35428645407E+03  0.13228285138E+04  0.10100000352E+00 0.  1.
       -3    1    3    3    0  502 -0.12600382272E+04  0.19146812045E+03 -0.12866707319E+04  0.18110433340E+04  0.10100000352E+00 0. -1.
</event>
<event>
 5   0  0.6679022E-08  0.2999974E+04  0.7818609E-02  0.8243738E-01
       -1   -1    0    0    0  501  0.00000000000E+00  0.00000000000E+00  0.12586701242E+04  0.12586701242E+04  0.50400001928E-02 0. -1.
        1   -1    0    0  501    0  0.00000000000E+00  0.00000000000E+00 -0.17875697339E+04  0.17875697339E+04  0.50400001928E-02 0.  1.
    10030    2    1    2    0    0  0.00000000000E+00  0.00000000000E+00 -0.52889960962E+03  0.30462398581E+04  0.29999737459E+04 0.  0.
        3    1    3    3  502    0  0.41772966049E+03  0.90986462404E+03  0.86974035570E+03  0.13261975720E+04  0.10100000352E+00 0.  1.
       -3    1    3    3    0  502 -0.41772966049E+03 -0.90986462404E+03 -0.13986399653E+04  0.17200422861E+04  0.10100000352E+00 0. -1.
</event>
<event>
 5   0  0.1813720E-07  0.2999242E+04  0.7818609E-02  0.8243947E-01
       -2   -1    0    0    0  501  0.00000000000E+00  0.00000000000E+00  0.75099479059E+03  0.75099479059E+03  0.25500000920E-02 0.  1.
        2   -1    0    0  501    0  0.00000000000E+00  0.00000000000E+00 -0.29945124245E+04  0.29945124245E+04  0.25500000920E-02 0. -1.
    10030    2    1    2    0    0  0.00000000000E+00  0.00000000000E+00 -0.22435176339E+04  0.37455072151E+04  0.29992420584E+04 0.  0.
        3    1    3    3  502    0 -0.40550854167E+03  0.63466445940E+03 -0.27411954719E+04  0.28427783555E+04  0.10100000352E+00 0. -1.
       -3    1    3    3    0  502  0.40550854167E+03 -0.63466445940E+03  0.49767783793E+03  0.90272885960E+03  0.10100000352E+00 0.  1.
</event>
<event>
 5   0  0.1817566E-07  0.2999351E+04  0.7818609E-02  0.8243916E-01
        2   -1    0    0  501    0  0.00000000000E+00  0.00000000000E+00  0.13908038700E+04  0.13908038700E+04  0.25500000920E-02 0. -1.
       -2   -1    0    0    0  501  0.00000000000E+00  0.00000000000E+00 -0.16170699658E+04  0.16170699658E+04  0.25500000920E-02 0.  1.
    10030    2    1    2    0    0  0.00000000000E+00  0.00000000000E+00 -0.22626609571E+03  0.30078738358E+04  0.29993513742E+04 0.  0.
        1    1    3    3  502    0  0.11919173554E+04 -0.58643250427E+03  0.58487420169E+03  0.14514296042E+04  0.50400001928E-02 0. -1.
       -1    1    3    3    0  502 -0.11919173554E+04  0.58643250427E+03 -0.81114029740E+03  0.15564442316E+04  0.50400001928E-02 0.  1.
</event>
<event>
 5   0  0.6636007E-08  0.3000650E+04  0.7818609E-02  0.8243545E-01
        1   -1    0    0  501    0  0.00000000000E+00  0.00000000000E+00  0.19085056881E+04  0.19085056881E+04  0.50400001928E-02 0.  1.
       -1   -1    0    0    0  501  0.00000000000E+00  0.00000000000E+00 -0.11794438554E+04  0.11794438554E+04  0.50400001928E-02 0. -1.
    10030    2    1    2    0    0  0.00000000000E+00  0.00000000000E+00  0.72906183270E+03  0.30879495435E+04  0.30006501341E+04 0.  0.
        2    1    3    3  502    0 -0.32083785959E+03  0.14029980229E+04  0.80069532089E+03  0.16469527562E+04  0.25500000920E-02 0.  1.
       -2    1    3    3    0  502  0.32083785959E+03 -0.14029980229E+04 -0.71633488197E+02  0.14409967873E+04  0.25500000920E-02 0. -1.
</event>
<event>
 5   0  0.1810055E-07  0.2998018E+04  0.7818609E-02  0.8244297E-01
        2   -1    0    0  501    0  0.00000000000E+00  0.00000000000E+00  0.22456555029E+04  0.22456555029E+04  0.25500000920E-02 0. -1.
       -2   -1    0    0    0  501  0.00000000000E+00  0.00000000000E+00 -0.10006110144E+04  0.10006110144E+04  0.25500000920E-02 0.  1.
    10030    2    1    2    0    0  0.00000000000E+00  0.00000000000E+00  0.12450444885E+04  0.32462665173E+04  0.29980177656E+04 0.  0.
        4    1    3    3  502    0  0.12917807781E+04 -0.32845850846E+03 -0.12016109645E+03  0.13382910268E+04  0.12699999809E+01 0. -1.
       -4    1    3    3    0  502 -0.12917807781E+04  0.32845850846E+03  0.13652055850E+04  0.19079754905E+04  0.12699999809E+01 0.  1.
</event>
<event>
 5   0  0.1821305E-07  0.3000269E+04  0.7818609E-02  0.8243654E-01
       -2   -1    0    0    0  501  0.00000000000E+00  0.00000000000E+00  0.10061196283E+04  0.10061196283E+04  0.25500000920E-02 0.  1.
        2   -1    0    0  501    0  0.00000000000E+00  0.00000000000E+00 -0.22367161571E+04  0.22367161571E+04  0.25500000920E-02 0. -1.
    10030    2    1    2    0    0  0.00000000000E+00  0.00000000000E+00 -0.12305965288E+04  0.32428357854E+04  0.30002693403E+04 0.  0.
        2    1    3    3  502    0 -0.39727160568E+03 -0.70759537666E+03  0.74840844962E+03  0.11039162800E+04  0.25500000920E-02 0.  1.
       -2    1    3    3    0  502  0.39727160568E+03  0.70759537666E+03 -0.19790049784E+04  0.21389195054E+04  0.25500000920E-02 0. -1.
</event>
<event>
 5   0  0.6679022E-08  0.3000261E+04  0.7818609E-02  0.8243656E-01
       -1   -1    0    0    0  501  0.00000000000E+00  0.00000000000E+00  0.12119331024E+04  0.12119331024E+04  0.50400001928E-02 0. -1.
        1   -1    0    0  501    0  0.00000000000E+00  0.00000000000E+00 -0.18568617621E+04  0.18568617621E+04  0.50400001928E-02 0.  1.
    10030    2    1    2    0    0  0.00000000000E+00  0.00000000000E+00 -0.64492865968E+03  0.30687948645E+04  0.30002614793E+04 0.  0.
        3    1    3    3  502    0 -0.13890350475E+03 -0.75906301383E+03 -0.16382872177E+04  0.18109267960E+04  0.10100000352E+00 0.  1.
       -3    1    3    3    0  502  0.13890350475E+03  0.75906301383E+03  0.99335855806E+03  0.12578680685E+04  0.10100000352E+00 0. -1.
</event>
<event>
 5   0  0.6525507E-08  0.2998533E+04  0.7818609E-02  0.8244150E-01
       -1   -1    0    0    0  501  0.00000000000E+00  0.00000000000E+00  0.22735715543E+04  0.22735715543E+04  0.50400001928E-02 0.  1.
        1   -1    0    0  501    0  0.00000000000E+00  0.00000000000E+00 -0.98866452736E+03  0.98866452737E+03  0.50400001928E-02 0. -1.
    10030    2    1    2    0    0  0.00000000000E+00  0.00000000000E+00  0.12849070269E+04  0.32622360817E+04  0.29985326719E+04 0.  0.
        4    1    3    3  502    0  0.65870552235E+03  0.29579506860E+03 -0.78702819974E+03  0.10680836521E+04  0.12699999809E+01 0. -1.
       -4    1    3    3    0  502 -0.65870552235E+03 -0.29579506860E+03  0.20719352267E+04  0.21941524296E+04  0.12699999809E+01 0.  1.
</event>
<event>
 5   0  0.6464436E-08  0.2999547E+04  0.7818609E-02  0.8243860E-01
        1   -1    0    0  501    0  0.00000000000E+00  0.00000000000E+00  0.19843003191E+04  0.19843003191E+04  0.50400001928E-02 0.  1.
       -1   -1    0    0    0  501  0.00000000000E+00  0.00000000000E+00 -0.11335583818E+04  0.11335583818E+04  0.50400001928E-02 0. -1.
    10030    2    1    2    0    0  0.00000000000E+00  0.00000000000E+00  0.85074193729E+03  0.31178587010E+04  0.29995468050E+04 0.  0.
        5    1    3    3  502    0  0.36299268673E+03 -0.62512327623E+03  0.17912624412E+04  0.19316278173E+04  0.46999998093E+01 0.  1.
       -5    1    3    3    0  502 -0.36299268673E+03  0.62512327623E+03 -0.94052050394E+03  0.11862308837E+04  0.46999998093E+01 0. -1.
</event>
<event>
 5   0  0.6525507E-08  0.2998390E+04  0.7818609E-02  0.8244191E-01
        1   -1    0    0  501    0  0.00000000000E+00  0.00000000000E+00  0.10947739359E+04  0.10947739360E+04  0.50400001928E-02 0. -1.
       -1   -1    0    0    0  501  0.00000000000E+00  0.00000000000E+00 -0.20530131132E+04  0.20530131132E+04  0.50400001928E-02 0.  1.
    10030    2    1    2    0    0  0.00000000000E+00  0.00000000000E+00 -0.95823917729E+03  0.31477870492E+04  0.29983897322E+04 0.  0.
        4    1    3    3  502    0 -0.36235280117E+03 -0.28001718161E+03 -0.19777894561E+04  0.20301137702E+04  0.12699999809E+01 0.  1.
       -4    1    3    3    0  502  0.36235280117E+03  0.28001718161E+03  0.10195502788E+04  0.11176732789E+04  0.12699999809E+01 0. -1.
</event>
<event>
 5   0  0.6374748E-08  0.2994744E+04  0.7818609E-02  0.8245233E-01
       -1   -1    0    0    0  501  0.00000000000E+00  0.00000000000E+00  0.14059814267E+04  0.14059814268E+04  0.50400001928E-02 0.  1.
        1   -1    0    0  501    0  0.00000000000E+00  0.00000000000E+00 -0.15947032213E+04  0.15947032213E+04  0.50400001928E-02 0. -1.
    10030    2    1    2    0    0  0.00000000000E+00  0.00000000000E+00 -0.18872179452E+03  0.30006846480E+04  0.29947441362E+04 0.  0.
        1    1    3    3  502    0  0.44129320859E+03 -0.40241457608E+03  0.12814782853E+04  0.14138117918E+04  0.50400001928E-02 0.  1.
       -1    1    3    3    0  502 -0.44129320859E+03  0.40241457608E+03 -0.14702000798E+04  0.15868728562E+04  0.50400001928E-02 0. -1.
</event>
<event>
 5   0  0.1914439E-07  0.2998395E+04  0.7818609E-02  0.8244189E-01
        2   -1    0    0  501    0  0.00000000000E+00  0.00000000000E+00  0.18553578096E+04  0.18553578096E+04  0.25500000920E-02 0. -1.
       -2   -1    0    0    0  501  0.00000000000E+00  0.00000000000E+00 -0.12114071086E+04  0.12114071086E+04  0.25500000920E-02 0.  1.
    10030    2    1    2    0    0  0.00000000000E+00  0.00000000000E+00  0.64395070098E+03  0.30667649182E+04  0.29983953306E+04 0.  0.
        5    1    3    3  502    0  0.69518335487E+03 -0.82113859182E+03 -0.74587264736E+03  0.13091587299E+04  0.46999998093E+01 0.  1.
       -5    1    3    3    0  502 -0.69518335487E+03  0.82113859182E+03  0.13898233483E+04  0.17576061884E+04  0.46999998093E+01 0. -1.
</event>
<event>
 5   0  0.6525507E-08  0.3000123E+04  0.7818609E-02  0.8243696E-01
       -1   -1    0    0    0  501  0.00000000000E+00  0.00000000000E+00  0.18680135984E+04  0.18680135984E+04  0.50400001928E-02 0. -1.
        1   -1    0    0  501    0  0.00000000000E+00  0.00000000000E+00 -0.12045868296E+04  0.12045868296E+04  0.50400001928E-02 0.  1.
    10030    2    1    2    0    0  0.00000000000E+00  0.00000000000E+00  0.66342676880E+03  0.30726004279E+04  0.30001230495E+04 0.  0.
        4    1    3    3  502    0 -0.27346861947E+03 -0.90403407714E+03 -0.86182429531E+03  0.12785950991E+04  0.12699999809E+01 0.  1.
       -4    1    3    3    0  502  0.27346861947E+03  0.90403407714E+03  0.15252510641E+04  0.17940053289E+04  0.12699999809E+01 0. -1.
</event>
<event>
 5   0  0.6017625E-08  0.3000455E+04  0.7818609E-02  0.8243601E-01
       -4   -1    0    0    0  501  0.00000000000E+00  0.00000000000E+00  0.16122604092E+04  0.16122609094E+04  0.12699999809E+01 0. -1.
        4   -1    0    0  501    0  0.00000000000E+00  0.00000000000E+00 -0.13959781057E+04  0.13959786834E+04  0.12699999809E+01 0.  1.
    10030    2    1    2    0    0  0.00000000000E+00  0.00000000000E+00  0.21628230355E+03  0.30082395928E+04  0.30004545344E+04 0.  0.
        1    1    3    3  502    0 -0.13225654807E+04 -0.28422262521E+03 -0.54217104716E+03  0.14573645377E+04  0.50400001928E-02 0.  1.
       -1    1    3    3    0  502  0.13225654807E+04  0.28422262521E+03  0.75845335071E+03  0.15508750551E+04  0.50400001928E-02 0. -1.
</event>
<event>
 5   0  0.1813720E-07  0.2999210E+04  0.7818609E-02  0.8243957E-01
       -2   -1    0    0    0  501  0.00000000000E+00  0.00000000000E+00  0.13299060680E+04  0.13299060680E+04  0.25500000920E-02 0. -1.
        2   -1    0    0  501    0  0.00000000000E+00  0.00000000000E+00 -0.16909576417E+04  0.16909576417E+04  0.25500000920E-02 0.  1.
    10030    2    1    2    0    0  0.00000000000E+00  0.00000000000E+00 -0.36105157363E+03  0.30208637097E+04  0.29992097816E+04 0.  0.
        3    1    3    3  502    0 -0.11857438857E+04 -0.31144562899E+03  0.68932266304E+03  0.14064681604E+04  0.10100000352E+00 0. -1.
       -3    1    3    3    0  502  0.11857438857E+04  0.31144562899E+03 -0.10503742367E+04  0.16143955493E+04  0.10100000352E+00 0.  1.
</event>
<event>
 5   0  0.1813720E-07  0.2999891E+04  0.7818609E-02  0.8243762E-01
        2   -1    0    0  501    0  0.00000000000E+00  0.00000000000E+00  0.20937442114E+04  0.20937442114E+04  0.25500000920E-02 0.  1.
       -2   -1    0    0    0  501  0.00000000000E+00  0.00000000000E+00 -0.10745518121E+04  0.10745518121E+04  0.25500000920E-02 0. -1.
    10030    2    1    2    0    0  0.00000000000E+00  0.00000000000E+00  0.10191923993E+04  0.31682960235E+04  0.29998910890E+04 0.  0.
        3    1    3    3  502    0  0.82652214424E+03 -0.40161631038E+03  0.17616430067E+04  0.19869123304E+04  0.10100000352E+00 0.  1.
       -3    1    3    3    0  502 -0.82652214424E+03  0.40161631038E+03 -0.74245060740E+03  0.11813836931E+04  0.10100000352E+00 0. -1.
</event>
<event>
 5   0  0.6464436E-08  0.3023806E+04  0.7818609E-02  0.8236965E-01
        1   -1    0    0  501    0  0.00000000000E+00  0.00000000000E+00  0.20380875375E+04  0.20380875375E+04  0.50400001928E-02 0. -1.
       -1   -1    0    0    0  501  0.00000000000E+00  0.00000000000E+00 -0.11215665771E+04  0.11215665771E+04  0.50400001928E-02 0.  1.
    10030    2    1    2    0    0  0.00000000000E+00  0.00000000000E+00  0.91652096040E+03  0.31596541146E+04  0.30238061202E+04 0.  0.
        5    1    3    3  502    0 -0.14610331513E+03  0.14094135230E+04 -0.92719993219E+02  0.14200041354E+04  0.46999998093E+01 0. -1.
       -5    1    3    3    0  502  0.14610331513E+03 -0.14094135230E+04  0.10092409536E+04  0.17396499791E+04  0.46999998093E+01 0.  1.
</event>
<event>
 5   0  0.1914439E-07  0.2999524E+04  0.7818609E-02  0.8243867E-01
        2   -1    0    0  501    0  0.00000000000E+00  0.00000000000E+00  0.20810386944E+04  0.20810386944E+04  0.25500000920E-02 0.  1.
       -2   -1    0    0    0  501  0.00000000000E+00  0.00000000000E+00 -0.10808479064E+04  0.10808479064E+04  0.25500000920E-02 0. -1.
    10030    2    1    2    0    0  0.00000000000E+00  0.00000000000E+00  0.10001907880E+04  0.31618866009E+04  0.29995241730E+04 0.  0.
        5    1    3    3  502    0 -0.89736491845E+03 -0.75239117179E+03 -0.48758950963E+03  0.12685116839E+04  0.46999998093E+01 0.  1.
       -5    1    3    3    0  502  0.89736491845E+03  0.75239117179E+03  0.14877802976E+04  0.18933749170E+04  0.46999998093E+01 0. -1.
</event>
<event>
 5   0  0.1813720E-07  0.3000465E+04  0.7818609E-02  0.8243598E-01
       -2   -1    0    0    0  501  0.00000000000E+00  0.00000000000E+00  0.21644419210E+04  0.21644419210E+04  0.25500000920E-02 0. -1.
        2   -1    0    0  501    0  0.00000000000E+00  0.00000000000E+00 -0.10398512258E+04  0.10398512258E+04  0.25500000920E-02 0.  1.
    10030    2    1    2    0    0  0.00000000000E+00  0.00000000000E+00  0.11245906952E+04  0.32042931468E+04  0.30004650204E+04 0.  0.
        3    1    3    3  502    0 -0.91751513571E+03 -0.76628418838E+03  0.15303345413E+04  0.19418932258E+04  0.10100000352E+00 0.  1.
       -3    1    3    3    0  502  0.91751513571E+03  0.76628418838E+03 -0.40574384617E+03  0.12623999210E+04  0.10100000352E+00 0. -1.
</event>
<event>
 5   0  0.6679022E-08  0.3000085E+04  0.7818609E-02  0.8243707E-01
        1   -1    0    0  501    0  0.00000000000E+00  0.00000000000E+00  0.12382455535E+04  0.12382455535E+04  0.50400001928E-02 0. -1.
       -1   -1    0    0    0  501  0.00000000000E+00  0.00000000000E+00 -0.18171904919E+04  0.18171904919E+04  0.50400001928E-02 0.  1.
    10030    2    1    2    0    0  0.00000000000E+00  0.00000000000E+00 -0.57894493838E+03  0.30554360454E+04  0.30000853631E+04 0.  0.
        3    1    3    3  502    0 -0.46994492462E+03 -0.79979085916E+03 -0.14900403942E+04  0.17552019932E+04  0.10100000352E+00 0.  1.
       -3    1    3    3    0  502  0.46994492462E+03  0.79979085916E+03  0.91109545580E+03  0.13002340521E+04  0.10100000352E+00 0. -1.
</event>
<event>
 5   0  0.6679022E-08  0.3000780E+04  0.7818609E-02  0.8243508E-01
       -1   -1    0    0    0  501  0.00000000000E+00  0.00000000000E+00  0.10890876640E+04  0.10890876640E+04  0.50400001928E-02 0.  1.
        1   -1    0    0  501    0  0.00000000000E+00  0.00000000000E+00 -0.20670235256E+04  0.20670235256E+04  0.50400001928E-02 0. -1.
    10030    2    1    2    0    0  0.00000000000E+00  0.00000000000E+00 -0.97793586162E+03  0.31561111896E+04  0.30007797807E+04 0.  0.
        3    1    3    3  502    0  0.57325423549E+03 -0.35547090672E+03  0.92062686126E+03  0.11412860342E+04  0.10100000352E+00 0.  1.
       -3    1    3    3    0  502 -0.57325423549E+03  0.35547090672E+03 -0.18985627229E+04  0.20148251554E+04  0.10100000352E+00 0. -1.
</event>
<event>
 5   0  0.6525507E-08  0.2998373E+04  0.7818609E-02  0.8244196E-01
        1   -1    0    0  501    0  0.00000000000E+00  0.00000000000E+00  0.18261215953E+04  0.18261215953E+04  0.50400001928E-02 0.  1.
       -1   -1    0    0    0  501  0.00000000000E+00  0.00000000000E+00 -0.12307832794E+04  0.12307832794E+04  0.50400001928E-02 0. -1.
    10030    2    1    2    0    0  0.00000000000E+00  0.00000000000E+00  0.59533831591E+03  0.30569048747E+04  0.29983728425E+04 0.  0.
        4    1    3    3  502    0 -0.96434810834E+03  0.43950269595E+03  0.13787600178E+04  0.17389970366E+04  0.12699999809E+01 0.  1.
       -4    1    3    3    0  502  0.96434810834E+03 -0.43950269595E+03 -0.78342170188E+03  0.13179078381E+04  0.12699999809E+01 0. -1.
</event>
<event>
 5   0  0.1817566E-07  0.3000831E+04  0.7818609E-02  0.8243494E-01
       -2   -1    0    0    0  501  0.00000000000E+00  0.00000000000E+00  0.13015952222E+04  0.13015952222E+04  0.25500000920E-02 0.  1.
        2   -1    0    0  501    0  0.00000000000E+00  0.00000000000E+00 -0.17296062701E+04  0.17296062702E+04  0.25500000920E-02 0. -1.
    10030    2    1    2    0    0  0.00000000000E+00  0.00000000000E+00 -0.42801104799E+03  0.30312014923E+04  0.30008313898E+04 0.  0.
        1    1    3    3  502    0  0.12222160914E+03  0.62124019458E+03  0.11600442744E+04  0.13215824680E+04  0.50400001928E-02 0.  1.
       -1    1    3    3    0  502 -0.12222160914E+03 -0.62124019458E+03 -0.15880553224E+04  0.17096190243E+04  0.50400001928E-02 0. -1.
</event>
<event>
 5   0  0.1914439E-07  0.2999635E+04  0.7818609E-02  0.8243835E-01
       -2   -1    0    0    0  501  0.00000000000E+00  0.00000000000E+00  0.91089853015E+03  0.91089853015E+03  0.25500000920E-02 0. -1.
        2   -1    0    0  501    0  0.00000000000E+00  0.00000000000E+00 -0.24694869185E+04  0.24694869185E+04  0.25500000920E-02 0.  1.
    10030    2    1    2    0    0  0.00000000000E+00  0.00000000000E+00 -0.15585883884E+04  0.33803854487E+04  0.29996346473E+04 0.  0.
        5    1    3    3  502    0  0.13870023838E+04  0.25114576281E+03 -0.20182506382E+03  0.14239400455E+04  0.46999998093E+01 0. -1.
       -5    1    3    3    0  502 -0.13870023838E+04 -0.25114576281E+03 -0.13567633246E+04  0.19564454032E+04  0.46999998093E+01 0.  1.
</event>
<event>
 5   0  0.1821305E-07  0.3000189E+04  0.7818609E-02  0.8243677E-01
        2   -1    0    0  501    0  0.00000000000E+00  0.00000000000E+00  0.21690861783E+04  0.21690861783E+04  0.25500000920E-02 0.  1.
       -2   -1    0    0    0  501  0.00000000000E+00  0.00000000000E+00 -0.10374335694E+04  0.10374335694E+04  0.25500000920E-02 0. -1.
    10030    2    1    2    0    0  0.00000000000E+00  0.00000000000E+00  0.11316526089E+04  0.32065197477E+04  0.30001885383E+04 0.  0.
        2    1    3    3  502    0 -0.31968451180E+03  0.55513684711E+02  0.21311325178E+04  0.21556914818E+04  0.25500000920E-02 0.  1.
       -2    1    3    3    0  502  0.31968451180E+03 -0.55513684711E+02 -0.99947990890E+03  0.10508282660E+04  0.25500000920E-02 0. -1.
</event>
<event>
 5   0  0.1813720E-07  0.3000610E+04  0.7818609E-02  0.8243557E-01
        2   -1    0    0  501    0  0.00000000000E+00  0.00000000000E+00  0.11265434653E+04  0.11265434653E+04  0.25500000920E-02 0. -1.
       -2   -1    0    0    0  501  0.00000000000E+00  0.00000000000E+00 -0.19980727198E+04  0.19980727198E+04  0.25500000920E-02 0.  1.
    10030    2    1    2    0    0  0.00000000000E+00  0.00000000000E+00 -0.87152925450E+03  0.31246161851E+04  0.30006104483E+04 0.  0.
        3    1    3    3  502    0  0.17896850525E+03 -0.13690880316E+03  0.11088225232E+04  0.11314862546E+04  0.10100000352E+00 0. -1.
       -3    1    3    3    0  502 -0.17896850525E+03  0.13690880316E+03 -0.19803517777E+04  0.19931299305E+04  0.10100000352E+00 0.  1.
</event>
<event>
 5   0  0.6636007E-08  0.3000133E+04  0.7818609E-02  0.8243693E-01
        1   -1    0    0  501    0  0.00000000000E+00  0.00000000000E+00  0.30521190753E+04  0.30521190753E+04  0.50400001928E-02 0. -1.
       -1   -1    0    0    0  501  0.00000000000E+00  0.00000000000E+00 -0.73725790043E+03  0.73725790045E+03  0.50400001928E-02 0.  1.
    10030    2    1    2    0    0  0.00000000000E+00  0.00000000000E+00  0.23148611749E+04  0.37893769758E+04  0.30001325980E+04 0.  0.
        2    1    3    3  502    0 -0.88698323865E+03  0.53849566231E+03  0.25256810039E+04  0.27305276738E+04  0.25500000920E-02 0. -1.
       -2    1    3    3    0  502  0.88698323865E+03 -0.53849566231E+03 -0.21081982900E+03  0.10588493020E+04  0.25500000920E-02 0.  1.
</event>
<event>
 5   0  0.6374748E-08  0.2999937E+04  0.7818609E-02  0.8243749E-01
        1   -1    0    0  501    0  0.00000000000E+00  0.00000000000E+00  0.21672869052E+04  0.21672869052E+04  0.50400001928E-02 0. -1.
       -1   -1    0    0    0  501  0.00000000000E+00  0.00000000000E+00 -0.10381206617E+04  0.10381206618E+04  0.50400001928E-02 0.  1.
    10030    2    1    2    0    0  0.00000000000E+00  0.00000000000E+00  0.11291662434E+04  0.32054075669E+04  0.29999368768E+04 0.  0.
        1    1    3    3  502    0 -0.19919615286E+03  0.59352489420E+03  0.20210099411E+04  0.21157580414E+04  0.50400001928E-02 0. -1.
       -1    1    3    3    0  502  0.19919615286E+03 -0.59352489420E+03 -0.89184369773E+03  0.10896495256E+04  0.50400001928E-02 0.  1.
</event>
<event>
 5   0  0.1813720E-07  0.3001263E+04  0.7818609E-02  0.8243370E-01
        2   -1    0    0  501    0  0.00000000000E+00  0.00000000000E+00  0.14606142163E+04  0.14606142163E+04  0.25500000920E-02 0.  1.
       -2   -1    0    0    0  501  0.00000000000E+00  0.00000000000E+00 -0.15417447236E+04  0.15417447236E+04  0.25500000920E-02 0. -1.
    10030    2    1    2    0    0  0.00000000000E+00  0.00000000000E+00 -0.81130507284E+02  0.30023589399E+04  0.30012625751E+04 0.  0.
        3    1    3    3  502    0 -0.18399707336E+03 -0.14811768434E+04  0.11490865811E+03  0.14969782143E+04  0.10100000352E+00 0. -1.
       -3    1    3    3    0  502  0.18399707336E+03  0.14811768434E+04 -0.19603916539E+03  0.15053807256E+04  0.10100000352E+00 0.  1.
</event>
<event>
 5   0  0.1914439E-07  0.2999449E+04  0.7818609E-02  0.8243888E-01
       -2   -1    0    0    0  501  0.00000000000E+00  0.00000000000E+00  0.94813706581E+03  0.94813706582E+03  0.25500000920E-02 0.  1.
        2   -1    0    0  501    0  0.00000000000E+00  0.00000000000E+00 -0.23722034942E+04  0.23722034942E+04  0.25500000920E-02 0. -1.
    10030    2    1    2    0    0  0.00000000000E+00  0.00000000000E+00 -0.14240664284E+04  0.33203405600E+04  0.29994493231E+04 0.  0.
        5    1    3    3  502    0 -0.16978860685E+03 -0.70889070360E+02 -0.23596538869E+04  0.23668210721E+04  0.46999998093E+01 0. -1.
       -5    1    3    3    0  502  0.16978860685E+03  0.70889070360E+02  0.93558745852E+03  0.95351948792E+03  0.46999998093E+01 0.  1.
</event>
<event>
 5   0  0.6679022E-08  0.3000754E+04  0.7818609E-02  0.8243515E-01
        1   -1    0    0  501    0  0.00000000000E+00  0.00000000000E+00  0.18595197683E+04  0.18595197683E+04  0.50400001928E-02 0. -1.
       -1   -1    0    0    0  501  0.00000000000E+00  0.00000000000E+00 -0.12105984516E+04  0.12105984516E+04  0.50400001928E-02 0.  1.
    10030    2    1    2    0    0  0.00000000000E+00  0.00000000000E+00  0.64892131674E+03  0.30701182199E+04  0.30007544066E+04 0.  0.
        3    1    3    3  502    0  0.19327049888E+03  0.83683212263E+03  0.15831381354E+04  0.18011018442E+04  0.10100000352E+00 0. -1.
       -3    1    3    3    0  502 -0.19327049888E+03 -0.83683212263E+03 -0.93421681868E+03  0.12690163757E+04  0.10100000352E+00 0.  1.
</event>
<event>
 5   0  0.6525507E-08  0.3000163E+04  0.7818609E-02  0.8243684E-01
       -1   -1    0    0    0  501  0.00000000000E+00  0.00000000000E+00  0.13978887790E+04  0.13978887790E+04  0.50400001928E-02 0.  1.
        1   -1    0    0  501    0  0.00000000000E+00  0.00000000000E+00 -0.16097453060E+04  0.16097453060E+04  0.50400001928E-02 0. -1.
    10030    2    1    2    0    0  0.00000000000E+00  0.00000000000E+00 -0.21185652701E+03  0.30076340851E+04  0.30001632625E+04 0.  0.
        4    1    3    3  502    0 -0.19914475179E+03 -0.14827798571E+04  0.36533583427E+01  0.14960981575E+04  0.12699999809E+01 0. -1.
       -4    1    3    3    0  502  0.19914475179E+03  0.14827798571E+04 -0.21550988535E+03  0.15115359276E+04  0.12699999809E+01 0.  1.
</event>
<event>
 5   0  0.6636007E-08  0.3002020E+04  0.7818609E-02  0.8243154E-01
       -1   -1    0    0    0  501  0.00000000000E+00  0.00000000000E+00  0.24565520009E+04  0.24565520009E+04  0.50400001928E-02 0. -1.
        1   -1    0    0  501    0  0.00000000000E+00  0.00000000000E+00 -0.91715196554E+03  0.91715196555E+03  0.50400001928E-02 0.  1.
    10030    2    1    2    0    0  0.00000000000E+00  0.00000000000E+00  0.15394000353E+04  0.33737039664E+04  0.30020203171E+04 0.  0.
        2    1    3    3  502    0 -0.53503706554E+03  0.76938152636E+03  0.20873986396E+04  0.22881096292E+04  0.25500000920E-02 0. -1.
       -2    1    3    3    0  502  0.53503706554E+03 -0.76938152636E+03 -0.54799860432E+03  0.10855943372E+04  0.25500000920E-02 0.  1.
</event>
<event>
 5   0  0.1810055E-07  0.3000086E+04  0.7818609E-02  0.8243706E-01
        2   -1    0    0  501    0  0.00000000000E+00  0.00000000000E+00  0.17900824388E+04  0.17900824388E+04  0.25500000920E-02 0.  1.
       -2   -1    0    0    0  501  0.00000000000E+00  0.00000000000E+00 -0.12569970030E+04  0.12569970030E+04  0.25500000920E-02 0. -1.
    10030    2    1    2    0    0  0.00000000000E+00  0.00000000000E+00  0.53308543580E+03  0.30470794418E+04  0.30000855059E+04 0.  0.
        4    1    3    3  502    0 -0.31069013533E+03  0.88865636817E+03  0.14526924683E+04  0.17310561866E+04  0.12699999809E+01 0.  1.
       -4    1    3    3    0  502  0.31069013533E+03 -0.88865636817E+03 -0.91960703251E+03  0.13160232551E+04  0.12699999809E+01 0. -1.
</event>
<event>
 5   0  0.6464436E-08  0.3000012E+04  0.7818609E-02  0.8243727E-01
       -1   -1    0    0    0  501  0.00000000000E+00  0.00000000000E+00  0.12459281389E+04  0.12459281389E+04  0.50400001928E-02 0.  1.
        1   -1    0    0  501    0  0.00000000000E+00  0.00000000000E+00 -0.18058971387E+04  0.18058971387E+04  0.50400001928E-02 0. -1.
    10030    2    1    2    0    0  0.00000000000E+00  0.00000000000E+00 -0.55996899974E+03  0.30518252776E+04  0.30000120407E+04 0.  0.
        5    1    3    3  502    0 -0.84376945768E+03  0.11957727590E+04  0.54598057392E+02  0.14645212278E+04  0.46999998093E+01 0.  1.
       -5    1    3    3    0  502  0.84376945768E+03 -0.11957727590E+04 -0.61456705713E+03  0.15873040498E+04  0.46999998093E+01 0. -1.
</event>
<event>
 5   0  0.1914439E-07  0.3001699E+04  0.7818609E-02  0.8243246E-01
       -2   -1    0    0    0  501  0.00000000000E+00  0.00000000000E+00  0.10163539620E+04  0.10163539620E+04  0.25500000920E-02 0.  1.
        2   -1    0    0  501    0  0.00000000000E+00  0.00000000000E+00 -0.22163045202E+04  0.22163045203E+04  0.25500000920E-02 0. -1.
    10030    2    1    2    0    0  0.00000000000E+00  0.00000000000E+00 -0.11999505582E+04  0.32326584823E+04  0.30016994388E+04 0.  0.
        5    1    3    3  502    0  0.14818781226E+04  0.20180773877E+03 -0.46444017498E+03  0.15660191250E+04  0.46999998093E+01 0.  1.
       -5    1    3    3    0  502 -0.14818781226E+04 -0.20180773877E+03 -0.73551038323E+03  0.16666393573E+04  0.46999998093E+01 0. -1.
</event>
<event>
 5   0  0.6636007E-08  0.3000688E+04  0.7818609E-02  0.8243534E-01
       -1   -1    0    0    0  501  0.00000000000E+00  0.00000000000E+00  0.17072751017E+04  0.17072751017E+04  0.50400001928E-02 0. -1.
        1   -1    0    0  501    0  0.00000000000E+00  0.00000000000E+00 -0.13184941708E+04  0.13184941708E+04  0.50400001928E-02 0.  1.
    10030    2    1    2    0    0  0.00000000000E+00  0.00000000000E+00  0.38878093097E+03  0.30257692725E+04  0.30006881008E+04 0.  0.
        2    1    3    3  502    0  0.13369542660E+04 -0.67456034381E+03  0.10113010104E+03  0.15009016171E+04  0.25500000920E-02 0.  1.
       -2    1    3    3    0  502 -0.13369542660E+04  0.67456034381E+03  0.28765082993E+03  0.15248676555E+04  0.25500000920E-02 0. -1.
</event>
<event>
 5   0  0.1817566E-07  0.2999779E+04  0.7818609E-02  0.8243794E-01
        2   -1    0    0  501    0  0.00000000000E+00  0.00000000000E+00  0.21545339233E+04  0.21545339233E+04  0.25500000920E-02 0. -1.
       -2   -1    0    0    0  501  0.00000000000E+00  0.00000000000E+00 -0.10441555956E+04  0.10441555956E+04  0.25500000920E-02 0.  1.
    10030    2    1    2    0    0  0.00000000000E+00  0.00000000000E+00  0.11103783277E+04  0.31986895189E+04  0.29997790932E+04 0.  0.
        1    1    3    3  502    0 -0.34457696917E+03 -0.14999821296E+03 -0.99313900303E+03  0.10618652603E+04  0.50400001928E-02 0.  1.
       -1    1    3    3    0  502  0.34457696917E+03  0.14999821296E+03  0.21035173308E+04  0.21368242587E+04  0.50400001928E-02 0. -1.
</event>
<event>
 5   0  0.6464436E-08  0.3001363E+04  0.7818609E-02  0.8243342E-01
       -1   -1    0    0    0  501  0.00000000000E+00  0.00000000000E+00  0.92182010004E+03  0.92182010005E+03  0.50400001928E-02 0.  1.
        1   -1    0    0  501    0  0.00000000000E+00  0.00000000000E+00 -0.24430412690E+04  0.24430412690E+04  0.50400001928E-02 0. -1.
    10030    2    1    2    0    0  0.00000000000E+00  0.00000000000E+00 -0.15212211689E+04  0.33648613690E+04  0.30013627218E+04 0.  0.
        5    1    3    3  502    0 -0.89899998613E+03 -0.30837597635E+03 -0.20626091774E+04  0.22710516125E+04  0.46999998093E+01 0. -1.
       -5    1    3    3    0  502  0.89899998613E+03  0.30837597635E+03  0.54138800845E+03  0.10938097566E+04  0.46999998093E+01 0.  1.
</event>
<event>
 5   0  0.6636007E-08  0.2999919E+04  0.7818609E-02  0.8243754E-01
       -1   -1    0    0    0  501  0.00000000000E+00  0.00000000000E+00  0.17180268647E+04  0.17180268648E+04  0.50400001928E-02 0. -1.
        1   -1    0    0  501    0  0.00000000000E+00  0.00000000000E+00 -0.13095711988E+04  0.13095711988E+04  0.50400001928E-02 0.  1.
    10030    2    1    2    0    0  0.00000000000E+00  0.00000000000E+00  0.40845566591E+03  0.30275980636E+04  0.29999189995E+04 0.  0.
        2    1    3    3  502    0 -0.83120427904E+03 -0.12044496902E+04  0.53632149711E+03  0.15586020525E+04  0.25500000920E-02 0.  1.
       -2    1    3    3    0  502  0.83120427904E+03  0.12044496902E+04 -0.12786583120E+03  0.14689960111E+04  0.25500000920E-02 0. -1.
</event>
<event>
 5   0  0.1821305E-07  0.2997415E+04  0.7818609E-02  0.8244469E-01
       -2   -1    0    0    0  501  0.00000000000E+00  0.00000000000E+00  0.23846806008E+04  0.23846806008E+04  0.25500000920E-02 0.  1.
        2   -1    0    0  501    0  0.00000000000E+00  0.00000000000E+00 -0.94189719723E+03  0.94189719723E+03  0.25500000920E-02 0. -1.
    10030    2    1    2    0    0  0.00000000000E+00  0.00000000000E+00  0.14427834036E+04  0.33265777981E+04  0.29974148690E+04 0.  0.
        2    1    3    3  502    0 -0.10553462325E+04  0.85902020794E+03  0.14184165030E+04  0.19655983222E+04  0.25500000920E-02 0.  1.
       -2    1    3    3    0  502  0.10553462325E+04 -0.85902020794E+03  0.24366900605E+02  0.13609794759E+04  0.25500000920E-02 0. -1.
</event>
<event>
 5   0  0.1821305E-07  0.3003837E+04  0.7818609E-02  0.8242636E-01
        2   -1    0    0  501    0  0.00000000000E+00  0.00000000000E+00  0.21883055823E+04  0.21883055823E+04  0.25500000920E-02 0. -1.
       -2   -1    0    0    0  501  0.00000000000E+00  0.00000000000E+00 -0.10308248536E+04  0.10308248536E+04  0.25500000920E-02 0.  1.
    10030    2    1    2    0    0  0.00000000000E+00  0.00000000000E+00  0.11574807287E+04  0.32191304358E+04  0.30038374000E+04 0.  0.
        2    1    3    3  502    0  0.88108986279E+03  0.90908984744E+03  0.14447394679E+04  0.19209465967E+04  0.25500000920E-02 0. -1.
       -2    1    3    3    0  502 -0.88108986279E+03 -0.90908984744E+03 -0.28725873922E+03  0.12981838392E+04  0.25500000920E-02 0.  1.
</event>
<event>
 5   0  0.1810055E-07  0.3000146E+04  0.7818609E-02  0.8243689E-01
        2   -1    0    0  501    0  0.00000000000E+00  0.00000000000E+00  0.16642830519E+04  0.16642830519E+04  0.25500000920E-02 0.  1.
       -2   -1    0    0    0  501  0.00000000000E+00  0.00000000000E+00 -0.13520648721E+04  0.13520648721E+04  0.25500000920E-02 0. -1.
    10030    2    1    2    0    0  0.00000000000E+00  0.00000000000E+00  0.31221817979E+03  0.30163479239E+04  0.30001457642E+04 0.  0.
        4    1    3    3  502    0  0.10006782750E+04  0.11113156192E+04  0.27437779145E+03  0.15204157987E+04  0.12699999809E+01 0.  1.
       -4    1    3    3    0  502 -0.10006782750E+04 -0.11113156192E+04  0.37840388340E+02  0.14959321253E+04  0.12699999809E+01 0. -1.
</event>
<event>
 5   0  0.1821305E-07  0.2999616E+04  0.7818609E-02  0.8243840E-01
       -2   -1    0    0    0  501  0.00000000000E+00  0.00000000000E+00  0.18849144576E+04  0.18849144576E+04  0.25500000920E-02 0.  1.
        2   -1    0    0  501    0  0.00000000000E+00  0.00000000000E+00 -0.11933828891E+04  0.11933828891E+04  0.25500000920E-02 0. -1.
    10030    2    1    2    0    0  0.00000000000E+00  0.00000000000E+00  0.69153156853E+03  0.30782973467E+04  0.29996164162E+04 0.  0.
        2    1    3    3  502    0 -0.83284272118E+03 -0.11941586382E+04  0.71546917363E+03  0.16222015873E+04  0.25500000920E-02 0.  1.
       -2    1    3    3    0  502  0.83284272118E+03  0.11941586382E+04 -0.23937605108E+02  0.14560957594E+04  0.25500000920E-02 0. -1.
</event>
<event>
 5   0  0.1821305E-07  0.2999191E+04  0.7818609E-02  0.8243962E-01
       -2   -1    0    0    0  501  0.00000000000E+00  0.00000000000E+00  0.14830714674E+04  0.14830714674E+04  0.25500000920E-02 0. -1.
        2   -1    0    0  501    0  0.00000000000E+00  0.00000000000E+00 -0.15163037094E+04  0.15163037094E+04  0.25500000920E-02 0.  1.
    10030    2    1    2    0    0  0.00000000000E+00  0.00000000000E+00 -0.33232242012E+02  0.29993751768E+04  0.29991910692E+04 0.  0.
        2    1    3    3  502    0  0.32065657628E+03  0.86068330492E+03  0.11688639078E+04  0.14865527997E+04  0.25500000920E-02 0. -1.
       -2    1    3    3    0  502 -0.32065657628E+03 -0.86068330492E+03 -0.12020961498E+04  0.15128223771E+04  0.25500000920E-02 0.  1.
</event>
<event>
 5   0  0.1813720E-07  0.2997867E+04  0.7818609E-02  0.8244340E-01
        2   -1    0    0  501    0  0.00000000000E+00  0.00000000000E+00  0.10534792505E+04  0.10534792505E+04  0.25500000920E-02 0. -1.
       -2   -1    0    0    0  501  0.00000000000E+00  0.00000000000E+00 -0.21327438684E+04  0.21327438684E+04  0.25500000920E-02 0.  1.
    10030    2    1    2    0    0  0.00000000000E+00  0.00000000000E+00 -0.10792646179E+04  0.31862231189E+04  0.29978668495E+04 0.  0.
        3    1    3    3  502    0 -0.19016075209E+03 -0.11786265044E+04 -0.15029339567E+04  0.19194092938E+04  0.10100000352E+00 0.  1.
       -3    1    3    3    0  502  0.19016075209E+03  0.11786265044E+04  0.42366933878E+03  0.12668138251E+04  0.10100000352E+00 0. -1.
</event>
<event>
 5   0  0.6525507E-08  0.3000377E+04  0.7818609E-02  0.8243623E-01
       -1   -1    0    0    0  501  0.00000000000E+00  0.00000000000E+00  0.12171684473E+04  0.12171684473E+04  0.50400001928E-02 0.  1.
        1   -1    0    0  501    0  0.00000000000E+00  0.00000000000E+00 -0.18490167123E+04  0.18490167123E+04  0.50400001928E-02 0. -1.
    10030    2    1    2    0    0  0.00000000000E+00  0.00000000000E+00 -0.63184826497E+03  0.30661851596E+04  0.30003765103E+04 0.  0.
        4    1    3    3  502    0 -0.84739230474E+03  0.81716437854E+03  0.63438159724E+03  0.13372632364E+04  0.12699999809E+01 0.  1.
       -4    1    3    3    0  502  0.84739230474E+03 -0.81716437854E+03 -0.12662298622E+04  0.17289219232E+04  0.12699999809E+01 0. -1.
</event>
<event>
 5   0  0.6374748E-08  0.2999732E+04  0.7818609E-02  0.8243807E-01
       -1   -1    0    0    0  501  0.00000000000E+00  0.00000000000E+00  0.17546434100E+04  0.17546434100E+04  0.50400001928E-02 0. -1.
        1   -1    0    0  501    0  0.00000000000E+00  0.00000000000E+00 -0.12820825663E+04  0.12820825664E+04  0.50400001928E-02 0.  1.
    10030    2    1    2    0    0  0.00000000000E+00  0.00000000000E+00  0.47256084368E+03  0.30367259764E+04  0.29997318055E+04 0.  0.
        1    1    3    3  502    0  0.40909571986E+03  0.29093208148E+03  0.16670744172E+04  0.17410163401E+04  0.50400001928E-02 0. -1.
       -1    1    3    3    0  502 -0.40909571986E+03 -0.29093208148E+03 -0.11945135735E+04  0.12957096362E+04  0.50400001928E-02 0.  1.
</event>
<event>
 5   0  0.6679022E-08  0.2999715E+04  0.7818609E-02  0.8243812E-01
       -1   -1    0    0    0  501  0.00000000000E+00  0.00000000000E+00  0.11245023396E+04  0.11245023397E+04  0.50400001928E-02 0. -1.
        1   -1    0    0  501    0  0.00000000000E+00  0.00000000000E+00 -0.20005051092E+04  0.20005051092E+04  0.50400001928E-02 0.  1.
    10030    2    1    2    0    0  0.00000000000E+00  0.00000000000E+00 -0.87600276953E+03  0.31250074488E+04  0.29997151037E+04 0.  0.
        3    1    3    3  502    0  0.14188853876E+03  0.12634789018E+04  0.39088299359E+03  0.13301506747E+04  0.10100000352E+00 0.  1.
       -3    1    3    3    0  502 -0.14188853876E+03 -0.12634789018E+04 -0.12668857631E+04  0.17948567741E+04  0.10100000352E+00 0. -1.
</event>
<event>
 5   0  0.6636007E-08  0.3000480E+04  0.7818609E-02  0.8243594E-01
       -1   -1    0    0    0  501  0.00000000000E+00  0.00000000000E+00  0.26967193258E+04  0.26967193258E+04  0.50400001928E-02 0.  1.
        1   -1    0    0  501    0  0.00000000000E+00  0.00000000000E+00 -0.83461425347E+03  0.83461425349E+03  0.50400001928E-02 0. -1.
    10030    2    1    2    0    0  0.00000000000E+00  0.00000000000E+00  0.18621050723E+04  0.35313335793E+04  0.30004802195E+04 0.  0.
        2    1    3    3  502    0 -0.42479770093E+03 -0.13102750552E+04  0.16307493043E+04  0.21346234095E+04  0.25500000920E-02 0.  1.
       -2    1    3    3    0  502  0.42479770093E+03  0.13102750552E+04  0.23135576798E+03  0.13967101698E+04  0.25500000920E-02 0. -1.
</event>
<event>
 5   0  0.6374748E-08  0.2999979E+04  0.7818609E-02  0.8243737E-01
        1   -1    0    0  501    0  0.00000000000E+00  0.00000000000E+00  0.13165052378E+04  0.13165052378E+04  0.50400001928E-02 0. -1.
       -1   -1    0    0    0  501  0.00000000000E+00  0.00000000000E+00 -0.17090468305E+04  0.17090468305E+04  0.50400001928E-02 0.  1.
    10030    2    1    2    0    0  0.00000000000E+00  0.00000000000E+00 -0.39254159276E+03  0.30255520683E+04  0.29999794026E+04 0.  0.
        1    1    3    3  502    0 -0.20461801100E+03  0.92694647618E+03  0.97503835293E+03  0.13608078813E+04  0.50400001928E-02 0. -1.
       -1    1    3    3    0  502  0.20461801100E+03 -0.92694647618E+03 -0.13675799457E+04  0.16647441870E+04  0.50400001928E-02 0.  1.
</event>
<event>
 5   0  0.1810055E-07  0.3000459E+04  0.7818609E-02  0.8243600E-01
       -2   -1    0    0    0  501  0.00000000000E+00  0.00000000000E+00  0.83448530504E+03  0.83448530504E+03  0.25500000920E-02 0.  1.
        2   -1    0    0  501    0  0.00000000000E+00  0.00000000000E+00 -0.26970975961E+04  0.26970975961E+04  0.25500000920E-02 0. -1.
    10030    2    1    2    0    0  0.00000000000E+00  0.00000000000E+00 -0.18626122910E+04  0.35315829011E+04  0.30004588384E+04 0.  0.
        4    1    3    3  502    0 -0.14238020632E+04 -0.31793491134E+03 -0.51953316344E+03  0.15486159123E+04  0.12699999809E+01 0.  1.
       -4    1    3    3    0  502  0.14238020632E+04  0.31793491134E+03 -0.13430791276E+04  0.19829669888E+04  0.12699999809E+01 0. -1.
</event>
<event>
 5   0  0.1810055E-07  0.2997530E+04  0.7818609E-02  0.8244436E-01
        2   -1    0    0  501    0  0.00000000000E+00  0.00000000000E+00  0.20066466751E+04  0.20066466751E+04  0.25500000920E-02 0.  1.
       -2   -1    0    0    0  501  0.00000000000E+00  0.00000000000E+00 -0.11194282609E+04  0.11194282609E+04  0.25500000920E-02 0. -1.
    10030    2    1    2    0    0  0.00000000000E+00  0.00000000000E+00  0.88721841421E+03  0.31260749360E+04  0.29975303152E+04 0.  0.
        4    1    3    3  502    0  0.12074333401E+04 -0.83165284737E+03  0.76800072609E+03  0.16551037604E+04  0.12699999809E+01 0.  1.
       -4    1    3    3    0  502 -0.12074333401E+04  0.83165284737E+03  0.11921768812E+03  0.14709711756E+04  0.12699999809E+01 0. -1.
</event>
<event>
 5   0  0.1821305E-07  0.3000242E+04  0.7818609E-02  0.8243662E-01
       -2   -1    0    0    0  501  0.00000000000E+00  0.00000000000E+00  0.11275934746E+04  0.11275934746E+04  0.25500000920E-02 0. -1.
        2   -1    0    0  501    0  0.00000000000E+00  0.00000000000E+00 -0.19957222717E+04  0.19957222717E+04  0.25500000920E-02 0.  1.
    10030    2    1    2    0    0  0.00000000000E+00  0.00000000000E+00 -0.86812879715E+03  0.31233157464E+04  0.30002422640E+04 0.  0.
        2    1    3    3  502    0 -0.81332590101E+03  0.29248847458E+03 -0.17104577826E+04  0.19164327161E+04  0.25500000920E-02 0.  1.
       -2    1    3    3    0  502  0.81332590101E+03 -0.29248847458E+03  0.84232898549E+03  0.12068830303E+04  0.25500000920E-02 0. -1.
</event>
<event>
 5   0  0.6017625E-08  0.3000834E+04  0.7818609E-02  0.8243493E-01
       -3   -1    0    0    0  501  0.00000000000E+00  0.00000000000E+00  0.15407083082E+04  0.15407083115E+04  0.10100000352E+00 0.  1.
        3   -1    0    0  501    0  0.00000000000E+00  0.00000000000E+00 -0.14611797300E+04  0.14611797334E+04  0.10100000352E+00 0. -1.
    10030    2    1    2    0    0  0.00000000000E+00  0.00000000000E+00  0.79528578261E+02  0.30018880450E+04  0.30008343906E+04 0.  0.
        2    1    3    3  502    0 -0.37569282677E+03  0.20742729976E+03  0.14780036359E+04  0.15390470859E+04  0.25500000920E-02 0.  1.
       -2    1    3    3    0  502  0.37569282677E+03 -0.20742729976E+03 -0.13984750576E+04  0.14628409591E+04  0.25500000920E-02 0. -1.
</event>
<event>
 5   0  0.6525507E-08  0.3002652E+04  0.7818609E-02  0.8242974E-01
        1   -1    0    0  501    0  0.00000000000E+00  0.00000000000E+00  0.12512704492E+04  0.12512704492E+04  0.50400001928E-02 0. -1.
       -1   -1    0    0    0  501  0.00000000000E+00  0.00000000000E+00 -0.18013525435E+04  0.18013525435E+04  0.50400001928E-02 0.  1.
    10030    2    1    2    0    0  0.00000000000E+00  0.00000000000E+00 -0.55008209430E+03  0.30526229928E+04  0.30026516324E+04 0.  0.
        4    1    3    3  502    0 -0.13005582059E+04 -0.21052126371E+03  0.45680503653E+03  0.13944329685E+04  0.12699999809E+01 0. -1.
       -4    1    3    3    0  502  0.13005582059E+04  0.21052126371E+03 -0.10068871308E+04  0.16581900243E+04  0.12699999809E+01 0.  1.
</event>
<event>
 5   0  0.6679022E-08  0.2993903E+04  0.7818609E-02  0.8245474E-01
       -1   -1    0    0    0  501  0.00000000000E+00  0.00000000000E+00  0.10905262908E+04  0.10905262908E+04  0.50400001928E-02 0. -1.
        1   -1    0    0  501    0  0.00000000000E+00  0.00000000000E+00 -0.20548462182E+04  0.20548462182E+04  0.50400001928E-02 0.  1.
    10030    2    1    2    0    0  0.00000000000E+00  0.00000000000E+00 -0.96431992741E+03  0.31453725090E+04  0.29939030208E+04 0.  0.
        3    1    3    3  502    0 -0.12039262318E+04 -0.37704760331E+02 -0.14159493786E+04  0.18589708641E+04  0.10100000352E+00 0.  1.
       -3    1    3    3    0  502  0.12039262318E+04  0.37704760331E+02  0.45162945122E+03  0.12864016449E+04  0.10100000352E+00 0. -1.
</event>
<event>
 5   0  0.6525507E-08  0.3000405E+04  0.7818609E-02  0.8243615E-01
       -1   -1    0    0    0  501  0.00000000000E+00  0.00000000000E+00  0.97553542216E+03  0.97553542217E+03  0.50400001928E-02 0. -1.
        1   -1    0    0  501    0  0.00000000000E+00  0.00000000000E+00 -0.23070486447E+04  0.23070486447E+04  0.50400001928E-02 0.  1.
    10030    2    1    2    0    0  0.00000000000E+00  0.00000000000E+00 -0.13315132226E+04  0.32825840669E+04  0.30004050884E+04 0.  0.
        4    1    3    3  502    0  0.63133539454E+03 -0.89299735687E+03 -0.17892620887E+04  0.20970190973E+04  0.12699999809E+01 0.  1.
       -4    1    3    3    0  502 -0.63133539454E+03  0.89299735687E+03  0.45774886609E+03  0.11855649696E+04  0.12699999809E+01 0. -1.
</event>
<event>
 5   0  0.6525507E-08  0.2999900E+04  0.7818609E-02  0.8243759E-01
        1   -1    0    0  501    0  0.00000000000E+00  0.00000000000E+00  0.17628487648E+04  0.17628487648E+04  0.50400001928E-02 0. -1.
       -1   -1    0    0    0  501  0.00000000000E+00  0.00000000000E+00 -0.12762579604E+04  0.12762579604E+04  0.50400001928E-02 0.  1.
    10030    2    1    2    0    0  0.00000000000E+00  0.00000000000E+00  0.48659080447E+03  0.30391067252E+04  0.29998998444E+04 0.  0.
        4    1    3    3  502    0  0.79816829638E+03 -0.11883064097E+02  0.15297875659E+04  0.17255333802E+04  0.12699999809E+01 0. -1.
       -4    1    3    3    0  502 -0.79816829638E+03  0.11883064097E+02 -0.10431967615E+04  0.13135733450E+04  0.12699999809E+01 0.  1.
</event>
<event>
 5   0  0.1817566E-07  0.3000454E+04  0.7818609E-02  0.8243601E-01
       -2   -1    0    0    0  501  0.00000000000E+00  0.00000000000E+00  0.11504172247E+04  0.11504172247E+04  0.25500000920E-02 0. -1.
        2   -1    0    0  501    0  0.00000000000E+00  0.00000000000E+00 -0.19564045048E+04  0.19564045048E+04  0.25500000920E-02 0.  1.
    10030    2    1    2    0    0  0.00000000000E+00  0.00000000000E+00 -0.80598728010E+03  0.31068217295E+04  0.30004542595E+04 0.  0.
        1    1    3    3  502    0 -0.47109891745E+03  0.60684630376E+02 -0.18764889818E+04  0.19356724189E+04  0.50400001928E-02 0.  1.
       -1    1    3    3    0  502  0.47109891745E+03 -0.60684630376E+02  0.10705017017E+04  0.11711493106E+04  0.50400001928E-02 0. -1.
</event>
<event>
 5   0  0.1821305E-07  0.2999966E+04  0.7818609E-02  0.8243741E-01
       -2   -1    0    0    0  501  0.00000000000E+00  0.00000000000E+00  0.99743850486E+03  0.99743850486E+03  0.25500000920E-02 0. -1.
        2   -1    0    0  501    0  0.00000000000E+00  0.00000000000E+00 -0.22557272701E+04  0.22557272701E+04  0.25500000920E-02 0.  1.
    10030    2    1    2    0    0  0.00000000000E+00  0.00000000000E+00 -0.12582887652E+04  0.32531657749E+04  0.29999661569E+04 0.  0.
        2    1    3    3  502    0 -0.55546437460E+02  0.65267065719E+03 -0.20924366565E+04  0.21925682555E+04  0.25500000920E-02 0.  1.
       -2    1    3    3    0  502  0.55546437460E+02 -0.65267065719E+03  0.83414789135E+03  0.10605975194E+04  0.25500000920E-02 0. -1.
</event>
<event>
 5   0  0.1813720E-07  0.3000833E+04  0.7818609E-02  0.8243493E-01
        2   -1    0    0  501    0  0.00000000000E+00  0.00000000000E+00  0.16732308552E+04  0.16732308552E+04  0.25500000920E-02 0. -1.
       -2   -1    0    0    0  501  0.00000000000E+00  0.00000000000E+00 -0.13454505426E+04  0.13454505426E+04  0.25500000920E-02 0.  1.
    10030    2    1    2    0    0  0.00000000000E+00  0.00000000000E+00  0.32778031262E+03  0.30186813978E+04  0.30008327924E+04 0.  0.
        3    1    3    3  502    0  0.64685441622E+03  0.13162049133E+04  0.48268731292E+03  0.15439569494E+04  0.10100000352E+00 0.  1.
       -3    1    3    3    0  502 -0.64685441622E+03 -0.13162049133E+04 -0.15490700030E+03  0.14747244483E+04  0.10100000352E+00 0. -1.
</event>
<event>
 5   0  0.1914439E-07  0.2999972E+04  0.7818609E-02  0.8243739E-01
       -2   -1    0    0    0  501  0.00000000000E+00  0.00000000000E+00  0.10614640071E+04  0.10614640071E+04  0.25500000920E-02 0. -1.
        2   -1    0    0  501    0  0.00000000000E+00  0.00000000000E+00 -0.21196738295E+04  0.21196738295E+04  0.25500000920E-02 0.  1.
    10030    2    1    2    0    0  0.00000000000E+00  0.00000000000E+00 -0.10582098225E+04  0.31811378366E+04  0.29999716510E+04 0.  0.
        5    1    3    3  502    0 -0.29671147721E+03  0.62000453613E+03 -0.19428436915E+04  0.20608510439E+04  0.46999998093E+01 0.  1.
       -5    1    3    3    0  502  0.29671147721E+03 -0.62000453613E+03  0.88463386906E+03  0.11202867927E+04  0.46999998093E+01 0. -1.
</event>
<event>
 5   0  0.6464436E-08  0.3004907E+04  0.7818609E-02  0.8242331E-01
        1   -1    0    0  501    0  0.00000000000E+00  0.00000000000E+00  0.16097648126E+04  0.16097648126E+04  0.50400001928E-02 0.  1.
       -1   -1    0    0    0  501  0.00000000000E+00  0.00000000000E+00 -0.14022954000E+04  0.14022954000E+04  0.50400001928E-02 0. -1.
    10030    2    1    2    0    0  0.00000000000E+00  0.00000000000E+00  0.20746941261E+03  0.30120602126E+04  0.30049065155E+04 0.  0.
        5    1    3    3  502    0 -0.10082491806E+04 -0.28726177655E+03  0.11825207800E+04  0.15803364273E+04  0.46999998093E+01 0.  1.
       -5    1    3    3    0  502  0.10082491806E+04  0.28726177655E+03 -0.97505136735E+03  0.14317237853E+04  0.46999998093E+01 0. -1.
</event>
<event>
 5   0  0.6636007E-08  0.3000073E+04  0.7818609E-02  0.8243710E-01
       -1   -1    0    0    0  501  0.00000000000E+00  0.00000000000E+00  0.21826502305E+04  0.21826502305E+04  0.50400001928E-02 0. -1.
        1   -1    0    0  501    0  0.00000000000E+00  0.00000000000E+00 -0.10309067173E+04  0.10309067173E+04  0.50400001928E-02 0.  1.
    10030    2    1    2    0    0  0.00000000000E+00  0.00000000000E+00  0.11517435132E+04  0.32135569478E+04  0.30000725219E+04 0.  0.
        2    1    3    3  502    0  0.11313309941E+04 -0.92643436264E+03  0.21752384909E+03  0.14783460594E+04  0.25500000920E-02 0.  1.
       -2    1    3    3    0  502 -0.11313309941E+04  0.92643436264E+03  0.93421966411E+03  0.17352108884E+04  0.25500000920E-02 0. -1.
</event>
<event>
 5   0  0.6464436E-08  0.2998835E+04  0.7818609E-02  0.8244064E-01
       -1   -1    0    0    0  501  0.00000000000E+00  0.00000000000E+00  0.11105136250E+04  0.11105136250E+04  0.50400001928E-02 0.  1.
        1   -1    0    0  501    0  0.00000000000E+00  0.00000000000E+00 -0.20245168219E+04  0.20245168219E+04  0.50400001928E-02 0. -1.
    10030    2    1    2    0    0  0.00000000000E+00  0.00000000000E+00 -0.91400319692E+03  0.31350304470E+04  0.29988354506E+04 0.  0.
        5    1    3    3  502    0 -0.28583191948E+03  0.43399826774E+03 -0.19273549150E+04  0.19961897307E+04  0.46999998093E+01 0. -1.
       -5    1    3    3    0  502  0.28583191948E+03 -0.43399826774E+03  0.10133517181E+04  0.11388407163E+04  0.46999998093E+01 0.  1.
</event>
<event>
 5   0  0.1821305E-07  0.3002732E+04  0.7818609E-02  0.8242951E-01
        2   -1    0    0  501    0  0.00000000000E+00  0.00000000000E+00  0.11830820490E+04  0.11830820490E+04  0.25500000920E-02 0.  1.
       -2   -1    0    0    0  501  0.00000000000E+00  0.00000000000E+00 -0.19052775052E+04  0.19052775052E+04  0.25500000920E-02 0. -1.
    10030    2    1    2    0    0  0.00000000000E+00  0.00000000000E+00 -0.72219545619E+03  0.30883595542E+04  0.30027318327E+04 0.  0.
        2    1    3    3  502    0  0.10746692429E+04 -0.35058597240E+03 -0.13773403757E+04  0.17818223863E+04  0.25500000920E-02 0. -1.
       -2    1    3    3    0  502 -0.10746692429E+04  0.35058597240E+03  0.65514491952E+03  0.13065371680E+04  0.25500000920E-02 0.  1.
</event>
<event>
 5   0  0.1817566E-07  0.3000635E+04  0.7818609E-02  0.8243550E-01
        2   -1    0    0  501    0  0.00000000000E+00  0.00000000000E+00  0.27311983647E+04  0.27311983647E+04  0.25500000920E-02 0.  1.
       -2   -1    0    0    0  501  0.00000000000E+00  0.00000000000E+00 -0.82416305554E+03  0.82416305554E+03  0.25500000920E-02 0. -1.
    10030    2    1    2    0    0  0.00000000000E+00  0.00000000000E+00  0.19070353092E+04  0.35553614203E+04  0.30006351258E+04 0.  0.
        1    1    3    3  502    0 -0.70349004582E+03  0.65991117556E+02 -0.61467854340E+03  0.93652697981E+03  0.50400001928E-02 0. -1.
       -1    1    3    3    0  502  0.70349004582E+03 -0.65991117556E+02  0.25217138526E+04  0.26188344405E+04  0.50400001928E-02 0.  1.
</event>
<event>
 5   0  0.1817566E-07  0.3002142E+04  0.7818609E-02  0.8243119E-01
       -2   -1    0    0    0  501  0.00000000000E+00  0.00000000000E+00  0.66616438138E+03  0.66616438139E+03  0.25500000920E-02 0. -1.
        2   -1    0    0  501    0  0.00000000000E+00  0.00000000000E+00 -0.33823697394E+04  0.33823697394E+04  0.25500000920E-02 0.  1.
    10030    2    1    2    0    0  0.00000000000E+00  0.00000000000E+00 -0.27162053580E+04  0.40485341208E+04  0.30021420653E+04 0.  0.
        1    1    3    3  502    0 -0.44411234211E+03 -0.85139282369E+03  0.19776740491E+03  0.98041698226E+03  0.50400001928E-02 0. -1.
       -1    1    3    3    0  502  0.44411234211E+03  0.85139282369E+03 -0.29139727629E+04  0.30681171385E+04  0.50400001928E-02 0.  1.
</event>
<event>
 5   0  0.1813720E-07  0.2999043E+04  0.7818609E-02  0.8244004E-01
       -2   -1    0    0    0  501  0.00000000000E+00  0.00000000000E+00  0.10976330983E+04  0.10976330983E+04  0.25500000920E-02 0. -1.
        2   -1    0    0  501    0  0.00000000000E+00  0.00000000000E+00 -0.20485577535E+04  0.20485577535E+04  0.25500000920E-02 0.  1.
    10030    2    1    2    0    0  0.00000000000E+00  0.00000000000E+00 -0.95092465527E+03  0.31461908518E+04  0.29990430433E+04 0.  0.
        3    1    3    3  502    0  0.36286118079E+03 -0.58170894290E+03  0.92357941857E+03  0.11502401851E+04  0.10100000352E+00 0. -1.
       -3    1    3    3    0  502 -0.36286118079E+03  0.58170894290E+03 -0.18745040738E+04  0.19959506667E+04  0.10100000352E+00 0.  1.
</event>
<event>
 5   0  0.6525507E-08  0.3000562E+04  0.7818609E-02  0.8243570E-01
        1   -1    0    0  501    0  0.00000000000E+00  0.00000000000E+00  0.14230059068E+04  0.14230059068E+04  0.50400001928E-02 0.  1.
       -1   -1    0    0    0  501  0.00000000000E+00  0.00000000000E+00 -0.15817522155E+04  0.15817522156E+04  0.50400001928E-02 0. -1.
    10030    2    1    2    0    0  0.00000000000E+00  0.00000000000E+00 -0.15874630876E+03  0.30047581223E+04  0.30005617779E+04 0.  0.
        4    1    3    3  502    0  0.36539060068E+03  0.93046363801E+03 -0.11996728435E+04  0.15615663345E+04  0.12699999809E+01 0. -1.
       -4    1    3    3    0  502 -0.36539060068E+03 -0.93046363801E+03  0.10409265348E+04  0.14431917878E+04  0.12699999809E+01 0.  1.
</event>
<event>
 5   0  0.1813720E-07  0.2992056E+04  0.7818609E-02  0.8246003E-01
        2   -1    0    0  501    0  0.00000000000E+00  0.00000000000E+00  0.15258035468E+04  0.15258035468E+04  0.25500000920E-02 0. -1.
       -2   -1    0    0    0  501  0.00000000000E+00  0.00000000000E+00 -0.14668335991E+04  0.14668335991E+04  0.25500000920E-02 0.  1.
    10030    2    1    2    0    0  0.00000000000E+00  0.00000000000E+00  0.58969947631E+02  0.29926371459E+04  0.29920560878E+04 0.  0.
        3    1    3    3  502    0 -0.17386320837E+02  0.11029064590E+04 -0.98135215719E+03  0.14764000163E+04  0.10100000352E+00 0.  1.
       -3    1    3    3    0  502  0.17386320837E+02 -0.11029064590E+04  0.10403221048E+04  0.15162371297E+04  0.10100000352E+00 0. -1.
</event>
<event>
 5   0  0.6636007E-08  0.3000438E+04  0.7818609E-02  0.8243606E-01
       -1   -1    0    0    0  501  0.00000000000E+00  0.00000000000E+00  0.13852038402E+04  0.13852038402E+04  0.50400001928E-02 0.  1.
        1   -1    0    0  501    0  0.00000000000E+00  0.00000000000E+00 -0.16247840727E+04  0.16247840727E+04  0.50400001928E-02 0. -1.
    10030    2    1    2    0    0  0.00000000000E+00  0.00000000000E+00 -0.23958023255E+03  0.30099879129E+04  0.30004380594E+04 0.  0.
        2    1    3    3  502    0 -0.14234956048E+04 -0.47325300979E+03 -0.13853081844E+03  0.15064856242E+04  0.25500000920E-02 0.  1.
       -2    1    3    3    0  502  0.14234956048E+04  0.47325300979E+03 -0.10104941411E+03  0.15035022888E+04  0.25500000920E-02 0. -1.
</event>
<event>
 5   0  0.1914439E-07  0.2998313E+04  0.7818609E-02  0.8244213E-01
       -2   -1    0    0    0  501  0.00000000000E+00  0.00000000000E+00  0.18158930920E+04  0.18158930920E+04  0.25500000920E-02 0.  1.
        2   -1    0    0  501    0  0.00000000000E+00  0.00000000000E+00 -0.12376662973E+04  0.12376662973E+04  0.25500000920E-02 0. -1.
    10030    2    1    2    0    0  0.00000000000E+00  0.00000000000E+00  0.57822679469E+03  0.30535593893E+04  0.29983126451E+04 0.  0.
        5    1    3    3  502    0 -0.90844582639E+03 -0.97174236304E+03 -0.41492067225E+03  0.13934626991E+04  0.46999998093E+01 0. -1.
       -5    1    3    3    0  502  0.90844582639E+03  0.97174236304E+03  0.99314746694E+03  0.16600966902E+04  0.46999998093E+01 0.  1.
</event>
<event>
 5   0  0.1813720E-07  0.3000295E+04  0.7818609E-02  0.8243647E-01
       -2   -1    0    0    0  501  0.00000000000E+00  0.00000000000E+00  0.15246124575E+04  0.15246124575E+04  0.25500000920E-02 0.  1.
        2   -1    0    0  501    0  0.00000000000E+00  0.00000000000E+00 -0.14760746929E+04  0.14760746930E+04  0.25500000920E-02 0. -1.
    10030    2    1    2    0    0  0.00000000000E+00  0.00000000000E+00  0.48537764538E+02  0.30006871504E+04  0.30002945622E+04 0.  0.
        3    1    3    3  502    0 -0.15682496127E+03  0.11238820082E+04  0.10055889027E+04  0.15162169661E+04  0.10100000352E+00 0.  1.
       -3    1    3    3    0  502  0.15682496127E+03 -0.11238820082E+04 -0.95705113820E+03  0.14844701843E+04  0.10100000352E+00 0. -1.
</event>
<event>
 5   0  0.6636007E-08  0.3017893E+04  0.7818609E-02  0.8238640E-01
       -1   -1    0    0    0  501  0.00000000000E+00  0.00000000000E+00  0.10603257962E+04  0.10603257962E+04  0.50400001928E-02 0. -1.
        1   -1    0    0  501    0  0.00000000000E+00  0.00000000000E+00 -0.21473769320E+04  0.21473769320E+04  0.50400001928E-02 0.  1.
    10030    2    1    2    0    0  0.00000000000E+00  0.00000000000E+00 -0.10870511358E+04  0.32077027282E+04  0.30178927450E+04 0.  0.
        2    1    3    3  502    0 -0.93864657887E+03  0.57424896798E+03  0.55393584510E+03  0.12319351435E+04  0.25500000920E-02 0. -1.
       -2    1    3    3    0  502  0.93864657887E+03 -0.57424896798E+03 -0.16409869809E+04  0.19757675847E+04  0.25500000920E-02 0.  1.
</event>
<event>
 5   0  0.6636007E-08  0.2998189E+04  0.7818609E-02  0.8244248E-01
        1   -1    0    0  501    0  0.00000000000E+00  0.00000000000E+00  0.16791019902E+04  0.16791019902E+04  0.50400001928E-02 0. -1.
       -1   -1    0    0    0  501  0.00000000000E+00  0.00000000000E+00 -0.13383846331E+04  0.13383846331E+04  0.50400001928E-02 0.  1.
    10030    2    1    2    0    0  0.00000000000E+00  0.00000000000E+00  0.34071735708E+03  0.30174866233E+04  0.29981889874E+04 0.  0.
        2    1    3    3  502    0 -0.53644925605E+03 -0.84973016196E+03 -0.94921540627E+03  0.13823273997E+04  0.25500000920E-02 0.  1.
       -2    1    3    3    0  502  0.53644925605E+03  0.84973016196E+03  0.12899327633E+04  0.16351592236E+04  0.25500000920E-02 0. -1.
</event>
<event>
 5   0  0.6464436E-08  0.2997716E+04  0.7818609E-02  0.8244383E-01
        1   -1    0    0  501    0  0.00000000000E+00  0.00000000000E+00  0.21151828877E+04  0.21151828878E+04  0.50400001928E-02 0.  1.
       -1   -1    0    0    0  501  0.00000000000E+00  0.00000000000E+00 -0.10621185415E+04  0.10621185415E+04  0.50400001928E-02 0. -1.
    10030    2    1    2    0    0  0.00000000000E+00  0.00000000000E+00  0.10530643462E+04  0.31773014293E+04  0.29977157729E+04 0.  0.
        5    1    3    3  502    0 -0.12563090109E+04  0.37311762405E+02  0.13920609540E+04  0.18755160059E+04  0.46999998093E+01 0.  1.
       -5    1    3    3    0  502  0.12563090109E+04 -0.37311762405E+02 -0.33899660781E+03  0.13017854234E+04  0.46999998093E+01 0. -1.
</event>
<event>
 5   0  0.1821305E-07  0.2999885E+04  0.7818609E-02  0.8243764E-01
       -2   -1    0    0    0  501  0.00000000000E+00  0.00000000000E+00  0.13003661430E+04  0.13003661430E+04  0.25500000920E-02 0.  1.
        2   -1    0    0  501    0  0.00000000000E+00  0.00000000000E+00 -0.17301490090E+04  0.17301490090E+04  0.25500000920E-02 0. -1.
    10030    2    1    2    0    0  0.00000000000E+00  0.00000000000E+00 -0.42978286607E+03  0.30305151520E+04  0.29998847935E+04 0.  0.
        2    1    3    3  502    0 -0.14473231950E+04 -0.27096592824E+03  0.73788887384E+02  0.14743173895E+04  0.25500000920E-02 0.  1.
       -2    1    3    3    0  502  0.14473231950E+04  0.27096592824E+03 -0.50357175345E+03  0.15561977625E+04  0.25500000920E-02 0. -1.
</event>
<event>
 5   0  0.1821305E-07  0.3003350E+04  0.7818609E-02  0.8242775E-01
       -2   -1    0    0    0  501  0.00000000000E+00  0.00000000000E+00  0.96612115146E+03  0.96612115147E+03  0.25500000920E-02 0. -1.
        2   -1    0    0  501    0  0.00000000000E+00  0.00000000000E+00 -0.23341051168E+04  0.23341051168E+04  0.25500000920E-02 0.  1.
    10030    2    1    2    0    0  0.00000000000E+00  0.00000000000E+00 -0.13679839654E+04  0.33002262683E+04  0.30033503446E+04 0.  0.
        2    1    3    3  502    0 -0.25222859996E+03 -0.10439224806E+04 -0.18373298883E+04  0.21281857368E+04  0.25500000920E-02 0.  1.
       -2    1    3    3    0  502  0.25222859996E+03  0.10439224806E+04  0.46934592288E+03  0.11720405315E+04  0.25500000920E-02 0. -1.
</event>
<event>
 5   0  0.6679022E-08  0.2998677E+04  0.7818609E-02  0.8244109E-01
       -1   -1    0    0    0  501  0.00000000000E+00  0.00000000000E+00  0.13726438611E+04  0.13726438611E+04  0.50400001928E-02 0.  1.
        1   -1    0    0  501    0  0.00000000000E+00  0.00000000000E+00 -0.16377273995E+04  0.16377273995E+04  0.50400001928E-02 0. -1.
    10030    2    1    2    0    0  0.00000000000E+00  0.00000000000E+00 -0.26508353837E+03  0.30103712606E+04  0.29986773492E+04 0.  0.
        3    1    3    3  502    0  0.17141209429E+03 -0.14278427033E+04  0.29325794914E+03  0.14676910869E+04  0.10100000352E+00 0. -1.
       -3    1    3    3    0  502 -0.17141209429E+03  0.14278427033E+04 -0.55834148752E+03  0.15426801737E+04  0.10100000352E+00 0.  1.
</event>
<event>
 5   0  0.1810055E-07  0.2997255E+04  0.7818609E-02  0.8244515E-01
       -2   -1    0    0    0  501  0.00000000000E+00  0.00000000000E+00  0.13075078274E+04  0.13075078274E+04  0.25500000920E-02 0.  1.
        2   -1    0    0  501    0  0.00000000000E+00  0.00000000000E+00 -0.17176828074E+04  0.17176828074E+04  0.25500000920E-02 0. -1.
    10030    2    1    2    0    0  0.00000000000E+00  0.00000000000E+00 -0.41017498005E+03  0.30251906348E+04  0.29972545542E+04 0.  0.
        4    1    3    3  502    0 -0.24169675752E+03  0.46509789788E+03 -0.16221493698E+04  0.17047297639E+04  0.12699999809E+01 0. -1.
       -4    1    3    3    0  502  0.24169675752E+03 -0.46509789788E+03  0.12119743898E+04  0.13204608709E+04  0.12699999809E+01 0.  1.
</event>
<event>
 5   0  0.6374748E-08  0.2998272E+04  0.7818609E-02  0.8244224E-01
        1   -1    0    0  501    0  0.00000000000E+00  0.00000000000E+00  0.15398432097E+04  0.15398432097E+04  0.50400001928E-02 0. -1.
       -1   -1    0    0    0  501  0.00000000000E+00  0.00000000000E+00 -0.14595052643E+04  0.14595052643E+04  0.50400001928E-02 0.  1.
    10030    2    1    2    0    0  0.00000000000E+00  0.00000000000E+00  0.80337945390E+02  0.29993484741E+04  0.29982723498E+04 0.  0.
        1    1    3    3  502    0  0.88408621350E+03  0.44434178675E+03 -0.10864506814E+04  0.14694975807E+04  0.50400001928E-02 0.  1.
       -1    1    3    3    0  502 -0.88408621350E+03 -0.44434178675E+03  0.11667886268E+04  0.15298508934E+04  0.50400001928E-02 0. -1.
</event>
<event>
 5   0  0.1821305E-07  0.3002302E+04  0.7818609E-02  0.8243074E-01
        2   -1    0    0  501    0  0.00000000000E+00  0.00000000000E+00  0.14086986187E+04  0.14086986187E+04  0.25500000920E-02 0.  1.
       -2   -1    0    0    0  501  0.00000000000E+00  0.00000000000E+00 -0.15996705072E+04  0.15996705072E+04  0.25500000920E-02 0. -1.
    10030    2    1    2    0    0  0.00000000000E+00  0.00000000000E+00 -0.19097188854E+03  0.30083691259E+04  0.30023015397E+04 0.  0.
        2    1    3    3  502    0  0.26604378870E+03 -0.71606015547E+03 -0.13903561324E+04  0.15863831878E+04  0.25500000920E-02 0. -1.
       -2    1    3    3    0  502 -0.26604378870E+03  0.71606015547E+03  0.11993842438E+04  0.14219859381E+04  0.25500000920E-02 0.  1.
</event>
<event>
 5   0  0.6679022E-08  0.3000370E+04  0.7818609E-02  0.8243625E-01
       -1   -1    0    0    0  501  0.00000000000E+00  0.00000000000E+00  0.18321356985E+04  0.18321356985E+04  0.50400001928E-02 0. -1.
        1   -1    0    0  501    0  0.00000000000E+00  0.00000000000E+00 -0.12283781730E+04  0.12283781730E+04  0.50400001928E-02 0.  1.
    10030    2    1    2    0    0  0.00000000000E+00  0.00000000000E+00  0.60375752557E+03  0.30605138715E+04  0.30003703118E+04 0.  0.
        3    1    3    3  502    0 -0.12025305975E+04 -0.85702865779E+03  0.57171409063E+03  0.15834882285E+04  0.10100000352E+00 0. -1.
       -3    1    3    3    0  502  0.12025305975E+04  0.85702865779E+03  0.32043434931E+02  0.14770256430E+04  0.10100000352E+00 0.  1.
</event>
<event>
 5   0  0.1817566E-07  0.2999292E+04  0.7818609E-02  0.8243933E-01
       -2   -1    0    0    0  501  0.00000000000E+00  0.00000000000E+00  0.11662766554E+04  0.11662766554E+04  0.25500000920E-02 0. -1.
        2   -1    0    0  501    0  0.00000000000E+00  0.00000000000E+00 -0.19283052399E+04  0.19283052399E+04  0.25500000920E-02 0.  1.
    10030    2    1    2    0    0  0.00000000000E+00  0.00000000000E+00 -0.76202858444E+03  0.30945818953E+04  0.29992915069E+04 0.  0.
        1    1    3    3  502    0  0.14612210938E+04  0.25140062782E+03 -0.61303208960E+03  0.16044244150E+04  0.50400001928E-02 0. -1.
       -1    1    3    3    0  502 -0.14612210938E+04 -0.25140062782E+03 -0.14899649484E+03  0.14901574803E+04  0.50400001928E-02 0.  1.
</event>
<event>
 5   0  0.1914439E-07  0.3000370E+04  0.7818609E-02  0.8243625E-01
        2   -1    0    0  501    0  0.00000000000E+00  0.00000000000E+00  0.21220064746E+04  0.21220064746E+04  0.25500000920E-02 0.  1.
       -2   -1    0    0    0  501  0.00000000000E+00  0.00000000000E+00 -0.10605786394E+04  0.10605786394E+04  0.25500000920E-02 0. -1.
    10030    2    1    2    0    0  0.00000000000E+00  0.00000000000E+00  0.10614278353E+04  0.31825851140E+04  0.30003698036E+04 0.  0.
        5    1    3    3  502    0  0.29335271328E+03  0.78355760612E+03 -0.79010454505E+03  0.11507847838E+04  0.46999998093E+01 0. -1.
       -5    1    3    3    0  502 -0.29335271328E+03 -0.78355760612E+03  0.18515323803E+04  0.20318003302E+04  0.46999998093E+01 0.  1.
</event>
<event>
 5   0  0.6374748E-08  0.2999806E+04  0.7818609E-02  0.8243786E-01
        1   -1    0    0  501    0  0.00000000000E+00  0.00000000000E+00  0.26838189529E+04  0.26838189529E+04  0.50400001928E-02 0.  1.
       -1   -1    0    0    0  501  0.00000000000E+00  0.00000000000E+00 -0.83824924797E+03  0.83824924799E+03  0.50400001928E-02 0. -1.
    10030    2    1    2    0    0  0.00000000000E+00  0.00000000000E+00  0.18455697049E+04  0.35220682009E+04  0.29998061397E+04 0.  0.
        1    1    3    3  502    0 -0.41206136011E+03  0.14000805789E+04  0.51659250224E+03  0.15481886207E+04  0.50400001928E-02 0. -1.
       -1    1    3    3    0  502  0.41206136011E+03 -0.14000805789E+04  0.13289772027E+04  0.19738795802E+04  0.50400001928E-02 0.  1.
</event>
<event>
 5   0  0.6525507E-08  0.3002136E+04  0.7818609E-02  0.8243121E-01
        1   -1    0    0  501    0  0.00000000000E+00  0.00000000000E+00  0.13618575586E+04  0.13618575586E+04  0.50400001928E-02 0. -1.
       -1   -1    0    0    0  501  0.00000000000E+00  0.00000000000E+00 -0.16545082380E+04  0.16545082380E+04  0.50400001928E-02 0.  1.
    10030    2    1    2    0    0  0.00000000000E+00  0.00000000000E+00 -0.29265067934E+03  0.30163657966E+04  0.30021356063E+04 0.  0.
        4    1    3    3  502    0  0.65587263570E+03 -0.40479651949E+03 -0.14405201166E+04  0.16337469068E+04  0.12699999809E+01 0.  1.
       -4    1    3    3    0  502 -0.65587263570E+03  0.40479651949E+03  0.11478694372E+04  0.13826188898E+04  0.12699999809E+01 0. -1.
</event>
<event>
 5   0  0.6525507E-08  0.2999932E+04  0.7818609E-02  0.8243750E-01
        1   -1    0    0  501    0  0.00000000000E+00  0.00000000000E+00  0.13400915789E+04  0.13400915789E+04  0.50400001928E-02 0. -1.
       -1   -1    0    0    0  501  0.00000000000E+00  0.00000000000E+00 -0.16789136586E+04  0.16789136586E+04  0.50400001928E-02 0.  1.
    10030    2    1    2    0    0  0.00000000000E+00  0.00000000000E+00 -0.33882207971E+03  0.30190052375E+04  0.29999320363E+04 0.  0.
        4    1    3    3  502    0  0.11345505348E+04  0.81384434607E+03  0.38211430982E+03  0.14476050892E+04  0.12699999809E+01 0.  1.
       -4    1    3    3    0  502 -0.11345505348E+04 -0.81384434607E+03 -0.72093638954E+03  0.15714001483E+04  0.12699999809E+01 0. -1.
</event>
<event>
 5   0  0.1821305E-07  0.3000390E+04  0.7818609E-02  0.8243620E-01
        2   -1    0    0  501    0  0.00000000000E+00  0.00000000000E+00  0.14339915411E+04  0.14339915411E+04  0.25500000920E-02 0. -1.
       -2   -1    0    0    0  501  0.00000000000E+00  0.00000000000E+00 -0.15694545385E+04  0.15694545385E+04  0.25500000920E-02 0.  1.
    10030    2    1    2    0    0  0.00000000000E+00  0.00000000000E+00 -0.13546299739E+03  0.30034460796E+04  0.30003896630E+04 0.  0.
        2    1    3    3  502    0 -0.10772416713E+04 -0.47213110729E+03 -0.99993044393E+03  0.15437675646E+04  0.25500000920E-02 0.  1.
       -2    1    3    3    0  502  0.10772416713E+04  0.47213110729E+03  0.86446744654E+03  0.14596785150E+04  0.25500000920E-02 0. -1.
</event>
<event>
 5   0  0.1821305E-07  0.3001460E+04  0.7818609E-02  0.8243314E-01
        2   -1    0    0  501    0  0.00000000000E+00  0.00000000000E+00  0.14077031463E+04  0.14077031463E+04  0.25500000920E-02 0. -1.
       -2   -1    0    0    0  501  0.00000000000E+00  0.00000000000E+00 -0.15999044312E+04  0.15999044312E+04  0.25500000920E-02 0.  1.
    10030    2    1    2    0    0  0.00000000000E+00  0.00000000000E+00 -0.19220128490E+03  0.30076075775E+04  0.30014599792E+04 0.  0.
        2    1    3    3  502    0 -0.70028985630E+03  0.66559021671E+03 -0.12468317356E+04  0.15773413062E+04  0.25500000920E-02 0.  1.
       -2    1    3    3    0  502  0.70028985630E+03 -0.66559021671E+03  0.10546304507E+04  0.14302662713E+04  0.25500000920E-02 0. -1.
</event>
<event>
 5   0  0.1810055E-07  0.3004357E+04  0.7818609E-02  0.8242488E-01
        2   -1    0    0  501    0  0.00000000000E+00  0.00000000000E+00  0.12677962745E+04  0.12677962745E+04  0.25500000920E-02 0.  1.
       -2   -1    0    0    0  501  0.00000000000E+00  0.00000000000E+00 -0.17798913663E+04  0.17798913663E+04  0.25500000920E-02 0. -1.
    10030    2    1    2    0    0  0.00000000000E+00  0.00000000000E+00 -0.51209509180E+03  0.30476876408E+04  0.30043565988E+04 0.  0.
        4    1    3    3  502    0 -0.13762059253E+04 -0.57034507459E+03 -0.45196978604E+03  0.15567641290E+04  0.12699999809E+01 0.  1.
       -4    1    3    3    0  502  0.13762059253E+04  0.57034507459E+03 -0.60125305758E+02  0.14909235118E+04  0.12699999809E+01 0. -1.
</event>
<event>
 5   0  0.1914439E-07  0.2999048E+04  0.7818609E-02  0.8244003E-01
       -2   -1    0    0    0  501  0.00000000000E+00  0.00000000000E+00  0.10873290219E+04  0.10873290219E+04  0.25500000920E-02 0.  1.
        2   -1    0    0  501    0  0.00000000000E+00  0.00000000000E+00 -0.20679773705E+04  0.20679773705E+04  0.25500000920E-02 0. -1.
    10030    2    1    2    0    0  0.00000000000E+00  0.00000000000E+00 -0.98064834859E+03  0.31553063923E+04  0.29990477232E+04 0.  0.
        5    1    3    3  502    0 -0.70926294382E+03 -0.29172282628E+03  0.86537610265E+03  0.11563105205E+04  0.46999998093E+01 0.  1.
       -5    1    3    3    0  502  0.70926294382E+03  0.29172282628E+03 -0.18460244512E+04  0.19989958718E+04  0.46999998093E+01 0. -1.
</event>
<event>
 5   0  0.1821305E-07  0.2999637E+04  0.7818609E-02  0.8243834E-01
        2   -1    0    0  501    0  0.00000000000E+00  0.00000000000E+00  0.15841717358E+04  0.15841717358E+04  0.25500000920E-02 0. -1.
       -2   -1    0    0    0  501  0.00000000000E+00  0.00000000000E+00 -0.14199571493E+04  0.14199571493E+04  0.25500000920E-02 0.  1.
    10030    2    1    2    0    0  0.00000000000E+00  0.00000000000E+00  0.16421458650E+03  0.30041288852E+04  0.29996372995E+04 0.  0.
        2    1    3    3  502    0  0.14513405752E+04 -0.92449456395E+02  0.44942564204E+03  0.15221431519E+04  0.25500000920E-02 0.  1.
       -2    1    3    3    0  502 -0.14513405752E+04  0.92449456395E+02 -0.28521105554E+03  0.14819857332E+04  0.25500000920E-02 0. -1.
</event>
<event>
 5   0  0.1817566E-07  0.2999053E+04  0.7818609E-02  0.8244001E-01
        2   -1    0    0  501    0  0.00000000000E+00  0.00000000000E+00  0.25691540230E+04  0.25691540230E+04  0.25500000920E-02 0. -1.
       -2   -1    0    0    0  501  0.00000000000E+00  0.00000000000E+00 -0.87522168665E+03  0.87522168666E+03  0.25500000920E-02 0.  1.
    10030    2    1    2    0    0  0.00000000000E+00  0.00000000000E+00  0.16939323364E+04  0.34443757097E+04  0.29990527286E+04 0.  0.
        1    1    3    3  502    0  0.99909983127E+03  0.72311080454E+03  0.18265459516E+04  0.22039418826E+04  0.50400001928E-02 0. -1.
       -1    1    3    3    0  502 -0.99909983127E+03 -0.72311080454E+03 -0.13261361521E+03  0.12404338271E+04  0.50400001928E-02 0.  1.
</event>
<event>
 5   0  0.1810055E-07  0.2989646E+04  0.7818609E-02  0.8246694E-01
       -2   -1    0    0    0  501  0.00000000000E+00  0.00000000000E+00  0.10518529803E+04  0.10518529803E+04  0.25500000920E-02 0.  1.
        2   -1    0    0  501    0  0.00000000000E+00  0.00000000000E+00 -0.21243417667E+04  0.21243417667E+04  0.25500000920E-02 0. -1.
    10030    2    1    2    0    0  0.00000000000E+00  0.00000000000E+00 -0.10724887864E+04  0.31761947470E+04  0.29896456101E+04 0.  0.
        4    1    3    3  502    0 -0.84040928611E+03  0.10884590304E+04  0.86381604765E+02  0.13778585644E+04  0.12699999809E+01 0.  1.
       -4    1    3    3    0  502  0.84040928611E+03 -0.10884590304E+04 -0.11588703912E+04  0.17983361826E+04  0.12699999809E+01 0. -1.
</event>
<event>
 5   0  0.1810055E-07  0.3011928E+04  0.7818609E-02  0.8240333E-01
       -2   -1    0    0    0  501  0.00000000000E+00  0.00000000000E+00  0.14410592879E+04  0.14410592879E+04  0.25500000920E-02 0.  1.
        2   -1    0    0  501    0  0.00000000000E+00  0.00000000000E+00 -0.15737922652E+04  0.15737922652E+04  0.25500000920E-02 0. -1.
    10030    2    1    2    0    0  0.00000000000E+00  0.00000000000E+00 -0.13273297734E+03  0.30148515531E+04  0.30119282601E+04 0.  0.
        4    1    3    3  502    0 -0.34960341189E+03  0.60961320263E+02 -0.15313400187E+04  0.15719232468E+04  0.12699999809E+01 0. -1.
       -4    1    3    3    0  502  0.34960341189E+03 -0.60961320263E+02  0.13986070414E+04  0.14429283063E+04  0.12699999809E+01 0.  1.
</event>
<event>
 5   0  0.1914439E-07  0.3000908E+04  0.7818609E-02  0.8243472E-01
       -2   -1    0    0    0  501  0.00000000000E+00  0.00000000000E+00  0.10094582489E+04  0.10094582489E+04  0.25500000920E-02 0.  1.
        2   -1    0    0  501    0  0.00000000000E+00  0.00000000000E+00 -0.22302673373E+04  0.22302673373E+04  0.25500000920E-02 0. -1.
    10030    2    1    2    0    0  0.00000000000E+00  0.00000000000E+00 -0.12208090884E+04  0.32397255861E+04  0.30009077032E+04 0.  0.
        5    1    3    3  502    0 -0.35668153505E+03 -0.14554582111E+04 -0.69233441801E+03  0.16507360050E+04  0.46999998093E+01 0. -1.
       -5    1    3    3    0  502  0.35668153505E+03  0.14554582111E+04 -0.52847467038E+03  0.15889895812E+04  0.46999998093E+01 0.  1.
</event>
<event>
 5   0  0.6525507E-08  0.2999801E+04  0.7818609E-02  0.8243788E-01
       -1   -1    0    0    0  501  0.00000000000E+00  0.00000000000E+00  0.14386653054E+04  0.14386653054E+04  0.50400001928E-02 0.  1.
        1   -1    0    0  501    0  0.00000000000E+00  0.00000000000E+00 -0.15637418750E+04  0.15637418750E+04  0.50400001928E-02 0. -1.
    10030    2    1    2    0    0  0.00000000000E+00  0.00000000000E+00 -0.12507656961E+03  0.30024071804E+04  0.29998007815E+04 0.  0.
        4    1    3    3  502    0  0.57999983516E+03 -0.13793555644E+04  0.40885845546E+02  0.14968950688E+04  0.12699999809E+01 0. -1.
       -4    1    3    3    0  502 -0.57999983516E+03  0.13793555644E+04 -0.16596241515E+03  0.15055121115E+04  0.12699999809E+01 0.  1.
</event>
<event>
 5   0  0.1914439E-07  0.3001985E+04  0.7818609E-02  0.8243164E-01
       -2   -1    0    0    0  501  0.00000000000E+00  0.00000000000E+00  0.25881208184E+04  0.25881208184E+04  0.25500000920E-02 0. -1.
        2   -1    0    0  501    0  0.00000000000E+00  0.00000000000E+00 -0.87050735059E+03  0.87050735059E+03  0.25500000920E-02 0.  1.
    10030    2    1    2    0    0  0.00000000000E+00  0.00000000000E+00  0.17176134678E+04  0.34586281690E+04  0.30019848078E+04 0.  0.
        5    1    3    3  502    0 -0.26094063878E+03 -0.67191492724E+03 -0.65804918961E+03  0.97601768035E+03  0.46999998093E+01 0.  1.
       -5    1    3    3    0  502  0.26094063878E+03  0.67191492724E+03  0.23756626574E+04  0.24826104886E+04  0.46999998093E+01 0. -1.
</event>
<event>
 5   0  0.1813720E-07  0.2997958E+04  0.7818609E-02  0.8244314E-01
       -2   -1    0    0    0  501  0.00000000000E+00  0.00000000000E+00  0.16653977636E+04  0.16653977636E+04  0.25500000920E-02 0. -1.
        2   -1    0    0  501    0  0.00000000000E+00  0.00000000000E+00 -0.13491902085E+04  0.13491902085E+04  0.25500000920E-02 0.  1.
    10030    2    1    2    0    0  0.00000000000E+00  0.00000000000E+00  0.31620755516E+03  0.30145879721E+04  0.29979582092E+04 0.  0.
        3    1    3    3  502    0 -0.13885977121E+04  0.40080769669E+03 -0.24170446523E+03  0.14653571150E+04  0.10100000352E+00 0.  1.
       -3    1    3    3    0  502  0.13885977121E+04 -0.40080769669E+03  0.55791202039E+03  0.15492308571E+04  0.10100000352E+00 0. -1.
</event>
<event>
 5   0  0.6017625E-08  0.3000973E+04  0.7818609E-02  0.8243453E-01
       -4   -1    0    0    0  501  0.00000000000E+00  0.00000000000E+00  0.10766546987E+04  0.10766554477E+04  0.12699999809E+01 0.  1.
        4   -1    0    0  501    0  0.00000000000E+00  0.00000000000E+00 -0.20911602411E+04  0.20911606267E+04  0.12699999809E+01 0. -1.
    10030    2    1    2    0    0  0.00000000000E+00  0.00000000000E+00 -0.10145055424E+04  0.31678160745E+04  0.30009727066E+04 0.  0.
        3    1    3    3  502    0  0.78205917627E+03  0.56688119001E+03  0.70484060260E+03  0.11957303726E+04  0.10100000352E+00 0. -1.
       -3    1    3    3    0  502 -0.78205917627E+03 -0.56688119001E+03 -0.17193461450E+04  0.19720857018E+04  0.10100000352E+00 0.  1.
</event>
<event>
 5   0  0.6374748E-08  0.2995781E+04  0.7818609E-02  0.8244937E-01
       -1   -1    0    0    0  501  0.00000000000E+00  0.00000000000E+00  0.77431080013E+03  0.77431080015E+03  0.50400001928E-02 0. -1.
        1   -1    0    0  501    0  0.00000000000E+00  0.00000000000E+00 -0.28976429072E+04  0.28976429072E+04  0.50400001928E-02 0.  1.
    10030    2    1    2    0    0  0.00000000000E+00  0.00000000000E+00 -0.21233321070E+04  0.36719537073E+04  0.29957811656E+04 0.  0.
        1    1    3    3  502    0  0.75818578188E+03  0.10195351193E+04 -0.89270156733E+02  0.12736823388E+04  0.50400001928E-02 0. -1.
       -1    1    3    3    0  502 -0.75818578188E+03 -0.10195351193E+04 -0.20340619503E+04  0.23982713685E+04  0.50400001928E-02 0.  1.
</event>
<event>
 5   0  0.6464436E-08  0.2999789E+04  0.7818609E-02  0.8243791E-01
        1   -1    0    0  501    0  0.00000000000E+00  0.00000000000E+00  0.14063526716E+04  0.14063526716E+04  0.50400001928E-02 0. -1.
       -1   -1    0    0    0  501  0.00000000000E+00  0.00000000000E+00 -0.15996583878E+04  0.15996583878E+04  0.50400001928E-02 0.  1.
    10030    2    1    2    0    0  0.00000000000E+00  0.00000000000E+00 -0.19330571619E+03  0.30060110594E+04  0.29997892242E+04 0.  0.
        5    1    3    3  502    0 -0.88245946621E+03  0.15330810338E+03  0.11089316790E+04  0.14254787416E+04  0.46999998093E+01 0. -1.
       -5    1    3    3    0  502  0.88245946621E+03 -0.15330810338E+03 -0.13022373952E+04  0.15805323178E+04  0.46999998093E+01 0.  1.
</event>
<event>
 5   0  0.6464436E-08  0.3000705E+04  0.7818609E-02  0.8243530E-01
       -1   -1    0    0    0  501  0.00000000000E+00  0.00000000000E+00  0.10446625288E+04  0.10446625288E+04  0.50400001928E-02 0.  1.
        1   -1    0    0  501    0  0.00000000000E+00  0.00000000000E+00 -0.21548174992E+04  0.21548174992E+04  0.50400001928E-02 0. -1.
    10030    2    1    2    0    0  0.00000000000E+00  0.00000000000E+00 -0.11101549704E+04  0.31994800280E+04  0.30007046491E+04 0.  0.
        5    1    3    3  502    0 -0.12563708470E+04 -0.56434961935E+03 -0.11895384310E+04  0.18198851521E+04  0.46999998093E+01 0. -1.
       -5    1    3    3    0  502  0.12563708470E+04  0.56434961935E+03  0.79383460558E+02  0.13795948760E+04  0.46999998093E+01 0.  1.
</event>
<event>
 5   0  0.1817566E-07  0.3002513E+04  0.7818609E-02  0.8243014E-01
       -2   -1    0    0    0  501  0.00000000000E+00  0.00000000000E+00  0.12592352329E+04  0.12592352329E+04  0.25500000920E-02 0.  1.
        2   -1    0    0  501    0  0.00000000000E+00  0.00000000000E+00 -0.17897933781E+04  0.17897933781E+04  0.25500000920E-02 0. -1.
    10030    2    1    2    0    0  0.00000000000E+00  0.00000000000E+00 -0.53055814522E+03  0.30490286110E+04  0.30025128684E+04 0.  0.
        1    1    3    3  502    0 -0.15486368907E+03 -0.84579132295E+02  0.12486678406E+04  0.12610740533E+04  0.50400001928E-02 0.  1.
       -1    1    3    3    0  502  0.15486368907E+03  0.84579132295E+02 -0.17792259858E+04  0.17879545577E+04  0.50400001928E-02 0. -1.
</event>
<event>
 5   0  0.1817566E-07  0.3000414E+04  0.7818609E-02  0.8243613E-01
       -2   -1    0    0    0  501  0.00000000000E+00  0.00000000000E+00  0.11054605128E+04  0.11054605128E+04  0.25500000920E-02 0.  1.
        2   -1    0    0  501    0  0.00000000000E+00  0.00000000000E+00 -0.20359127633E+04  0.20359127633E+04  0.25500000920E-02 0. -1.
    10030    2    1    2    0    0  0.00000000000E+00  0.00000000000E+00 -0.93045225055E+03  0.31413732761E+04  0.30004140829E+04 0.  0.
        1    1    3    3  502    0 -0.18905663315E+03 -0.29451098160E+02  0.10926333315E+04  0.11092598319E+04  0.50400001928E-02 0.  1.
       -1    1    3    3    0  502  0.18905663315E+03  0.29451098160E+02 -0.20230855820E+04  0.20321134441E+04  0.50400001928E-02 0. -1.
</event>
<event>
 5   0  0.6525507E-08  0.2999982E+04  0.7818609E-02  0.8243736E-01
        1   -1    0    0  501    0  0.00000000000E+00  0.00000000000E+00  0.18921028865E+04  0.18921028865E+04  0.50400001928E-02 0. -1.
       -1   -1    0    0    0  501  0.00000000000E+00  0.00000000000E+00 -0.11891385997E+04  0.11891385997E+04  0.50400001928E-02 0.  1.
    10030    2    1    2    0    0  0.00000000000E+00  0.00000000000E+00  0.70296428674E+03  0.30812414862E+04  0.29999817180E+04 0.  0.
        4    1    3    3  502    0  0.52452721641E+03 -0.13605473828E+04  0.71279629002E+03  0.16230521080E+04  0.12699999809E+01 0. -1.
       -4    1    3    3    0  502 -0.52452721641E+03  0.13605473828E+04 -0.98320032736E+01  0.14581893782E+04  0.12699999809E+01 0.  1.
</event>
<event>
 5   0  0.1821305E-07  0.2998633E+04  0.7818609E-02  0.8244121E-01
        2   -1    0    0  501    0  0.00000000000E+00  0.00000000000E+00  0.12310397819E+04  0.12310397819E+04  0.25500000920E-02 0.  1.
       -2   -1    0    0    0  501  0.00000000000E+00  0.00000000000E+00 -0.18260584722E+04  0.18260584722E+04  0.25500000920E-02 0. -1.
    10030    2    1    2    0    0  0.00000000000E+00  0.00000000000E+00 -0.59501869035E+03  0.30570982541E+04  0.29986334377E+04 0.  0.
        2    1    3    3  502    0  0.14468138447E+03  0.12150377553E+04  0.58581370810E+03  0.13566234372E+04  0.25500000920E-02 0.  1.
       -2    1    3    3    0  502 -0.14468138447E+03 -0.12150377553E+04 -0.11808323985E+04  0.17004748169E+04  0.25500000920E-02 0. -1.
</event>
<event>
 5   0  0.6017625E-08  0.2999422E+04  0.7818609E-02  0.8243896E-01
       -3   -1    0    0    0  501  0.00000000000E+00  0.00000000000E+00  0.11139776530E+04  0.11139776575E+04  0.10100000352E+00 0. -1.
        3   -1    0    0  501    0  0.00000000000E+00  0.00000000000E+00 -0.20190102744E+04  0.20190102769E+04  0.10100000352E+00 0.  1.
    10030    2    1    2    0    0  0.00000000000E+00  0.00000000000E+00 -0.90503262141E+03  0.31329879344E+04  0.29994215028E+04 0.  0.
        3    1    3    3  502    0  0.32207480797E+03  0.14471545940E+04 -0.21629590715E+03  0.14982564969E+04  0.10100000352E+00 0. -1.
       -3    1    3    3    0  502 -0.32207480797E+03 -0.14471545940E+04 -0.68873671425E+03  0.16347314375E+04  0.10100000352E+00 0.  1.
</event>
<event>
 5   0  0.1914439E-07  0.3003560E+04  0.7818609E-02  0.8242715E-01
       -2   -1    0    0    0  501  0.00000000000E+00  0.00000000000E+00  0.16423766295E+04  0.16423766295E+04  0.25500000920E-02 0.  1.
        2   -1    0    0  501    0  0.00000000000E+00  0.00000000000E+00 -0.13732189743E+04  0.13732189743E+04  0.25500000920E-02 0. -1.
    10030    2    1    2    0    0  0.00000000000E+00  0.00000000000E+00  0.26915765515E+03  0.30155956038E+04  0.30035597218E+04 0.  0.
        5    1    3    3  502    0 -0.75803372799E+03 -0.12931792542E+04  0.22655895449E+03  0.15160075086E+04  0.46999998093E+01 0. -1.
       -5    1    3    3    0  502  0.75803372799E+03  0.12931792542E+04  0.42598700669E+02  0.14995880953E+04  0.46999998093E+01 0.  1.
</event>
<event>
 5   0  0.1914439E-07  0.2997020E+04  0.7818609E-02  0.8244582E-01
       -2   -1    0    0    0  501  0.00000000000E+00  0.00000000000E+00  0.12288573000E+04  0.12288573000E+04  0.25500000920E-02 0. -1.
        2   -1    0    0  501    0  0.00000000000E+00  0.00000000000E+00 -0.18273332734E+04  0.18273332734E+04  0.25500000920E-02 0.  1.
    10030    2    1    2    0    0  0.00000000000E+00  0.00000000000E+00 -0.59847597337E+03  0.30561905735E+04  0.29970197414E+04 0.  0.
        5    1    3    3  502    0  0.89322235340E+03 -0.11262461018E+04 -0.73095599471E+03  0.16126361060E+04  0.46999998093E+01 0.  1.
       -5    1    3    3    0  502 -0.89322235340E+03  0.11262461018E+04  0.13248002134E+03  0.14435544674E+04  0.46999998093E+01 0. -1.
</event>
<event>
 5   0  0.6374748E-08  0.2999728E+04  0.7818609E-02  0.8243809E-01
        1   -1    0    0  501    0  0.00000000000E+00  0.00000000000E+00  0.27855981143E+04  0.27855981143E+04  0.50400001928E-02 0. -1.
       -1   -1    0    0    0  501  0.00000000000E+00  0.00000000000E+00 -0.80757940253E+03  0.80757940255E+03  0.50400001928E-02 0.  1.
    10030    2    1    2    0    0  0.00000000000E+00  0.00000000000E+00  0.19780187118E+04  0.35931775169E+04  0.29997277616E+04 0.  0.
        1    1    3    3  502    0 -0.12402777867E+04  0.78587251510E+03  0.62233292674E+03  0.15947359876E+04  0.50400001928E-02 0.  1.
       -1    1    3    3    0  502  0.12402777867E+04 -0.78587251510E+03  0.13556857850E+04  0.19984415293E+04  0.50400001928E-02 0. -1.
</event>
<event>
 5   0  0.6525507E-08  0.2997353E+04  0.7818609E-02  0.8244487E-01
       -1   -1    0    0    0  501  0.00000000000E+00  0.00000000000E+00  0.11336746967E+04  0.11336746967E+04  0.50400001928E-02 0.  1.
        1   -1    0    0  501    0  0.00000000000E+00  0.00000000000E+00 -0.19811956935E+04  0.19811956935E+04  0.50400001928E-02 0. -1.
    10030    2    1    2    0    0  0.00000000000E+00  0.00000000000E+00 -0.84752099689E+03  0.31148703902E+04  0.29973531169E+04 0.  0.
        4    1    3    3  502    0 -0.32011555188E+03  0.71527639551E+03  0.90379769878E+03  0.11962216274E+04  0.12699999809E+01 0.  1.
       -4    1    3    3    0  502  0.32011555188E+03 -0.71527639551E+03 -0.17513186957E+04  0.19186487629E+04  0.12699999809E+01 0. -1.
</event>
<event>
 5   0  0.1813720E-07  0.2999454E+04  0.7818609E-02  0.8243887E-01
        2   -1    0    0  501    0  0.00000000000E+00  0.00000000000E+00  0.16453877340E+04  0.16453877340E+04  0.25500000920E-02 0.  1.
       -2   -1    0    0    0  501  0.00000000000E+00  0.00000000000E+00 -0.13669613720E+04  0.13669613720E+04  0.25500000920E-02 0. -1.
    10030    2    1    2    0    0  0.00000000000E+00  0.00000000000E+00  0.27842636197E+03  0.30123491061E+04  0.29994542667E+04 0.  0.
        3    1    3    3  502    0  0.11489533563E+04 -0.45822016485E+03 -0.71244304072E+03  0.14274574007E+04  0.10100000352E+00 0. -1.
       -3    1    3    3    0  502 -0.11489533563E+04  0.45822016485E+03  0.99086940269E+03  0.15848917054E+04  0.10100000352E+00 0.  1.
</event>
<event>
 5   0  0.1817566E-07  0.2998956E+04  0.7818609E-02  0.8244029E-01
        2   -1    0    0  501    0  0.00000000000E+00  0.00000000000E+00  0.94433845280E+03  0.94433845280E+03  0.25500000920E-02 0. -1.
       -2   -1    0    0    0  501  0.00000000000E+00  0.00000000000E+00 -0.23809619643E+04  0.23809619643E+04  0.25500000920E-02 0.  1.
    10030    2    1    2    0    0  0.00000000000E+00  0.00000000000E+00 -0.14366235115E+04  0.33253004171E+04  0.29989557766E+04 0.  0.
        1    1    3    3  502    0 -0.80890196098E+03  0.93049071484E+03 -0.16645828158E+04  0.20714659794E+04  0.50400001928E-02 0.  1.
       -1    1    3    3    0  502  0.80890196098E+03 -0.93049071484E+03  0.22795930431E+03  0.12538344378E+04  0.50400001928E-02 0. -1.
</event>
<event>
 5   0  0.1914439E-07  0.3000450E+04  0.7818609E-02  0.8243602E-01
        2   -1    0    0  501    0  0.00000000000E+00  0.00000000000E+00  0.19009751931E+04  0.19009751931E+04  0.25500000920E-02 0. -1.
       -2   -1    0    0    0  501  0.00000000000E+00  0.00000000000E+00 -0.11839584363E+04  0.11839584363E+04  0.25500000920E-02 0.  1.
    10030    2    1    2    0    0  0.00000000000E+00  0.00000000000E+00  0.71701675686E+03  0.30849336294E+04  0.30004503776E+04 0.  0.
        5    1    3    3  502    0 -0.11564514911E+03  0.14806967636E+04  0.14084773972E+03  0.14918769661E+04  0.46999998093E+01 0. -1.
       -5    1    3    3    0  502  0.11564514911E+03 -0.14806967636E+04  0.57616901714E+03  0.15930566633E+04  0.46999998093E+01 0.  1.
</event>
<event>
 5   0  0.6636007E-08  0.3000530E+04  0.7818609E-02  0.8243580E-01
        1   -1    0    0  501    0  0.00000000000E+00  0.00000000000E+00  0.10729248897E+04  0.10729248898E+04  0.50400001928E-02 0. -1.
       -1   -1    0    0    0  501  0.00000000000E+00  0.00000000000E+00 -0.20978123797E+04  0.20978123797E+04  0.50400001928E-02 0.  1.
    10030    2    1    2    0    0  0.00000000000E+00  0.00000000000E+00 -0.10248874900E+04  0.31707372695E+04  0.30005300307E+04 0.  0.
        2    1    3    3  502    0 -0.67804513401E+03  0.10968735092E+04 -0.13226970521E+04  0.18472693876E+04  0.25500000920E-02 0.  1.
       -2    1    3    3    0  502  0.67804513401E+03 -0.10968735092E+04  0.29780956209E+03  0.13234678818E+04  0.25500000920E-02 0. -1.
</event>
<event>
 5   0  0.1813720E-07  0.2999343E+04  0.7818609E-02  0.8243918E-01
       -2   -1    0    0    0  501  0.00000000000E+00  0.00000000000E+00  0.11229444976E+04  0.11229444976E+04  0.25500000920E-02 0. -1.
        2   -1    0    0  501    0  0.00000000000E+00  0.00000000000E+00 -0.20027836396E+04  0.20027836396E+04  0.25500000920E-02 0.  1.
    10030    2    1    2    0    0  0.00000000000E+00  0.00000000000E+00 -0.87983914193E+03  0.31257281372E+04  0.29993431734E+04 0.  0.
        3    1    3    3  502    0 -0.10038378764E+04 -0.53902298334E+03 -0.14560857638E+04  0.18488975149E+04  0.10100000352E+00 0.  1.
       -3    1    3    3    0  502  0.10038378764E+04  0.53902298334E+03  0.57624662188E+03  0.12768306223E+04  0.10100000352E+00 0. -1.
</event>
<event>
 5   0  0.1810055E-07  0.2999614E+04  0.7818609E-02  0.8243841E-01
        2   -1    0    0  501    0  0.00000000000E+00  0.00000000000E+00  0.14261614993E+04  0.14261614993E+04  0.25500000920E-02 0.  1.
       -2   -1    0    0    0  501  0.00000000000E+00  0.00000000000E+00 -0.15772550541E+04  0.15772550541E+04  0.25500000920E-02 0. -1.
    10030    2    1    2    0    0  0.00000000000E+00  0.00000000000E+00 -0.15109355480E+03  0.30034165534E+04  0.29996135970E+04 0.  0.
        4    1    3    3  502    0  0.25961709769E+03  0.12432488758E+04 -0.87427363115E+03  0.15418900089E+04  0.12699999809E+01 0. -1.
       -4    1    3    3    0  502 -0.25961709769E+03 -0.12432488758E+04  0.72318007635E+03  0.14615265445E+04  0.12699999809E+01 0.  1.
</event>
<event>
 5   0  0.6017625E-08  0.2998803E+04  0.7818609E-02  0.8244073E-01
        3   -1    0    0  501    0  0.00000000000E+00  0.00000000000E+00  0.22579031589E+04  0.22579031612E+04  0.10100000352E+00 0.  1.
       -3   -1    0    0    0  501  0.00000000000E+00  0.00000000000E+00 -0.99570492214E+03  0.99570492726E+03  0.10100000352E+00 0. -1.
    10030    2    1    2    0    0  0.00000000000E+00  0.00000000000E+00  0.12621982368E+04  0.32536080884E+04  0.29988032954E+04 0.  0.
        2    1    3    3  502    0 -0.54549347419E+03  0.44069423319E+03 -0.80681443465E+03  0.10689827265E+04  0.25500000920E-02 0. -1.
       -2    1    3    3    0  502  0.54549347419E+03 -0.44069423319E+03  0.20690126714E+04  0.21846253620E+04  0.25500000920E-02 0.  1.
</event>
<event>
 5   0  0.1813720E-07  0.2999061E+04  0.7818609E-02  0.8243999E-01
        2   -1    0    0  501    0  0.00000000000E+00  0.00000000000E+00  0.24555041861E+04  0.24555041861E+04  0.25500000920E-02 0.  1.
       -2   -1    0    0    0  501  0.00000000000E+00  0.00000000000E+00 -0.91573510007E+03  0.91573510008E+03  0.25500000920E-02 0. -1.
    10030    2    1    2    0    0  0.00000000000E+00  0.00000000000E+00  0.15397690860E+04  0.33712392861E+04  0.29990607674E+04 0.  0.
        3    1    3    3  502    0  0.10363246666E+04 -0.93030306362E+03  0.14486285175E+03  0.14001492280E+04  0.10100000352E+00 0. -1.
       -3    1    3    3    0  502 -0.10363246666E+04  0.93030306362E+03  0.13949062342E+04  0.19710900581E+04  0.10100000352E+00 0.  1.
</event>
<event>
 5   0  0.1810055E-07  0.2998086E+04  0.7818609E-02  0.8244278E-01
        2   -1    0    0  501    0  0.00000000000E+00  0.00000000000E+00  0.11326810429E+04  0.11326810429E+04  0.25500000920E-02 0.  1.
       -2   -1    0    0    0  501  0.00000000000E+00  0.00000000000E+00 -0.19839028930E+04  0.19839028930E+04  0.25500000920E-02 0. -1.
    10030    2    1    2    0    0  0.00000000000E+00  0.00000000000E+00 -0.85122185013E+03  0.31165839359E+04  0.29980855211E+04 0.  0.
        4    1    3    3  502    0 -0.61341945838E+02 -0.13586050018E+03 -0.19761785443E+04  0.19817931682E+04  0.12699999809E+01 0. -1.
       -4    1    3    3    0  502  0.61341945838E+02  0.13586050018E+03  0.11249566942E+04  0.11347907677E+04  0.12699999809E+01 0.  1.
</event>
<event>
 5   0  0.1817566E-07  0.2999806E+04  0.7818609E-02  0.8243786E-01
       -2   -1    0    0    0  501  0.00000000000E+00  0.00000000000E+00  0.22775293950E+04  0.22775293950E+04  0.25500000920E-02 0.  1.
        2   -1    0    0  501    0  0.00000000000E+00  0.00000000000E+00 -0.98778463629E+03  0.98778463629E+03  0.25500000920E-02 0. -1.
    10030    2    1    2    0    0  0.00000000000E+00  0.00000000000E+00  0.12897447587E+04  0.32653140313E+04  0.29998056905E+04 0.  0.
        1    1    3    3  502    0  0.22888972297E+03  0.14133647875E+04  0.11313248941E+04  0.18247976720E+04  0.50400001928E-02 0.  1.
       -1    1    3    3    0  502 -0.22888972297E+03 -0.14133647875E+04  0.15841986467E+03  0.14405163593E+04  0.50400001928E-02 0. -1.
</event>
<event>
 5   0  0.6525507E-08  0.2997592E+04  0.7818609E-02  0.8244419E-01
        1   -1    0    0  501    0  0.00000000000E+00  0.00000000000E+00  0.26963449936E+04  0.26963449936E+04  0.50400001928E-02 0. -1.
       -1   -1    0    0    0  501  0.00000000000E+00  0.00000000000E+00 -0.83312402302E+03  0.83312402303E+03  0.50400001928E-02 0.  1.
    10030    2    1    2    0    0  0.00000000000E+00  0.00000000000E+00  0.18632209706E+04  0.35294690166E+04  0.29975922261E+04 0.  0.
        4    1    3    3  502    0 -0.12908789073E+04 -0.31787965962E+03  0.17464874460E+04  0.21949113521E+04  0.12699999809E+01 0. -1.
       -4    1    3    3    0  502  0.12908789073E+04  0.31787965962E+03  0.11673352452E+03  0.13345576645E+04  0.12699999809E+01 0.  1.
</event>
<event>
 5   0  0.1813720E-07  0.3002990E+04  0.7818609E-02  0.8242878E-01
        2   -1    0    0  501    0  0.00000000000E+00  0.00000000000E+00  0.28971757770E+04  0.28971757770E+04  0.25500000920E-02 0.  1.
       -2   -1    0    0    0  501  0.00000000000E+00  0.00000000000E+00 -0.77816702519E+03  0.77816702519E+03  0.25500000920E-02 0. -1.
    10030    2    1    2    0    0  0.00000000000E+00  0.00000000000E+00  0.21190087518E+04  0.36753428022E+04  0.30029896143E+04 0.  0.
        3    1    3    3  502    0 -0.92395563134E+03 -0.10341857151E+04  0.17639113272E+04  0.22437952853E+04  0.10100000352E+00 0.  1.
       -3    1    3    3    0  502  0.92395563134E+03  0.10341857151E+04  0.35509742464E+03  0.14315475169E+04  0.10100000352E+00 0. -1.
</event>
<event>
 5   0  0.1914439E-07  0.3000179E+04  0.7818609E-02  0.8243680E-01
       -2   -1    0    0    0  501  0.00000000000E+00  0.00000000000E+00  0.17275250471E+04  0.17275250471E+04  0.25500000920E-02 0.  1.
        2   -1    0    0  501    0  0.00000000000E+00  0.00000000000E+00 -0.13025964065E+04  0.13025964065E+04  0.25500000920E-02 0. -1.
    10030    2    1    2    0    0  0.00000000000E+00  0.00000000000E+00  0.42492864057E+03  0.30301214535E+04  0.30001786070E+04 0.  0.
        5    1    3    3  502    0 -0.22257975653E+03 -0.11824346657E+04  0.11172581068E+04  0.16419443516E+04  0.46999998093E+01 0.  1.
       -5    1    3    3    0  502  0.22257975653E+03  0.11824346657E+04 -0.69232946622E+03  0.13881771019E+04  0.46999998093E+01 0. -1.
</event>
<event>
 5   0  0.6679022E-08  0.3003148E+04  0.7818609E-02  0.8242833E-01
        1   -1    0    0  501    0  0.00000000000E+00  0.00000000000E+00  0.12952035496E+04  0.12952035496E+04  0.50400001928E-02 0. -1.
       -1   -1    0    0    0  501  0.00000000000E+00  0.00000000000E+00 -0.17408260098E+04  0.17408260098E+04  0.50400001928E-02 0.  1.
    10030    2    1    2    0    0  0.00000000000E+00  0.00000000000E+00 -0.44562246019E+03  0.30360295594E+04  0.30031477001E+04 0.  0.
        3    1    3    3  502    0  0.95450513945E+02 -0.29198133377E+03  0.12630983374E+04  0.12999158896E+04  0.10100000352E+00 0. -1.
       -3    1    3    3    0  502 -0.95450513945E+02  0.29198133377E+03 -0.17087207976E+04  0.17361136697E+04  0.10100000352E+00 0.  1.
</event>
<event>
 5   0  0.6525507E-08  0.3000605E+04  0.7818609E-02  0.8243558E-01
       -1   -1    0    0    0  501  0.00000000000E+00  0.00000000000E+00  0.14287028906E+04  0.14287028906E+04  0.50400001928E-02 0.  1.
        1   -1    0    0  501    0  0.00000000000E+00  0.00000000000E+00 -0.15754899909E+04  0.15754899909E+04  0.50400001928E-02 0. -1.
    10030    2    1    2    0    0  0.00000000000E+00  0.00000000000E+00 -0.14678710031E+03  0.30041928815E+04  0.30006046751E+04 0.  0.
        4    1    3    3  502    0  0.54625772853E+03  0.10656118391E+04 -0.97834354610E+03  0.15463129711E+04  0.12699999809E+01 0. -1.
       -4    1    3    3    0  502 -0.54625772853E+03 -0.10656118391E+04  0.83155644579E+03  0.14578799104E+04  0.12699999809E+01 0.  1.
</event>
<event>
 5   0  0.1810055E-07  0.2996832E+04  0.7818609E-02  0.8244636E-01
        2   -1    0    0  501    0  0.00000000000E+00  0.00000000000E+00  0.25851376459E+04  0.25851376459E+04  0.25500000920E-02 0. -1.
       -2   -1    0    0    0  501  0.00000000000E+00  0.00000000000E+00 -0.86852249630E+03  0.86852249630E+03  0.25500000920E-02 0.  1.
    10030    2    1    2    0    0  0.00000000000E+00  0.00000000000E+00  0.17166151496E+04  0.34536601422E+04  0.29968317947E+04 0.  0.
        4    1    3    3  502    0 -0.31831417727E+03 -0.94287242444E+03 -0.43268755781E+03  0.10851508926E+04  0.12699999809E+01 0.  1.
       -4    1    3    3    0  502  0.31831417727E+03  0.94287242444E+03  0.21493027074E+04  0.23685092495E+04  0.12699999809E+01 0. -1.
</event>
<event>
 5   0  0.6679022E-08  0.2999545E+04  0.7818609E-02  0.8243861E-01
       -1   -1    0    0    0  501  0.00000000000E+00  0.00000000000E+00  0.14928456209E+04  0.14928456209E+04  0.50400001928E-02 0.  1.
        1   -1    0    0  501    0  0.00000000000E+00  0.00000000000E+00 -0.15067314438E+04  0.15067314438E+04  0.50400001928E-02 0. -1.
    10030    2    1    2    0    0  0.00000000000E+00  0.00000000000E+00 -0.13885822891E+02  0.29995770648E+04  0.29995449241E+04 0.  0.
        3    1    3    3  502    0 -0.47374887352E+03  0.75479194277E+01 -0.14299207238E+04  0.15063758670E+04  0.10100000352E+00 0. -1.
       -3    1    3    3    0  502  0.47374887352E+03 -0.75479194277E+01  0.14160349009E+04  0.14932011978E+04  0.10100000352E+00 0.  1.
</event>
<event>
 5   0  0.1914439E-07  0.3000311E+04  0.7818609E-02  0.8243642E-01
       -2   -1    0    0    0  501  0.00000000000E+00  0.00000000000E+00  0.87834074349E+03  0.87834074350E+03  0.25500000920E-02 0.  1.
        2   -1    0    0  501    0  0.00000000000E+00  0.00000000000E+00 -0.25621800771E+04  0.25621800771E+04  0.25500000920E-02 0. -1.
    10030    2    1    2    0    0  0.00000000000E+00  0.00000000000E+00 -0.16838393336E+04  0.34405208206E+04  0.30003114198E+04 0.  0.
        5    1    3    3  502    0  0.12721333672E+03  0.18580817143E+03  0.85884118419E+03  0.88788410239E+03  0.46999998093E+01 0.  1.
       -5    1    3    3    0  502 -0.12721333672E+03 -0.18580817143E+03 -0.25426805178E+04  0.25526367182E+04  0.46999998093E+01 0. -1.
</event>
<event>
 5   0  0.1821305E-07  0.3000279E+04  0.7818609E-02  0.8243651E-01
       -2   -1    0    0    0  501  0.00000000000E+00  0.00000000000E+00  0.10332406951E+04  0.10332406951E+04  0.25500000920E-02 0. -1.
        2   -1    0    0  501    0  0.00000000000E+00  0.00000000000E+00 -0.21780200878E+04  0.21780200878E+04  0.25500000920E-02 0.  1.
    10030    2    1    2    0    0  0.00000000000E+00  0.00000000000E+00 -0.11447793927E+04  0.32112607829E+04  0.30002793133E+04 0.  0.
        2    1    3    3  502    0  0.73824625727E+03 -0.74432533817E+02 -0.19678641886E+04  0.21031018052E+04  0.25500000920E-02 0.  1.
       -2    1    3    3    0  502 -0.73824625727E+03  0.74432533817E+02  0.82308479588E+03  0.11081589776E+04  0.25500000920E-02 0. -1.
</event>
<event>
 5   0  0.1914439E-07  0.3000138E+04  0.7818609E-02  0.8243691E-01
       -2   -1    0    0    0  501  0.00000000000E+00  0.00000000000E+00  0.81656142840E+03  0.81656142841E+03  0.25500000920E-02 0.  1.
        2   -1    0    0  501    0  0.00000000000E+00  0.00000000000E+00 -0.27557109316E+04  0.27557109316E+04  0.25500000920E-02 0. -1.
    10030    2    1    2    0    0  0.00000000000E+00  0.00000000000E+00 -0.19391495032E+04  0.35722723600E+04  0.30001381666E+04 0.  0.
        5    1    3    3  502    0  0.10766313233E+04  0.10379464500E+04 -0.83011848779E+03  0.17104346328E+04  0.46999998093E+01 0. -1.
       -5    1    3    3    0  502 -0.10766313233E+04 -0.10379464500E+04 -0.11090310154E+04  0.18618377272E+04  0.46999998093E+01 0.  1.
</event>
<event>
 5   0  0.6464436E-08  0.2997120E+04  0.7818609E-02  0.8244554E-01
       -1   -1    0    0    0  501  0.00000000000E+00  0.00000000000E+00  0.16927745906E+04  0.16927745906E+04  0.50400001928E-02 0. -1.
        1   -1    0    0  501    0  0.00000000000E+00  0.00000000000E+00 -0.13266278862E+04  0.13266278862E+04  0.50400001928E-02 0.  1.
    10030    2    1    2    0    0  0.00000000000E+00  0.00000000000E+00  0.36614670441E+03  0.30194024767E+04  0.29971199354E+04 0.  0.
        5    1    3    3  502    0  0.64774201481E+03  0.27911218621E+03 -0.11489467304E+04  0.13481743246E+04  0.46999998093E+01 0.  1.
       -5    1    3    3    0  502 -0.64774201481E+03 -0.27911218621E+03  0.15150934348E+04  0.16712281521E+04  0.46999998093E+01 0. -1.
</event>
<event>
 5   0  0.6525507E-08  0.2999098E+04  0.7818609E-02  0.8243989E-01
       -1   -1    0    0    0  501  0.00000000000E+00  0.00000000000E+00  0.18630525885E+04  0.18630525885E+04  0.50400001928E-02 0. -1.
        1   -1    0    0  501    0  0.00000000000E+00  0.00000000000E+00 -0.12069692124E+04  0.12069692124E+04  0.50400001928E-02 0.  1.
    10030    2    1    2    0    0  0.00000000000E+00  0.00000000000E+00  0.65608337610E+03  0.30700218010E+04  0.29990979414E+04 0.  0.
        4    1    3    3  502    0  0.14055492310E+04 -0.10260457322E+02  0.86286401771E+03  0.16493058672E+04  0.12699999809E+01 0. -1.
       -4    1    3    3    0  502 -0.14055492310E+04  0.10260457322E+02 -0.20678064162E+03  0.14207159337E+04  0.12699999809E+01 0.  1.
</event>
<event>
 5   0  0.1813720E-07  0.3000399E+04  0.7818609E-02  0.8243617E-01
       -2   -1    0    0    0  501  0.00000000000E+00  0.00000000000E+00  0.11168465280E+04  0.11168465280E+04  0.25500000920E-02 0.  1.
        2   -1    0    0  501    0  0.00000000000E+00  0.00000000000E+00 -0.20151364218E+04  0.20151364218E+04  0.25500000920E-02 0. -1.
    10030    2    1    2    0    0  0.00000000000E+00  0.00000000000E+00 -0.89828989376E+03  0.31319829498E+04  0.30003987176E+04 0.  0.
        3    1    3    3  502    0 -0.14263248966E+04  0.10351348690E+03  0.24034170712E+02  0.14302780863E+04  0.10100000352E+00 0.  1.
       -3    1    3    3    0  502  0.14263248966E+04 -0.10351348690E+03 -0.92232406447E+03  0.17017048635E+04  0.10100000352E+00 0. -1.
</event>
<event>
 5   0  0.6636007E-08  0.3000362E+04  0.7818609E-02  0.8243627E-01
       -1   -1    0    0    0  501  0.00000000000E+00  0.00000000000E+00  0.18620264843E+04  0.18620264843E+04  0.50400001928E-02 0.  1.
        1   -1    0    0  501    0  0.00000000000E+00  0.00000000000E+00 -0.12086528952E+04  0.12086528952E+04  0.50400001928E-02 0. -1.
    10030    2    1    2    0    0  0.00000000000E+00  0.00000000000E+00  0.65337358907E+03  0.30706793795E+04  0.30003624456E+04 0.  0.
        2    1    3    3  502    0 -0.93171303769E+03 -0.10270494857E+04  0.91248565164E+03  0.16599849081E+04  0.25500000920E-02 0. -1.
       -2    1    3    3    0  502  0.93171303769E+03  0.10270494857E+04 -0.25911206256E+03  0.14106944714E+04  0.25500000920E-02 0.  1.
</event>
<event>
 5   0  0.1810055E-07  0.3001396E+04  0.7818609E-02  0.8243332E-01
       -2   -1    0    0    0  501  0.00000000000E+00  0.00000000000E+00  0.16433356561E+04  0.16433356561E+04  0.25500000920E-02 0. -1.
        2   -1    0    0  501    0  0.00000000000E+00  0.00000000000E+00 -0.13704410288E+04  0.13704410288E+04  0.25500000920E-02 0.  1.
    10030    2    1    2    0    0  0.00000000000E+00  0.00000000000E+00  0.27289462729E+03  0.30137766850E+04  0.30013960800E+04 0.  0.
        4    1    3    3  502    0 -0.10715257233E+04  0.35619989079E+03  0.11289816561E+04  0.15967613881E+04  0.12699999809E+01 0. -1.
       -4    1    3    3    0  502  0.10715257233E+04 -0.35619989079E+03 -0.85608702879E+03  0.14170152969E+04  0.12699999809E+01 0.  1.
</event>
<event>
 5   0  0.6525507E-08  0.2999908E+04  0.7818609E-02  0.8243757E-01
       -1   -1    0    0    0  501  0.00000000000E+00  0.00000000000E+00  0.12751254012E+04  0.12751254012E+04  0.50400001928E-02 0.  1.
        1   -1    0    0  501    0  0.00000000000E+00  0.00000000000E+00 -0.17644240752E+04  0.17644240752E+04  0.50400001928E-02 0. -1.
    10030    2    1    2    0    0  0.00000000000E+00  0.00000000000E+00 -0.48929867397E+03  0.30395494764E+04  0.29999079698E+04 0.  0.
        4    1    3    3  502    0  0.33971446506E+03 -0.28188726350E+03  0.12078186329E+04  0.12859602676E+04  0.12699999809E+01 0.  1.
       -4    1    3    3    0  502 -0.33971446506E+03  0.28188726350E+03 -0.16971173068E+04  0.17535892088E+04  0.12699999809E+01 0. -1.
</event>
<event>
 5   0  0.6374748E-08  0.3002185E+04  0.7818609E-02  0.8243107E-01
       -1   -1    0    0    0  501  0.00000000000E+00  0.00000000000E+00  0.10063082114E+04  0.10063082114E+04  0.50400001928E-02 0. -1.
        1   -1    0    0  501    0  0.00000000000E+00  0.00000000000E+00 -0.22391538262E+04  0.22391538262E+04  0.50400001928E-02 0.  1.
    10030    2    1    2    0    0  0.00000000000E+00  0.00000000000E+00 -0.12328456148E+04  0.32454620377E+04  0.30021851255E+04 0.  0.
        1    1    3    3  502    0 -0.38588222584E+03  0.58613060954E+03  0.81806587198E+03  0.10778153620E+04  0.50400001928E-02 0. -1.
       -1    1    3    3    0  502  0.38588222584E+03 -0.58613060954E+03 -0.20509114868E+04  0.21676466756E+04  0.50400001928E-02 0.  1.
</event>
<event>
 5   0  0.6464436E-08  0.3000238E+04  0.7818609E-02  0.8243663E-01
       -1   -1    0    0    0  501  0.00000000000E+00  0.00000000000E+00  0.76489784229E+03  0.76489784231E+03  0.50400001928E-02 0. -1.
        1   -1    0    0  501    0  0.00000000000E+00  0.00000000000E+00 -0.29420368739E+04  0.29420368740E+04  0.50400001928E-02 0.  1.
    10030    2    1    2    0    0  0.00000000000E+00  0.00000000000E+00 -0.21771390317E+04  0.37069347163E+04  0.30002384284E+04 0.  0.
        5    1    3    3  502    0  0.60672633449E+03  0.13212747049E+04 -0.63216606057E+03  0.15854146805E+04  0.46999998093E+01 0.  1.
       -5    1    3    3    0  502 -0.60672633449E+03 -0.13212747049E+04 -0.15449729711E+04  0.21215200358E+04  0.46999998093E+01 0. -1.
</event>
<event>
 5   0  0.6679022E-08  0.3002977E+04  0.7818609E-02  0.8242881E-01
        1   -1    0    0  501    0  0.00000000000E+00  0.00000000000E+00  0.25421479552E+04  0.25421479552E+04  0.50400001928E-02 0.  1.
       -1   -1    0    0    0  501  0.00000000000E+00  0.00000000000E+00 -0.88683583343E+03  0.88683583344E+03  0.50400001928E-02 0. -1.
    10030    2    1    2    0    0  0.00000000000E+00  0.00000000000E+00  0.16553121218E+04  0.34289837886E+04  0.30029771232E+04 0.  0.
        3    1    3    3  502    0  0.58690429881E+03 -0.10278329596E+04  0.18826091368E+04  0.22237613228E+04  0.10100000352E+00 0. -1.
       -3    1    3    3    0  502 -0.58690429881E+03  0.10278329596E+04 -0.22729701501E+03  0.12052224658E+04  0.10100000352E+00 0.  1.
</event>
<event>
 5   0  0.1821305E-07  0.3000415E+04  0.7818609E-02  0.8243612E-01
        2   -1    0    0  501    0  0.00000000000E+00  0.00000000000E+00  0.16168454995E+04  0.16168454995E+04  0.25500000920E-02 0.  1.
       -2   -1    0    0    0  501  0.00000000000E+00  0.00000000000E+00 -0.13919835055E+04  0.13919835055E+04  0.25500000920E-02 0. -1.
    10030    2    1    2    0    0  0.00000000000E+00  0.00000000000E+00  0.22486199398E+03  0.30088290050E+04  0.30004148155E+04 0.  0.
        2    1    3    3  502    0  0.66069374887E+02  0.13907922121E+04  0.67252583904E+03  0.15462726615E+04  0.25500000920E-02 0.  1.
       -2    1    3    3    0  502 -0.66069374887E+02 -0.13907922121E+04 -0.44766384506E+03  0.14625563435E+04  0.25500000920E-02 0. -1.
</event>
<event>
 5   0  0.6525507E-08  0.3000876E+04  0.7818609E-02  0.8243481E-01
        1   -1    0    0  501    0  0.00000000000E+00  0.00000000000E+00  0.22525047828E+04  0.22525047828E+04  0.50400001928E-02 0. -1.
       -1   -1    0    0    0  501  0.00000000000E+00  0.00000000000E+00 -0.99947112911E+03  0.99947112912E+03  0.50400001928E-02 0.  1.
    10030    2    1    2    0    0  0.00000000000E+00  0.00000000000E+00  0.12530336537E+04  0.32519759119E+04  0.30008755380E+04 0.  0.
        4    1    3    3  502    0  0.78445927941E+03  0.12760349999E+04  0.53160883480E+03  0.15894185252E+04  0.12699999809E+01 0. -1.
       -4    1    3    3    0  502 -0.78445927941E+03 -0.12760349999E+04  0.72142481886E+03  0.16625573867E+04  0.12699999809E+01 0.  1.
</event>
<event>
 5   0  0.1813720E-07  0.3002575E+04  0.7818609E-02  0.8242996E-01
       -2   -1    0    0    0  501  0.00000000000E+00  0.00000000000E+00  0.10516681245E+04  0.10516681245E+04  0.25500000920E-02 0.  1.
        2   -1    0    0  501    0  0.00000000000E+00  0.00000000000E+00 -0.21431327508E+04  0.21431327508E+04  0.25500000920E-02 0. -1.
    10030    2    1    2    0    0  0.00000000000E+00  0.00000000000E+00 -0.10914646263E+04  0.31948008753E+04  0.30025751618E+04 0.  0.
        3    1    3    3  502    0  0.22428882230E+03  0.69980326620E+02  0.10319847031E+04  0.10583927246E+04  0.10100000352E+00 0.  1.
       -3    1    3    3    0  502 -0.22428882230E+03 -0.69980326620E+02 -0.21234493294E+04  0.21364081508E+04  0.10100000352E+00 0. -1.
</event>
<event>
 5   0  0.1810055E-07  0.2999660E+04  0.7818609E-02  0.8243828E-01
        2   -1    0    0  501    0  0.00000000000E+00  0.00000000000E+00  0.22073213236E+04  0.22073213236E+04  0.25500000920E-02 0. -1.
       -2   -1    0    0    0  501  0.00000000000E+00  0.00000000000E+00 -0.10191038562E+04  0.10191038562E+04  0.25500000920E-02 0.  1.
    10030    2    1    2    0    0  0.00000000000E+00  0.00000000000E+00  0.11882174674E+04  0.32264251798E+04  0.29996597626E+04 0.  0.
        4    1    3    3  502    0 -0.77143218249E+02  0.30682199010E+03  0.21710225028E+04  0.21939533108E+04  0.12699999809E+01 0. -1.
       -4    1    3    3    0  502  0.77143218249E+02 -0.30682199010E+03 -0.98280503539E+03  0.10324718690E+04  0.12699999809E+01 0.  1.
</event>
<event>
 5   0  0.6374748E-08  0.2999753E+04  0.7818609E-02  0.8243801E-01
       -1   -1    0    0    0  501  0.00000000000E+00  0.00000000000E+00  0.16853635990E+04  0.16853635990E+04  0.50400001928E-02 0. -1.
        1   -1    0    0  501    0  0.00000000000E+00  0.00000000000E+00 -0.13348040389E+04  0.13348040389E+04  0.50400001928E-02 0.  1.
    10030    2    1    2    0    0  0.00000000000E+00  0.00000000000E+00  0.35055956014E+03  0.30201676380E+04  0.29997534159E+04 0.  0.
        1    1    3    3  502    0  0.33359122515E+03 -0.19680930197E+02  0.16474066844E+04  0.16809578306E+04  0.50400001928E-02 0. -1.
       -1    1    3    3    0  502 -0.33359122515E+03  0.19680930197E+02 -0.12968471242E+04  0.13392098074E+04  0.50400001928E-02 0.  1.
</event>
<event>
 5   0  0.1914439E-07  0.3001165E+04  0.7818609E-02  0.8243398E-01
        2   -1    0    0  501    0  0.00000000000E+00  0.00000000000E+00  0.14574136775E+04  0.14574136775E+04  0.25500000920E-02 0. -1.
       -2   -1    0    0    0  501  0.00000000000E+00  0.00000000000E+00 -0.15450297722E+04  0.15450297722E+04  0.25500000920E-02 0.  1.
    10030    2    1    2    0    0  0.00000000000E+00  0.00000000000E+00 -0.87616094683E+02  0.30024434497E+04  0.30011647887E+04 0.  0.
        5    1    3    3  502    0 -0.37397072533E+03 -0.13418601383E+04 -0.60197289908E+03  0.15175098666E+04  0.46999998093E+01 0.  1.
       -5    1    3    3    0  502  0.37397072533E+03  0.13418601383E+04  0.51435680439E+03  0.14849335831E+04  0.46999998093E+01 0. -1.
</event>
<event>
 5   0  0.1817566E-07  0.3001146E+04  0.7818609E-02  0.8243404E-01
       -2   -1    0    0    0  501  0.00000000000E+00  0.00000000000E+00  0.81495339058E+03  0.81495339059E+03  0.25500000920E-02 0.  1.
        2   -1    0    0  501    0  0.00000000000E+00  0.00000000000E+00 -0.27630043179E+04  0.27630043179E+04  0.25500000920E-02 0. -1.
    10030    2    1    2    0    0  0.00000000000E+00  0.00000000000E+00 -0.19480509274E+04  0.35779577085E+04  0.30011462724E+04 0.  0.
        1    1    3    3  502    0  0.20149045336E+03 -0.31898426982E+03  0.75748236935E+03  0.84624399974E+03  0.50400001928E-02 0.  1.
       -1    1    3    3    0  502 -0.20149045336E+03  0.31898426982E+03 -0.27055332967E+04  0.27317137088E+04  0.50400001928E-02 0. -1.
</event>
<event>
 5   0  0.1813720E-07  0.2999580E+04  0.7818609E-02  0.8243851E-01
       -2   -1    0    0    0  501  0.00000000000E+00  0.00000000000E+00  0.11048415342E+04  0.11048415342E+04  0.25500000920E-02 0.  1.
        2   -1    0    0  501    0  0.00000000000E+00  0.00000000000E+00 -0.20359210710E+04  0.20359210710E+04  0.25500000920E-02 0. -1.
    10030    2    1    2    0    0  0.00000000000E+00  0.00000000000E+00 -0.93107953675E+03  0.31407626052E+04  0.29995800770E+04 0.  0.
        3    1    3    3  502    0 -0.64373601968E+03 -0.18353206422E+03 -0.18708314588E+04  0.19869802311E+04  0.10100000352E+00 0. -1.
       -3    1    3    3    0  502  0.64373601968E+03  0.18353206422E+03  0.93975192201E+03  0.11537823741E+04  0.10100000352E+00 0.  1.
</event>
<event>
 5   0  0.6374748E-08  0.2996106E+04  0.7818609E-02  0.8244844E-01
        1   -1    0    0  501    0  0.00000000000E+00  0.00000000000E+00  0.15401510323E+04  0.15401510323E+04  0.50400001928E-02 0. -1.
       -1   -1    0    0    0  501  0.00000000000E+00  0.00000000000E+00 -0.14571055113E+04  0.14571055113E+04  0.50400001928E-02 0.  1.
    10030    2    1    2    0    0  0.00000000000E+00  0.00000000000E+00  0.83045521019E+02  0.29972565436E+04  0.29961058442E+04 0.  0.
        1    1    3    3  502    0  0.41479339817E+03  0.12499025605E+04  0.75583662120E+03  0.15184198932E+04  0.50400001928E-02 0. -1.
       -1    1    3    3    0  502 -0.41479339817E+03 -0.12499025605E+04 -0.67279110018E+03  0.14788366504E+04  0.50400001928E-02 0.  1.
</event>
<event>
 5   0  0.6636007E-08  0.2997329E+04  0.7818609E-02  0.8244494E-01
        1   -1    0    0  501    0  0.00000000000E+00  0.00000000000E+00  0.18170861240E+04  0.18170861240E+04  0.50400001928E-02 0.  1.
       -1   -1    0    0    0  501  0.00000000000E+00  0.00000000000E+00 -0.12360422138E+04  0.12360422138E+04  0.50400001928E-02 0. -1.
    10030    2    1    2    0    0  0.00000000000E+00  0.00000000000E+00  0.58104391020E+03  0.30531283379E+04  0.29973289145E+04 0.  0.
        2    1    3    3  502    0 -0.31061472183E+02  0.14110703582E+04  0.80379827780E+03  0.16242462997E+04  0.25500000920E-02 0.  1.
       -2    1    3    3    0  502  0.31061472183E+02 -0.14110703582E+04 -0.22275436760E+03  0.14288820382E+04  0.25500000920E-02 0. -1.
</event>
<event>
 5   0  0.1817566E-07  0.2999822E+04  0.7818609E-02  0.8243782E-01
        2   -1    0    0  501    0  0.00000000000E+00  0.00000000000E+00  0.12104755794E+04  0.12104755794E+04  0.25500000920E-02 0.  1.
       -2   -1    0    0    0  501  0.00000000000E+00  0.00000000000E+00 -0.18585525179E+04  0.18585525179E+04  0.25500000920E-02 0. -1.
    10030    2    1    2    0    0  0.00000000000E+00  0.00000000000E+00 -0.64807693850E+03  0.30690280973E+04  0.29998216186E+04 0.  0.
        1    1    3    3  502    0  0.31037720640E+03  0.90865602859E+03 -0.15028988887E+04  0.17834502680E+04  0.50400001928E-02 0. -1.
       -1    1    3    3    0  502 -0.31037720640E+03 -0.90865602859E+03  0.85482195024E+03  0.12855778293E+04  0.50400001928E-02 0.  1.
</event>
<event>
 5   0  0.1813720E-07  0.3000600E+04  0.7818609E-02  0.8243560E-01
        2   -1    0    0  501    0  0.00000000000E+00  0.00000000000E+00  0.10097009629E+04  0.10097009629E+04  0.25500000920E-02 0. -1.
       -2   -1    0    0    0  501  0.00000000000E+00  0.00000000000E+00 -0.22292736510E+04  0.22292736510E+04  0.25500000920E-02 0.  1.
    10030    2    1    2    0    0  0.00000000000E+00  0.00000000000E+00 -0.12195726881E+04  0.32389746139E+04  0.30005997747E+04 0.  0.
        3    1    3    3  502    0  0.13127365228E+04 -0.12237498351E+03 -0.13826602611E+04  0.19104978992E+04  0.10100000352E+00 0.  1.
       -3    1    3    3    0  502 -0.13127365228E+04  0.12237498351E+03  0.16308757296E+03  0.13284767147E+04  0.10100000352E+00 0. -1.
</event>
<event>
 5   0  0.6464436E-08  0.2999785E+04  0.7818609E-02  0.8243792E-01
        1   -1    0    0  501    0  0.00000000000E+00  0.00000000000E+00  0.12170000187E+04  0.12170000187E+04  0.50400001928E-02 0. -1.
       -1   -1    0    0    0  501  0.00000000000E+00  0.00000000000E+00 -0.18485433610E+04  0.18485433610E+04  0.50400001928E-02 0.  1.
    10030    2    1    2    0    0  0.00000000000E+00  0.00000000000E+00 -0.63154334225E+03  0.30655433797E+04  0.29997848623E+04 0.  0.
        5    1    3    3  502    0  0.92918488210E+02 -0.20162517376E+03  0.12001092329E+04  0.12204797488E+04  0.46999998093E+01 0. -1.
       -5    1    3    3    0  502 -0.92918488210E+02  0.20162517376E+03 -0.18316525752E+04  0.18450636310E+04  0.46999998093E+01 0.  1.
</event>
<event>
 5   0  0.1813720E-07  0.2996522E+04  0.7818609E-02  0.8244725E-01
        2   -1    0    0  501    0  0.00000000000E+00  0.00000000000E+00  0.19026431808E+04  0.19026431808E+04  0.25500000920E-02 0. -1.
       -2   -1    0    0    0  501  0.00000000000E+00  0.00000000000E+00 -0.11798246567E+04  0.11798246567E+04  0.25500000920E-02 0.  1.
    10030    2    1    2    0    0  0.00000000000E+00  0.00000000000E+00  0.72281852416E+03  0.30824678375E+04  0.29965215418E+04 0.  0.
        3    1    3    3  502    0  0.68526735595E+03 -0.13141785793E+04  0.58708399922E+03  0.15941531669E+04  0.10100000352E+00 0. -1.
       -3    1    3    3    0  502 -0.68526735595E+03  0.13141785793E+04  0.13573452493E+03  0.14883146706E+04  0.10100000352E+00 0.  1.
</event>
<event>
 5   0  0.6525507E-08  0.2999251E+04  0.7818609E-02  0.8243945E-01
        1   -1    0    0  501    0  0.00000000000E+00  0.00000000000E+00  0.77598686878E+03  0.77598686879E+03  0.50400001928E-02 0. -1.
       -1   -1    0    0    0  501  0.00000000000E+00  0.00000000000E+00 -0.28980850334E+04  0.28980850334E+04  0.50400001928E-02 0.  1.
    10030    2    1    2    0    0  0.00000000000E+00  0.00000000000E+00 -0.21220981646E+04  0.36740719022E+04  0.29992505267E+04 0.  0.
        4    1    3    3  502    0 -0.12307126150E+03  0.61566422135E+03 -0.27293332492E+04  0.28006161049E+04  0.12699999809E+01 0.  1.
       -4    1    3    3    0  502  0.12307126150E+03 -0.61566422135E+03  0.60723508463E+03  0.87345579726E+03  0.12699999809E+01 0. -1.
</event>
<event>
 5   0  0.6525507E-08  0.2999906E+04  0.7818609E-02  0.8243758E-01
       -1   -1    0    0    0  501  0.00000000000E+00  0.00000000000E+00  0.14386776837E+04  0.14386776837E+04  0.50400001928E-02 0.  1.
        1   -1    0    0  501    0  0.00000000000E+00  0.00000000000E+00 -0.15638382920E+04  0.15638382920E+04  0.50400001928E-02 0. -1.
    10030    2    1    2    0    0  0.00000000000E+00  0.00000000000E+00 -0.12516060829E+03  0.30025159758E+04  0.29999061664E+04 0.  0.
        4    1    3    3  502    0  0.78644931332E+03 -0.98248234985E+03 -0.87942973322E+03  0.15353085549E+04  0.12699999809E+01 0. -1.
       -4    1    3    3    0  502 -0.78644931332E+03  0.98248234985E+03  0.75426912492E+03  0.14672074209E+04  0.12699999809E+01 0.  1.
</event>
<event>
 5   0  0.1813720E-07  0.3000037E+04  0.7818609E-02  0.8243720E-01
        2   -1    0    0  501    0  0.00000000000E+00  0.00000000000E+00  0.23918755307E+04  0.23918755307E+04  0.25500000920E-02 0.  1.
       -2   -1    0    0    0  501  0.00000000000E+00  0.00000000000E+00 -0.94070734288E+03  0.94070734288E+03  0.25500000920E-02 0. -1.
    10030    2    1    2    0    0  0.00000000000E+00  0.00000000000E+00  0.14511681878E+04  0.33325828735E+04  0.30000365831E+04 0.  0.
        3    1    3    3  502    0  0.10150081630E+04  0.27680385874E+03 -0.46213618093E+03  0.11491004338E+04  0.10100000352E+00 0. -1.
       -3    1    3    3    0  502 -0.10150081630E+04 -0.27680385874E+03  0.19133043687E+04  0.21834824397E+04  0.10100000352E+00 0.  1.
</event>
<event>
 5   0  0.6679022E-08  0.3004113E+04  0.7818609E-02  0.8242557E-01
        1   -1    0    0  501    0  0.00000000000E+00  0.00000000000E+00  0.21553486523E+04  0.21553486523E+04  0.50400001928E-02 0.  1.
       -1   -1    0    0    0  501  0.00000000000E+00  0.00000000000E+00 -0.10467787301E+04  0.10467787301E+04  0.50400001928E-02 0. -1.
    10030    2    1    2    0    0  0.00000000000E+00  0.00000000000E+00  0.11085699222E+04  0.32021273824E+04  0.30041125979E+04 0.  0.
        3    1    3    3  502    0  0.77161352923E+03 -0.11322024363E+03  0.19226331884E+04  0.20747830367E+04  0.10100000352E+00 0.  1.
       -3    1    3    3    0  502 -0.77161352923E+03  0.11322024363E+03 -0.81406326628E+03  0.11273443457E+04  0.10100000352E+00 0. -1.
</event>
<event>
 5   0  0.6374748E-08  0.3000913E+04  0.7818609E-02  0.8243470E-01
        1   -1    0    0  501    0  0.00000000000E+00  0.00000000000E+00  0.14864865745E+04  0.14864865745E+04  0.50400001928E-02 0.  1.
       -1   -1    0    0    0  501  0.00000000000E+00  0.00000000000E+00 -0.15145577203E+04  0.15145577203E+04  0.50400001928E-02 0. -1.
    10030    2    1    2    0    0  0.00000000000E+00  0.00000000000E+00 -0.28071145838E+02  0.30010442948E+04  0.30009130061E+04 0.  0.
        1    1    3    3  502    0  0.13845481189E+04 -0.42944035739E+03 -0.40132141899E+03  0.15041447389E+04  0.50400001928E-02 0. -1.
       -1    1    3    3    0  502 -0.13845481189E+04  0.42944035739E+03  0.37325027315E+03  0.14968995559E+04  0.50400001928E-02 0.  1.
</event>
<event>
 5   0  0.6525507E-08  0.2999846E+04  0.7818609E-02  0.8243775E-01
       -1   -1    0    0    0  501  0.00000000000E+00  0.00000000000E+00  0.10806367647E+04  0.10806367647E+04  0.50400001928E-02 0. -1.
        1   -1    0    0  501    0  0.00000000000E+00  0.00000000000E+00 -0.20818913818E+04  0.20818913818E+04  0.50400001928E-02 0.  1.
    10030    2    1    2    0    0  0.00000000000E+00  0.00000000000E+00 -0.10012546171E+04  0.31625281465E+04  0.29998455742E+04 0.  0.
        4    1    3    3  502    0  0.87763851001E+03  0.50651276769E+03  0.66522092898E+03  0.12121571826E+04  0.12699999809E+01 0. -1.
       -4    1    3    3    0  502 -0.87763851001E+03 -0.50651276769E+03 -0.16664755461E+04  0.19503709639E+04  0.12699999809E+01 0.  1.
</event>
<event>
 5   0  0.1821305E-07  0.3000512E+04  0.7818609E-02  0.8243585E-01
       -2   -1    0    0    0  501  0.00000000000E+00  0.00000000000E+00  0.10366079382E+04  0.10366079382E+04  0.25500000920E-02 0.  1.
        2   -1    0    0  501    0  0.00000000000E+00  0.00000000000E+00 -0.21712822778E+04  0.21712822778E+04  0.25500000920E-02 0. -1.
    10030    2    1    2    0    0  0.00000000000E+00  0.00000000000E+00 -0.11346743396E+04  0.32078902160E+04  0.30005122531E+04 0.  0.
        2    1    3    3  502    0  0.75992325703E+03  0.72726835494E+03 -0.17110224534E+04  0.20084821266E+04  0.25500000920E-02 0. -1.
       -2    1    3    3    0  502 -0.75992325703E+03 -0.72726835494E+03  0.57634811379E+03  0.11994080894E+04  0.25500000920E-02 0.  1.
</event>
<event>
 5   0  0.1821305E-07  0.2999264E+04  0.7818609E-02  0.8243941E-01
        2   -1    0    0  501    0  0.00000000000E+00  0.00000000000E+00  0.19406266529E+04  0.19406266529E+04  0.25500000920E-02 0.  1.
       -2   -1    0    0    0  501  0.00000000000E+00  0.00000000000E+00 -0.11588502327E+04  0.11588502327E+04  0.25500000920E-02 0. -1.
    10030    2    1    2    0    0  0.00000000000E+00  0.00000000000E+00  0.78177642022E+03  0.30994768857E+04  0.29992636752E+04 0.  0.
        2    1    3    3  502    0  0.23193732176E+03  0.64751829495E+03 -0.98623666056E+03  0.12023882959E+04  0.25500000920E-02 0. -1.
       -2    1    3    3    0  502 -0.23193732176E+03 -0.64751829495E+03  0.17680130808E+04  0.18970885897E+04  0.25500000920E-02 0.  1.
</event>
<event>
 5   0  0.1821305E-07  0.3004347E+04  0.7818609E-02  0.8242491E-01
        2   -1    0    0  501    0  0.00000000000E+00  0.00000000000E+00  0.28647479533E+04  0.28647479533E+04  0.25500000920E-02 0. -1.
       -2   -1    0    0    0  501  0.00000000000E+00  0.00000000000E+00 -0.78768737338E+03  0.78768737338E+03  0.25500000920E-02 0.  1.
    10030    2    1    2    0    0  0.00000000000E+00  0.00000000000E+00  0.20770605799E+04  0.36524353267E+04  0.30043473772E+04 0.  0.
        2    1    3    3  502    0 -0.43979721721E+03 -0.48283744661E+03  0.26831088877E+04  0.27614537649E+04  0.25500000920E-02 0. -1.
       -2    1    3    3    0  502  0.43979721721E+03  0.48283744661E+03 -0.60604830780E+03  0.89098156182E+03  0.25500000920E-02 0.  1.
</event>
<event>
 5   0  0.6636007E-08  0.2999482E+04  0.7818609E-02  0.8243879E-01
        1   -1    0    0  501    0  0.00000000000E+00  0.00000000000E+00  0.18745124489E+04  0.18745124489E+04  0.50400001928E-02 0.  1.
       -1   -1    0    0    0  501  0.00000000000E+00  0.00000000000E+00 -0.11998976997E+04  0.11998976997E+04  0.50400001928E-02 0. -1.
    10030    2    1    2    0    0  0.00000000000E+00  0.00000000000E+00  0.67461474913E+03  0.30744101486E+04  0.29994820723E+04 0.  0.
        2    1    3    3  502    0 -0.62704455662E+03 -0.84641903620E+03 -0.75688643588E+03  0.12971072190E+04  0.25500000920E-02 0. -1.
       -2    1    3    3    0  502  0.62704455662E+03  0.84641903620E+03  0.14315011850E+04  0.17773029296E+04  0.25500000920E-02 0.  1.
</event>
<event>
 5   0  0.6525507E-08  0.2990494E+04  0.7818609E-02  0.8246451E-01
       -1   -1    0    0    0  501  0.00000000000E+00  0.00000000000E+00  0.13422941001E+04  0.13422941002E+04  0.50400001928E-02 0. -1.
        1   -1    0    0  501    0  0.00000000000E+00  0.00000000000E+00 -0.16656288769E+04  0.16656288769E+04  0.50400001928E-02 0.  1.
    10030    2    1    2    0    0  0.00000000000E+00  0.00000000000E+00 -0.32333477679E+03  0.30079229771E+04  0.29904941495E+04 0.  0.
        4    1    3    3  502    0 -0.15887809494E+03 -0.12886389436E+04 -0.90756172956E+03  0.15841409287E+04  0.12699999809E+01 0.  1.
       -4    1    3    3    0  502  0.15887809494E+03  0.12886389436E+04  0.58422695277E+03  0.14237820484E+04  0.12699999809E+01 0. -1.
</event>
<event>
 5   0  0.6679022E-08  0.3000330E+04  0.7818609E-02  0.8243637E-01
       -1   -1    0    0    0  501  0.00000000000E+00  0.00000000000E+00  0.13742815515E+04  0.13742815515E+04  0.50400001928E-02 0. -1.
        1   -1    0    0  501    0  0.00000000000E+00  0.00000000000E+00 -0.16375796084E+04  0.16375796084E+04  0.50400001928E-02 0.  1.
    10030    2    1    2    0    0  0.00000000000E+00  0.00000000000E+00 -0.26329805693E+03  0.30118611599E+04  0.30003302784E+04 0.  0.
        3    1    3    3  502    0  0.87014027101E+03 -0.12083521431E+04  0.51360264726E+02  0.14899318374E+04  0.10100000352E+00 0. -1.
       -3    1    3    3    0  502 -0.87014027101E+03  0.12083521431E+04 -0.31465832166E+03  0.15219293225E+04  0.10100000352E+00 0.  1.
</event>
<event>
 5   0  0.1914439E-07  0.2999946E+04  0.7818609E-02  0.8243746E-01
        2   -1    0    0  501    0  0.00000000000E+00  0.00000000000E+00  0.14364341072E+04  0.14364341072E+04  0.25500000920E-02 0. -1.
       -2   -1    0    0    0  501  0.00000000000E+00  0.00000000000E+00 -0.15663221611E+04  0.15663221611E+04  0.25500000920E-02 0.  1.
    10030    2    1    2    0    0  0.00000000000E+00  0.00000000000E+00 -0.12988805390E+03  0.30027562683E+04  0.29999457162E+04 0.  0.
        5    1    3    3  502    0  0.11297689653E+04 -0.11516179788E+03  0.91590073115E+03  0.14589504426E+04  0.46999998093E+01 0. -1.
       -5    1    3    3    0  502 -0.11297689653E+04  0.11516179788E+03 -0.10457887851E+04  0.15438058257E+04  0.46999998093E+01 0.  1.
</event>
<event>
 5   0  0.6525507E-08  0.3000111E+04  0.7818609E-02  0.8243699E-01
        1   -1    0    0  501    0  0.00000000000E+00  0.00000000000E+00  0.13979188875E+04  0.13979188875E+04  0.50400001928E-02 0.  1.
       -1   -1    0    0    0  501  0.00000000000E+00  0.00000000000E+00 -0.16096544141E+04  0.16096544141E+04  0.50400001928E-02 0. -1.
    10030    2    1    2    0    0  0.00000000000E+00  0.00000000000E+00 -0.21173552668E+03  0.30075733016E+04  0.30001108698E+04 0.  0.
        4    1    3    3  502    0  0.78351771079E+03  0.10207074937E+04  0.66703694582E+03  0.14493735512E+04  0.12699999809E+01 0.  1.
       -4    1    3    3    0  502 -0.78351771079E+03 -0.10207074937E+04 -0.87877247250E+03  0.15581997504E+04  0.12699999809E+01 0. -1.
</event>
<event>
 5   0  0.1914439E-07  0.2999701E+04  0.7818609E-02  0.8243816E-01
        2   -1    0    0  501    0  0.00000000000E+00  0.00000000000E+00  0.16879677433E+04  0.16879677433E+04  0.25500000920E-02 0.  1.
       -2   -1    0    0    0  501  0.00000000000E+00  0.00000000000E+00 -0.13326983816E+04  0.13326983816E+04  0.25500000920E-02 0. -1.
    10030    2    1    2    0    0  0.00000000000E+00  0.00000000000E+00  0.35526936170E+03  0.30206661249E+04  0.29997012382E+04 0.  0.
        5    1    3    3  502    0 -0.99360015006E+03  0.39394393757E+03  0.12371750349E+04  0.16349486968E+04  0.46999998093E+01 0.  1.
       -5    1    3    3    0  502  0.99360015006E+03 -0.39394393757E+03 -0.88190567316E+03  0.13857174281E+04  0.46999998093E+01 0. -1.
</event>
<event>
 5   0  0.6525507E-08  0.3001168E+04  0.7818609E-02  0.8243397E-01
        1   -1    0    0  501    0  0.00000000000E+00  0.00000000000E+00  0.24061226501E+04  0.24061226501E+04  0.50400001928E-02 0. -1.
       -1   -1    0    0    0  501  0.00000000000E+00  0.00000000000E+00 -0.93584281268E+03  0.93584281269E+03  0.50400001928E-02 0.  1.
    10030    2    1    2    0    0  0.00000000000E+00  0.00000000000E+00  0.14702798374E+04  0.33419654628E+04  0.30011681649E+04 0.  0.
        4    1    3    3  502    0 -0.97940765617E+03 -0.10655937875E+04  0.11763964894E+04  0.18651112005E+04  0.12699999809E+01 0.  1.
       -4    1    3    3    0  502  0.97940765617E+03  0.10655937875E+04  0.29388334800E+03  0.14768542623E+04  0.12699999809E+01 0. -1.
</event>
<event>
 5   0  0.6464436E-08  0.3000539E+04  0.7818609E-02  0.8243577E-01
       -1   -1    0    0    0  501  0.00000000000E+00  0.00000000000E+00  0.20987890716E+04  0.20987890716E+04  0.50400001928E-02 0.  1.
        1   -1    0    0  501    0  0.00000000000E+00  0.00000000000E+00 -0.10724316623E+04  0.10724316623E+04  0.50400001928E-02 0. -1.
    10030    2    1    2    0    0  0.00000000000E+00  0.00000000000E+00  0.10263574092E+04  0.31712207339E+04  0.30005385203E+04 0.  0.
        5    1    3    3  502    0 -0.33417968138E+03  0.13439030993E+04  0.11230969973E+04  0.17830088489E+04  0.46999998093E+01 0.  1.
       -5    1    3    3    0  502  0.33417968138E+03 -0.13439030993E+04 -0.96739588089E+02  0.13882118850E+04  0.46999998093E+01 0. -1.
</event>
<event>
 5   0  0.6679022E-08  0.2998457E+04  0.7818609E-02  0.8244172E-01
       -1   -1    0    0    0  501  0.00000000000E+00  0.00000000000E+00  0.17790158036E+04  0.17790158036E+04  0.50400001928E-02 0. -1.
        1   -1    0    0  501    0  0.00000000000E+00  0.00000000000E+00 -0.12634431983E+04  0.12634431983E+04  0.50400001928E-02 0.  1.
    10030    2    1    2    0    0  0.00000000000E+00  0.00000000000E+00  0.51557260523E+03  0.30424590019E+04  0.29984565475E+04 0.  0.
        3    1    3    3  502    0 -0.13759923815E+03  0.66622814549E+03 -0.10978179925E+04  0.12915099098E+04  0.10100000352E+00 0.  1.
       -3    1    3    3    0  502  0.13759923815E+03 -0.66622814549E+03  0.16133905977E+04  0.17509490921E+04  0.10100000352E+00 0. -1.
</event>
<event>
 5   0  0.6679022E-08  0.2999310E+04  0.7818609E-02  0.8243928E-01
       -1   -1    0    0    0  501  0.00000000000E+00  0.00000000000E+00  0.20520939758E+04  0.20520939758E+04  0.50400001928E-02 0. -1.
        1   -1    0    0  501    0  0.00000000000E+00  0.00000000000E+00 -0.10959364530E+04  0.10959364530E+04  0.50400001928E-02 0.  1.
    10030    2    1    2    0    0  0.00000000000E+00  0.00000000000E+00  0.95615752280E+03  0.31480304287E+04  0.29993096492E+04 0.  0.
        3    1    3    3  502    0  0.45624429262E+03  0.68176538237E+03 -0.83955876941E+03  0.11738065550E+04  0.10100000352E+00 0.  1.
       -3    1    3    3    0  502 -0.45624429262E+03 -0.68176538237E+03  0.17957162922E+04  0.19742238737E+04  0.10100000352E+00 0. -1.
</event>
<event>
 5   0  0.1810055E-07  0.3013050E+04  0.7818609E-02  0.8240014E-01
       -2   -1    0    0    0  501  0.00000000000E+00  0.00000000000E+00  0.92676946957E+03  0.92676946957E+03  0.25500000920E-02 0. -1.
        2   -1    0    0  501    0  0.00000000000E+00  0.00000000000E+00 -0.24489554304E+04  0.24489554304E+04  0.25500000920E-02 0.  1.
    10030    2    1    2    0    0  0.00000000000E+00  0.00000000000E+00 -0.15221859609E+04  0.33757249000E+04  0.30130497011E+04 0.  0.
        4    1    3    3  502    0 -0.14055358399E+03  0.94803370188E+03  0.54118369301E+03  0.11006382750E+04  0.12699999809E+01 0. -1.
       -4    1    3    3    0  502  0.14055358399E+03 -0.94803370188E+03 -0.20633696539E+04  0.22750866250E+04  0.12699999809E+01 0.  1.
</event>
<event>
 5   0  0.1821305E-07  0.2999727E+04  0.7818609E-02  0.8243809E-01
       -2   -1    0    0    0  501  0.00000000000E+00  0.00000000000E+00  0.12863621241E+04  0.12863621241E+04  0.25500000920E-02 0.  1.
        2   -1    0    0  501    0  0.00000000000E+00  0.00000000000E+00 -0.17488002400E+04  0.17488002400E+04  0.25500000920E-02 0. -1.
    10030    2    1    2    0    0  0.00000000000E+00  0.00000000000E+00 -0.46243811591E+03  0.30351623641E+04  0.29997269151E+04 0.  0.
        2    1    3    3  502    0 -0.81755018815E+03 -0.12510404278E+04 -0.10283467710E+03  0.14980205049E+04  0.25500000920E-02 0.  1.
       -2    1    3    3    0  502  0.81755018815E+03  0.12510404278E+04 -0.35960343881E+03  0.15371418592E+04  0.25500000920E-02 0. -1.
</event>
<event>
 5   0  0.6679022E-08  0.2999973E+04  0.7818609E-02  0.8243739E-01
       -1   -1    0    0    0  501  0.00000000000E+00  0.00000000000E+00  0.14826376705E+04  0.14826376705E+04  0.50400001928E-02 0.  1.
        1   -1    0    0  501    0  0.00000000000E+00  0.00000000000E+00 -0.15175378885E+04  0.15175378885E+04  0.50400001928E-02 0. -1.
    10030    2    1    2    0    0  0.00000000000E+00  0.00000000000E+00 -0.34900217973E+02  0.30001755590E+04  0.29999725598E+04 0.  0.
        3    1    3    3  502    0 -0.11043133042E+04  0.60498160427E+03  0.79774197875E+03  0.14906048739E+04  0.10100000352E+00 0.  1.
       -3    1    3    3    0  502  0.11043133042E+04 -0.60498160427E+03 -0.83264219672E+03  0.15095706851E+04  0.10100000352E+00 0. -1.
</event>
<event>
 5   0  0.1813720E-07  0.3002616E+04  0.7818609E-02  0.8242984E-01
        2   -1    0    0  501    0  0.00000000000E+00  0.00000000000E+00  0.15380213065E+04  0.15380213065E+04  0.25500000920E-02 0. -1.
       -2   -1    0    0    0  501  0.00000000000E+00  0.00000000000E+00 -0.14654713562E+04  0.14654713562E+04  0.25500000920E-02 0.  1.
    10030    2    1    2    0    0  0.00000000000E+00  0.00000000000E+00  0.72549950321E+02  0.30034926627E+04  0.30026163058E+04 0.  0.
        3    1    3    3  502    0 -0.55554144226E+03  0.94866893934E+03  0.10589857778E+04  0.15264501100E+04  0.10100000352E+00 0. -1.
       -3    1    3    3    0  502  0.55554144226E+03 -0.94866893934E+03 -0.98643582749E+03  0.14770425527E+04  0.10100000352E+00 0.  1.
</event>
<event>
 5   0  0.6374748E-08  0.3003687E+04  0.7818609E-02  0.8242679E-01
       -1   -1    0    0    0  501  0.00000000000E+00  0.00000000000E+00  0.16176416870E+04  0.16176416870E+04  0.50400001928E-02 0. -1.
        1   -1    0    0  501    0  0.00000000000E+00  0.00000000000E+00 -0.13943347302E+04  0.13943347302E+04  0.50400001928E-02 0.  1.
    10030    2    1    2    0    0  0.00000000000E+00  0.00000000000E+00  0.22330695684E+03  0.30119764172E+04  0.30036870577E+04 0.  0.
        1    1    3    3  502    0  0.28171441382E+03 -0.10535638057E+04  0.11470602119E+04  0.15827529287E+04  0.50400001928E-02 0. -1.
       -1    1    3    3    0  502 -0.28171441382E+03  0.10535638057E+04 -0.92375325505E+03  0.14292234884E+04  0.50400001928E-02 0.  1.
</event>
<event>
 5   0  0.6525507E-08  0.2999751E+04  0.7818609E-02  0.8243802E-01
       -1   -1    0    0    0  501  0.00000000000E+00  0.00000000000E+00  0.84352887111E+03  0.84352887112E+03  0.50400001928E-02 0.  1.
        1   -1    0    0  501    0  0.00000000000E+00  0.00000000000E+00 -0.26669231530E+04  0.26669231530E+04  0.50400001928E-02 0. -1.
    10030    2    1    2    0    0  0.00000000000E+00  0.00000000000E+00 -0.18233942819E+04  0.35104520241E+04  0.29997511074E+04 0.  0.
        4    1    3    3  502    0 -0.27758669776E+03 -0.12565722919E+04 -0.10077046743E+02  0.12869077121E+04  0.12699999809E+01 0.  1.
       -4    1    3    3    0  502  0.27758669776E+03  0.12565722919E+04 -0.18133172351E+04  0.22235443121E+04  0.12699999809E+01 0. -1.
</event>
<event>
 5   0  0.6464436E-08  0.2999504E+04  0.7818609E-02  0.8243873E-01
        1   -1    0    0  501    0  0.00000000000E+00  0.00000000000E+00  0.13615732159E+04  0.13615732159E+04  0.50400001928E-02 0.  1.
       -1   -1    0    0    0  501  0.00000000000E+00  0.00000000000E+00 -0.16519535869E+04  0.16519535869E+04  0.50400001928E-02 0. -1.
    10030    2    1    2    0    0  0.00000000000E+00  0.00000000000E+00 -0.29038037100E+03  0.30135268028E+04  0.29995037975E+04 0.  0.
        5    1    3    3  502    0  0.32501529784E+02 -0.14708968715E+04 -0.43747935992E+03  0.15349280883E+04  0.46999998093E+01 0.  1.
       -5    1    3    3    0  502 -0.32501529784E+02  0.14708968715E+04  0.14709898892E+03  0.14785987145E+04  0.46999998093E+01 0. -1.
</event>
<event>
 5   0  0.1813720E-07  0.3000524E+04  0.7818609E-02  0.8243581E-01
       -2   -1    0    0    0  501  0.00000000000E+00  0.00000000000E+00  0.14490968820E+04  0.14490968820E+04  0.25500000920E-02 0.  1.
        2   -1    0    0  501    0  0.00000000000E+00  0.00000000000E+00 -0.15532335662E+04  0.15532335662E+04  0.25500000920E-02 0. -1.
    10030    2    1    2    0    0  0.00000000000E+00  0.00000000000E+00 -0.10413668425E+03  0.30023304482E+04  0.30005238995E+04 0.  0.
        3    1    3    3  502    0  0.56756757071E+03 -0.42379090166E+03  0.12712460572E+04  0.14552656884E+04  0.10100000352E+00 0.  1.
       -3    1    3    3    0  502 -0.56756757071E+03  0.42379090166E+03 -0.13753827414E+04  0.15470647599E+04  0.10100000352E+00 0. -1.
</event>
<event>
 5   0  0.6374748E-08  0.2998382E+04  0.7818609E-02  0.8244193E-01
        1   -1    0    0  501    0  0.00000000000E+00  0.00000000000E+00  0.22881617234E+04  0.22881617234E+04  0.50400001928E-02 0. -1.
       -1   -1    0    0    0  501  0.00000000000E+00  0.00000000000E+00 -0.98226139990E+03  0.98226139991E+03  0.50400001928E-02 0.  1.
    10030    2    1    2    0    0  0.00000000000E+00  0.00000000000E+00  0.13059003235E+04  0.32704231233E+04  0.29983815219E+04 0.  0.
        1    1    3    3  502    0 -0.10760029429E+03  0.14942332165E+04  0.59065232851E+03  0.16103356488E+04  0.50400001928E-02 0.  1.
       -1    1    3    3    0  502  0.10760029429E+03 -0.14942332165E+04  0.71524799501E+03  0.16600874745E+04  0.50400001928E-02 0. -1.
</event>
<event>
 5   0  0.1817566E-07  0.2999760E+04  0.7818609E-02  0.8243799E-01
        2   -1    0    0  501    0  0.00000000000E+00  0.00000000000E+00  0.22971186362E+04  0.22971186362E+04  0.25500000920E-02 0. -1.
       -2   -1    0    0    0  501  0.00000000000E+00  0.00000000000E+00 -0.97933111574E+03  0.97933111574E+03  0.25500000920E-02 0.  1.
    10030    2    1    2    0    0  0.00000000000E+00  0.00000000000E+00  0.13177875204E+04  0.32764497519E+04  0.29997598283E+04 0.  0.
        1    1    3    3  502    0 -0.49931698570E+03  0.10251323931E+04 -0.40536580019E+03  0.12101798658E+04  0.50400001928E-02 0.  1.
       -1    1    3    3    0  502  0.49931698570E+03 -0.10251323931E+04  0.17231533206E+04  0.20662698861E+04  0.50400001928E-02 0. -1.
</event>
<event>
 5   0  0.6525507E-08  0.3000992E+04  0.7818609E-02  0.8243448E-01
       -1   -1    0    0    0  501  0.00000000000E+00  0.00000000000E+00  0.11981638602E+04  0.11981638602E+04  0.50400001928E-02 0. -1.
        1   -1    0    0  501    0  0.00000000000E+00  0.00000000000E+00 -0.18791156162E+04  0.18791156162E+04  0.50400001928E-02 0.  1.
    10030    2    1    2    0    0  0.00000000000E+00  0.00000000000E+00 -0.68095175606E+03  0.30772794764E+04  0.30009921162E+04 0.  0.
        4    1    3    3  502    0 -0.46381857365E+03  0.96065179951E+03 -0.14225290738E+04  0.17780804615E+04  0.12699999809E+01 0.  1.
       -4    1    3    3    0  502  0.46381857365E+03 -0.96065179951E+03  0.74157731769E+03  0.12991990148E+04  0.12699999809E+01 0. -1.
</event>
<event>
 5   0  0.6464436E-08  0.3001548E+04  0.7818609E-02  0.8243289E-01
       -1   -1    0    0    0  501  0.00000000000E+00  0.00000000000E+00  0.13943268521E+04  0.13943268522E+04  0.50400001928E-02 0.  1.
        1   -1    0    0  501    0  0.00000000000E+00  0.00000000000E+00 -0.16153473847E+04  0.16153473848E+04  0.50400001928E-02 0. -1.
    10030    2    1    2    0    0  0.00000000000E+00  0.00000000000E+00 -0.22102053260E+03  0.30096742369E+04  0.30015477568E+04 0.  0.
        5    1    3    3  502    0  0.13628511010E+03 -0.10403177195E+04 -0.11864791415E+04  0.15838527179E+04  0.46999998093E+01 0. -1.
       -5    1    3    3    0  502 -0.13628511010E+03  0.10403177195E+04  0.96545860892E+03  0.14258215190E+04  0.46999998093E+01 0.  1.
</event>
<event>
 5   0  0.6636007E-08  0.3000062E+04  0.7818609E-02  0.8243713E-01
       -1   -1    0    0    0  501  0.00000000000E+00  0.00000000000E+00  0.11076801429E+04  0.11076801429E+04  0.50400001928E-02 0.  1.
        1   -1    0    0  501    0  0.00000000000E+00  0.00000000000E+00 -0.20313562897E+04  0.20313562897E+04  0.50400001928E-02 0. -1.
    10030    2    1    2    0    0  0.00000000000E+00  0.00000000000E+00 -0.92367614680E+03  0.31390364325E+04  0.30000620161E+04 0.  0.
        2    1    3    3  502    0 -0.11007035970E+04 -0.63708734911E+03  0.37040999776E+03  0.13246253302E+04  0.25500000920E-02 0.  1.
       -2    1    3    3    0  502  0.11007035970E+04  0.63708734911E+03 -0.12940861446E+04  0.18144111024E+04  0.25500000920E-02 0. -1.
</event>
<event>
 5   0  0.6525507E-08  0.2999796E+04  0.7818609E-02  0.8243789E-01
        1   -1    0    0  501    0  0.00000000000E+00  0.00000000000E+00  0.16770045833E+04  0.16770045833E+04  0.50400001928E-02 0. -1.
       -1   -1    0    0    0  501  0.00000000000E+00  0.00000000000E+00 -0.13414956597E+04  0.13414956598E+04  0.50400001928E-02 0.  1.
    10030    2    1    2    0    0  0.00000000000E+00  0.00000000000E+00  0.33550892355E+03  0.30185002431E+04  0.29997962397E+04 0.  0.
        4    1    3    3  502    0 -0.55673304136E+03 -0.10557608529E+04  0.10817738544E+04  0.16108441708E+04  0.12699999809E+01 0. -1.
       -4    1    3    3    0  502  0.55673304136E+03  0.10557608529E+04 -0.74626493083E+03  0.14076560722E+04  0.12699999809E+01 0.  1.
</event>
<event>
 5   0  0.6464436E-08  0.3000134E+04  0.7818609E-02  0.8243693E-01
       -1   -1    0    0    0  501  0.00000000000E+00  0.00000000000E+00  0.33483860753E+04  0.33483860753E+04  0.50400001928E-02 0.  1.
        1   -1    0    0  501    0  0.00000000000E+00  0.00000000000E+00 -0.67202535148E+03  0.67202535150E+03  0.50400001928E-02 0. -1.
    10030    2    1    2    0    0  0.00000000000E+00  0.00000000000E+00  0.26763607238E+04  0.40204114268E+04  0.30001335498E+04 0.  0.
        5    1    3    3  502    0  0.11292575180E+04 -0.96751747767E+03  0.16023681589E+04  0.21860737449E+04  0.46999998093E+01 0. -1.
       -5    1    3    3    0  502 -0.11292575180E+04  0.96751747767E+03  0.10739925649E+04  0.18343376819E+04  0.46999998093E+01 0.  1.
</event>
<event>
 5   0  0.1821305E-07  0.3013130E+04  0.7818609E-02  0.8239992E-01
       -2   -1    0    0    0  501  0.00000000000E+00  0.00000000000E+00  0.10408417606E+04  0.10408417606E+04  0.25500000920E-02 0. -1.
        2   -1    0    0  501    0  0.00000000000E+00  0.00000000000E+00 -0.21806748263E+04  0.21806748263E+04  0.25500000920E-02 0.  1.
    10030    2    1    2    0    0  0.00000000000E+00  0.00000000000E+00 -0.11398330657E+04  0.32215165868E+04  0.30131295527E+04 0.  0.
        2    1    3    3  502    0  0.56094418690E+03 -0.91659579073E+03 -0.16988454600E+04  0.20101945482E+04  0.25500000920E-02 0.  1.
       -2    1    3    3    0  502 -0.56094418690E+03  0.91659579073E+03  0.55901239432E+03  0.12113220387E+04  0.25500000920E-02 0. -1.
</event>
<event>
 5   0  0.6374748E-08  0.3000021E+04  0.7818609E-02  0.8243725E-01
        1   -1    0    0  501    0  0.00000000000E+00  0.00000000000E+00  0.27550661201E+04  0.27550661201E+04  0.50400001928E-02 0. -1.
       -1   -1    0    0    0  501  0.00000000000E+00  0.00000000000E+00 -0.81668882082E+03  0.81668882084E+03  0.50400001928E-02 0.  1.
    10030    2    1    2    0    0  0.00000000000E+00  0.00000000000E+00  0.19383772993E+04  0.35717549409E+04  0.30000211339E+04 0.  0.
        1    1    3    3  502    0 -0.27332465570E+03  0.11631109537E+04 -0.11056536996E+03  0.11998992287E+04  0.50400001928E-02 0.  1.
       -1    1    3    3    0  502  0.27332465570E+03 -0.11631109537E+04  0.20489426692E+04  0.23718557122E+04  0.50400001928E-02 0. -1.
</event>
<event>
 5   0  0.6374748E-08  0.2999639E+04  0.7818609E-02  0.8243834E-01
       -1   -1    0    0    0  501  0.00000000000E+00  0.00000000000E+00  0.19427757848E+04  0.19427757848E+04  0.50400001928E-02 0. -1.
        1   -1    0    0  501    0  0.00000000000E+00  0.00000000000E+00 -0.11578581722E+04  0.11578581722E+04  0.50400001928E-02 0.  1.
    10030    2    1    2    0    0  0.00000000000E+00  0.00000000000E+00  0.78491761255E+03  0.31006339570E+04  0.29996391911E+04 0.  0.
        1    1    3    3  502    0 -0.12278513763E+04  0.22351041021E+03  0.12522594829E+04  0.17679733364E+04  0.50400001928E-02 0. -1.
       -1    1    3    3    0  502  0.12278513763E+04 -0.22351041021E+03 -0.46734187039E+03  0.13326606205E+04  0.50400001928E-02 0.  1.
</event>
<event>
 5   0  0.6374748E-08  0.3000366E+04  0.7818609E-02  0.8243627E-01
       -1   -1    0    0    0  501  0.00000000000E+00  0.00000000000E+00  0.16966445121E+04  0.16966445121E+04  0.50400001928E-02 0.  1.
        1   -1    0    0  501    0  0.00000000000E+00  0.00000000000E+00 -0.13264702023E+04  0.13264702023E+04  0.50400001928E-02 0. -1.
    10030    2    1    2    0    0  0.00000000000E+00  0.00000000000E+00  0.37017430979E+03  0.30231147144E+04  0.30003655705E+04 0.  0.
        1    1    3    3  502    0  0.11109814317E+04  0.76041995515E+03 -0.48176944048E+03  0.14299021098E+04  0.50400001928E-02 0. -1.
       -1    1    3    3    0  502 -0.11109814317E+04 -0.76041995515E+03  0.85194375027E+03  0.15932126046E+04  0.50400001928E-02 0.  1.
</event>
<event>
 5   0  0.1810055E-07  0.3000820E+04  0.7818609E-02  0.8243497E-01
       -2   -1    0    0    0  501  0.00000000000E+00  0.00000000000E+00  0.83595536453E+03  0.83595536454E+03  0.25500000920E-02 0.  1.
        2   -1    0    0  501    0  0.00000000000E+00  0.00000000000E+00 -0.26930030412E+04  0.26930030412E+04  0.25500000920E-02 0. -1.
    10030    2    1    2    0    0  0.00000000000E+00  0.00000000000E+00 -0.18570476767E+04  0.35289584058E+04  0.30008201139E+04 0.  0.
        4    1    3    3  502    0  0.25547983961E+03 -0.49046183267E+03 -0.25687800812E+04  0.26276330559E+04  0.12699999809E+01 0. -1.
       -4    1    3    3    0  502 -0.25547983961E+03  0.49046183267E+03  0.71173240454E+03  0.90132534988E+03  0.12699999809E+01 0.  1.
</event>
<event>
 5   0  0.6679022E-08  0.3002186E+04  0.7818609E-02  0.8243107E-01
       -1   -1    0    0    0  501  0.00000000000E+00  0.00000000000E+00  0.86212589759E+03  0.86212589760E+03  0.50400001928E-02 0.  1.
        1   -1    0    0  501    0  0.00000000000E+00  0.00000000000E+00 -0.26136328329E+04  0.26136328329E+04  0.50400001928E-02 0. -1.
    10030    2    1    2    0    0  0.00000000000E+00  0.00000000000E+00 -0.17515069353E+04  0.34757587305E+04  0.30021862381E+04 0.  0.
        3    1    3    3  502    0 -0.18493796899E+03 -0.10053004466E+04  0.39694712382E+03  0.10965391327E+04  0.10100000352E+00 0.  1.
       -3    1    3    3    0  502  0.18493796899E+03  0.10053004466E+04 -0.21484540591E+04  0.23792195978E+04  0.10100000352E+00 0. -1.
</event>
<event>
 5   0  0.1810055E-07  0.3001196E+04  0.7818609E-02  0.8243389E-01
       -2   -1    0    0    0  501  0.00000000000E+00  0.00000000000E+00  0.98296941742E+03  0.98296941742E+03  0.25500000920E-02 0. -1.
        2   -1    0    0  501    0  0.00000000000E+00  0.00000000000E+00 -0.22908080760E+04  0.22908080760E+04  0.25500000920E-02 0.  1.
    10030    2    1    2    0    0  0.00000000000E+00  0.00000000000E+00 -0.13078386586E+04  0.32737774934E+04  0.30011959482E+04 0.  0.
        4    1    3    3  502    0 -0.30573294269E+03  0.94732006592E+03  0.57096744037E+03  0.11475597459E+04  0.12699999809E+01 0. -1.
       -4    1    3    3    0  502  0.30573294269E+03 -0.94732006592E+03 -0.18788060989E+04  0.21262177475E+04  0.12699999809E+01 0.  1.
</event>
<event>
 5   0  0.1813720E-07  0.3000745E+04  0.7818609E-02  0.8243518E-01
        2   -1    0    0  501    0  0.00000000000E+00  0.00000000000E+00  0.16403939626E+04  0.16403939626E+04  0.25500000920E-02 0. -1.
       -2   -1    0    0    0  501  0.00000000000E+00  0.00000000000E+00 -0.13723031077E+04  0.13723031077E+04  0.25500000920E-02 0.  1.
    10030    2    1    2    0    0  0.00000000000E+00  0.00000000000E+00  0.26809085490E+03  0.30126970703E+04  0.30007450626E+04 0.  0.
        3    1    3    3  502    0  0.33830003848E+03 -0.56972384367E+02  0.16004879662E+04  0.16368428479E+04  0.10100000352E+00 0. -1.
       -3    1    3    3    0  502 -0.33830003848E+03  0.56972384367E+02 -0.13323971113E+04  0.13758542223E+04  0.10100000352E+00 0.  1.
</event>
<event>
 5   0  0.1817566E-07  0.2999291E+04  0.7818609E-02  0.8243933E-01
       -2   -1    0    0    0  501  0.00000000000E+00  0.00000000000E+00  0.12930728109E+04  0.12930728109E+04  0.25500000920E-02 0.  1.
        2   -1    0    0  501    0  0.00000000000E+00  0.00000000000E+00 -0.17392184652E+04  0.17392184652E+04  0.25500000920E-02 0. -1.
    10030    2    1    2    0    0  0.00000000000E+00  0.00000000000E+00 -0.44614565430E+03  0.30322912761E+04  0.29992906558E+04 0.  0.
        1    1    3    3  502    0  0.26381275126E+03  0.69465211218E+03  0.10938713156E+04  0.13223816316E+04  0.50400001928E-02 0.  1.
       -1    1    3    3    0  502 -0.26381275126E+03 -0.69465211218E+03 -0.15400169699E+04  0.17099096444E+04  0.50400001928E-02 0. -1.
</event>
<event>
 5   0  0.1810055E-07  0.3000368E+04  0.7818609E-02  0.8243626E-01
        2   -1    0    0  501    0  0.00000000000E+00  0.00000000000E+00  0.14332743219E+04  0.14332743219E+04  0.25500000920E-02 0. -1.
       -2   -1    0    0    0  501  0.00000000000E+00  0.00000000000E+00 -0.15702168124E+04  0.15702168124E+04  0.25500000920E-02 0.  1.
    10030    2    1    2    0    0  0.00000000000E+00  0.00000000000E+00 -0.13694249055E+03  0.30034911343E+04  0.30003676022E+04 0.  0.
        4    1    3    3  502    0  0.11891774341E+04 -0.71498193818E+03  0.50239226702E+03  0.14757173661E+04  0.12699999809E+01 0. -1.
       -4    1    3    3    0  502 -0.11891774341E+04  0.71498193818E+03 -0.63933475757E+03  0.15277737682E+04  0.12699999809E+01 0.  1.
</event>
<event>
 5   0  0.6679022E-08  0.2995396E+04  0.7818609E-02  0.8245047E-01
       -1   -1    0    0    0  501  0.00000000000E+00  0.00000000000E+00  0.94195842805E+03  0.94195842806E+03  0.50400001928E-02 0.  1.
        1   -1    0    0  501    0  0.00000000000E+00  0.00000000000E+00 -0.23813151456E+04  0.23813151456E+04  0.50400001928E-02 0. -1.
    10030    2    1    2    0    0  0.00000000000E+00  0.00000000000E+00 -0.14393567175E+04  0.33232735736E+04  0.29953963819E+04 0.  0.
        3    1    3    3  502    0  0.74561990538E+03 -0.10225395260E+04  0.16897358854E+03  0.12767490785E+04  0.10100000352E+00 0.  1.
       -3    1    3    3    0  502 -0.74561990538E+03  0.10225395260E+04 -0.16083303061E+04  0.20465244951E+04  0.10100000352E+00 0. -1.
</event>
<event>
 5   0  0.1813720E-07  0.3001310E+04  0.7818609E-02  0.8243357E-01
        2   -1    0    0  501    0  0.00000000000E+00  0.00000000000E+00  0.15402920644E+04  0.15402920644E+04  0.25500000920E-02 0.  1.
       -2   -1    0    0    0  501  0.00000000000E+00  0.00000000000E+00 -0.14620383328E+04  0.14620383328E+04  0.25500000920E-02 0. -1.
    10030    2    1    2    0    0  0.00000000000E+00  0.00000000000E+00  0.78253731614E+02  0.30023303972E+04  0.30013104083E+04 0.  0.
        3    1    3    3  502    0  0.52156980094E+03  0.28876031357E+03 -0.13384934558E+04  0.14652584473E+04  0.10100000352E+00 0. -1.
       -3    1    3    3    0  502 -0.52156980094E+03 -0.28876031357E+03  0.14167471874E+04  0.15370719499E+04  0.10100000352E+00 0.  1.
</event>
<event>
 5   0  0.6679022E-08  0.2999402E+04  0.7818609E-02  0.8243902E-01
        1   -1    0    0  501    0  0.00000000000E+00  0.00000000000E+00  0.19624910806E+04  0.19624910806E+04  0.50400001928E-02 0.  1.
       -1   -1    0    0    0  501  0.00000000000E+00  0.00000000000E+00 -0.11460451564E+04  0.11460451564E+04  0.50400001928E-02 0. -1.
    10030    2    1    2    0    0  0.00000000000E+00  0.00000000000E+00  0.81644592415E+03  0.31085362370E+04  0.29994022054E+04 0.  0.
        3    1    3    3  502    0  0.25474599703E+03 -0.99679156792E+03 -0.72263171784E+03  0.12572531816E+04  0.10100000352E+00 0. -1.
       -3    1    3    3    0  502 -0.25474599703E+03  0.99679156792E+03  0.15390776420E+04  0.18512830554E+04  0.10100000352E+00 0.  1.
</event>
<event>
 5   0  0.1810055E-07  0.2999403E+04  0.7818609E-02  0.8243901E-01
        2   -1    0    0  501    0  0.00000000000E+00  0.00000000000E+00  0.22518304422E+04  0.22518304422E+04  0.25500000920E-02 0. -1.
       -2   -1    0    0    0  501  0.00000000000E+00  0.00000000000E+00 -0.99878958018E+03  0.99878958019E+03  0.25500000920E-02 0.  1.
    10030    2    1    2    0    0  0.00000000000E+00  0.00000000000E+00  0.12530408620E+04  0.32506200224E+04  0.29994031286E+04 0.  0.
        4    1    3    3  502    0 -0.75969330406E+03  0.12925750203E+04  0.58868090973E+03  0.16107237273E+04  0.12699999809E+01 0.  1.
       -4    1    3    3    0  502  0.75969330406E+03 -0.12925750203E+04  0.66435995230E+03  0.16398962951E+04  0.12699999809E+01 0. -1.
</event>
<event>
 5   0  0.1821305E-07  0.3000500E+04  0.7818609E-02  0.8243588E-01
        2   -1    0    0  501    0  0.00000000000E+00  0.00000000000E+00  0.28081051439E+04  0.28081051439E+04  0.25500000920E-02 0.  1.
       -2   -1    0    0    0  501  0.00000000000E+00  0.00000000000E+00 -0.80151897425E+03  0.80151897426E+03  0.25500000920E-02 0. -1.
    10030    2    1    2    0    0  0.00000000000E+00  0.00000000000E+00  0.20065861697E+04  0.36096241182E+04  0.30004996614E+04 0.  0.
        2    1    3    3  502    0 -0.13131652537E+03  0.76297991464E+03  0.25492244958E+04  0.26641936697E+04  0.25500000920E-02 0.  1.
       -2    1    3    3    0  502  0.13131652537E+03 -0.76297991464E+03 -0.54263832608E+03  0.94543044848E+03  0.25500000920E-02 0. -1.
</event>
<event>
 5   0  0.1817566E-07  0.2999186E+04  0.7818609E-02  0.8243963E-01
        2   -1    0    0  501    0  0.00000000000E+00  0.00000000000E+00  0.14542427491E+04  0.14542427491E+04  0.25500000920E-02 0. -1.
       -2   -1    0    0    0  501  0.00000000000E+00  0.00000000000E+00 -0.15463574652E+04  0.15463574652E+04  0.25500000920E-02 0.  1.
    10030    2    1    2    0    0  0.00000000000E+00  0.00000000000E+00 -0.92114716080E+02  0.30006002142E+04  0.29991859770E+04 0.  0.
        1    1    3    3  502    0 -0.41817917823E+03 -0.12119988438E+04 -0.82421850665E+03  0.15241886921E+04  0.50400001928E-02 0. -1.
       -1    1    3    3    0  502  0.41817917823E+03  0.12119988438E+04  0.73210379058E+03  0.14764115221E+04  0.50400001928E-02 0.  1.
</event>
<event>
 5   0  0.1813720E-07  0.3003488E+04  0.7818609E-02  0.8242736E-01
       -2   -1    0    0    0  501  0.00000000000E+00  0.00000000000E+00  0.14844795854E+04  0.14844795854E+04  0.25500000920E-02 0.  1.
        2   -1    0    0  501    0  0.00000000000E+00  0.00000000000E+00 -0.15192092443E+04  0.15192092443E+04  0.25500000920E-02 0. -1.
    10030    2    1    2    0    0  0.00000000000E+00  0.00000000000E+00 -0.34729658877E+02  0.30036888297E+04  0.30034880450E+04 0.  0.
        3    1    3    3  502    0  0.13627991129E+04  0.62854329753E+03 -0.71654735885E+02  0.15024721330E+04  0.10100000352E+00 0.  1.
       -3    1    3    3    0  502 -0.13627991129E+04 -0.62854329753E+03  0.36925077007E+02  0.15012166967E+04  0.10100000352E+00 0. -1.
</event>
<event>
 5   0  0.1821305E-07  0.2998851E+04  0.7818609E-02  0.8244059E-01
       -2   -1    0    0    0  501  0.00000000000E+00  0.00000000000E+00  0.33158501827E+04  0.33158501827E+04  0.25500000920E-02 0.  1.
        2   -1    0    0  501    0  0.00000000000E+00  0.00000000000E+00 -0.67803916222E+03  0.67803916222E+03  0.25500000920E-02 0. -1.
    10030    2    1    2    0    0  0.00000000000E+00  0.00000000000E+00  0.26378110204E+04  0.39938893449E+04  0.29988506331E+04 0.  0.
        2    1    3    3  502    0  0.82180435641E+03  0.12440039599E+04  0.11067840817E+04  0.18568465892E+04  0.25500000920E-02 0. -1.
       -2    1    3    3    0  502 -0.82180435641E+03 -0.12440039599E+04  0.15310269387E+04  0.21370427557E+04  0.25500000920E-02 0.  1.
</event>
<event>
 5   0  0.6636007E-08  0.2999608E+04  0.7818609E-02  0.8243843E-01
       -1   -1    0    0    0  501  0.00000000000E+00  0.00000000000E+00  0.16974421059E+04  0.16974421059E+04  0.50400001928E-02 0.  1.
        1   -1    0    0  501    0  0.00000000000E+00  0.00000000000E+00 -0.13251775006E+04  0.13251775006E+04  0.50400001928E-02 0. -1.
    10030    2    1    2    0    0  0.00000000000E+00  0.00000000000E+00  0.37226460534E+03  0.30226196065E+04  0.29996080326E+04 0.  0.
        2    1    3    3  502    0 -0.10258984561E+04  0.33302856426E+03  0.12362577483E+04  0.16406428274E+04  0.25500000920E-02 0.  1.
       -2    1    3    3    0  502  0.10258984561E+04 -0.33302856426E+03 -0.86399314298E+03  0.13819767791E+04  0.25500000920E-02 0. -1.
</event>
<event>
 5   0  0.6636007E-08  0.2998179E+04  0.7818609E-02  0.8244251E-01
       -1   -1    0    0    0  501  0.00000000000E+00  0.00000000000E+00  0.11348387664E+04  0.11348387664E+04  0.50400001928E-02 0.  1.
        1   -1    0    0  501    0  0.00000000000E+00  0.00000000000E+00 -0.19802540461E+04  0.19802540462E+04  0.50400001928E-02 0. -1.
    10030    2    1    2    0    0  0.00000000000E+00  0.00000000000E+00 -0.84541527980E+03  0.31150928125E+04  0.29981788198E+04 0.  0.
        2    1    3    3  502    0 -0.12424169028E+04  0.63729881506E+03  0.14401581928E+03  0.14037414635E+04  0.25500000920E-02 0.  1.
       -2    1    3    3    0  502  0.12424169028E+04 -0.63729881506E+03 -0.98943109908E+03  0.17113513490E+04  0.25500000920E-02 0. -1.
</event>
<event>
 5   0  0.6525507E-08  0.3002424E+04  0.7818609E-02  0.8243039E-01
       -1   -1    0    0    0  501  0.00000000000E+00  0.00000000000E+00  0.12116396984E+04  0.12116396984E+04  0.50400001928E-02 0. -1.
        1   -1    0    0  501    0  0.00000000000E+00  0.00000000000E+00 -0.18599897748E+04  0.18599897748E+04  0.50400001928E-02 0.  1.
    10030    2    1    2    0    0  0.00000000000E+00  0.00000000000E+00 -0.64835007641E+03  0.30716294732E+04  0.30024239872E+04 0.  0.
        4    1    3    3  502    0  0.10377795927E+04  0.65839920051E+03 -0.12061127697E+04  0.17219714331E+04  0.12699999809E+01 0.  1.
       -4    1    3    3    0  502 -0.10377795927E+04 -0.65839920051E+03  0.55776269330E+03  0.13496580401E+04  0.12699999809E+01 0. -1.
</event>
<event>
 5   0  0.6464436E-08  0.2999184E+04  0.7818609E-02  0.8243964E-01
       -1   -1    0    0    0  501  0.00000000000E+00  0.00000000000E+00  0.94455280039E+03  0.94455280040E+03  0.50400001928E-02 0. -1.
        1   -1    0    0  501    0  0.00000000000E+00  0.00000000000E+00 -0.23807836986E+04  0.23807836986E+04  0.50400001928E-02 0.  1.
    10030    2    1    2    0    0  0.00000000000E+00  0.00000000000E+00 -0.14362308982E+04  0.33253364990E+04  0.29991838288E+04 0.  0.
        5    1    3    3  502    0 -0.11875108605E+04  0.57333452515E+03  0.73579155605E+02  0.13207310490E+04  0.46999998093E+01 0. -1.
       -5    1    3    3    0  502  0.11875108605E+04 -0.57333452515E+03 -0.15098100538E+04  0.20046054500E+04  0.46999998093E+01 0.  1.
</event>
<event>
 5   0  0.6464436E-08  0.2999600E+04  0.7818609E-02  0.8243845E-01
        1   -1    0    0  501    0  0.00000000000E+00  0.00000000000E+00  0.24671439022E+04  0.24671439022E+04  0.50400001928E-02 0. -1.
       -1   -1    0    0    0  501  0.00000000000E+00  0.00000000000E+00 -0.91174250354E+03  0.91174250355E+03  0.50400001928E-02 0.  1.
    10030    2    1    2    0    0  0.00000000000E+00  0.00000000000E+00  0.15554013986E+04  0.33788864057E+04  0.29995999453E+04 0.  0.
        5    1    3    3  502    0  0.69325806827E+03  0.76103603158E+03  0.20062988866E+04  0.22550033045E+04  0.46999998093E+01 0. -1.
       -5    1    3    3    0  502 -0.69325806827E+03 -0.76103603158E+03 -0.45089748802E+03  0.11238831013E+04  0.46999998093E+01 0.  1.
</event>
<event>
 5   0  0.1813720E-07  0.3000518E+04  0.7818609E-02  0.8243583E-01
       -2   -1    0    0    0  501  0.00000000000E+00  0.00000000000E+00  0.12128693123E+04  0.12128693123E+04  0.25500000920E-02 0.  1.
        2   -1    0    0  501    0  0.00000000000E+00  0.00000000000E+00 -0.18557457543E+04  0.18557457543E+04  0.25500000920E-02 0. -1.
    10030    2    1    2    0    0  0.00000000000E+00  0.00000000000E+00 -0.64287644205E+03  0.30686150666E+04  0.30005180064E+04 0.  0.
        3    1    3    3  502    0  0.20216617707E+03 -0.10780186751E+04 -0.13682812555E+04  0.17536216899E+04  0.10100000352E+00 0. -1.
       -3    1    3    3    0  502 -0.20216617707E+03  0.10780186751E+04  0.72540481344E+03  0.13149933766E+04  0.10100000352E+00 0.  1.
</event>
<event>
 5   0  0.1813720E-07  0.2998474E+04  0.7818609E-02  0.8244167E-01
        2   -1    0    0  501    0  0.00000000000E+00  0.00000000000E+00  0.10348163505E+04  0.10348163505E+04  0.25500000920E-02 0.  1.
       -2   -1    0    0    0  501  0.00000000000E+00  0.00000000000E+00 -0.21720876241E+04  0.21720876241E+04  0.25500000920E-02 0. -1.
    10030    2    1    2    0    0  0.00000000000E+00  0.00000000000E+00 -0.11372712736E+04  0.32069039746E+04  0.29984741373E+04 0.  0.
        3    1    3    3  502    0 -0.54700664168E+03  0.13845337081E+04 -0.37862961015E+03  0.15360697402E+04  0.10100000352E+00 0. -1.
       -3    1    3    3    0  502  0.54700664168E+03 -0.13845337081E+04 -0.75864166345E+03  0.16708342343E+04  0.10100000352E+00 0.  1.
</event>
<event>
 5   0  0.6464436E-08  0.3000253E+04  0.7818609E-02  0.8243659E-01
        1   -1    0    0  501    0  0.00000000000E+00  0.00000000000E+00  0.12160540605E+04  0.12160540605E+04  0.50400001928E-02 0.  1.
       -1   -1    0    0    0  501  0.00000000000E+00  0.00000000000E+00 -0.18505590229E+04  0.18505590229E+04  0.50400001928E-02 0. -1.
    10030    2    1    2    0    0  0.00000000000E+00  0.00000000000E+00 -0.63450496244E+03  0.30666130834E+04  0.30002531986E+04 0.  0.
        5    1    3    3  502    0 -0.11533181277E+04  0.40489951365E+03  0.57162093218E+03  0.13493920483E+04  0.46999998093E+01 0.  1.
       -5    1    3    3    0  502  0.11533181277E+04 -0.40489951365E+03 -0.12061258946E+04  0.17172210351E+04  0.46999998093E+01 0. -1.
</event>
<event>
 5   0  0.1817566E-07  0.2999801E+04  0.7818609E-02  0.8243788E-01
        2   -1    0    0  501    0  0.00000000000E+00  0.00000000000E+00  0.12501783597E+04  0.12501783597E+04  0.25500000920E-02 0.  1.
       -2   -1    0    0    0  501  0.00000000000E+00  0.00000000000E+00 -0.17995050115E+04  0.17995050115E+04  0.25500000920E-02 0. -1.
    10030    2    1    2    0    0  0.00000000000E+00  0.00000000000E+00 -0.54932665178E+03  0.30496833712E+04  0.29998014758E+04 0.  0.
        1    1    3    3  502    0 -0.30725489408E+03 -0.90148237059E+03 -0.14526484182E+04  0.17370271907E+04  0.50400001928E-02 0. -1.
       -1    1    3    3    0  502  0.30725489408E+03  0.90148237059E+03  0.90332176639E+03  0.13126561805E+04  0.50400001928E-02 0.  1.
</event>
<event>
 5   0  0.6636007E-08  0.3000352E+04  0.7818609E-02  0.8243630E-01
       -1   -1    0    0    0  501  0.00000000000E+00  0.00000000000E+00  0.15652175027E+04  0.15652175027E+04  0.50400001928E-02 0.  1.
        1   -1    0    0  501    0  0.00000000000E+00  0.00000000000E+00 -0.14378376695E+04  0.14378376695E+04  0.50400001928E-02 0. -1.
    10030    2    1    2    0    0  0.00000000000E+00  0.00000000000E+00  0.12737983314E+03  0.30030551722E+04  0.30003524369E+04 0.  0.
        2    1    3    3  502    0  0.22902927219E+03  0.14400536110E+04 -0.28921793732E+03  0.14865583828E+04  0.25500000920E-02 0.  1.
       -2    1    3    3    0  502 -0.22902927219E+03 -0.14400536110E+04  0.41659777047E+03  0.15164967895E+04  0.25500000920E-02 0. -1.
</event>
<event>
 5   0  0.1813720E-07  0.3001006E+04  0.7818609E-02  0.8243444E-01
       -2   -1    0    0    0  501  0.00000000000E+00  0.00000000000E+00  0.12638066750E+04  0.12638066750E+04  0.25500000920E-02 0. -1.
        2   -1    0    0  501    0  0.00000000000E+00  0.00000000000E+00 -0.17815296732E+04  0.17815296732E+04  0.25500000920E-02 0.  1.
    10030    2    1    2    0    0  0.00000000000E+00  0.00000000000E+00 -0.51772299823E+03  0.30453363481E+04  0.30010058931E+04 0.  0.
        3    1    3    3  502    0 -0.52480878781E+03  0.31543120341E+03 -0.16489833898E+04  0.17589961165E+04  0.10100000352E+00 0.  1.
       -3    1    3    3    0  502  0.52480878781E+03 -0.31543120341E+03  0.11312603916E+04  0.12863402317E+04  0.10100000352E+00 0. -1.
</event>
<event>
 5   0  0.1810055E-07  0.3000293E+04  0.7818609E-02  0.8243647E-01
       -2   -1    0    0    0  501  0.00000000000E+00  0.00000000000E+00  0.15700263254E+04  0.15700263254E+04  0.25500000920E-02 0. -1.
        2   -1    0    0  501    0  0.00000000000E+00  0.00000000000E+00 -0.14333769532E+04  0.14333769532E+04  0.25500000920E-02 0.  1.
    10030    2    1    2    0    0  0.00000000000E+00  0.00000000000E+00  0.13664937221E+03  0.30034032785E+04  0.30002930194E+04 0.  0.
        4    1    3    3  502    0 -0.28798310389E+02  0.13533952350E+04 -0.57882048891E+03  0.14722577139E+04  0.12699999809E+01 0.  1.
       -4    1    3    3    0  502  0.28798310389E+02 -0.13533952350E+04  0.71546986112E+03  0.15311455646E+04  0.12699999809E+01 0. -1.
</event>
<event>
 5   0  0.1914439E-07  0.2997304E+04  0.7818609E-02  0.8244501E-01
        2   -1    0    0  501    0  0.00000000000E+00  0.00000000000E+00  0.18191449571E+04  0.18191449571E+04  0.25500000920E-02 0.  1.
       -2   -1    0    0    0  501  0.00000000000E+00  0.00000000000E+00 -0.12346230259E+04  0.12346230259E+04  0.25500000920E-02 0. -1.
    10030    2    1    2    0    0  0.00000000000E+00  0.00000000000E+00  0.58452193117E+03  0.30537679830E+04  0.29973042899E+04 0.  0.
        5    1    3    3  502    0 -0.16835922045E+03  0.84420650814E+03 -0.95759506757E+03  0.12876489657E+04  0.46999998093E+01 0. -1.
       -5    1    3    3    0  502  0.16835922045E+03 -0.84420650814E+03  0.15421169987E+04  0.17661190173E+04  0.46999998093E+01 0.  1.
</event>
<event>
 5   0  0.6374748E-08  0.2999705E+04  0.7818609E-02  0.8243815E-01
       -1   -1    0    0    0  501  0.00000000000E+00  0.00000000000E+00  0.10668044468E+04  0.10668044468E+04  0.50400001928E-02 0.  1.
        1   -1    0    0  501    0  0.00000000000E+00  0.00000000000E+00 -0.21086874221E+04  0.21086874221E+04  0.50400001928E-02 0. -1.
    10030    2    1    2    0    0  0.00000000000E+00  0.00000000000E+00 -0.10418829753E+04  0.31754918690E+04  0.29997047314E+04 0.  0.
        1    1    3    3  502    0  0.73753945014E+03 -0.88453889220E+03 -0.15380716742E+04  0.19214676597E+04  0.50400001928E-02 0. -1.
       -1    1    3    3    0  502 -0.73753945014E+03  0.88453889220E+03  0.49618869895E+03  0.12540242092E+04  0.50400001928E-02 0.  1.
</event>
<event>
 5   0  0.6679022E-08  0.3003384E+04  0.7818609E-02  0.8242765E-01
        1   -1    0    0  501    0  0.00000000000E+00  0.00000000000E+00  0.10875812970E+04  0.10875812970E+04  0.50400001928E-02 0.  1.
       -1   -1    0    0    0  501  0.00000000000E+00  0.00000000000E+00 -0.20734804210E+04  0.20734804210E+04  0.50400001928E-02 0. -1.
    10030    2    1    2    0    0  0.00000000000E+00  0.00000000000E+00 -0.98589912399E+03  0.31610617181E+04  0.30033837755E+04 0.  0.
        3    1    3    3  502    0  0.14244030428E+04 -0.13443750214E+03 -0.97305696798E+03  0.17302708873E+04  0.10100000352E+00 0. -1.
       -3    1    3    3    0  502 -0.14244030428E+04  0.13443750214E+03 -0.12842156006E+02  0.14307908308E+04  0.10100000352E+00 0.  1.
</event>
<event>
 5   0  0.6525507E-08  0.3000761E+04  0.7818609E-02  0.8243513E-01
        1   -1    0    0  501    0  0.00000000000E+00  0.00000000000E+00  0.22627847664E+04  0.22627847665E+04  0.50400001928E-02 0. -1.
       -1   -1    0    0    0  501  0.00000000000E+00  0.00000000000E+00 -0.99485479916E+03  0.99485479917E+03  0.50400001928E-02 0.  1.
    10030    2    1    2    0    0  0.00000000000E+00  0.00000000000E+00  0.12679299673E+04  0.32576395656E+04  0.30007614263E+04 0.  0.
        4    1    3    3  502    0 -0.14408532478E+04 -0.38585146655E+03  0.80968953706E+03  0.16972148347E+04  0.12699999809E+01 0.  1.
       -4    1    3    3    0  502  0.14408532478E+04  0.38585146655E+03  0.45824043024E+03  0.15604247309E+04  0.12699999809E+01 0. -1.
</event>
<event>
 5   0  0.6464436E-08  0.2998328E+04  0.7818609E-02  0.8244209E-01
        1   -1    0    0  501    0  0.00000000000E+00  0.00000000000E+00  0.20713802850E+04  0.20713802850E+04  0.50400001928E-02 0. -1.
       -1   -1    0    0    0  501  0.00000000000E+00  0.00000000000E+00 -0.10850214882E+04  0.10850214882E+04  0.50400001928E-02 0.  1.
    10030    2    1    2    0    0  0.00000000000E+00  0.00000000000E+00  0.98635879686E+03  0.31564017732E+04  0.29983276135E+04 0.  0.
        5    1    3    3  502    0 -0.98607126262E+03 -0.25097812519E+03  0.16521974718E+04  0.19403878813E+04  0.46999998093E+01 0. -1.
       -5    1    3    3    0  502  0.98607126262E+03  0.25097812519E+03 -0.66583867491E+03  0.12160138919E+04  0.46999998093E+01 0.  1.
</event>
<event>
 5   0  0.1813720E-07  0.2999558E+04  0.7818609E-02  0.8243857E-01
       -2   -1    0    0    0  501  0.00000000000E+00  0.00000000000E+00  0.18040746814E+04  0.18040746814E+04  0.25500000920E-02 0.  1.
        2   -1    0    0  501    0  0.00000000000E+00  0.00000000000E+00 -0.12468089662E+04  0.12468089662E+04  0.25500000920E-02 0. -1.
    10030    2    1    2    0    0  0.00000000000E+00  0.00000000000E+00  0.55726571519E+03  0.30508836476E+04  0.29995576263E+04 0.  0.
        3    1    3    3  502    0  0.18423472290E+03  0.12430771075E+04 -0.55400380864E+03  0.13733547825E+04  0.10100000352E+00 0. -1.
       -3    1    3    3    0  502 -0.18423472290E+03 -0.12430771075E+04  0.11112695238E+04  0.16775288651E+04  0.10100000352E+00 0.  1.
</event>
<event>
 5   0  0.6636007E-08  0.2999176E+04  0.7818609E-02  0.8243966E-01
       -1   -1    0    0    0  501  0.00000000000E+00  0.00000000000E+00  0.10616469428E+04  0.10616469428E+04  0.50400001928E-02 0. -1.
        1   -1    0    0  501    0  0.00000000000E+00  0.00000000000E+00 -0.21181846983E+04  0.21181846983E+04  0.50400001928E-02 0.  1.
    10030    2    1    2    0    0  0.00000000000E+00  0.00000000000E+00 -0.10565377555E+04  0.31798316412E+04  0.29991760931E+04 0.  0.
        2    1    3    3  502    0  0.12171583764E+04 -0.52782575018E+03  0.21290275062E+03  0.13436525283E+04  0.25500000920E-02 0. -1.
       -2    1    3    3    0  502 -0.12171583764E+04  0.52782575018E+03 -0.12694405061E+04  0.18361791128E+04  0.25500000920E-02 0.  1.
</event>
<event>
 5   0  0.6525507E-08  0.3000617E+04  0.7818609E-02  0.8243555E-01
       -1   -1    0    0    0  501  0.00000000000E+00  0.00000000000E+00  0.97175835406E+03  0.97175835408E+03  0.50400001928E-02 0.  1.
        1   -1    0    0  501    0  0.00000000000E+00  0.00000000000E+00 -0.23163434907E+04  0.23163434907E+04  0.50400001928E-02 0. -1.
    10030    2    1    2    0    0  0.00000000000E+00  0.00000000000E+00 -0.13445851366E+04  0.32881018448E+04  0.30006173618E+04 0.  0.
        4    1    3    3  502    0  0.10889716908E+04  0.94922617085E+03 -0.22847681166E+03  0.14625638219E+04  0.12699999809E+01 0.  1.
       -4    1    3    3    0  502 -0.10889716908E+04 -0.94922617085E+03 -0.11161083250E+04  0.18255380228E+04  0.12699999809E+01 0. -1.
</event>
<event>
 5   0  0.6679022E-08  0.3001269E+04  0.7818609E-02  0.8243369E-01
        1   -1    0    0  501    0  0.00000000000E+00  0.00000000000E+00  0.15372386271E+04  0.15372386271E+04  0.50400001928E-02 0. -1.
       -1   -1    0    0    0  501  0.00000000000E+00  0.00000000000E+00 -0.14649016669E+04  0.14649016669E+04  0.50400001928E-02 0.  1.
    10030    2    1    2    0    0  0.00000000000E+00  0.00000000000E+00  0.72336960224E+02  0.30021402940E+04  0.30012686832E+04 0.  0.
        3    1    3    3  502    0  0.11746724458E+04  0.29960170908E+03  0.92089517140E+03  0.15223877515E+04  0.10100000352E+00 0. -1.
       -3    1    3    3    0  502 -0.11746724458E+04 -0.29960170908E+03 -0.84855821117E+03  0.14797525425E+04  0.10100000352E+00 0.  1.
</event>
<event>
 5   0  0.6525507E-08  0.3003310E+04  0.7818609E-02  0.8242786E-01
        1   -1    0    0  501    0  0.00000000000E+00  0.00000000000E+00  0.20319372809E+04  0.20319372809E+04  0.50400001928E-02 0.  1.
       -1   -1    0    0    0  501  0.00000000000E+00  0.00000000000E+00 -0.11097626670E+04  0.11097626671E+04  0.50400001928E-02 0. -1.
    10030    2    1    2    0    0  0.00000000000E+00  0.00000000000E+00  0.92217461388E+03  0.31416999480E+04  0.30033102645E+04 0.  0.
        4    1    3    3  502    0 -0.53623595581E+03 -0.13430212548E+04  0.37830444429E+02  0.14466125420E+04  0.12699999809E+01 0. -1.
       -4    1    3    3    0  502  0.53623595581E+03  0.13430212548E+04  0.88434416945E+03  0.16950874060E+04  0.12699999809E+01 0.  1.
</event>
<event>
 5   0  0.1821305E-07  0.2998875E+04  0.7818609E-02  0.8244052E-01
        2   -1    0    0  501    0  0.00000000000E+00  0.00000000000E+00  0.20791657828E+04  0.20791657828E+04  0.25500000920E-02 0. -1.
       -2   -1    0    0    0  501  0.00000000000E+00  0.00000000000E+00 -0.10813535205E+04  0.10813535205E+04  0.25500000920E-02 0.  1.
    10030    2    1    2    0    0  0.00000000000E+00  0.00000000000E+00  0.99781226227E+03  0.31605193033E+04  0.29988752818E+04 0.  0.
        2    1    3    3  502    0 -0.79201513144E+03  0.89391201519E+03 -0.45657439254E+03  0.12786034707E+04  0.25500000920E-02 0.  1.
       -2    1    3    3    0  502  0.79201513144E+03 -0.89391201519E+03  0.14543866548E+04  0.18819158326E+04  0.25500000920E-02 0. -1.
</event>
<event>
 5   0  0.1914439E-07  0.3000218E+04  0.7818609E-02  0.8243669E-01
       -2   -1    0    0    0  501  0.00000000000E+00  0.00000000000E+00  0.12285615574E+04  0.12285615574E+04  0.25500000920E-02 0.  1.
        2   -1    0    0  501    0  0.00000000000E+00  0.00000000000E+00 -0.18316764487E+04  0.18316764487E+04  0.25500000920E-02 0. -1.
    10030    2    1    2    0    0  0.00000000000E+00  0.00000000000E+00 -0.60311489129E+03  0.30602380061E+04  0.30002181724E+04 0.  0.
        5    1    3    3  502    0 -0.12884356940E+04 -0.46071020234E+03 -0.92866135433E+03  0.16537092940E+04  0.46999998093E+01 0. -1.
       -5    1    3    3    0  502  0.12884356940E+04  0.46071020234E+03  0.32554646303E+03  0.14065287120E+04  0.46999998093E+01 0.  1.
</event>
<event>
 5   0  0.1813720E-07  0.2998865E+04  0.7818609E-02  0.8244055E-01
        2   -1    0    0  501    0  0.00000000000E+00  0.00000000000E+00  0.11624894991E+04  0.11624894991E+04  0.25500000920E-02 0. -1.
       -2   -1    0    0    0  501  0.00000000000E+00  0.00000000000E+00 -0.19340373651E+04  0.19340373651E+04  0.25500000920E-02 0.  1.
    10030    2    1    2    0    0  0.00000000000E+00  0.00000000000E+00 -0.77154786598E+03  0.30965268642E+04  0.29988652039E+04 0.  0.
        3    1    3    3  502    0  0.10772637867E+04 -0.93162784081E+03 -0.86994775851E+03  0.16689028769E+04  0.10100000352E+00 0. -1.
       -3    1    3    3    0  502 -0.10772637867E+04  0.93162784081E+03  0.98399892538E+02  0.14276239872E+04  0.10100000352E+00 0.  1.
</event>
<event>
 5   0  0.1914439E-07  0.3000854E+04  0.7818609E-02  0.8243487E-01
        2   -1    0    0  501    0  0.00000000000E+00  0.00000000000E+00  0.16931139897E+04  0.16931139897E+04  0.25500000920E-02 0. -1.
       -2   -1    0    0    0  501  0.00000000000E+00  0.00000000000E+00 -0.13296686475E+04  0.13296686475E+04  0.25500000920E-02 0.  1.
    10030    2    1    2    0    0  0.00000000000E+00  0.00000000000E+00  0.36344534226E+03  0.30227826372E+04  0.30008536044E+04 0.  0.
        5    1    3    3  502    0 -0.64419866132E+03 -0.95108043232E+03 -0.79058361394E+03  0.13944857276E+04  0.46999998093E+01 0.  1.
       -5    1    3    3    0  502  0.64419866132E+03  0.95108043232E+03  0.11540289562E+04  0.16282969096E+04  0.46999998093E+01 0. -1.
</event>
<event>
 5   0  0.6525507E-08  0.2999417E+04  0.7818609E-02  0.8243897E-01
        1   -1    0    0  501    0  0.00000000000E+00  0.00000000000E+00  0.11143307993E+04  0.11143307993E+04  0.50400001928E-02 0.  1.
       -1   -1    0    0    0  501  0.00000000000E+00  0.00000000000E+00 -0.20183649554E+04  0.20183649554E+04  0.50400001928E-02 0. -1.
    10030    2    1    2    0    0  0.00000000000E+00  0.00000000000E+00 -0.90403415615E+03  0.31326957547E+04  0.29994174328E+04 0.  0.
        4    1    3    3  502    0  0.83134661910E+02 -0.14492921664E+04 -0.58769070181E+02  0.14528642649E+04  0.12699999809E+01 0.  1.
       -4    1    3    3    0  502 -0.83134661910E+02  0.14492921664E+04 -0.84526508597E+03  0.16798314898E+04  0.12699999809E+01 0. -1.
</event>
<event>
 5   0  0.6464436E-08  0.2999753E+04  0.7818609E-02  0.8243801E-01
        1   -1    0    0  501    0  0.00000000000E+00  0.00000000000E+00  0.14106392132E+04  0.14106392132E+04  0.50400001928E-02 0. -1.
       -1   -1    0    0    0  501  0.00000000000E+00  0.00000000000E+00 -0.15947590598E+04  0.15947590598E+04  0.50400001928E-02 0.  1.
    10030    2    1    2    0    0  0.00000000000E+00  0.00000000000E+00 -0.18411984660E+03  0.30053982731E+04  0.29997531001E+04 0.  0.
        5    1    3    3  502    0  0.51229226717E+03 -0.65874079355E+03  0.11565698212E+04  0.14262042776E+04  0.46999998093E+01 0. -1.
       -5    1    3    3    0  502 -0.51229226717E+03  0.65874079355E+03 -0.13406896678E+04  0.15791939955E+04  0.46999998093E+01 0.  1.
</event>
<event>
 5   0  0.6679022E-08  0.3003241E+04  0.7818609E-02  0.8242806E-01
        1   -1    0    0  501    0  0.00000000000E+00  0.00000000000E+00  0.24229443130E+04  0.24229443130E+04  0.50400001928E-02 0.  1.
       -1   -1    0    0    0  501  0.00000000000E+00  0.00000000000E+00 -0.93062992666E+03  0.93062992667E+03  0.50400001928E-02 0. -1.
    10030    2    1    2    0    0  0.00000000000E+00  0.00000000000E+00  0.14923143864E+04  0.33535742397E+04  0.30032412413E+04 0.  0.
        3    1    3    3  502    0 -0.46067472709E+02  0.80175789953E+03  0.21629969518E+04  0.23072697643E+04  0.10100000352E+00 0.  1.
       -3    1    3    3    0  502  0.46067472709E+02 -0.80175789953E+03 -0.67068256543E+03  0.10463044754E+04  0.10100000352E+00 0. -1.
</event>
<event>
 5   0  0.6464436E-08  0.2996276E+04  0.7818609E-02  0.8244795E-01
        1   -1    0    0  501    0  0.00000000000E+00  0.00000000000E+00  0.21750814857E+04  0.21750814857E+04  0.50400001928E-02 0. -1.
       -1   -1    0    0    0  501  0.00000000000E+00  0.00000000000E+00 -0.10318775350E+04  0.10318775350E+04  0.50400001928E-02 0.  1.
    10030    2    1    2    0    0  0.00000000000E+00  0.00000000000E+00  0.11432039507E+04  0.32069590208E+04  0.29962761702E+04 0.  0.
        5    1    3    3  502    0 -0.85816488817E+03 -0.12156483044E+04  0.75744222999E+03  0.16697271026E+04  0.46999998093E+01 0. -1.
       -5    1    3    3    0  502  0.85816488817E+03  0.12156483044E+04  0.38576172069E+03  0.15372319182E+04  0.46999998093E+01 0.  1.
</event>
<event>
 5   0  0.1821305E-07  0.2997912E+04  0.7818609E-02  0.8244327E-01
        2   -1    0    0  501    0  0.00000000000E+00  0.00000000000E+00  0.22424288231E+04  0.22424288231E+04  0.25500000920E-02 0.  1.
       -2   -1    0    0    0  501  0.00000000000E+00  0.00000000000E+00 -0.10019800745E+04  0.10019800745E+04  0.25500000920E-02 0. -1.
    10030    2    1    2    0    0  0.00000000000E+00  0.00000000000E+00  0.12404487487E+04  0.32444088976E+04  0.29979119395E+04 0.  0.
        2    1    3    3  502    0 -0.16210639386E+03 -0.11477297977E+04 -0.40834682225E+03  0.12289464181E+04  0.25500000920E-02 0. -1.
       -2    1    3    3    0  502  0.16210639386E+03  0.11477297977E+04  0.16487955709E+04  0.20154624795E+04  0.25500000920E-02 0.  1.
</event>
<event>
 5   0  0.1813720E-07  0.2993369E+04  0.7818609E-02  0.8245627E-01
        2   -1    0    0  501    0  0.00000000000E+00  0.00000000000E+00  0.19496911346E+04  0.19496911346E+04  0.25500000920E-02 0. -1.
       -2   -1    0    0    0  501  0.00000000000E+00  0.00000000000E+00 -0.11489326303E+04  0.11489326303E+04  0.25500000920E-02 0.  1.
    10030    2    1    2    0    0  0.00000000000E+00  0.00000000000E+00  0.80075850430E+03  0.30986237649E+04  0.29933685130E+04 0.  0.
        3    1    3    3  502    0 -0.13761892932E+04 -0.56544037316E+03  0.23204520503E+03  0.15058103379E+04  0.10100000352E+00 0. -1.
       -3    1    3    3    0  502  0.13761892932E+04  0.56544037316E+03  0.56871329927E+03  0.15928134270E+04  0.10100000352E+00 0.  1.
</event>
<event>
 5   0  0.1813720E-07  0.3001538E+04  0.7818609E-02  0.8243292E-01
        2   -1    0    0  501    0  0.00000000000E+00  0.00000000000E+00  0.21204156576E+04  0.21204156576E+04  0.25500000920E-02 0.  1.
       -2   -1    0    0    0  501  0.00000000000E+00  0.00000000000E+00 -0.10622010263E+04  0.10622010263E+04  0.25500000920E-02 0. -1.
    10030    2    1    2    0    0  0.00000000000E+00  0.00000000000E+00  0.10582146313E+04  0.31826166840E+04  0.30015380642E+04 0.  0.
        3    1    3    3  502    0 -0.48098550164E+02  0.10430323389E+04 -0.61392385086E+03  0.12112524243E+04  0.10100000352E+00 0. -1.
       -3    1    3    3    0  502  0.48098550164E+02 -0.10430323389E+04  0.16721384822E+04  0.19713642597E+04  0.10100000352E+00 0.  1.
</event>
<event>
 5   0  0.6636007E-08  0.2994496E+04  0.7818609E-02  0.8245304E-01
        1   -1    0    0  501    0  0.00000000000E+00  0.00000000000E+00  0.27026512110E+04  0.27026512110E+04  0.50400001928E-02 0.  1.
       -1   -1    0    0    0  501  0.00000000000E+00  0.00000000000E+00 -0.82946382560E+03  0.82946382562E+03  0.50400001928E-02 0. -1.
    10030    2    1    2    0    0  0.00000000000E+00  0.00000000000E+00  0.18731873854E+04  0.35321150366E+04  0.29944958927E+04 0.  0.
        2    1    3    3  502    0 -0.10456229507E+04 -0.34368380968E+03 -0.26068189180E+03  0.11311060803E+04  0.25500000920E-02 0.  1.
       -2    1    3    3    0  502  0.10456229507E+04  0.34368380968E+03  0.21338692772E+04  0.24010089563E+04  0.25500000920E-02 0. -1.
</event>
<event>
 5   0  0.1810055E-07  0.2999503E+04  0.7818609E-02  0.8243873E-01
        2   -1    0    0  501    0  0.00000000000E+00  0.00000000000E+00  0.21394818492E+04  0.21394818492E+04  0.25500000920E-02 0.  1.
       -2   -1    0    0    0  501  0.00000000000E+00  0.00000000000E+00 -0.10513083650E+04  0.10513083650E+04  0.25500000920E-02 0. -1.
    10030    2    1    2    0    0  0.00000000000E+00  0.00000000000E+00  0.10881734842E+04  0.31907902142E+04  0.29995034021E+04 0.  0.
        4    1    3    3  502    0  0.58334287096E+03 -0.55620531808E+03 -0.80132319123E+03  0.11365622423E+04  0.12699999809E+01 0. -1.
       -4    1    3    3    0  502 -0.58334287096E+03  0.55620531808E+03  0.18894966755E+04  0.20542279719E+04  0.12699999809E+01 0.  1.
</event>
<event>
 5   0  0.1813720E-07  0.2998863E+04  0.7818609E-02  0.8244056E-01
        2   -1    0    0  501    0  0.00000000000E+00  0.00000000000E+00  0.81297568340E+03  0.81297568340E+03  0.25500000920E-02 0. -1.
       -2   -1    0    0    0  501  0.00000000000E+00  0.00000000000E+00 -0.27655137970E+04  0.27655137970E+04  0.25500000920E-02 0.  1.
    10030    2    1    2    0    0  0.00000000000E+00  0.00000000000E+00 -0.19525381136E+04  0.35784894804E+04  0.29988634307E+04 0.  0.
        3    1    3    3  502    0  0.84746931928E+03 -0.59127162214E+03  0.32023548861E+03  0.10818304658E+04  0.10100000352E+00 0. -1.
       -3    1    3    3    0  502 -0.84746931928E+03  0.59127162214E+03 -0.22727736022E+04  0.24966590146E+04  0.10100000352E+00 0.  1.
</event>
<event>
 5   0  0.1813720E-07  0.3001227E+04  0.7818609E-02  0.8243381E-01
        2   -1    0    0  501    0  0.00000000000E+00  0.00000000000E+00  0.23253943322E+04  0.23253943322E+04  0.25500000920E-02 0.  1.
       -2   -1    0    0    0  501  0.00000000000E+00  0.00000000000E+00 -0.96836942171E+03  0.96836942172E+03  0.25500000920E-02 0. -1.
    10030    2    1    2    0    0  0.00000000000E+00  0.00000000000E+00  0.13570249105E+04  0.32937637539E+04  0.30012269256E+04 0.  0.
        3    1    3    3  502    0  0.11068405164E+03  0.10764222945E+04  0.18195169167E+04  0.21169737211E+04  0.10100000352E+00 0.  1.
       -3    1    3    3    0  502 -0.11068405164E+03 -0.10764222945E+04 -0.46249200624E+03  0.11767900328E+04  0.10100000352E+00 0. -1.
</event>
<event>
 5   0  0.1813720E-07  0.2999749E+04  0.7818609E-02  0.8243802E-01
        2   -1    0    0  501    0  0.00000000000E+00  0.00000000000E+00  0.20541773446E+04  0.20541773446E+04  0.25500000920E-02 0.  1.
       -2   -1    0    0    0  501  0.00000000000E+00  0.00000000000E+00 -0.10951458922E+04  0.10951458922E+04  0.25500000920E-02 0. -1.
    10030    2    1    2    0    0  0.00000000000E+00  0.00000000000E+00  0.95903145235E+03  0.31493232368E+04  0.29997492434E+04 0.  0.
        3    1    3    3  502    0 -0.81168043786E+03 -0.55343248715E+03  0.16693904419E+04  0.19370020931E+04  0.10100000352E+00 0.  1.
       -3    1    3    3    0  502  0.81168043786E+03  0.55343248715E+03 -0.71035898958E+03  0.12123211436E+04  0.10100000352E+00 0. -1.
</event>
<event>
 5   0  0.1914439E-07  0.3002797E+04  0.7818609E-02  0.8242933E-01
       -2   -1    0    0    0  501  0.00000000000E+00  0.00000000000E+00  0.14896674015E+04  0.14896674015E+04  0.25500000920E-02 0. -1.
        2   -1    0    0  501    0  0.00000000000E+00  0.00000000000E+00 -0.15132219838E+04  0.15132219838E+04  0.25500000920E-02 0.  1.
    10030    2    1    2    0    0  0.00000000000E+00  0.00000000000E+00 -0.23554582248E+02  0.30028893853E+04  0.30027970031E+04 0.  0.
        5    1    3    3  502    0  0.12108379934E+04  0.84968899239E+03 -0.26883644030E+03  0.15034610576E+04  0.46999998093E+01 0. -1.
       -5    1    3    3    0  502 -0.12108379934E+04 -0.84968899239E+03  0.24528185805E+03  0.14994283277E+04  0.46999998093E+01 0.  1.
</event>
<event>
 5   0  0.6679022E-08  0.2994460E+04  0.7818609E-02  0.8245315E-01
       -1   -1    0    0    0  501  0.00000000000E+00  0.00000000000E+00  0.11087798616E+04  0.11087798616E+04  0.50400001928E-02 0. -1.
        1   -1    0    0  501    0  0.00000000000E+00  0.00000000000E+00 -0.20217699269E+04  0.20217699269E+04  0.50400001928E-02 0.  1.
    10030    2    1    2    0    0  0.00000000000E+00  0.00000000000E+00 -0.91299006529E+03  0.31305497885E+04  0.29944600713E+04 0.  0.
        3    1    3    3  502    0 -0.29894151242E+03 -0.52425079038E+02  0.10762828806E+04  0.11182572450E+04  0.10100000352E+00 0. -1.
       -3    1    3    3    0  502  0.29894151242E+03  0.52425079038E+02 -0.19892729459E+04  0.20122925434E+04  0.10100000352E+00 0.  1.
</event>
<event>
 5   0  0.6636007E-08  0.2999800E+04  0.7818609E-02  0.8243788E-01
       -1   -1    0    0    0  501  0.00000000000E+00  0.00000000000E+00  0.13253289571E+04  0.13253289572E+04  0.50400001928E-02 0. -1.
        1   -1    0    0  501    0  0.00000000000E+00  0.00000000000E+00 -0.16974656159E+04  0.16974656159E+04  0.50400001928E-02 0.  1.
    10030    2    1    2    0    0  0.00000000000E+00  0.00000000000E+00 -0.37213665876E+03  0.30227945731E+04  0.29998002164E+04 0.  0.
        2    1    3    3  502    0 -0.12319347644E+04 -0.78723215264E+03 -0.52375290524E+03  0.15529696815E+04  0.25500000920E-02 0.  1.
       -2    1    3    3    0  502  0.12319347644E+04  0.78723215264E+03  0.15161624648E+03  0.14698248916E+04  0.25500000920E-02 0. -1.
</event>
<event>
 5   0  0.6525507E-08  0.3000697E+04  0.7818609E-02  0.8243532E-01
       -1   -1    0    0    0  501  0.00000000000E+00  0.00000000000E+00  0.10158658600E+04  0.10158658600E+04  0.50400001928E-02 0. -1.
        1   -1    0    0  501    0  0.00000000000E+00  0.00000000000E+00 -0.22158880318E+04  0.22158880318E+04  0.50400001928E-02 0.  1.
    10030    2    1    2    0    0  0.00000000000E+00  0.00000000000E+00 -0.12000221718E+04  0.32317538918E+04  0.30006965865E+04 0.  0.
        4    1    3    3  502    0  0.59212511831E+03  0.12432729351E+04  0.41418546821E+02  0.13776998425E+04  0.12699999809E+01 0. -1.
       -4    1    3    3    0  502 -0.59212511831E+03 -0.12432729351E+04 -0.12414407187E+04  0.18540540493E+04  0.12699999809E+01 0.  1.
</event>
<event>
 5   0  0.1813720E-07  0.3000112E+04  0.7818609E-02  0.8243699E-01
       -2   -1    0    0    0  501  0.00000000000E+00  0.00000000000E+00  0.17192321809E+04  0.17192321809E+04  0.25500000920E-02 0.  1.
        2   -1    0    0  501    0  0.00000000000E+00  0.00000000000E+00 -0.13088218392E+04  0.13088218392E+04  0.25500000920E-02 0. -1.
    10030    2    1    2    0    0  0.00000000000E+00  0.00000000000E+00  0.41041034177E+03  0.30280540201E+04  0.30001124145E+04 0.  0.
        3    1    3    3  502    0 -0.62134245068E+03 -0.12245025865E+04 -0.40431958070E+03  0.14314144609E+04  0.10100000352E+00 0. -1.
       -3    1    3    3    0  502  0.62134245068E+03  0.12245025865E+04  0.81472992246E+03  0.15966395592E+04  0.10100000352E+00 0.  1.
</event>
<event>
 5   0  0.1813720E-07  0.2999012E+04  0.7818609E-02  0.8244013E-01
        2   -1    0    0  501    0  0.00000000000E+00  0.00000000000E+00  0.22818983277E+04  0.22818983277E+04  0.25500000920E-02 0.  1.
       -2   -1    0    0    0  501  0.00000000000E+00  0.00000000000E+00 -0.98537153783E+03  0.98537153783E+03  0.25500000920E-02 0. -1.
    10030    2    1    2    0    0  0.00000000000E+00  0.00000000000E+00  0.12965267899E+04  0.32672698656E+04  0.29990116134E+04 0.  0.
        3    1    3    3  502    0 -0.17667265059E+01 -0.14989483469E+04  0.60376389128E+03  0.16159765204E+04  0.10100000352E+00 0.  1.
       -3    1    3    3    0  502  0.17667265059E+01  0.14989483469E+04  0.69276289863E+03  0.16512933452E+04  0.10100000352E+00 0. -1.
</event>
<event>
 5   0  0.1817566E-07  0.2998454E+04  0.7818609E-02  0.8244173E-01
        2   -1    0    0  501    0  0.00000000000E+00  0.00000000000E+00  0.14053238422E+04  0.14053238422E+04  0.25500000920E-02 0.  1.
       -2   -1    0    0    0  501  0.00000000000E+00  0.00000000000E+00 -0.15994043650E+04  0.15994043650E+04  0.25500000920E-02 0. -1.
    10030    2    1    2    0    0  0.00000000000E+00  0.00000000000E+00 -0.19408052279E+03  0.30047282072E+04  0.29984536598E+04 0.  0.
        1    1    3    3  502    0  0.12811422404E+04 -0.57506889932E+03  0.42908355360E+03  0.14683808685E+04  0.50400001928E-02 0.  1.
       -1    1    3    3    0  502 -0.12811422404E+04  0.57506889932E+03 -0.62316407639E+03  0.15363473387E+04  0.50400001928E-02 0. -1.
</event>
<event>
 5   0  0.6374748E-08  0.2999569E+04  0.7818609E-02  0.8243854E-01
        1   -1    0    0  501    0  0.00000000000E+00  0.00000000000E+00  0.11264029683E+04  0.11264029684E+04  0.50400001928E-02 0. -1.
       -1   -1    0    0    0  501  0.00000000000E+00  0.00000000000E+00 -0.19969344255E+04  0.19969344256E+04  0.50400001928E-02 0.  1.
    10030    2    1    2    0    0  0.00000000000E+00  0.00000000000E+00 -0.87053145720E+03  0.31233373939E+04  0.29995685453E+04 0.  0.
        1    1    3    3  502    0 -0.77409017950E+03 -0.19570905857E+03 -0.17572321714E+04  0.19301250079E+04  0.50400001928E-02 0.  1.
       -1    1    3    3    0  502  0.77409017950E+03  0.19570905857E+03  0.88670071422E+03  0.11932123861E+04  0.50400001928E-02 0. -1.
</event>
<event>
 5   0  0.1821305E-07  0.3001442E+04  0.7818609E-02  0.8243319E-01
        2   -1    0    0  501    0  0.00000000000E+00  0.00000000000E+00  0.23203504600E+04  0.23203504601E+04  0.25500000920E-02 0. -1.
       -2   -1    0    0    0  501  0.00000000000E+00  0.00000000000E+00 -0.97061381744E+03  0.97061381744E+03  0.25500000920E-02 0.  1.
    10030    2    1    2    0    0  0.00000000000E+00  0.00000000000E+00  0.13497366426E+04  0.32909642775E+04  0.30014424651E+04 0.  0.
        2    1    3    3  502    0  0.70865431932E+01 -0.14931142446E+04  0.50958306494E+03  0.15776930204E+04  0.25500000920E-02 0.  1.
       -2    1    3    3    0  502 -0.70865431932E+01  0.14931142446E+04  0.84015357768E+03  0.17132712571E+04  0.25500000920E-02 0. -1.
</event>
<event>
 5   0  0.1813720E-07  0.3002127E+04  0.7818609E-02  0.8243124E-01
        2   -1    0    0  501    0  0.00000000000E+00  0.00000000000E+00  0.22096575074E+04  0.22096575074E+04  0.25500000920E-02 0.  1.
       -2   -1    0    0    0  501  0.00000000000E+00  0.00000000000E+00 -0.10197016287E+04  0.10197016287E+04  0.25500000920E-02 0. -1.
    10030    2    1    2    0    0  0.00000000000E+00  0.00000000000E+00  0.11899558788E+04  0.32293591361E+04  0.30021268189E+04 0.  0.
        3    1    3    3  502    0 -0.52316315058E+03  0.25024428233E+03 -0.89432683246E+03  0.10658997966E+04  0.10100000352E+00 0. -1.
       -3    1    3    3    0  502  0.52316315058E+03 -0.25024428233E+03  0.20842827113E+04  0.21634593395E+04  0.10100000352E+00 0.  1.
</event>
<event>
 5   0  0.6374748E-08  0.2999545E+04  0.7818609E-02  0.8243861E-01
        1   -1    0    0  501    0  0.00000000000E+00  0.00000000000E+00  0.12641606408E+04  0.12641606408E+04  0.50400001928E-02 0.  1.
       -1   -1    0    0    0  501  0.00000000000E+00  0.00000000000E+00 -0.17792974422E+04  0.17792974422E+04  0.50400001928E-02 0. -1.
    10030    2    1    2    0    0  0.00000000000E+00  0.00000000000E+00 -0.51513680133E+03  0.30434580830E+04  0.29995451620E+04 0.  0.
        1    1    3    3  502    0  0.11280381944E+04 -0.49643579745E+03 -0.11247140347E+04  0.16685024210E+04  0.50400001928E-02 0. -1.
       -1    1    3    3    0  502 -0.11280381944E+04  0.49643579745E+03  0.60957723335E+03  0.13749556620E+04  0.50400001928E-02 0.  1.
</event>
<event>
 5   0  0.1810055E-07  0.3001349E+04  0.7818609E-02  0.8243346E-01
       -2   -1    0    0    0  501  0.00000000000E+00  0.00000000000E+00  0.80262207628E+03  0.80262207628E+03  0.25500000920E-02 0.  1.
        2   -1    0    0  501    0  0.00000000000E+00  0.00000000000E+00 -0.28058336780E+04  0.28058336780E+04  0.25500000920E-02 0. -1.
    10030    2    1    2    0    0  0.00000000000E+00  0.00000000000E+00 -0.20032116018E+04  0.36084557543E+04  0.30013490649E+04 0.  0.
        4    1    3    3  502    0 -0.73527321025E+03 -0.72285468990E+03  0.30930550943E+03  0.10764836773E+04  0.12699999809E+01 0.  1.
       -4    1    3    3    0  502  0.73527321025E+03  0.72285468990E+03 -0.23125171112E+04  0.25319720770E+04  0.12699999809E+01 0. -1.
</event>
<event>
 5   0  0.6464436E-08  0.3000892E+04  0.7818609E-02  0.8243476E-01
       -1   -1    0    0    0  501  0.00000000000E+00  0.00000000000E+00  0.12609508783E+04  0.12609508783E+04  0.50400001928E-02 0. -1.
        1   -1    0    0  501    0  0.00000000000E+00  0.00000000000E+00 -0.17854285019E+04  0.17854285019E+04  0.50400001928E-02 0.  1.
    10030    2    1    2    0    0  0.00000000000E+00  0.00000000000E+00 -0.52447762367E+03  0.30463793802E+04  0.30008916259E+04 0.  0.
        5    1    3    3  502    0  0.10776938798E+03  0.20728046308E+03  0.12423666038E+04  0.12641504260E+04  0.46999998093E+01 0. -1.
       -5    1    3    3    0  502 -0.10776938798E+03 -0.20728046308E+03 -0.17668442274E+04  0.17822289542E+04  0.46999998093E+01 0.  1.
</event>
<event>
 5   0  0.1914439E-07  0.2999093E+04  0.7818609E-02  0.8243990E-01
        2   -1    0    0  501    0  0.00000000000E+00  0.00000000000E+00  0.15920843391E+04  0.15920843391E+04  0.25500000920E-02 0.  1.
       -2   -1    0    0    0  501  0.00000000000E+00  0.00000000000E+00 -0.14123877319E+04  0.14123877319E+04  0.25500000920E-02 0. -1.
    10030    2    1    2    0    0  0.00000000000E+00  0.00000000000E+00  0.17969660716E+03  0.30044720709E+04  0.29990934554E+04 0.  0.
        5    1    3    3  502    0 -0.12555127813E+04  0.42520313974E+03 -0.61248550646E+03  0.14602296531E+04  0.46999998093E+01 0. -1.
       -5    1    3    3    0  502  0.12555127813E+04 -0.42520313974E+03  0.79218211362E+03  0.15442424179E+04  0.46999998093E+01 0.  1.
</event>
<event>
 5   0  0.1810055E-07  0.2999495E+04  0.7818609E-02  0.8243875E-01
        2   -1    0    0  501    0  0.00000000000E+00  0.00000000000E+00  0.21906733936E+04  0.21906733936E+04  0.25500000920E-02 0.  1.
       -2   -1    0    0    0  501  0.00000000000E+00  0.00000000000E+00 -0.10267353544E+04  0.10267353544E+04  0.25500000920E-02 0. -1.
    10030    2    1    2    0    0  0.00000000000E+00  0.00000000000E+00  0.11639380392E+04  0.32174087480E+04  0.29994945062E+04 0.  0.
        4    1    3    3  502    0 -0.39479535500E+03 -0.13569363669E+04  0.11205426062E+04  0.18035401358E+04  0.12699999809E+01 0. -1.
       -4    1    3    3    0  502  0.39479535500E+03  0.13569363669E+04  0.43395432906E+02  0.14138686122E+04  0.12699999809E+01 0.  1.
</event>
<event>
 5   0  0.1813720E-07  0.3001169E+04  0.7818609E-02  0.8243397E-01
       -2   -1    0    0    0  501  0.00000000000E+00  0.00000000000E+00  0.18353704446E+04  0.18353704446E+04  0.25500000920E-02 0. -1.
        2   -1    0    0  501    0  0.00000000000E+00  0.00000000000E+00 -0.12268659231E+04  0.12268659231E+04  0.25500000920E-02 0.  1.
    10030    2    1    2    0    0  0.00000000000E+00  0.00000000000E+00  0.60850452150E+03  0.30622363676E+04  0.30011687421E+04 0.  0.
        3    1    3    3  502    0 -0.69492453790E+03 -0.60184817954E+03 -0.90588733114E+03  0.12906483687E+04  0.10100000352E+00 0.  1.
       -3    1    3    3    0  502  0.69492453790E+03  0.60184817954E+03  0.15143918526E+04  0.17715879990E+04  0.10100000352E+00 0. -1.
</event>
<event>
 5   0  0.1813720E-07  0.2994290E+04  0.7818609E-02  0.8245363E-01
       -2   -1    0    0    0  501  0.00000000000E+00  0.00000000000E+00  0.75019169292E+03  0.75019169292E+03  0.25500000920E-02 0. -1.
        2   -1    0    0  501    0  0.00000000000E+00  0.00000000000E+00 -0.29878274223E+04  0.29878274223E+04  0.25500000920E-02 0.  1.
    10030    2    1    2    0    0  0.00000000000E+00  0.00000000000E+00 -0.22376357294E+04  0.37380191152E+04  0.29942901076E+04 0.  0.
        3    1    3    3  502    0 -0.86463636066E+03 -0.12221834591E+04 -0.11054387252E+04  0.18610005989E+04  0.10100000352E+00 0. -1.
       -3    1    3    3    0  502  0.86463636066E+03  0.12221834591E+04 -0.11321970042E+04  0.18770185163E+04  0.10100000352E+00 0.  1.
</event>
<event>
 5   0  0.1810055E-07  0.3000358E+04  0.7818609E-02  0.8243629E-01
        2   -1    0    0  501    0  0.00000000000E+00  0.00000000000E+00  0.16362542310E+04  0.16362542310E+04  0.25500000920E-02 0.  1.
       -2   -1    0    0    0  501  0.00000000000E+00  0.00000000000E+00 -0.13754200400E+04  0.13754200400E+04  0.25500000920E-02 0. -1.
    10030    2    1    2    0    0  0.00000000000E+00  0.00000000000E+00  0.26083419096E+03  0.30116742710E+04  0.30003578852E+04 0.  0.
        4    1    3    3  502    0 -0.12030415082E+04  0.47784563239E+03 -0.63065760938E+03  0.14399222035E+04  0.12699999809E+01 0. -1.
       -4    1    3    3    0  502  0.12030415082E+04 -0.47784563239E+03  0.89149180034E+03  0.15717520675E+04  0.12699999809E+01 0.  1.
</event>
<event>
 5   0  0.1813720E-07  0.3001228E+04  0.7818609E-02  0.8243380E-01
       -2   -1    0    0    0  501  0.00000000000E+00  0.00000000000E+00  0.12330080306E+04  0.12330080306E+04  0.25500000920E-02 0.  1.
        2   -1    0    0  501    0  0.00000000000E+00  0.00000000000E+00 -0.18262993249E+04  0.18262993249E+04  0.25500000920E-02 0. -1.
    10030    2    1    2    0    0  0.00000000000E+00  0.00000000000E+00 -0.59329129432E+03  0.30593073555E+04  0.30012275714E+04 0.  0.
        3    1    3    3  502    0 -0.11729064479E+04  0.35217714046E+03 -0.11806674448E+04  0.17010919726E+04  0.10100000352E+00 0. -1.
       -3    1    3    3    0  502  0.11729064479E+04 -0.35217714046E+03  0.58737615051E+03  0.13582153828E+04  0.10100000352E+00 0.  1.
</event>
<event>
 5   0  0.6464436E-08  0.2999845E+04  0.7818609E-02  0.8243775E-01
       -1   -1    0    0    0  501  0.00000000000E+00  0.00000000000E+00  0.14104688052E+04  0.14104688052E+04  0.50400001928E-02 0. -1.
        1   -1    0    0  501    0  0.00000000000E+00  0.00000000000E+00 -0.15950497289E+04  0.15950497289E+04  0.50400001928E-02 0.  1.
    10030    2    1    2    0    0  0.00000000000E+00  0.00000000000E+00 -0.18458092374E+03  0.30055185341E+04  0.29998452529E+04 0.  0.
        5    1    3    3  502    0 -0.43845862141E+03  0.10588323921E+04  0.87720366963E+03  0.14432187517E+04  0.46999998093E+01 0. -1.
       -5    1    3    3    0  502  0.43845862141E+03 -0.10588323921E+04 -0.10617845934E+04  0.15622997824E+04  0.46999998093E+01 0.  1.
</event>
<event>
 5   0  0.1817566E-07  0.3000351E+04  0.7818609E-02  0.8243631E-01
       -2   -1    0    0    0  501  0.00000000000E+00  0.00000000000E+00  0.14312399768E+04  0.14312399768E+04  0.25500000920E-02 0.  1.
        2   -1    0    0  501    0  0.00000000000E+00  0.00000000000E+00 -0.15724317420E+04  0.15724317420E+04  0.25500000920E-02 0. -1.
    10030    2    1    2    0    0  0.00000000000E+00  0.00000000000E+00 -0.14119176520E+03  0.30036717188E+04  0.30003514260E+04 0.  0.
        1    1    3    3  502    0  0.77919327169E+03 -0.11064780301E+04 -0.71868496549E+03  0.15323001878E+04  0.50400001928E-02 0. -1.
       -1    1    3    3    0  502 -0.77919327169E+03  0.11064780301E+04  0.57749320029E+03  0.14713715310E+04  0.50400001928E-02 0.  1.
</event>
<event>
 5   0  0.6679022E-08  0.3000202E+04  0.7818609E-02  0.8243673E-01
       -1   -1    0    0    0  501  0.00000000000E+00  0.00000000000E+00  0.11689063416E+04  0.11689063416E+04  0.50400001928E-02 0. -1.
        1   -1    0    0  501    0  0.00000000000E+00  0.00000000000E+00 -0.19251353375E+04  0.19251353375E+04  0.50400001928E-02 0.  1.
    10030    2    1    2    0    0  0.00000000000E+00  0.00000000000E+00 -0.75622899595E+03  0.30940416791E+04  0.30002019295E+04 0.  0.
        3    1    3    3  502    0 -0.82483496879E+03 -0.41141894960E+03  0.84240817954E+03  0.12487072631E+04  0.10100000352E+00 0. -1.
       -3    1    3    3    0  502  0.82483496879E+03  0.41141894960E+03 -0.15986371755E+04  0.18453344160E+04  0.10100000352E+00 0.  1.
</event>
<event>
 5   0  0.1810055E-07  0.2999539E+04  0.7818609E-02  0.8243863E-01
        2   -1    0    0  501    0  0.00000000000E+00  0.00000000000E+00  0.16126730086E+04  0.16126730086E+04  0.25500000920E-02 0.  1.
       -2   -1    0    0    0  501  0.00000000000E+00  0.00000000000E+00 -0.13947704462E+04  0.13947704462E+04  0.25500000920E-02 0. -1.
    10030    2    1    2    0    0  0.00000000000E+00  0.00000000000E+00  0.21790256235E+03  0.30074434548E+04  0.29995390657E+04 0.  0.
        4    1    3    3  502    0 -0.94135817255E+03 -0.79579353263E+03 -0.74762109239E+03  0.14416592754E+04  0.12699999809E+01 0. -1.
       -4    1    3    3    0  502  0.94135817255E+03  0.79579353263E+03  0.96552365474E+03  0.15657841794E+04  0.12699999809E+01 0.  1.
</event>
<event>
 5   0  0.1810055E-07  0.3000189E+04  0.7818609E-02  0.8243677E-01
       -2   -1    0    0    0  501  0.00000000000E+00  0.00000000000E+00  0.16696328237E+04  0.16696328237E+04  0.25500000920E-02 0.  1.
        2   -1    0    0  501    0  0.00000000000E+00  0.00000000000E+00 -0.13477715458E+04  0.13477715458E+04  0.25500000920E-02 0. -1.
    10030    2    1    2    0    0  0.00000000000E+00  0.00000000000E+00  0.32186127792E+03  0.30174043696E+04  0.30001890686E+04 0.  0.
        4    1    3    3  502    0  0.88637325333E+03 -0.49531807904E+03  0.12714788301E+04  0.16271624295E+04  0.12699999809E+01 0.  1.
       -4    1    3    3    0  502 -0.88637325333E+03  0.49531807904E+03 -0.94961755217E+03  0.13902419401E+04  0.12699999809E+01 0. -1.
</event>
<event>
 5   0  0.6017625E-08  0.3001261E+04  0.7818609E-02  0.8243371E-01
        3   -1    0    0  501    0  0.00000000000E+00  0.00000000000E+00  0.18249353790E+04  0.18249353818E+04  0.10100000352E+00 0. -1.
       -3   -1    0    0    0  501  0.00000000000E+00  0.00000000000E+00 -0.12339571383E+04  0.12339571425E+04  0.10100000352E+00 0.  1.
    10030    2    1    2    0    0  0.00000000000E+00  0.00000000000E+00  0.59097824065E+03  0.30588925243E+04  0.30012611006E+04 0.  0.
        3    1    3    3  502    0  0.85539713700E+03 -0.26137217255E+03 -0.93258522227E+03  0.12921822169E+04  0.10100000352E+00 0.  1.
       -3    1    3    3    0  502 -0.85539713700E+03  0.26137217255E+03  0.15235634629E+04  0.17667103074E+04  0.10100000352E+00 0. -1.
</event>
<event>
 5   0  0.1810055E-07  0.3006559E+04  0.7818609E-02  0.8241861E-01
        2   -1    0    0  501    0  0.00000000000E+00  0.00000000000E+00  0.23412913178E+04  0.23412913178E+04  0.25500000920E-02 0. -1.
       -2   -1    0    0    0  501  0.00000000000E+00  0.00000000000E+00 -0.96521458075E+03  0.96521458075E+03  0.25500000920E-02 0.  1.
    10030    2    1    2    0    0  0.00000000000E+00  0.00000000000E+00  0.13760767371E+04  0.33065058986E+04  0.30065585095E+04 0.  0.
        4    1    3    3  502    0  0.12864908808E+04 -0.70013369494E+03  0.31573779221E+03  0.14983116977E+04  0.12699999809E+01 0. -1.
       -4    1    3    3    0  502 -0.12864908808E+04  0.70013369494E+03  0.10603389448E+04  0.18081942009E+04  0.12699999809E+01 0.  1.
</event>
<event>
 5   0  0.1817566E-07  0.2996121E+04  0.7818609E-02  0.8244839E-01
       -2   -1    0    0    0  501  0.00000000000E+00  0.00000000000E+00  0.85486092914E+03  0.85486092914E+03  0.25500000920E-02 0.  1.
        2   -1    0    0  501    0  0.00000000000E+00  0.00000000000E+00 -0.26252048179E+04  0.26252048179E+04  0.25500000920E-02 0. -1.
    10030    2    1    2    0    0  0.00000000000E+00  0.00000000000E+00 -0.17703438887E+04  0.34800657470E+04  0.29961208452E+04 0.  0.
        1    1    3    3  502    0  0.13200122265E+04 -0.64746975619E+03 -0.55147751695E+03  0.15702792156E+04  0.50400001928E-02 0. -1.
       -1    1    3    3    0  502 -0.13200122265E+04  0.64746975619E+03 -0.12188663718E+04  0.19097865314E+04  0.50400001928E-02 0.  1.
</event>
<event>
 5   0  0.6525507E-08  0.2993418E+04  0.7818609E-02  0.8245613E-01
        1   -1    0    0  501    0  0.00000000000E+00  0.00000000000E+00  0.27294349056E+04  0.27294349056E+04  0.50400001928E-02 0.  1.
       -1   -1    0    0    0  501  0.00000000000E+00  0.00000000000E+00 -0.82073308240E+03  0.82073308242E+03  0.50400001928E-02 0. -1.
    10030    2    1    2    0    0  0.00000000000E+00  0.00000000000E+00  0.19087018232E+04  0.35501679880E+04  0.29934177946E+04 0.  0.
        4    1    3    3  502    0  0.50929915106E+03  0.67303058764E+03 -0.51157490698E+03  0.98694797002E+03  0.12699999809E+01 0. -1.
       -4    1    3    3    0  502 -0.50929915106E+03 -0.67303058764E+03  0.24202767302E+04  0.25632200180E+04  0.12699999809E+01 0.  1.
</event>
<event>
 5   0  0.6464436E-08  0.3019039E+04  0.7818609E-02  0.8238315E-01
       -1   -1    0    0    0  501  0.00000000000E+00  0.00000000000E+00  0.11290678357E+04  0.11290678357E+04  0.50400001928E-02 0.  1.
        1   -1    0    0  501    0  0.00000000000E+00  0.00000000000E+00 -0.20181688664E+04  0.20181688664E+04  0.50400001928E-02 0. -1.
    10030    2    1    2    0    0  0.00000000000E+00  0.00000000000E+00 -0.88910103064E+03  0.31472367021E+04  0.30190392870E+04 0.  0.
        5    1    3    3  502    0 -0.62720221888E+03  0.13270989285E+04 -0.81171846073E+03  0.16773440729E+04  0.46999998093E+01 0. -1.
       -5    1    3    3    0  502  0.62720221888E+03 -0.13270989285E+04 -0.77382569915E+02  0.14698926292E+04  0.46999998093E+01 0.  1.
</event>
<event>
 5   0  0.1810055E-07  0.3001302E+04  0.7818609E-02  0.8243359E-01
       -2   -1    0    0    0  501  0.00000000000E+00  0.00000000000E+00  0.15278541808E+04  0.15278541808E+04  0.25500000920E-02 0. -1.
        2   -1    0    0  501    0  0.00000000000E+00  0.00000000000E+00 -0.14739321046E+04  0.14739321046E+04  0.25500000920E-02 0.  1.
    10030    2    1    2    0    0  0.00000000000E+00  0.00000000000E+00  0.53922076134E+02  0.30017862854E+04  0.30013019363E+04 0.  0.
        4    1    3    3  502    0 -0.10154186739E+04  0.53739782098E+03  0.99255985526E+03  0.15182385124E+04  0.12699999809E+01 0. -1.
       -4    1    3    3    0  502  0.10154186739E+04 -0.53739782098E+03 -0.93863777912E+03  0.14835477730E+04  0.12699999809E+01 0.  1.
</event>
<event>
 5   0  0.1817566E-07  0.2999329E+04  0.7818609E-02  0.8243923E-01
       -2   -1    0    0    0  501  0.00000000000E+00  0.00000000000E+00  0.12306469166E+04  0.12306469166E+04  0.25500000920E-02 0.  1.
        2   -1    0    0  501    0  0.00000000000E+00  0.00000000000E+00 -0.18274883287E+04  0.18274883287E+04  0.25500000920E-02 0. -1.
    10030    2    1    2    0    0  0.00000000000E+00  0.00000000000E+00 -0.59684141207E+03  0.30581352453E+04  0.29993285094E+04 0.  0.
        1    1    3    3  502    0 -0.69380538104E+03 -0.13063516913E+04 -0.55039401377E+03  0.15782440301E+04  0.50400001928E-02 0.  1.
       -1    1    3    3    0  502  0.69380538104E+03  0.13063516913E+04 -0.46447398301E+02  0.14798912152E+04  0.50400001928E-02 0. -1.
</event>
<event>
 5   0  0.1821305E-07  0.2998818E+04  0.7818609E-02  0.8244068E-01
        2   -1    0    0  501    0  0.00000000000E+00  0.00000000000E+00  0.16932267185E+04  0.16932267185E+04  0.25500000920E-02 0.  1.
       -2   -1    0    0    0  501  0.00000000000E+00  0.00000000000E+00 -0.13277770819E+04  0.13277770819E+04  0.25500000920E-02 0. -1.
    10030    2    1    2    0    0  0.00000000000E+00  0.00000000000E+00  0.36544963656E+03  0.30210038004E+04  0.29988181881E+04 0.  0.
        2    1    3    3  502    0 -0.15922768431E+03  0.74780562040E+03  0.14820969386E+04  0.16676864324E+04  0.25500000920E-02 0.  1.
       -2    1    3    3    0  502  0.15922768431E+03 -0.74780562040E+03 -0.11166473021E+04  0.13533173680E+04  0.25500000920E-02 0. -1.
</event>
<event>
 5   0  0.1914439E-07  0.3000163E+04  0.7818609E-02  0.8243684E-01
       -2   -1    0    0    0  501  0.00000000000E+00  0.00000000000E+00  0.17131005709E+04  0.17131005709E+04  0.25500000920E-02 0. -1.
        2   -1    0    0  501    0  0.00000000000E+00  0.00000000000E+00 -0.13135504460E+04  0.13135504460E+04  0.25500000920E-02 0.  1.
    10030    2    1    2    0    0  0.00000000000E+00  0.00000000000E+00  0.39955012491E+03  0.30266510168E+04  0.30001626748E+04 0.  0.
        5    1    3    3  502    0 -0.12159562928E+04 -0.77175295433E+03  0.62308623767E+03  0.15692070858E+04  0.46999998093E+01 0. -1.
       -5    1    3    3    0  502  0.12159562928E+04  0.77175295433E+03 -0.22353611276E+03  0.14574439311E+04  0.46999998093E+01 0.  1.
</event>
<event>
 5   0  0.1821305E-07  0.2997877E+04  0.7818609E-02  0.8244337E-01
        2   -1    0    0  501    0  0.00000000000E+00  0.00000000000E+00  0.15895853836E+04  0.15895853836E+04  0.25500000920E-02 0. -1.
       -2   -1    0    0    0  501  0.00000000000E+00  0.00000000000E+00 -0.14134607957E+04  0.14134607957E+04  0.25500000920E-02 0.  1.
    10030    2    1    2    0    0  0.00000000000E+00  0.00000000000E+00  0.17612458787E+03  0.30030461793E+04  0.29978769962E+04 0.  0.
        2    1    3    3  502    0  0.65237985306E+03  0.94286256952E+03 -0.87912173158E+03  0.14447990575E+04  0.25500000920E-02 0.  1.
       -2    1    3    3    0  502 -0.65237985306E+03 -0.94286256952E+03  0.10552463194E+04  0.15582471217E+04  0.25500000920E-02 0. -1.
</event>
<event>
 5   0  0.6679022E-08  0.3002193E+04  0.7818609E-02  0.8243105E-01
       -1   -1    0    0    0  501  0.00000000000E+00  0.00000000000E+00  0.13170278993E+04  0.13170278993E+04  0.50400001928E-02 0.  1.
        1   -1    0    0  501    0  0.00000000000E+00  0.00000000000E+00 -0.17108908416E+04  0.17108908416E+04  0.50400001928E-02 0. -1.
    10030    2    1    2    0    0  0.00000000000E+00  0.00000000000E+00 -0.39386294230E+03  0.30279187409E+04  0.30021931791E+04 0.  0.
        3    1    3    3  502    0  0.40011235653E+02 -0.10373228913E+04  0.89663413516E+03  0.13717115084E+04  0.10100000352E+00 0.  1.
       -3    1    3    3    0  502 -0.40011235653E+02  0.10373228913E+04 -0.12904970775E+04  0.16562072325E+04  0.10100000352E+00 0. -1.
</event>
<event>
 5   0  0.1817566E-07  0.2999389E+04  0.7818609E-02  0.8243906E-01
        2   -1    0    0  501    0  0.00000000000E+00  0.00000000000E+00  0.14074139680E+04  0.14074139680E+04  0.25500000920E-02 0.  1.
       -2   -1    0    0    0  501  0.00000000000E+00  0.00000000000E+00 -0.15980251299E+04  0.15980251299E+04  0.25500000920E-02 0. -1.
    10030    2    1    2    0    0  0.00000000000E+00  0.00000000000E+00 -0.19061116195E+03  0.30054390979E+04  0.29993885304E+04 0.  0.
        1    1    3    3  502    0  0.50891168748E+03  0.95980975790E+03  0.94063539299E+03  0.14370180304E+04  0.50400001928E-02 0.  1.
       -1    1    3    3    0  502 -0.50891168748E+03 -0.95980975790E+03 -0.11312465549E+04  0.15684210675E+04  0.50400001928E-02 0. -1.
</event>
<event>
 5   0  0.6636007E-08  0.2999282E+04  0.7818609E-02  0.8243936E-01
       -1   -1    0    0    0  501  0.00000000000E+00  0.00000000000E+00  0.14995023012E+04  0.14995023013E+04  0.50400001928E-02 0. -1.
        1   -1    0    0  501    0  0.00000000000E+00  0.00000000000E+00 -0.14997794953E+04  0.14997794953E+04  0.50400001928E-02 0.  1.
    10030    2    1    2    0    0  0.00000000000E+00  0.00000000000E+00 -0.27719406528E+00  0.29992817966E+04  0.29992817838E+04 0.  0.
        2    1    3    3  502    0 -0.55752061728E+03 -0.12470744027E+04  0.61864973776E+03  0.14995837098E+04  0.25500000920E-02 0. -1.
       -2    1    3    3    0  502  0.55752061728E+03  0.12470744027E+04 -0.61892693183E+03  0.14996980868E+04  0.25500000920E-02 0.  1.
</event>
<event>
 5   0  0.6525507E-08  0.2999791E+04  0.7818609E-02  0.8243791E-01
       -1   -1    0    0    0  501  0.00000000000E+00  0.00000000000E+00  0.81225542150E+03  0.81225542152E+03  0.50400001928E-02 0. -1.
        1   -1    0    0  501    0  0.00000000000E+00  0.00000000000E+00 -0.27696787026E+04  0.27696787026E+04  0.50400001928E-02 0.  1.
    10030    2    1    2    0    0  0.00000000000E+00  0.00000000000E+00 -0.19574232810E+04  0.35819341241E+04  0.29997910207E+04 0.  0.
        4    1    3    3  502    0 -0.91573235902E+03 -0.11467092126E+02  0.43965400858E+03  0.10158713047E+04  0.12699999809E+01 0. -1.
       -4    1    3    3    0  502  0.91573235902E+03  0.11467092126E+02 -0.23970772896E+04  0.25660628194E+04  0.12699999809E+01 0.  1.
</event>
<event>
 5   0  0.1813720E-07  0.3001368E+04  0.7818609E-02  0.8243340E-01
        2   -1    0    0  501    0  0.00000000000E+00  0.00000000000E+00  0.16863636816E+04  0.16863636816E+04  0.25500000920E-02 0.  1.
       -2   -1    0    0    0  501  0.00000000000E+00  0.00000000000E+00 -0.13354485418E+04  0.13354485418E+04  0.25500000920E-02 0. -1.
    10030    2    1    2    0    0  0.00000000000E+00  0.00000000000E+00  0.35091513978E+03  0.30218122233E+04  0.30013676346E+04 0.  0.
        3    1    3    3  502    0 -0.12473704611E+03  0.10236120462E+04  0.12731645142E+04  0.16383799444E+04  0.10100000352E+00 0.  1.
       -3    1    3    3    0  502  0.12473704611E+03 -0.10236120462E+04 -0.92224937441E+03  0.13834322790E+04  0.10100000352E+00 0. -1.
</event>
<event>
 5   0  0.1914439E-07  0.2999772E+04  0.7818609E-02  0.8243796E-01
       -2   -1    0    0    0  501  0.00000000000E+00  0.00000000000E+00  0.10072535904E+04  0.10072535904E+04  0.25500000920E-02 0. -1.
        2   -1    0    0  501    0  0.00000000000E+00  0.00000000000E+00 -0.22334580560E+04  0.22334580560E+04  0.25500000920E-02 0.  1.
    10030    2    1    2    0    0  0.00000000000E+00  0.00000000000E+00 -0.12262044656E+04  0.32407116463E+04  0.29997724219E+04 0.  0.
        5    1    3    3  502    0  0.71572412565E+03  0.12719150056E+04 -0.23948083360E+03  0.14789868036E+04  0.46999998093E+01 0. -1.
       -5    1    3    3    0  502 -0.71572412565E+03 -0.12719150056E+04 -0.98672363202E+03  0.17617248427E+04  0.46999998093E+01 0.  1.
</event>
<event>
 5   0  0.6017625E-08  0.3000265E+04  0.7818609E-02  0.8243655E-01
        3   -1    0    0  501    0  0.00000000000E+00  0.00000000000E+00  0.19811738167E+04  0.19811738193E+04  0.10100000352E+00 0. -1.
       -3   -1    0    0    0  501  0.00000000000E+00  0.00000000000E+00 -0.11358911119E+04  0.11358911164E+04  0.10100000352E+00 0.  1.
    10030    2    1    2    0    0  0.00000000000E+00  0.00000000000E+00  0.84528270478E+03  0.31170649357E+04  0.30002651487E+04 0.  0.
        5    1    3    3  502    0  0.94720100879E+03  0.62071362255E+03 -0.59947790140E+03  0.12813551407E+04  0.46999998093E+01 0.  1.
       -5    1    3    3    0  502 -0.94720100879E+03 -0.62071362255E+03  0.14447606062E+04  0.18357097950E+04  0.46999998093E+01 0. -1.
</event>
<event>
 5   0  0.1914439E-07  0.3000148E+04  0.7818609E-02  0.8243689E-01
       -2   -1    0    0    0  501  0.00000000000E+00  0.00000000000E+00  0.11184221755E+04  0.11184221755E+04  0.25500000920E-02 0.  1.
        2   -1    0    0  501    0  0.00000000000E+00  0.00000000000E+00 -0.20119611881E+04  0.20119611881E+04  0.25500000920E-02 0. -1.
    10030    2    1    2    0    0  0.00000000000E+00  0.00000000000E+00 -0.89353901261E+03  0.31303833637E+04  0.30001480024E+04 0.  0.
        5    1    3    3  502    0 -0.91802281040E+03 -0.11717621451E+04 -0.25322471229E+03  0.15099461084E+04  0.46999998093E+01 0. -1.
       -5    1    3    3    0  502  0.91802281040E+03  0.11717621451E+04 -0.64031430032E+03  0.16204372553E+04  0.46999998093E+01 0.  1.
</event>
<event>
 5   0  0.1817566E-07  0.2998863E+04  0.7818609E-02  0.8244056E-01
        2   -1    0    0  501    0  0.00000000000E+00  0.00000000000E+00  0.17470853091E+04  0.17470853091E+04  0.25500000920E-02 0.  1.
       -2   -1    0    0    0  501  0.00000000000E+00  0.00000000000E+00 -0.12868829569E+04  0.12868829569E+04  0.25500000920E-02 0. -1.
    10030    2    1    2    0    0  0.00000000000E+00  0.00000000000E+00  0.46020235220E+03  0.30339682661E+04  0.29988626568E+04 0.  0.
        1    1    3    3  502    0 -0.10678128431E+04  0.98507865327E+03 -0.14530878836E+03  0.14600407066E+04  0.50400001928E-02 0.  1.
       -1    1    3    3    0  502  0.10678128431E+04 -0.98507865327E+03  0.60551114055E+03  0.15739275594E+04  0.50400001928E-02 0. -1.
</event>
<event>
 5   0  0.6525507E-08  0.2986009E+04  0.7818609E-02  0.8247738E-01
       -1   -1    0    0    0  501  0.00000000000E+00  0.00000000000E+00  0.14314949635E+04  0.14314949636E+04  0.50400001928E-02 0.  1.
        1   -1    0    0  501    0  0.00000000000E+00  0.00000000000E+00 -0.15571565843E+04  0.15571565843E+04  0.50400001928E-02 0. -1.
    10030    2    1    2    0    0  0.00000000000E+00  0.00000000000E+00 -0.12566162075E+03  0.29886515479E+04  0.29860085786E+04 0.  0.
        4    1    3    3  502    0  0.49282042588E+03 -0.12847138636E+04 -0.64273859615E+03  0.15187087276E+04  0.12699999809E+01 0. -1.
       -4    1    3    3    0  502 -0.49282042588E+03  0.12847138636E+04  0.51707697539E+03  0.14699428203E+04  0.12699999809E+01 0.  1.
</event>
<event>
 5   0  0.6464436E-08  0.3000786E+04  0.7818609E-02  0.8243507E-01
       -1   -1    0    0    0  501  0.00000000000E+00  0.00000000000E+00  0.87421798369E+03  0.87421798371E+03  0.50400001928E-02 0.  1.
        1   -1    0    0  501    0  0.00000000000E+00  0.00000000000E+00 -0.25750773389E+04  0.25750773389E+04  0.50400001928E-02 0. -1.
    10030    2    1    2    0    0  0.00000000000E+00  0.00000000000E+00 -0.17008593552E+04  0.34492953226E+04  0.30007858431E+04 0.  0.
        5    1    3    3  502    0 -0.11912465929E+01  0.54790026617E+03 -0.24559641647E+04  0.25163422241E+04  0.46999998093E+01 0. -1.
       -5    1    3    3    0  502  0.11912465929E+01 -0.54790026617E+03  0.75510480946E+03  0.93295309850E+03  0.46999998093E+01 0.  1.
</event>
<event>
 5   0  0.1914439E-07  0.2998933E+04  0.7818609E-02  0.8244036E-01
        2   -1    0    0  501    0  0.00000000000E+00  0.00000000000E+00  0.18913653096E+04  0.18913653096E+04  0.25500000920E-02 0.  1.
       -2   -1    0    0    0  501  0.00000000000E+00  0.00000000000E+00 -0.11887709960E+04  0.11887709960E+04  0.25500000920E-02 0. -1.
    10030    2    1    2    0    0  0.00000000000E+00  0.00000000000E+00  0.70259431361E+03  0.30801363056E+04  0.29989332923E+04 0.  0.
        5    1    3    3  502    0 -0.40642990926E+03 -0.13720818757E+04 -0.10869611338E+03  0.14351414145E+04  0.46999998093E+01 0. -1.
       -5    1    3    3    0  502  0.40642990926E+03  0.13720818757E+04  0.81129042699E+03  0.16449948910E+04  0.46999998093E+01 0.  1.
</event>
<event>
 5   0  0.1821305E-07  0.2999538E+04  0.7818609E-02  0.8243863E-01
        2   -1    0    0  501    0  0.00000000000E+00  0.00000000000E+00  0.14082602806E+04  0.14082602806E+04  0.25500000920E-02 0. -1.
       -2   -1    0    0    0  501  0.00000000000E+00  0.00000000000E+00 -0.15972236745E+04  0.15972236745E+04  0.25500000920E-02 0.  1.
    10030    2    1    2    0    0  0.00000000000E+00  0.00000000000E+00 -0.18896339395E+03  0.30054839551E+04  0.29995377377E+04 0.  0.
        2    1    3    3  502    0 -0.74943413773E+03  0.12911786824E+04 -0.23798832410E+03  0.15117646507E+04  0.25500000920E-02 0. -1.
       -2    1    3    3    0  502  0.74943413773E+03 -0.12911786824E+04  0.49024930148E+02  0.14937193044E+04  0.25500000920E-02 0.  1.
</event>
<event>
 5   0  0.1813720E-07  0.3000630E+04  0.7818609E-02  0.8243551E-01
        2   -1    0    0  501    0  0.00000000000E+00  0.00000000000E+00  0.27995193041E+04  0.27995193041E+04  0.25500000920E-02 0.  1.
       -2   -1    0    0    0  501  0.00000000000E+00  0.00000000000E+00 -0.80404697742E+03  0.80404697743E+03  0.25500000920E-02 0. -1.
    10030    2    1    2    0    0  0.00000000000E+00  0.00000000000E+00  0.19954723267E+04  0.36035662815E+04  0.30006299570E+04 0.  0.
        3    1    3    3  502    0 -0.12761566020E+04 -0.53485437209E+03  0.16941760014E+04  0.21874362176E+04  0.10100000352E+00 0.  1.
       -3    1    3    3    0  502  0.12761566020E+04  0.53485437209E+03  0.30129632523E+03  0.14161300639E+04  0.10100000352E+00 0. -1.
</event>
<event>
 5   0  0.6374748E-08  0.2999964E+04  0.7818609E-02  0.8243741E-01
       -1   -1    0    0    0  501  0.00000000000E+00  0.00000000000E+00  0.13887774606E+04  0.13887774606E+04  0.50400001928E-02 0. -1.
        1   -1    0    0  501    0  0.00000000000E+00  0.00000000000E+00 -0.16200909058E+04  0.16200909058E+04  0.50400001928E-02 0.  1.
    10030    2    1    2    0    0  0.00000000000E+00  0.00000000000E+00 -0.23131344522E+03  0.30088683664E+04  0.29999638225E+04 0.  0.
        1    1    3    3  502    0  0.99861981230E+03  0.41040935282E+03  0.92871610747E+03  0.14241457000E+04  0.50400001928E-02 0. -1.
       -1    1    3    3    0  502 -0.99861981230E+03 -0.41040935282E+03 -0.11600295527E+04  0.15847226664E+04  0.50400001928E-02 0.  1.
</event>
<event>
 5   0  0.1813720E-07  0.2998991E+04  0.7818609E-02  0.8244019E-01
       -2   -1    0    0    0  501  0.00000000000E+00  0.00000000000E+00  0.13219453091E+04  0.13219453091E+04  0.25500000920E-02 0.  1.
        2   -1    0    0  501    0  0.00000000000E+00  0.00000000000E+00 -0.17008920653E+04  0.17008920653E+04  0.25500000920E-02 0. -1.
    10030    2    1    2    0    0  0.00000000000E+00  0.00000000000E+00 -0.37894675619E+03  0.30228373744E+04  0.29989906882E+04 0.  0.
        3    1    3    3  502    0 -0.13632925978E+04 -0.44745968615E+03  0.24953483316E+03  0.14563840568E+04  0.10100000352E+00 0.  1.
       -3    1    3    3    0  502  0.13632925978E+04  0.44745968615E+03 -0.62848158936E+03  0.15664533176E+04  0.10100000352E+00 0. -1.
</event>
<event>
 5   0  0.1914439E-07  0.3000026E+04  0.7818609E-02  0.8243723E-01
        2   -1    0    0  501    0  0.00000000000E+00  0.00000000000E+00  0.23652019355E+04  0.23652019355E+04  0.25500000920E-02 0.  1.
       -2   -1    0    0    0  501  0.00000000000E+00  0.00000000000E+00 -0.95130972305E+03  0.95130972305E+03  0.25500000920E-02 0. -1.
    10030    2    1    2    0    0  0.00000000000E+00  0.00000000000E+00  0.14138922125E+04  0.33165116586E+04  0.30000263987E+04 0.  0.
        5    1    3    3  502    0 -0.72794698102E+03 -0.10414533809E+04  0.15882167310E+04  0.20339583148E+04  0.46999998093E+01 0.  1.
       -5    1    3    3    0  502  0.72794698102E+03  0.10414533809E+04 -0.17432451852E+03  0.12825533438E+04  0.46999998093E+01 0. -1.
</event>
<event>
 5   0  0.6374748E-08  0.2999957E+04  0.7818609E-02  0.8243743E-01
        1   -1    0    0  501    0  0.00000000000E+00  0.00000000000E+00  0.24331840908E+04  0.24331840908E+04  0.50400001928E-02 0.  1.
       -1   -1    0    0    0  501  0.00000000000E+00  0.00000000000E+00 -0.92468757583E+03  0.92468757585E+03  0.50400001928E-02 0. -1.
    10030    2    1    2    0    0  0.00000000000E+00  0.00000000000E+00  0.15084965150E+04  0.33578716666E+04  0.29999567320E+04 0.  0.
        1    1    3    3  502    0 -0.45295029851E+03 -0.34695004763E+03 -0.79848342601E+03  0.98138376292E+03  0.50400001928E-02 0. -1.
       -1    1    3    3    0  502  0.45295029851E+03  0.34695004763E+03  0.23069799410E+04  0.23764879037E+04  0.50400001928E-02 0.  1.
</event>
<event>
 5   0  0.6636007E-08  0.3000576E+04  0.7818609E-02  0.8243566E-01
       -1   -1    0    0    0  501  0.00000000000E+00  0.00000000000E+00  0.19079303282E+04  0.19079303282E+04  0.50400001928E-02 0. -1.
        1   -1    0    0  501    0  0.00000000000E+00  0.00000000000E+00 -0.11797413879E+04  0.11797413879E+04  0.50400001928E-02 0.  1.
    10030    2    1    2    0    0  0.00000000000E+00  0.00000000000E+00  0.72818894033E+03  0.30876717162E+04  0.30005761937E+04 0.  0.
        2    1    3    3  502    0 -0.11414162261E+04  0.42717198573E+03  0.12644527415E+04  0.17561741491E+04  0.25500000920E-02 0. -1.
       -2    1    3    3    0  502  0.11414162261E+04 -0.42717198573E+03 -0.53626380117E+03  0.13314975670E+04  0.25500000920E-02 0.  1.
</event>
<event>
 5   0  0.1810055E-07  0.2989479E+04  0.7818609E-02  0.8246742E-01
        2   -1    0    0  501    0  0.00000000000E+00  0.00000000000E+00  0.12400478171E+04  0.12400478171E+04  0.25500000920E-02 0. -1.
       -2   -1    0    0    0  501  0.00000000000E+00  0.00000000000E+00 -0.18017422457E+04  0.18017422457E+04  0.25500000920E-02 0.  1.
    10030    2    1    2    0    0  0.00000000000E+00  0.00000000000E+00 -0.56169442860E+03  0.30417900627E+04  0.29894792447E+04 0.  0.
        4    1    3    3  502    0 -0.11664534787E+04  0.91886418754E+03 -0.45507374515E+03  0.15530675580E+04  0.12699999809E+01 0. -1.
       -4    1    3    3    0  502  0.11664534787E+04 -0.91886418754E+03 -0.10662068345E+03  0.14887225048E+04  0.12699999809E+01 0.  1.
</event>
<event>
 5   0  0.1810055E-07  0.3000515E+04  0.7818609E-02  0.8243584E-01
       -2   -1    0    0    0  501  0.00000000000E+00  0.00000000000E+00  0.13048165876E+04  0.13048165876E+04  0.25500000920E-02 0. -1.
        2   -1    0    0  501    0  0.00000000000E+00  0.00000000000E+00 -0.17249719184E+04  0.17249719184E+04  0.25500000920E-02 0.  1.
    10030    2    1    2    0    0  0.00000000000E+00  0.00000000000E+00 -0.42015533079E+03  0.30297885060E+04  0.30005146041E+04 0.  0.
        4    1    3    3  502    0  0.97301044998E+03 -0.64120756312E+03 -0.11642166243E+04  0.16472092872E+04  0.12699999809E+01 0.  1.
       -4    1    3    3    0  502 -0.97301044998E+03  0.64120756312E+03  0.74406129352E+03  0.13825792188E+04  0.12699999809E+01 0. -1.
</event>
<event>
 5   0  0.1821305E-07  0.3001236E+04  0.7818609E-02  0.8243378E-01
        2   -1    0    0  501    0  0.00000000000E+00  0.00000000000E+00  0.18241585805E+04  0.18241585805E+04  0.25500000920E-02 0. -1.
       -2   -1    0    0    0  501  0.00000000000E+00  0.00000000000E+00 -0.12344618347E+04  0.12344618347E+04  0.25500000920E-02 0.  1.
    10030    2    1    2    0    0  0.00000000000E+00  0.00000000000E+00  0.58969674579E+03  0.30586204152E+04  0.30012358442E+04 0.  0.
        2    1    3    3  502    0 -0.85175193688E+02 -0.62954308065E+03  0.16803554058E+04  0.17964335762E+04  0.25500000920E-02 0. -1.
       -2    1    3    3    0  502  0.85175193688E+02  0.62954308065E+03 -0.10906586600E+04  0.12621868390E+04  0.25500000920E-02 0.  1.
</event>
<event>
 5   0  0.1817566E-07  0.3003695E+04  0.7818609E-02  0.8242677E-01
        2   -1    0    0  501    0  0.00000000000E+00  0.00000000000E+00  0.11059632623E+04  0.11059632623E+04  0.25500000920E-02 0.  1.
       -2   -1    0    0    0  501  0.00000000000E+00  0.00000000000E+00 -0.20394395180E+04  0.20394395180E+04  0.25500000920E-02 0. -1.
    10030    2    1    2    0    0  0.00000000000E+00  0.00000000000E+00 -0.93347625568E+03  0.31454027803E+04  0.30036945134E+04 0.  0.
        1    1    3    3  502    0 -0.58282633374E+02 -0.11092506693E+04  0.59174660178E+03  0.12585698047E+04  0.50400001928E-02 0.  1.
       -1    1    3    3    0  502  0.58282633374E+02  0.11092506693E+04 -0.15252228575E+04  0.18868329755E+04  0.50400001928E-02 0. -1.
</event>
<event>
 5   0  0.1810055E-07  0.3000133E+04  0.7818609E-02  0.8243693E-01
       -2   -1    0    0    0  501  0.00000000000E+00  0.00000000000E+00  0.97552972470E+03  0.97552972470E+03  0.25500000920E-02 0. -1.
        2   -1    0    0  501    0  0.00000000000E+00  0.00000000000E+00 -0.23066429887E+04  0.23066429887E+04  0.25500000920E-02 0.  1.
    10030    2    1    2    0    0  0.00000000000E+00  0.00000000000E+00 -0.13311132640E+04  0.32821727134E+04  0.30001325303E+04 0.  0.
        4    1    3    3  502    0 -0.12696125625E+04 -0.57576916962E+03 -0.12714945571E+04  0.18868296736E+04  0.12699999809E+01 0. -1.
       -4    1    3    3    0  502  0.12696125625E+04  0.57576916962E+03 -0.59618706930E+02  0.13953430398E+04  0.12699999809E+01 0.  1.
</event>
<event>
 5   0  0.1813720E-07  0.3000351E+04  0.7818609E-02  0.8243631E-01
       -2   -1    0    0    0  501  0.00000000000E+00  0.00000000000E+00  0.11765079450E+04  0.11765079450E+04  0.25500000920E-02 0. -1.
        2   -1    0    0  501    0  0.00000000000E+00  0.00000000000E+00 -0.19128865853E+04  0.19128865853E+04  0.25500000920E-02 0.  1.
    10030    2    1    2    0    0  0.00000000000E+00  0.00000000000E+00 -0.73637864029E+03  0.30893945303E+04  0.30003508232E+04 0.  0.
        3    1    3    3  502    0 -0.16826271757E+03 -0.40186472437E+03 -0.18463126993E+04  0.18970182372E+04  0.10100000352E+00 0.  1.
       -3    1    3    3    0  502  0.16826271757E+03  0.40186472437E+03  0.11099340590E+04  0.11923762931E+04  0.10100000352E+00 0. -1.
</event>
<event>
 5   0  0.6679022E-08  0.2999065E+04  0.7818609E-02  0.8243998E-01
        1   -1    0    0  501    0  0.00000000000E+00  0.00000000000E+00  0.12461243285E+04  0.12461243285E+04  0.50400001928E-02 0.  1.
       -1   -1    0    0    0  501  0.00000000000E+00  0.00000000000E+00 -0.18044731782E+04  0.18044731782E+04  0.50400001928E-02 0. -1.
    10030    2    1    2    0    0  0.00000000000E+00  0.00000000000E+00 -0.55834884969E+03  0.30505975067E+04  0.29990651393E+04 0.  0.
        3    1    3    3  502    0  0.95974653850E+03  0.10685334613E+04  0.15918385747E+03  0.14450663260E+04  0.10100000352E+00 0.  1.
       -3    1    3    3    0  502 -0.95974653850E+03 -0.10685334613E+04 -0.71753270716E+03  0.16055311807E+04  0.10100000352E+00 0. -1.
</event>
<event>
 5   0  0.6679022E-08  0.2999622E+04  0.7818609E-02  0.8243839E-01
        1   -1    0    0  501    0  0.00000000000E+00  0.00000000000E+00  0.14543945748E+04  0.14543945748E+04  0.50400001928E-02 0. -1.
       -1   -1    0    0    0  501  0.00000000000E+00  0.00000000000E+00 -0.15466460044E+04  0.15466460044E+04  0.50400001928E-02 0.  1.
    10030    2    1    2    0    0  0.00000000000E+00  0.00000000000E+00 -0.92251429608E+02  0.30010405791E+04  0.29996223481E+04 0.  0.
        3    1    3    3  502    0 -0.22249308829E+01 -0.10336045811E+04 -0.11334192712E+04  0.15339434914E+04  0.10100000352E+00 0.  1.
       -3    1    3    3    0  502  0.22249308829E+01  0.10336045811E+04  0.10411678416E+04  0.14670970877E+04  0.10100000352E+00 0. -1.
</event>
<event>
 5   0  0.6525507E-08  0.2999472E+04  0.7818609E-02  0.8243882E-01
       -1   -1    0    0    0  501  0.00000000000E+00  0.00000000000E+00  0.11824416227E+04  0.11824416227E+04  0.50400001928E-02 0. -1.
        1   -1    0    0  501    0  0.00000000000E+00  0.00000000000E+00 -0.19021722250E+04  0.19021722250E+04  0.50400001928E-02 0.  1.
    10030    2    1    2    0    0  0.00000000000E+00  0.00000000000E+00 -0.71973060229E+03  0.30846138476E+04  0.29994716950E+04 0.  0.
        4    1    3    3  502    0 -0.14899146399E+04 -0.11577688402E+03 -0.22996232066E+03  0.15119967602E+04  0.12699999809E+01 0. -1.
       -4    1    3    3    0  502  0.14899146399E+04  0.11577688402E+03 -0.48976828162E+03  0.15726170874E+04  0.12699999809E+01 0.  1.
</event>
<event>
 5   0  0.6374748E-08  0.2997790E+04  0.7818609E-02  0.8244362E-01
       -1   -1    0    0    0  501  0.00000000000E+00  0.00000000000E+00  0.87830752763E+03  0.87830752764E+03  0.50400001928E-02 0.  1.
        1   -1    0    0  501    0  0.00000000000E+00  0.00000000000E+00 -0.25579713348E+04  0.25579713348E+04  0.50400001928E-02 0. -1.
    10030    2    1    2    0    0  0.00000000000E+00  0.00000000000E+00 -0.16796638072E+04  0.34362788625E+04  0.29977895049E+04 0.  0.
        1    1    3    3  502    0  0.42365133819E+03  0.14171778940E+04 -0.56184800191E+03  0.15822600346E+04  0.50400001928E-02 0. -1.
       -1    1    3    3    0  502 -0.42365133819E+03 -0.14171778940E+04 -0.11178158053E+04  0.18540188279E+04  0.50400001928E-02 0.  1.
</event>
<event>
 5   0  0.1817566E-07  0.2999396E+04  0.7818609E-02  0.8243904E-01
        2   -1    0    0  501    0  0.00000000000E+00  0.00000000000E+00  0.22153162561E+04  0.22153162561E+04  0.25500000920E-02 0.  1.
       -2   -1    0    0    0  501  0.00000000000E+00  0.00000000000E+00 -0.10152471124E+04  0.10152471124E+04  0.25500000920E-02 0. -1.
    10030    2    1    2    0    0  0.00000000000E+00  0.00000000000E+00  0.12000691437E+04  0.32305633684E+04  0.29993955604E+04 0.  0.
        1    1    3    3  502    0  0.11487890486E+04  0.72626082659E+03 -0.82800165848E+02  0.13616265766E+04  0.50400001928E-02 0. -1.
       -1    1    3    3    0  502 -0.11487890486E+04 -0.72626082659E+03  0.12828693096E+04  0.18689367919E+04  0.50400001928E-02 0.  1.
</event>
<event>
 5   0  0.1810055E-07  0.3000350E+04  0.7818609E-02  0.8243631E-01
       -2   -1    0    0    0  501  0.00000000000E+00  0.00000000000E+00  0.18898303323E+04  0.18898303323E+04  0.25500000920E-02 0. -1.
        2   -1    0    0  501    0  0.00000000000E+00  0.00000000000E+00 -0.11908607612E+04  0.11908607612E+04  0.25500000920E-02 0.  1.
    10030    2    1    2    0    0  0.00000000000E+00  0.00000000000E+00  0.69896957105E+03  0.30806910935E+04  0.30003498383E+04 0.  0.
        4    1    3    3  502    0 -0.22972270932E+02 -0.54676629279E+03 -0.10847147388E+04  0.12149439418E+04  0.12699999809E+01 0.  1.
       -4    1    3    3    0  502  0.22972270932E+02  0.54676629279E+03  0.17836843098E+04  0.18657471517E+04  0.12699999809E+01 0. -1.
</event>
<event>
 5   0  0.1821305E-07  0.2999668E+04  0.7818609E-02  0.8243826E-01
        2   -1    0    0  501    0  0.00000000000E+00  0.00000000000E+00  0.23835510984E+04  0.23835510984E+04  0.25500000920E-02 0. -1.
       -2   -1    0    0    0  501  0.00000000000E+00  0.00000000000E+00 -0.94376085243E+03  0.94376085243E+03  0.25500000920E-02 0.  1.
    10030    2    1    2    0    0  0.00000000000E+00  0.00000000000E+00  0.14397902460E+04  0.33273119508E+04  0.29996681259E+04 0.  0.
        2    1    3    3  502    0 -0.57367929724E+03 -0.10676002977E+04  0.16999293178E+04  0.20877351406E+04  0.25500000920E-02 0. -1.
       -2    1    3    3    0  502  0.57367929724E+03  0.10676002977E+04 -0.26013907186E+03  0.12395768102E+04  0.25500000920E-02 0.  1.
</event>
<event>
 5   0  0.6464436E-08  0.2998980E+04  0.7818609E-02  0.8244022E-01
        1   -1    0    0  501    0  0.00000000000E+00  0.00000000000E+00  0.10246852632E+04  0.10246852632E+04  0.50400001928E-02 0.  1.
       -1   -1    0    0    0  501  0.00000000000E+00  0.00000000000E+00 -0.21943031151E+04  0.21943031151E+04  0.50400001928E-02 0. -1.
    10030    2    1    2    0    0  0.00000000000E+00  0.00000000000E+00 -0.11696178519E+04  0.32189883783E+04  0.29989798699E+04 0.  0.
        5    1    3    3  502    0  0.59489861784E+03  0.43921093676E+03 -0.19849744001E+04  0.21182436290E+04  0.46999998093E+01 0. -1.
       -5    1    3    3    0  502 -0.59489861784E+03 -0.43921093676E+03  0.81535654822E+03  0.11007447493E+04  0.46999998093E+01 0.  1.
</event>
<event>
 5   0  0.6679022E-08  0.3000380E+04  0.7818609E-02  0.8243622E-01
        1   -1    0    0  501    0  0.00000000000E+00  0.00000000000E+00  0.21422771279E+04  0.21422771279E+04  0.50400001928E-02 0.  1.
       -1   -1    0    0    0  501  0.00000000000E+00  0.00000000000E+00 -0.10505501713E+04  0.10505501713E+04  0.50400001928E-02 0. -1.
    10030    2    1    2    0    0  0.00000000000E+00  0.00000000000E+00  0.10917269567E+04  0.31928272992E+04  0.30003797118E+04 0.  0.
        3    1    3    3  502    0 -0.31500500939E+03 -0.13237342942E+04  0.12181016669E+04  0.18262727942E+04  0.10100000352E+00 0.  1.
       -3    1    3    3    0  502  0.31500500939E+03  0.13237342942E+04 -0.12637471018E+03  0.13665545051E+04  0.10100000352E+00 0. -1.
</event>
<event>
 5   0  0.1817566E-07  0.3000707E+04  0.7818609E-02  0.8243529E-01
       -2   -1    0    0    0  501  0.00000000000E+00  0.00000000000E+00  0.82399492734E+03  0.82399492734E+03  0.25500000920E-02 0. -1.
        2   -1    0    0  501    0  0.00000000000E+00  0.00000000000E+00 -0.27318863092E+04  0.27318863092E+04  0.25500000920E-02 0.  1.
    10030    2    1    2    0    0  0.00000000000E+00  0.00000000000E+00 -0.19078913818E+04  0.35558812365E+04  0.30007068906E+04 0.  0.
        1    1    3    3  502    0 -0.11586189002E+04 -0.92998999008E+03 -0.70599340666E+03  0.16449029843E+04  0.50400001928E-02 0.  1.
       -1    1    3    3    0  502  0.11586189002E+04  0.92998999008E+03 -0.12018979752E+04  0.19109782522E+04  0.50400001928E-02 0. -1.
</event>
<event>
 5   0  0.6525507E-08  0.2999649E+04  0.7818609E-02  0.8243831E-01
        1   -1    0    0  501    0  0.00000000000E+00  0.00000000000E+00  0.12972445766E+04  0.12972445767E+04  0.50400001928E-02 0. -1.
       -1   -1    0    0    0  501  0.00000000000E+00  0.00000000000E+00 -0.17340395742E+04  0.17340395742E+04  0.50400001928E-02 0.  1.
    10030    2    1    2    0    0  0.00000000000E+00  0.00000000000E+00 -0.43679499757E+03  0.30312841509E+04  0.29996489350E+04 0.  0.
        4    1    3    3  502    0 -0.11859812134E+04 -0.36418338227E+03  0.63327834157E+03  0.13929192530E+04  0.12699999809E+01 0. -1.
       -4    1    3    3    0  502  0.11859812134E+04  0.36418338227E+03 -0.10700733391E+04  0.16383648979E+04  0.12699999809E+01 0.  1.
</event>
<event>
 5   0  0.6679022E-08  0.3002922E+04  0.7818609E-02  0.8242897E-01
       -1   -1    0    0    0  501  0.00000000000E+00  0.00000000000E+00  0.12259595454E+04  0.12259595454E+04  0.50400001928E-02 0. -1.
        1   -1    0    0  501    0  0.00000000000E+00  0.00000000000E+00 -0.18388742449E+04  0.18388742449E+04  0.50400001928E-02 0.  1.
    10030    2    1    2    0    0  0.00000000000E+00  0.00000000000E+00 -0.61291469947E+03  0.30648337903E+04  0.30029221990E+04 0.  0.
        3    1    3    3  502    0  0.79764343847E+02  0.78904872235E+03  0.99474949516E+03  0.12721976282E+04  0.10100000352E+00 0. -1.
       -3    1    3    3    0  502 -0.79764343847E+02 -0.78904872235E+03 -0.16076641946E+04  0.17926361621E+04  0.10100000352E+00 0.  1.
</event>
<event>
 5   0  0.6374748E-08  0.3000826E+04  0.7818609E-02  0.8243495E-01
        1   -1    0    0  501    0  0.00000000000E+00  0.00000000000E+00  0.17297236919E+04  0.17297236919E+04  0.50400001928E-02 0.  1.
       -1   -1    0    0    0  501  0.00000000000E+00  0.00000000000E+00 -0.13015017875E+04  0.13015017875E+04  0.50400001928E-02 0. -1.
    10030    2    1    2    0    0  0.00000000000E+00  0.00000000000E+00  0.42822190442E+03  0.30312254794E+04  0.30008255377E+04 0.  0.
        1    1    3    3  502    0  0.10767297123E+04 -0.47501668519E+03  0.11542656233E+04  0.16484286013E+04  0.50400001928E-02 0.  1.
       -1    1    3    3    0  502 -0.10767297123E+04  0.47501668519E+03 -0.72604371885E+03  0.13827968781E+04  0.50400001928E-02 0. -1.
</event>
<event>
 5   0  0.6464436E-08  0.2999612E+04  0.7818609E-02  0.8243842E-01
       -1   -1    0    0    0  501  0.00000000000E+00  0.00000000000E+00  0.87104400413E+03  0.87104400414E+03  0.50400001928E-02 0. -1.
        1   -1    0    0  501    0  0.00000000000E+00  0.00000000000E+00 -0.25824398003E+04  0.25824398003E+04  0.50400001928E-02 0.  1.
    10030    2    1    2    0    0  0.00000000000E+00  0.00000000000E+00 -0.17113957961E+04  0.34534838044E+04  0.29996124443E+04 0.  0.
        5    1    3    3  502    0  0.72132517629E+02  0.14991469243E+03  0.86037942030E+03  0.87632890628E+03  0.46999998093E+01 0. -1.
       -5    1    3    3    0  502 -0.72132517629E+02 -0.14991469243E+03 -0.25717752164E+04  0.25771548981E+04  0.46999998093E+01 0.  1.
</event>
<event>
 5   0  0.6679022E-08  0.2998440E+04  0.7818609E-02  0.8244176E-01
        1   -1    0    0  501    0  0.00000000000E+00  0.00000000000E+00  0.15401719532E+04  0.15401719532E+04  0.50400001928E-02 0.  1.
       -1   -1    0    0    0  501  0.00000000000E+00  0.00000000000E+00 -0.14593571754E+04  0.14593571754E+04  0.50400001928E-02 0. -1.
    10030    2    1    2    0    0  0.00000000000E+00  0.00000000000E+00  0.80814777796E+02  0.29995291287E+04  0.29984402554E+04 0.  0.
        3    1    3    3  502    0 -0.46107632381E+03 -0.10590456413E+04  0.99652219251E+03  0.15255246760E+04  0.10100000352E+00 0.  1.
       -3    1    3    3    0  502  0.46107632381E+03  0.10590456413E+04 -0.91570741472E+03  0.14740044526E+04  0.10100000352E+00 0. -1.
</event>
<event>
 5   0  0.1810055E-07  0.3000491E+04  0.7818609E-02  0.8243591E-01
       -2   -1    0    0    0  501  0.00000000000E+00  0.00000000000E+00  0.12204235137E+04  0.12204235137E+04  0.25500000920E-02 0. -1.
        2   -1    0    0  501    0  0.00000000000E+00  0.00000000000E+00 -0.18442257915E+04  0.18442257916E+04  0.25500000920E-02 0.  1.
    10030    2    1    2    0    0  0.00000000000E+00  0.00000000000E+00 -0.62380227781E+03  0.30646493053E+04  0.30004909736E+04 0.  0.
        4    1    3    3  502    0  0.14466104170E+04 -0.37852141853E+03 -0.43605163438E+03  0.15575951989E+04  0.12699999809E+01 0.  1.
       -4    1    3    3    0  502 -0.14466104170E+04  0.37852141853E+03 -0.18775064342E+03  0.15070541064E+04  0.12699999809E+01 0. -1.
</event>
<event>
 5   0  0.1817566E-07  0.2999937E+04  0.7818609E-02  0.8243749E-01
       -2   -1    0    0    0  501  0.00000000000E+00  0.00000000000E+00  0.97055929722E+03  0.97055929723E+03  0.25500000920E-02 0.  1.
        2   -1    0    0  501    0  0.00000000000E+00  0.00000000000E+00 -0.23181534356E+04  0.23181534356E+04  0.25500000920E-02 0. -1.
    10030    2    1    2    0    0  0.00000000000E+00  0.00000000000E+00 -0.13475941384E+04  0.32887127328E+04  0.29999369122E+04 0.  0.
        1    1    3    3  502    0 -0.81151211518E+03 -0.12191574874E+04 -0.10290404530E+04  0.17899221061E+04  0.50400001928E-02 0. -1.
       -1    1    3    3    0  502  0.81151211518E+03  0.12191574874E+04 -0.31855368542E+03  0.14987906267E+04  0.50400001928E-02 0.  1.
</event>
<event>
 5   0  0.6525507E-08  0.2998354E+04  0.7818609E-02  0.8244201E-01
       -1   -1    0    0    0  501  0.00000000000E+00  0.00000000000E+00  0.18019790814E+04  0.18019790814E+04  0.50400001928E-02 0. -1.
        1   -1    0    0  501    0  0.00000000000E+00  0.00000000000E+00 -0.12472576526E+04  0.12472576526E+04  0.50400001928E-02 0.  1.
    10030    2    1    2    0    0  0.00000000000E+00  0.00000000000E+00  0.55472142881E+03  0.30492367341E+04  0.29983543481E+04 0.  0.
        4    1    3    3  502    0  0.12999781795E+04 -0.37723987240E+03 -0.37799536653E+03  0.14053950685E+04  0.12699999809E+01 0.  1.
       -4    1    3    3    0  502 -0.12999781795E+04  0.37723987240E+03  0.93271679534E+03  0.16438416656E+04  0.12699999809E+01 0. -1.
</event>
<event>
 5   0  0.1914439E-07  0.3000322E+04  0.7818609E-02  0.8243639E-01
       -2   -1    0    0    0  501  0.00000000000E+00  0.00000000000E+00  0.14754216682E+04  0.14754216682E+04  0.25500000920E-02 0.  1.
        2   -1    0    0  501    0  0.00000000000E+00  0.00000000000E+00 -0.15253149455E+04  0.15253149455E+04  0.25500000920E-02 0. -1.
    10030    2    1    2    0    0  0.00000000000E+00  0.00000000000E+00 -0.49893277300E+02  0.30007366137E+04  0.30003217970E+04 0.  0.
        5    1    3    3  502    0  0.11317037000E+04 -0.65695709442E+03  0.70871782813E+03  0.14881696605E+04  0.46999998093E+01 0.  1.
       -5    1    3    3    0  502 -0.11317037000E+04  0.65695709442E+03 -0.75861110543E+03  0.15125669532E+04  0.46999998093E+01 0. -1.
</event>
<event>
 5   0  0.6525507E-08  0.3012241E+04  0.7818609E-02  0.8240244E-01
        1   -1    0    0  501    0  0.00000000000E+00  0.00000000000E+00  0.18978586140E+04  0.18978586140E+04  0.50400001928E-02 0. -1.
       -1   -1    0    0    0  501  0.00000000000E+00  0.00000000000E+00 -0.11952412733E+04  0.11952412733E+04  0.50400001928E-02 0.  1.
    10030    2    1    2    0    0  0.00000000000E+00  0.00000000000E+00  0.70261734063E+03  0.30930998873E+04  0.30122409906E+04 0.  0.
        4    1    3    3  502    0 -0.29336775288E+03 -0.10994683956E+04  0.13644560888E+04  0.17766928329E+04  0.12699999809E+01 0. -1.
       -4    1    3    3    0  502  0.29336775288E+03  0.10994683956E+04 -0.66183874813E+03  0.13164070544E+04  0.12699999809E+01 0.  1.
</event>
<event>
 5   0  0.6374748E-08  0.3000149E+04  0.7818609E-02  0.8243688E-01
       -1   -1    0    0    0  501  0.00000000000E+00  0.00000000000E+00  0.11705961999E+04  0.11705961999E+04  0.50400001928E-02 0. -1.
        1   -1    0    0  501    0  0.00000000000E+00  0.00000000000E+00 -0.19222889392E+04  0.19222889392E+04  0.50400001928E-02 0.  1.
    10030    2    1    2    0    0  0.00000000000E+00  0.00000000000E+00 -0.75169273930E+03  0.30928851391E+04  0.30001494145E+04 0.  0.
        1    1    3    3  502    0  0.11005769885E+04  0.28897012338E+03  0.63183921611E+03  0.13015353375E+04  0.50400001928E-02 0. -1.
       -1    1    3    3    0  502 -0.11005769885E+04 -0.28897012338E+03 -0.13835319554E+04  0.17913498015E+04  0.50400001928E-02 0.  1.
</event>
<event>
 5   0  0.6374748E-08  0.3000208E+04  0.7818609E-02  0.8243672E-01
        1   -1    0    0  501    0  0.00000000000E+00  0.00000000000E+00  0.24900058187E+04  0.24900058187E+04  0.50400001928E-02 0. -1.
       -1   -1    0    0    0  501  0.00000000000E+00  0.00000000000E+00 -0.90373762675E+03  0.90373762676E+03  0.50400001928E-02 0.  1.
    10030    2    1    2    0    0  0.00000000000E+00  0.00000000000E+00  0.15862681919E+04  0.33937434454E+04  0.30002079589E+04 0.  0.
        1    1    3    3  502    0  0.10833287879E+04  0.10326240772E+04  0.90848121839E+03  0.17507860725E+04  0.50400001928E-02 0.  1.
       -1    1    3    3    0  502 -0.10833287879E+04 -0.10326240772E+04  0.67778697354E+03  0.16429573729E+04  0.50400001928E-02 0. -1.
</event>
<event>
 5   0  0.6679022E-08  0.3000443E+04  0.7818609E-02  0.8243604E-01
       -1   -1    0    0    0  501  0.00000000000E+00  0.00000000000E+00  0.17750112263E+04  0.17750112263E+04  0.50400001928E-02 0.  1.
        1   -1    0    0  501    0  0.00000000000E+00  0.00000000000E+00 -0.12679721885E+04  0.12679721886E+04  0.50400001928E-02 0. -1.
    10030    2    1    2    0    0  0.00000000000E+00  0.00000000000E+00  0.50703903775E+03  0.30429834149E+04  0.30004432135E+04 0.  0.
        3    1    3    3  502    0 -0.38491570081E+03  0.14197275393E+04  0.55245004883E+03  0.15713011962E+04  0.10100000352E+00 0.  1.
       -3    1    3    3    0  502  0.38491570081E+03 -0.14197275393E+04 -0.45411011074E+02  0.14716822186E+04  0.10100000352E+00 0. -1.
</event>
<event>
 5   0  0.1914439E-07  0.2999425E+04  0.7818609E-02  0.8243895E-01
       -2   -1    0    0    0  501  0.00000000000E+00  0.00000000000E+00  0.16242793598E+04  0.16242793598E+04  0.25500000920E-02 0.  1.
        2   -1    0    0  501    0  0.00000000000E+00  0.00000000000E+00 -0.13846984351E+04  0.13846984351E+04  0.25500000920E-02 0. -1.
    10030    2    1    2    0    0  0.00000000000E+00  0.00000000000E+00  0.23958092469E+03  0.30089777948E+04  0.29994246699E+04 0.  0.
        5    1    3    3  502    0  0.21507793241E+03 -0.50264205656E+03 -0.12811556439E+04  0.13929427224E+04  0.46999998093E+01 0. -1.
       -5    1    3    3    0  502 -0.21507793241E+03  0.50264205656E+03  0.15207365686E+04  0.16160350724E+04  0.46999998093E+01 0.  1.
</event>
<event>
 5   0  0.1817566E-07  0.3001658E+04  0.7818609E-02  0.8243258E-01
       -2   -1    0    0    0  501  0.00000000000E+00  0.00000000000E+00  0.11319897758E+04  0.11319897758E+04  0.25500000920E-02 0. -1.
        2   -1    0    0  501    0  0.00000000000E+00  0.00000000000E+00 -0.19898476707E+04  0.19898476707E+04  0.25500000920E-02 0.  1.
    10030    2    1    2    0    0  0.00000000000E+00  0.00000000000E+00 -0.85785789488E+03  0.31218374465E+04  0.30016576878E+04 0.  0.
        1    1    3    3  502    0 -0.47789574652E+03 -0.43992013081E+03  0.97822841294E+03  0.11742422637E+04  0.50400001928E-02 0. -1.
       -1    1    3    3    0  502  0.47789574652E+03  0.43992013081E+03 -0.18360863078E+04  0.19475951827E+04  0.50400001928E-02 0.  1.
</event>
<event>
 5   0  0.6525507E-08  0.3001797E+04  0.7818609E-02  0.8243218E-01
        1   -1    0    0  501    0  0.00000000000E+00  0.00000000000E+00  0.17672862780E+04  0.17672862780E+04  0.50400001928E-02 0. -1.
       -1   -1    0    0    0  501  0.00000000000E+00  0.00000000000E+00 -0.12746644103E+04  0.12746644103E+04  0.50400001928E-02 0.  1.
    10030    2    1    2    0    0  0.00000000000E+00  0.00000000000E+00  0.49262186771E+03  0.30419506883E+04  0.30017974092E+04 0.  0.
        4    1    3    3  502    0  0.73742158923E+03  0.63753555904E+03  0.14028274553E+04  0.17082648131E+04  0.12699999809E+01 0. -1.
       -4    1    3    3    0  502 -0.73742158923E+03 -0.63753555904E+03 -0.91020558759E+03  0.13336858753E+04  0.12699999809E+01 0.  1.
</event>
<event>
 5   0  0.6679022E-08  0.3000012E+04  0.7818609E-02  0.8243727E-01
       -1   -1    0    0    0  501  0.00000000000E+00  0.00000000000E+00  0.14584861239E+04  0.14584861239E+04  0.50400001928E-02 0.  1.
        1   -1    0    0  501    0  0.00000000000E+00  0.00000000000E+00 -0.15427077101E+04  0.15427077102E+04  0.50400001928E-02 0. -1.
    10030    2    1    2    0    0  0.00000000000E+00  0.00000000000E+00 -0.84221586220E+02  0.30011938341E+04  0.30000118590E+04 0.  0.
        3    1    3    3  502    0  0.86523214382E+03 -0.61732648321E+03 -0.11009696488E+04  0.15303113498E+04  0.10100000352E+00 0. -1.
       -3    1    3    3    0  502 -0.86523214382E+03  0.61732648321E+03  0.10167480626E+04  0.14708824843E+04  0.10100000352E+00 0.  1.
</event>
<event>
 5   0  0.1914439E-07  0.3002142E+04  0.7818609E-02  0.8243120E-01
       -2   -1    0    0    0  501  0.00000000000E+00  0.00000000000E+00  0.10030068369E+04  0.10030068369E+04  0.25500000920E-02 0.  1.
        2   -1    0    0  501    0  0.00000000000E+00  0.00000000000E+00 -0.22464591572E+04  0.22464591572E+04  0.25500000920E-02 0. -1.
    10030    2    1    2    0    0  0.00000000000E+00  0.00000000000E+00 -0.12434523203E+04  0.32494659941E+04  0.30021418311E+04 0.  0.
        5    1    3    3  502    0 -0.37011447460E+03 -0.11992424516E+04  0.26953200786E+03  0.12836809476E+04  0.46999998093E+01 0.  1.
       -5    1    3    3    0  502  0.37011447460E+03  0.11992424516E+04 -0.15129843281E+04  0.19657850465E+04  0.46999998093E+01 0. -1.
</event>
<event>
 5   0  0.6679022E-08  0.3001476E+04  0.7818609E-02  0.8243310E-01
       -1   -1    0    0    0  501  0.00000000000E+00  0.00000000000E+00  0.16090334937E+04  0.16090334937E+04  0.50400001928E-02 0.  1.
        1   -1    0    0  501    0  0.00000000000E+00  0.00000000000E+00 -0.13997309632E+04  0.13997309632E+04  0.50400001928E-02 0. -1.
    10030    2    1    2    0    0  0.00000000000E+00  0.00000000000E+00  0.20930253048E+03  0.30087644570E+04  0.30014756384E+04 0.  0.
        3    1    3    3  502    0 -0.77009289379E+03 -0.66325627912E+03 -0.10022321819E+04  0.14273826794E+04  0.10100000352E+00 0. -1.
       -3    1    3    3    0  502  0.77009289379E+03  0.66325627912E+03  0.12115347124E+04  0.15813817775E+04  0.10100000352E+00 0.  1.
</event>
<event>
 5   0  0.6679022E-08  0.3001825E+04  0.7818609E-02  0.8243210E-01
       -1   -1    0    0    0  501  0.00000000000E+00  0.00000000000E+00  0.10975348804E+04  0.10975348804E+04  0.50400001928E-02 0.  1.
        1   -1    0    0  501    0  0.00000000000E+00  0.00000000000E+00 -0.20525432966E+04  0.20525432966E+04  0.50400001928E-02 0. -1.
    10030    2    1    2    0    0  0.00000000000E+00  0.00000000000E+00 -0.95500841618E+03  0.31500781770E+04  0.30018246861E+04 0.  0.
        3    1    3    3  502    0 -0.64852783087E+03 -0.19744215735E+03  0.92772208412E+03  0.11490169835E+04  0.10100000352E+00 0.  1.
       -3    1    3    3    0  502  0.64852783087E+03  0.19744215735E+03 -0.18827305003E+04  0.20010611934E+04  0.10100000352E+00 0. -1.
</event>
<event>
 5   0  0.1810055E-07  0.2998715E+04  0.7818609E-02  0.8244098E-01
        2   -1    0    0  501    0  0.00000000000E+00  0.00000000000E+00  0.13704868660E+04  0.13704868660E+04  0.25500000920E-02 0.  1.
       -2   -1    0    0    0  501  0.00000000000E+00  0.00000000000E+00 -0.16403464717E+04  0.16403464717E+04  0.25500000920E-02 0. -1.
    10030    2    1    2    0    0  0.00000000000E+00  0.00000000000E+00 -0.26985960569E+03  0.30108333377E+04  0.29987152550E+04 0.  0.
        4    1    3    3  502    0  0.23817324346E+03 -0.14279339968E+04 -0.52682710454E+03  0.15405422436E+04  0.12699999809E+01 0. -1.
       -4    1    3    3    0  502 -0.23817324346E+03  0.14279339968E+04  0.25696749885E+03  0.14702910942E+04  0.12699999809E+01 0.  1.
</event>
<event>
 5   0  0.1821305E-07  0.3000057E+04  0.7818609E-02  0.8243715E-01
       -2   -1    0    0    0  501  0.00000000000E+00  0.00000000000E+00  0.89215876844E+03  0.89215876844E+03  0.25500000920E-02 0.  1.
        2   -1    0    0  501    0  0.00000000000E+00  0.00000000000E+00 -0.25220677023E+04  0.25220677023E+04  0.25500000920E-02 0. -1.
    10030    2    1    2    0    0  0.00000000000E+00  0.00000000000E+00 -0.16299089339E+04  0.34142264708E+04  0.30000565430E+04 0.  0.
        2    1    3    3  502    0 -0.27558461691E+03 -0.12989180672E+04 -0.20800012999E+02  0.13279938505E+04  0.25500000920E-02 0.  1.
       -2    1    3    3    0  502  0.27558461691E+03  0.12989180672E+04 -0.16091089209E+04  0.20862326203E+04  0.25500000920E-02 0. -1.
</event>
<event>
 5   0  0.6636007E-08  0.3000856E+04  0.7818609E-02  0.8243486E-01
        1   -1    0    0  501    0  0.00000000000E+00  0.00000000000E+00  0.19154840370E+04  0.19154840370E+04  0.50400001928E-02 0.  1.
       -1   -1    0    0    0  501  0.00000000000E+00  0.00000000000E+00 -0.11753083220E+04  0.11753083220E+04  0.50400001928E-02 0. -1.
    10030    2    1    2    0    0  0.00000000000E+00  0.00000000000E+00  0.74017571496E+03  0.30907923590E+04  0.30008560975E+04 0.  0.
        2    1    3    3  502    0 -0.80417737374E+03  0.10657147625E+04  0.10753242760E+04  0.17142845452E+04  0.25500000920E-02 0.  1.
       -2    1    3    3    0  502  0.80417737374E+03 -0.10657147625E+04 -0.33514856104E+03  0.13765078138E+04  0.25500000920E-02 0. -1.
</event>
<event>
 5   0  0.1821305E-07  0.2999501E+04  0.7818609E-02  0.8243873E-01
        2   -1    0    0  501    0  0.00000000000E+00  0.00000000000E+00  0.11647585972E+04  0.11647585972E+04  0.25500000920E-02 0.  1.
       -2   -1    0    0    0  501  0.00000000000E+00  0.00000000000E+00 -0.19310885500E+04  0.19310885500E+04  0.25500000920E-02 0. -1.
    10030    2    1    2    0    0  0.00000000000E+00  0.00000000000E+00 -0.76632995273E+03  0.30958471472E+04  0.29995012856E+04 0.  0.
        2    1    3    3  502    0  0.35211605270E+03 -0.85690391406E+03  0.83411703998E+03  0.12466038941E+04  0.25500000920E-02 0.  1.
       -2    1    3    3    0  502 -0.35211605270E+03  0.85690391406E+03 -0.16004469927E+04  0.18492432531E+04  0.25500000920E-02 0. -1.
</event>
<event>
 5   0  0.6636007E-08  0.3000800E+04  0.7818609E-02  0.8243502E-01
       -1   -1    0    0    0  501  0.00000000000E+00  0.00000000000E+00  0.14805779680E+04  0.14805779681E+04  0.50400001928E-02 0. -1.
        1   -1    0    0  501    0  0.00000000000E+00  0.00000000000E+00 -0.15204874173E+04  0.15204874173E+04  0.50400001928E-02 0.  1.
    10030    2    1    2    0    0  0.00000000000E+00  0.00000000000E+00 -0.39909449248E+02  0.30010653854E+04  0.30008000072E+04 0.  0.
        2    1    3    3  502    0 -0.13647141324E+04  0.59000517235E+03  0.18168007964E+03  0.14978512669E+04  0.25500000920E-02 0. -1.
       -2    1    3    3    0  502  0.13647141324E+04 -0.59000517235E+03 -0.22158952888E+03  0.15032141184E+04  0.25500000920E-02 0.  1.
</event>
<event>
 5   0  0.6017625E-08  0.3001872E+04  0.7818609E-02  0.8243197E-01
        3   -1    0    0  501    0  0.00000000000E+00  0.00000000000E+00  0.10072939660E+04  0.10072939711E+04  0.10100000352E+00 0. -1.
       -3   -1    0    0    0  501  0.00000000000E+00  0.00000000000E+00 -0.22364954531E+04  0.22364954554E+04  0.10100000352E+00 0.  1.
    10030    2    1    2    0    0  0.00000000000E+00  0.00000000000E+00 -0.12292014871E+04  0.32437894265E+04  0.30018716741E+04 0.  0.
        3    1    3    3  502    0 -0.62262627078E+03 -0.56648233310E+03 -0.19574223028E+04  0.21307434825E+04  0.10100000352E+00 0. -1.
       -3    1    3    3    0  502  0.62262627078E+03  0.56648233310E+03  0.72822081567E+03  0.11130459440E+04  0.10100000352E+00 0.  1.
</event>
<event>
 5   0  0.6374748E-08  0.3001416E+04  0.7818609E-02  0.8243327E-01
        1   -1    0    0  501    0  0.00000000000E+00  0.00000000000E+00  0.18926294181E+04  0.18926294181E+04  0.50400001928E-02 0. -1.
       -1   -1    0    0    0  501  0.00000000000E+00  0.00000000000E+00 -0.11899450906E+04  0.11899450906E+04  0.50400001928E-02 0.  1.
    10030    2    1    2    0    0  0.00000000000E+00  0.00000000000E+00  0.70268432755E+03  0.30825745087E+04  0.30014163886E+04 0.  0.
        1    1    3    3  502    0  0.84585770653E+03  0.10763961265E+04  0.98280153589E+03  0.16852307675E+04  0.50400001928E-02 0.  1.
       -1    1    3    3    0  502 -0.84585770653E+03 -0.10763961265E+04 -0.28011720834E+03  0.13973437412E+04  0.50400001928E-02 0. -1.
</event>
<event>
 5   0  0.1821305E-07  0.2998351E+04  0.7818609E-02  0.8244202E-01
       -2   -1    0    0    0  501  0.00000000000E+00  0.00000000000E+00  0.10898449083E+04  0.10898449083E+04  0.25500000920E-02 0.  1.
        2   -1    0    0  501    0  0.00000000000E+00  0.00000000000E+00 -0.20622451464E+04  0.20622451464E+04  0.25500000920E-02 0. -1.
    10030    2    1    2    0    0  0.00000000000E+00  0.00000000000E+00 -0.97240023812E+03  0.31520900548E+04  0.29983511286E+04 0.  0.
        2    1    3    3  502    0 -0.81198159076E+03  0.12543382095E+04 -0.61430439697E+03  0.16155644028E+04  0.25500000920E-02 0.  1.
       -2    1    3    3    0  502  0.81198159076E+03 -0.12543382095E+04 -0.35809584115E+03  0.15365256519E+04  0.25500000920E-02 0. -1.
</event>
<event>
 5   0  0.1810055E-07  0.2999455E+04  0.7818609E-02  0.8243886E-01
       -2   -1    0    0    0  501  0.00000000000E+00  0.00000000000E+00  0.77334304205E+03  0.77334304206E+03  0.25500000920E-02 0.  1.
        2   -1    0    0  501    0  0.00000000000E+00  0.00000000000E+00 -0.29083899920E+04  0.29083899920E+04  0.25500000920E-02 0. -1.
    10030    2    1    2    0    0  0.00000000000E+00  0.00000000000E+00 -0.21350469499E+04  0.36817330340E+04  0.29994553932E+04 0.  0.
        4    1    3    3  502    0  0.12914719612E+04 -0.53186608401E+03 -0.39700702568E+03  0.14520322135E+04  0.12699999809E+01 0.  1.
       -4    1    3    3    0  502 -0.12914719612E+04  0.53186608401E+03 -0.17380399242E+04  0.22297008205E+04  0.12699999809E+01 0. -1.
</event>
<event>
 5   0  0.1817566E-07  0.2998562E+04  0.7818609E-02  0.8244142E-01
        2   -1    0    0  501    0  0.00000000000E+00  0.00000000000E+00  0.29642254641E+04  0.29642254641E+04  0.25500000920E-02 0.  1.
       -2   -1    0    0    0  501  0.00000000000E+00  0.00000000000E+00 -0.75832414847E+03  0.75832414848E+03  0.25500000920E-02 0. -1.
    10030    2    1    2    0    0  0.00000000000E+00  0.00000000000E+00  0.22059013157E+04  0.37225496126E+04  0.29985621561E+04 0.  0.
        1    1    3    3  502    0  0.12159493881E+04  0.36675799619E+03  0.20920631701E+04  0.24474012033E+04  0.50400001928E-02 0.  1.
       -1    1    3    3    0  502 -0.12159493881E+04 -0.36675799619E+03  0.11383814556E+03  0.12751484093E+04  0.50400001928E-02 0. -1.
</event>
<event>
 5   0  0.1817566E-07  0.2999144E+04  0.7818609E-02  0.8243975E-01
        2   -1    0    0  501    0  0.00000000000E+00  0.00000000000E+00  0.19276193006E+04  0.19276193006E+04  0.25500000920E-02 0.  1.
       -2   -1    0    0    0  501  0.00000000000E+00  0.00000000000E+00 -0.11665766243E+04  0.11665766243E+04  0.25500000920E-02 0. -1.
    10030    2    1    2    0    0  0.00000000000E+00  0.00000000000E+00  0.76104267628E+03  0.30941959249E+04  0.29991436222E+04 0.  0.
        1    1    3    3  502    0 -0.89539606946E+03  0.94616443321E+03  0.11468647590E+04  0.17355863653E+04  0.50400001928E-02 0.  1.
       -1    1    3    3    0  502  0.89539606946E+03 -0.94616443321E+03 -0.38582208275E+03  0.13586095596E+04  0.50400001928E-02 0. -1.
</event>
<event>
 5   0  0.6636007E-08  0.3000457E+04  0.7818609E-02  0.8243601E-01
       -1   -1    0    0    0  501  0.00000000000E+00  0.00000000000E+00  0.12805709318E+04  0.12805709318E+04  0.50400001928E-02 0. -1.
        1   -1    0    0  501    0  0.00000000000E+00  0.00000000000E+00 -0.17575636152E+04  0.17575636152E+04  0.50400001928E-02 0.  1.
    10030    2    1    2    0    0  0.00000000000E+00  0.00000000000E+00 -0.47699268343E+03  0.30381345470E+04  0.30004565495E+04 0.  0.
        2    1    3    3  502    0 -0.30908321926E+02 -0.94801073471E+03  0.93842698659E+03  0.13342881573E+04  0.25500000920E-02 0. -1.
       -2    1    3    3    0  502  0.30908321926E+02  0.94801073471E+03 -0.14154196700E+04  0.17038463897E+04  0.25500000920E-02 0.  1.
</event>
<event>
 5   0  0.6636007E-08  0.3000818E+04  0.7818609E-02  0.8243497E-01
       -1   -1    0    0    0  501  0.00000000000E+00  0.00000000000E+00  0.16443169396E+04  0.16443169396E+04  0.50400001928E-02 0.  1.
        1   -1    0    0  501    0  0.00000000000E+00  0.00000000000E+00 -0.13690959144E+04  0.13690959144E+04  0.50400001928E-02 0. -1.
    10030    2    1    2    0    0  0.00000000000E+00  0.00000000000E+00  0.27522102523E+03  0.30134128540E+04  0.30008182910E+04 0.  0.
        2    1    3    3  502    0 -0.11855671535E+04 -0.21790492684E+03 -0.75954587590E+03  0.14247673390E+04  0.25500000920E-02 0. -1.
       -2    1    3    3    0  502  0.11855671535E+04  0.21790492684E+03  0.10347669011E+04  0.15886455150E+04  0.25500000920E-02 0.  1.
</event>
<event>
 5   0  0.1817566E-07  0.3002729E+04  0.7818609E-02  0.8242952E-01
       -2   -1    0    0    0  501  0.00000000000E+00  0.00000000000E+00  0.12280320080E+04  0.12280320080E+04  0.25500000920E-02 0.  1.
        2   -1    0    0  501    0  0.00000000000E+00  0.00000000000E+00 -0.18355347692E+04  0.18355347692E+04  0.25500000920E-02 0. -1.
    10030    2    1    2    0    0  0.00000000000E+00  0.00000000000E+00 -0.60750276118E+03  0.30635667773E+04  0.30027290577E+04 0.  0.
        1    1    3    3  502    0 -0.66512404804E+02  0.12169229316E+04 -0.11983113377E+04  0.17091738891E+04  0.50400001928E-02 0. -1.
       -1    1    3    3    0  502  0.66512404804E+02 -0.12169229316E+04  0.59080857647E+03  0.13543928881E+04  0.50400001928E-02 0.  1.
</event>
<event>
 5   0  0.1914439E-07  0.3000207E+04  0.7818609E-02  0.8243672E-01
        2   -1    0    0  501    0  0.00000000000E+00  0.00000000000E+00  0.26998355398E+04  0.26998355398E+04  0.25500000920E-02 0.  1.
       -2   -1    0    0    0  501  0.00000000000E+00  0.00000000000E+00 -0.83349933157E+03  0.83349933157E+03  0.25500000920E-02 0. -1.
    10030    2    1    2    0    0  0.00000000000E+00  0.00000000000E+00  0.18663362082E+04  0.35333348713E+04  0.30002074047E+04 0.  0.
        5    1    3    3  502    0  0.10124545684E+04 -0.48657945315E+03 -0.23771682304E+03  0.11481964968E+04  0.46999998093E+01 0. -1.
       -5    1    3    3    0  502 -0.10124545684E+04  0.48657945315E+03  0.21040530312E+04  0.23851383745E+04  0.46999998093E+01 0.  1.
</event>
<event>
 5   0  0.1810055E-07  0.2999088E+04  0.7818609E-02  0.8243991E-01
        2   -1    0    0  501    0  0.00000000000E+00  0.00000000000E+00  0.16941993111E+04  0.16941993111E+04  0.25500000920E-02 0.  1.
       -2   -1    0    0    0  501  0.00000000000E+00  0.00000000000E+00 -0.13272539714E+04  0.13272539715E+04  0.25500000920E-02 0. -1.
    10030    2    1    2    0    0  0.00000000000E+00  0.00000000000E+00  0.36694533966E+03  0.30214532826E+04  0.29990883709E+04 0.  0.
        4    1    3    3  502    0  0.68139225808E+03 -0.13150493655E+04  0.41970132366E+03  0.15394158168E+04  0.12699999809E+01 0.  1.
       -4    1    3    3    0  502 -0.68139225808E+03  0.13150493655E+04 -0.52755984000E+02  0.14820374657E+04  0.12699999809E+01 0. -1.
</event>
<event>
 5   0  0.6374748E-08  0.3001501E+04  0.7818609E-02  0.8243302E-01
        1   -1    0    0  501    0  0.00000000000E+00  0.00000000000E+00  0.12555944961E+04  0.12555944961E+04  0.50400001928E-02 0. -1.
       -1   -1    0    0    0  501  0.00000000000E+00  0.00000000000E+00 -0.17937738310E+04  0.17937738310E+04  0.50400001928E-02 0.  1.
    10030    2    1    2    0    0  0.00000000000E+00  0.00000000000E+00 -0.53817933490E+03  0.30493683271E+04  0.30015013240E+04 0.  0.
        1    1    3    3  502    0 -0.11895207923E+04 -0.15494155904E+03  0.64711601275E+03  0.13629841291E+04  0.50400001928E-02 0. -1.
       -1    1    3    3    0  502  0.11895207923E+04  0.15494155904E+03 -0.11852953477E+04  0.16863841980E+04  0.50400001928E-02 0.  1.
</event>
<event>
 5   0  0.1813720E-07  0.3000191E+04  0.7818609E-02  0.8243676E-01
       -2   -1    0    0    0  501  0.00000000000E+00  0.00000000000E+00  0.11422879231E+04  0.11422879231E+04  0.25500000920E-02 0. -1.
        2   -1    0    0  501    0  0.00000000000E+00  0.00000000000E+00 -0.19699823404E+04  0.19699823404E+04  0.25500000920E-02 0.  1.
    10030    2    1    2    0    0  0.00000000000E+00  0.00000000000E+00 -0.82769441732E+03  0.31122702634E+04  0.30001913513E+04 0.  0.
        3    1    3    3  502    0  0.41293505848E+03  0.92505723928E+03  0.73384726305E+03  0.12509108978E+04  0.10100000352E+00 0. -1.
       -3    1    3    3    0  502 -0.41293505848E+03 -0.92505723928E+03 -0.15615416804E+04  0.18613593657E+04  0.10100000352E+00 0.  1.
</event>
<event>
 5   0  0.1817566E-07  0.2998088E+04  0.7818609E-02  0.8244277E-01
        2   -1    0    0  501    0  0.00000000000E+00  0.00000000000E+00  0.87185266598E+03  0.87185266599E+03  0.25500000920E-02 0. -1.
       -2   -1    0    0    0  501  0.00000000000E+00  0.00000000000E+00 -0.25774221485E+04  0.25774221485E+04  0.25500000920E-02 0.  1.
    10030    2    1    2    0    0  0.00000000000E+00  0.00000000000E+00 -0.17055694826E+04  0.34492748145E+04  0.29980876382E+04 0.  0.
        1    1    3    3  502    0 -0.10304928614E+04  0.53262137892E+02 -0.21037982728E+04  0.23432284493E+04  0.50400001928E-02 0.  1.
       -1    1    3    3    0  502  0.10304928614E+04 -0.53262137892E+02  0.39822879025E+03  0.11060463653E+04  0.50400001928E-02 0. -1.
</event>
<event>
 5   0  0.6525507E-08  0.3000820E+04  0.7818609E-02  0.8243497E-01
       -1   -1    0    0    0  501  0.00000000000E+00  0.00000000000E+00  0.10357154529E+04  0.10357154529E+04  0.50400001928E-02 0. -1.
        1   -1    0    0  501    0  0.00000000000E+00  0.00000000000E+00 -0.21735989819E+04  0.21735989819E+04  0.50400001928E-02 0.  1.
    10030    2    1    2    0    0  0.00000000000E+00  0.00000000000E+00 -0.11378835290E+04  0.32093144348E+04  0.30008199239E+04 0.  0.
        4    1    3    3  502    0  0.14803588623E+04  0.24256418487E+03 -0.53634990489E+03  0.15931015593E+04  0.12699999809E+01 0. -1.
       -4    1    3    3    0  502 -0.14803588623E+04 -0.24256418487E+03 -0.60153362410E+03  0.16162128755E+04  0.12699999809E+01 0.  1.
</event>
<event>
 5   0  0.1813720E-07  0.3000047E+04  0.7818609E-02  0.8243717E-01
        2   -1    0    0  501    0  0.00000000000E+00  0.00000000000E+00  0.16966002961E+04  0.16966002961E+04  0.25500000920E-02 0.  1.
       -2   -1    0    0    0  501  0.00000000000E+00  0.00000000000E+00 -0.13262233354E+04  0.13262233354E+04  0.25500000920E-02 0. -1.
    10030    2    1    2    0    0  0.00000000000E+00  0.00000000000E+00  0.37037696064E+03  0.30228236315E+04  0.30000472687E+04 0.  0.
        3    1    3    3  502    0 -0.12678491529E+04  0.27071071845E+03 -0.57508967918E+03  0.14182573522E+04  0.10100000352E+00 0. -1.
       -3    1    3    3    0  502  0.12678491529E+04 -0.27071071845E+03  0.94546663982E+03  0.16045662794E+04  0.10100000352E+00 0.  1.
</event>
<event>
 5   0  0.1817566E-07  0.2999816E+04  0.7818609E-02  0.8243783E-01
       -2   -1    0    0    0  501  0.00000000000E+00  0.00000000000E+00  0.17034032479E+04  0.17034032479E+04  0.25500000920E-02 0. -1.
        2   -1    0    0  501    0  0.00000000000E+00  0.00000000000E+00 -0.13207231390E+04  0.13207231390E+04  0.25500000920E-02 0.  1.
    10030    2    1    2    0    0  0.00000000000E+00  0.00000000000E+00  0.38268010892E+03  0.30241263869E+04  0.29998160507E+04 0.  0.
        1    1    3    3  502    0  0.14858364067E+04  0.95951975978E+02  0.87438611052E+01  0.14889570391E+04  0.50400001928E-02 0.  1.
       -1    1    3    3    0  502 -0.14858364067E+04 -0.95951975978E+02  0.37393624781E+03  0.15351693478E+04  0.50400001928E-02 0. -1.
</event>
<event>
 5   0  0.6636007E-08  0.2999095E+04  0.7818609E-02  0.8243989E-01
        1   -1    0    0  501    0  0.00000000000E+00  0.00000000000E+00  0.17211277254E+04  0.17211277254E+04  0.50400001928E-02 0.  1.
       -1   -1    0    0    0  501  0.00000000000E+00  0.00000000000E+00 -0.13064939702E+04  0.13064939702E+04  0.50400001928E-02 0. -1.
    10030    2    1    2    0    0  0.00000000000E+00  0.00000000000E+00  0.41463375517E+03  0.30276216956E+04  0.29990951936E+04 0.  0.
        2    1    3    3  502    0  0.80973523892E+03 -0.99933224989E+03 -0.57092884304E+03  0.14072298485E+04  0.25500000920E-02 0. -1.
       -2    1    3    3    0  502 -0.80973523892E+03  0.99933224989E+03  0.98556259822E+03  0.16203918470E+04  0.25500000920E-02 0.  1.
</event>
<event>
 5   0  0.1914439E-07  0.3000730E+04  0.7818609E-02  0.8243522E-01
       -2   -1    0    0    0  501  0.00000000000E+00  0.00000000000E+00  0.10651646632E+04  0.10651646632E+04  0.25500000920E-02 0. -1.
        2   -1    0    0  501    0  0.00000000000E+00  0.00000000000E+00 -0.21133780481E+04  0.21133780481E+04  0.25500000920E-02 0.  1.
    10030    2    1    2    0    0  0.00000000000E+00  0.00000000000E+00 -0.10482133849E+04  0.31785427113E+04  0.30007303223E+04 0.  0.
        5    1    3    3  502    0  0.66813234674E+03  0.83363424677E+03  0.59175171507E+03  0.12212858275E+04  0.46999998093E+01 0. -1.
       -5    1    3    3    0  502 -0.66813234674E+03 -0.83363424677E+03 -0.16399650999E+04  0.19572568838E+04  0.46999998093E+01 0.  1.
</event>
<event>
 5   0  0.6374748E-08  0.2998929E+04  0.7818609E-02  0.8244037E-01
        1   -1    0    0  501    0  0.00000000000E+00  0.00000000000E+00  0.15067363504E+04  0.15067363504E+04  0.50400001928E-02 0.  1.
       -1   -1    0    0    0  501  0.00000000000E+00  0.00000000000E+00 -0.14922274022E+04  0.14922274023E+04  0.50400001928E-02 0. -1.
    10030    2    1    2    0    0  0.00000000000E+00  0.00000000000E+00  0.14508948176E+02  0.29989637527E+04  0.29989286554E+04 0.  0.
        1    1    3    3  502    0  0.14648732708E+03  0.34447588978E+02  0.14991660646E+04  0.15066997255E+04  0.50400001928E-02 0.  1.
       -1    1    3    3    0  502 -0.14648732708E+03 -0.34447588978E+02 -0.14846571165E+04  0.14922640272E+04  0.50400001928E-02 0. -1.
</event>
<event>
 5   0  0.1817566E-07  0.3000102E+04  0.7818609E-02  0.8243702E-01
       -2   -1    0    0    0  501  0.00000000000E+00  0.00000000000E+00  0.14910243057E+04  0.14910243057E+04  0.25500000920E-02 0.  1.
        2   -1    0    0  501    0  0.00000000000E+00  0.00000000000E+00 -0.15091322197E+04  0.15091322197E+04  0.25500000920E-02 0. -1.
    10030    2    1    2    0    0  0.00000000000E+00  0.00000000000E+00 -0.18107913974E+02  0.30001565254E+04  0.30001018784E+04 0.  0.
        1    1    3    3  502    0  0.14139672637E+04 -0.42543947617E+03  0.25524359155E+03  0.14984830535E+04  0.50400001928E-02 0.  1.
       -1    1    3    3    0  502 -0.14139672637E+04  0.42543947617E+03 -0.27335150552E+03  0.15016734719E+04  0.50400001928E-02 0. -1.
</event>
<event>
 5   0  0.1821305E-07  0.2999892E+04  0.7818609E-02  0.8243762E-01
       -2   -1    0    0    0  501  0.00000000000E+00  0.00000000000E+00  0.22906621616E+04  0.22906621616E+04  0.25500000920E-02 0. -1.
        2   -1    0    0  501    0  0.00000000000E+00  0.00000000000E+00 -0.98217813721E+03  0.98217813721E+03  0.25500000920E-02 0.  1.
    10030    2    1    2    0    0  0.00000000000E+00  0.00000000000E+00  0.13084840244E+04  0.32728402988E+04  0.29998921946E+04 0.  0.
        2    1    3    3  502    0  0.23141945713E+03 -0.40010883407E+03  0.22110282464E+04  0.22588244621E+04  0.25500000920E-02 0. -1.
       -2    1    3    3    0  502 -0.23141945713E+03  0.40010883407E+03 -0.90254422205E+03  0.10140158367E+04  0.25500000920E-02 0.  1.
</event>
<event>
 5   0  0.6464436E-08  0.3000133E+04  0.7818609E-02  0.8243693E-01
        1   -1    0    0  501    0  0.00000000000E+00  0.00000000000E+00  0.14253159253E+04  0.14253159254E+04  0.50400001928E-02 0. -1.
       -1   -1    0    0    0  501  0.00000000000E+00  0.00000000000E+00 -0.15787369833E+04  0.15787369833E+04  0.50400001928E-02 0.  1.
    10030    2    1    2    0    0  0.00000000000E+00  0.00000000000E+00 -0.15342105791E+03  0.30040529086E+04  0.30001326399E+04 0.  0.
        5    1    3    3  502    0  0.16571773381E+03  0.86658373274E+03 -0.12914516180E+04  0.15640649299E+04  0.46999998093E+01 0.  1.
       -5    1    3    3    0  502 -0.16571773381E+03 -0.86658373274E+03  0.11380305601E+04  0.14399879787E+04  0.46999998093E+01 0. -1.
</event>
<event>
 5   0  0.6679022E-08  0.3000765E+04  0.7818609E-02  0.8243512E-01
        1   -1    0    0  501    0  0.00000000000E+00  0.00000000000E+00  0.16980985108E+04  0.16980985108E+04  0.50400001928E-02 0.  1.
       -1   -1    0    0    0  501  0.00000000000E+00  0.00000000000E+00 -0.13256877454E+04  0.13256877454E+04  0.50400001928E-02 0. -1.
    10030    2    1    2    0    0  0.00000000000E+00  0.00000000000E+00  0.37241076540E+03  0.30237862562E+04  0.30007654932E+04 0.  0.
        3    1    3    3  502    0  0.12754332354E+04  0.24366198232E+02 -0.60967962541E+03  0.14138716015E+04  0.10100000352E+00 0.  1.
       -3    1    3    3    0  502 -0.12754332354E+04 -0.24366198232E+02  0.98209039082E+03  0.16099146547E+04  0.10100000352E+00 0. -1.
</event>
<event>
 5   0  0.1813720E-07  0.3008647E+04  0.7818609E-02  0.8241266E-01
        2   -1    0    0  501    0  0.00000000000E+00  0.00000000000E+00  0.15248273931E+04  0.15248273931E+04  0.25500000920E-02 0.  1.
       -2   -1    0    0    0  501  0.00000000000E+00  0.00000000000E+00 -0.14840952317E+04  0.14840952317E+04  0.25500000920E-02 0. -1.
    10030    2    1    2    0    0  0.00000000000E+00  0.00000000000E+00  0.40732161436E+02  0.30089226248E+04  0.30086469140E+04 0.  0.
        3    1    3    3  502    0  0.11495723634E+04 -0.96200291033E+03 -0.10622685584E+03  0.15027476080E+04  0.10100000352E+00 0. -1.
       -3    1    3    3    0  502 -0.11495723634E+04  0.96200291033E+03  0.14695901727E+03  0.15061750168E+04  0.10100000352E+00 0.  1.
</event>
<event>
 5   0  0.1914439E-07  0.3001144E+04  0.7818609E-02  0.8243404E-01
        2   -1    0    0  501    0  0.00000000000E+00  0.00000000000E+00  0.15587308925E+04  0.15587308925E+04  0.25500000920E-02 0. -1.
       -2   -1    0    0    0  501  0.00000000000E+00  0.00000000000E+00 -0.14445833558E+04  0.14445833558E+04  0.25500000920E-02 0.  1.
    10030    2    1    2    0    0  0.00000000000E+00  0.00000000000E+00  0.11414753671E+03  0.30033142483E+04  0.30011442507E+04 0.  0.
        5    1    3    3  502    0 -0.12331428898E+03  0.93256101405E+03  0.12270290852E+04  0.15461238387E+04  0.46999998093E+01 0. -1.
       -5    1    3    3    0  502  0.12331428898E+03 -0.93256101405E+03 -0.11128815485E+04  0.14571904096E+04  0.46999998093E+01 0.  1.
</event>
<event>
 5   0  0.6464436E-08  0.2999218E+04  0.7818609E-02  0.8243954E-01
        1   -1    0    0  501    0  0.00000000000E+00  0.00000000000E+00  0.11839629971E+04  0.11839629971E+04  0.50400001928E-02 0.  1.
       -1   -1    0    0    0  501  0.00000000000E+00  0.00000000000E+00 -0.18994064444E+04  0.18994064444E+04  0.50400001928E-02 0. -1.
    10030    2    1    2    0    0  0.00000000000E+00  0.00000000000E+00 -0.71544344737E+03  0.30833694415E+04  0.29992178624E+04 0.  0.
        5    1    3    3  502    0 -0.78143970340E+02 -0.65488808404E+03  0.10268473920E+04  0.12204190015E+04  0.46999998093E+01 0.  1.
       -5    1    3    3    0  502  0.78143970340E+02  0.65488808404E+03 -0.17422908394E+04  0.18629504400E+04  0.46999998093E+01 0. -1.
</event>
<event>
 5   0  0.1817566E-07  0.2999884E+04  0.7818609E-02  0.8243764E-01
       -2   -1    0    0    0  501  0.00000000000E+00  0.00000000000E+00  0.18005509113E+04  0.18005509113E+04  0.25500000920E-02 0. -1.
        2   -1    0    0  501    0  0.00000000000E+00  0.00000000000E+00 -0.12495209622E+04  0.12495209622E+04  0.25500000920E-02 0.  1.
    10030    2    1    2    0    0  0.00000000000E+00  0.00000000000E+00  0.55102994915E+03  0.30500718735E+04  0.29998840692E+04 0.  0.
        1    1    3    3  502    0 -0.10332691838E+04  0.91048722507E+03  0.87975878093E+03  0.16341994082E+04  0.50400001928E-02 0. -1.
       -1    1    3    3    0  502  0.10332691838E+04 -0.91048722507E+03 -0.32872883178E+03  0.14158724653E+04  0.50400001928E-02 0.  1.
</event>
<event>
 5   0  0.6374748E-08  0.2999985E+04  0.7818609E-02  0.8243735E-01
        1   -1    0    0  501    0  0.00000000000E+00  0.00000000000E+00  0.12167770562E+04  0.12167770562E+04  0.50400001928E-02 0. -1.
       -1   -1    0    0    0  501  0.00000000000E+00  0.00000000000E+00 -0.18491284874E+04  0.18491284874E+04  0.50400001928E-02 0.  1.
    10030    2    1    2    0    0  0.00000000000E+00  0.00000000000E+00 -0.63235143124E+03  0.30659055436E+04  0.29999847449E+04 0.  0.
        1    1    3    3  502    0  0.80626679346E+03  0.10891575514E+04 -0.97346198586E+03  0.16685198686E+04  0.50400001928E-02 0.  1.
       -1    1    3    3    0  502 -0.80626679346E+03 -0.10891575514E+04  0.34111055462E+03  0.13973856750E+04  0.50400001928E-02 0. -1.
</event>
<event>
 5   0  0.1813720E-07  0.3000265E+04  0.7818609E-02  0.8243655E-01
       -2   -1    0    0    0  501  0.00000000000E+00  0.00000000000E+00  0.10354599458E+04  0.10354599458E+04  0.25500000920E-02 0.  1.
        2   -1    0    0  501    0  0.00000000000E+00  0.00000000000E+00 -0.21733313799E+04  0.21733313799E+04  0.25500000920E-02 0. -1.
    10030    2    1    2    0    0  0.00000000000E+00  0.00000000000E+00 -0.11378714341E+04  0.32087913257E+04  0.30002650502E+04 0.  0.
        3    1    3    3  502    0  0.11063843859E+03 -0.14224272501E+03  0.10238419415E+04  0.10395798133E+04  0.10100000352E+00 0.  1.
       -3    1    3    3    0  502 -0.11063843859E+03  0.14224272501E+03 -0.21617133756E+04  0.21692115124E+04  0.10100000352E+00 0. -1.
</event>
<event>
 5   0  0.1810055E-07  0.3001777E+04  0.7818609E-02  0.8243224E-01
        2   -1    0    0  501    0  0.00000000000E+00  0.00000000000E+00  0.19767145992E+04  0.19767145993E+04  0.25500000920E-02 0. -1.
       -2   -1    0    0    0  501  0.00000000000E+00  0.00000000000E+00 -0.11396008903E+04  0.11396008903E+04  0.25500000920E-02 0.  1.
    10030    2    1    2    0    0  0.00000000000E+00  0.00000000000E+00  0.83711370891E+03  0.31163154896E+04  0.30017766188E+04 0.  0.
        4    1    3    3  502    0 -0.18793402362E+03 -0.72436585957E+03 -0.93210060213E+03  0.11953402198E+04  0.12699999809E+01 0.  1.
       -4    1    3    3    0  502  0.18793402362E+03  0.72436585957E+03  0.17692143110E+04  0.19209752698E+04  0.12699999809E+01 0. -1.
</event>
<event>
 5   0  0.1821305E-07  0.2998029E+04  0.7818609E-02  0.8244294E-01
       -2   -1    0    0    0  501  0.00000000000E+00  0.00000000000E+00  0.12850231612E+04  0.12850231612E+04  0.25500000920E-02 0.  1.
        2   -1    0    0  501    0  0.00000000000E+00  0.00000000000E+00 -0.17486412299E+04  0.17486412299E+04  0.25500000920E-02 0. -1.
    10030    2    1    2    0    0  0.00000000000E+00  0.00000000000E+00 -0.46361806876E+03  0.30336643911E+04  0.29980290066E+04 0.  0.
        2    1    3    3  502    0  0.86697502282E+03  0.67977405938E+03 -0.12604082364E+04  0.16740272950E+04  0.25500000920E-02 0. -1.
       -2    1    3    3    0  502 -0.86697502282E+03 -0.67977405938E+03  0.79679016760E+03  0.13596370961E+04  0.25500000920E-02 0.  1.
</event>
<event>
 5   0  0.1821305E-07  0.3002257E+04  0.7818609E-02  0.8243087E-01
       -2   -1    0    0    0  501  0.00000000000E+00  0.00000000000E+00  0.18486498964E+04  0.18486498964E+04  0.25500000920E-02 0.  1.
        2   -1    0    0  501    0  0.00000000000E+00  0.00000000000E+00 -0.12189360783E+04  0.12189360784E+04  0.25500000920E-02 0. -1.
    10030    2    1    2    0    0  0.00000000000E+00  0.00000000000E+00  0.62971381803E+03  0.30675859747E+04  0.30022565213E+04 0.  0.
        2    1    3    3  502    0  0.11986148376E+04  0.90254438074E+03  0.26778750420E+03  0.15241305835E+04  0.25500000920E-02 0. -1.
       -2    1    3    3    0  502 -0.11986148376E+04 -0.90254438074E+03  0.36192631383E+03  0.15434553912E+04  0.25500000920E-02 0.  1.
</event>
<event>
 5   0  0.1817566E-07  0.2998624E+04  0.7818609E-02  0.8244124E-01
       -2   -1    0    0    0  501  0.00000000000E+00  0.00000000000E+00  0.13591819059E+04  0.13591819059E+04  0.25500000920E-02 0.  1.
        2   -1    0    0  501    0  0.00000000000E+00  0.00000000000E+00 -0.16538895995E+04  0.16538895995E+04  0.25500000920E-02 0. -1.
    10030    2    1    2    0    0  0.00000000000E+00  0.00000000000E+00 -0.29470769362E+03  0.30130715054E+04  0.29986242299E+04 0.  0.
        1    1    3    3  502    0 -0.82681003509E+03  0.73591780603E+03 -0.11635358343E+04  0.16059282329E+04  0.50400001928E-02 0. -1.
       -1    1    3    3    0  502  0.82681003509E+03 -0.73591780603E+03  0.86882814069E+03  0.14071432725E+04  0.50400001928E-02 0.  1.
</event>
<event>
 5   0  0.6464436E-08  0.2998550E+04  0.7818609E-02  0.8244145E-01
       -1   -1    0    0    0  501  0.00000000000E+00  0.00000000000E+00  0.16049933255E+04  0.16049933255E+04  0.50400001928E-02 0.  1.
        1   -1    0    0  501    0  0.00000000000E+00  0.00000000000E+00 -0.14005206228E+04  0.14005206228E+04  0.50400001928E-02 0. -1.
    10030    2    1    2    0    0  0.00000000000E+00  0.00000000000E+00  0.20447270269E+03  0.30055139483E+04  0.29985504844E+04 0.  0.
        5    1    3    3  502    0 -0.76780561955E+03  0.11228295992E+04 -0.52972954001E+03  0.14597627389E+04  0.46999998093E+01 0.  1.
       -5    1    3    3    0  502  0.76780561955E+03 -0.11228295992E+04  0.73420224270E+03  0.15457512094E+04  0.46999998093E+01 0. -1.
</event>
<event>
 5   0  0.6374748E-08  0.2998748E+04  0.7818609E-02  0.8244089E-01
       -1   -1    0    0    0  501  0.00000000000E+00  0.00000000000E+00  0.14843566741E+04  0.14843566741E+04  0.50400001928E-02 0.  1.
        1   -1    0    0  501    0  0.00000000000E+00  0.00000000000E+00 -0.15145430134E+04  0.15145430134E+04  0.50400001928E-02 0. -1.
    10030    2    1    2    0    0  0.00000000000E+00  0.00000000000E+00 -0.30186339213E+02  0.29988996875E+04  0.29987477588E+04 0.  0.
        1    1    3    3  502    0 -0.99830033818E+03  0.15171648322E+03  0.10933404362E+04  0.14882925673E+04  0.50400001928E-02 0.  1.
       -1    1    3    3    0  502  0.99830033818E+03 -0.15171648322E+03 -0.11235267754E+04  0.15106071202E+04  0.50400001928E-02 0. -1.
</event>
<event>
 5   0  0.1817566E-07  0.3000069E+04  0.7818609E-02  0.8243711E-01
        2   -1    0    0  501    0  0.00000000000E+00  0.00000000000E+00  0.76956005239E+03  0.76956005239E+03  0.25500000920E-02 0. -1.
       -2   -1    0    0    0  501  0.00000000000E+00  0.00000000000E+00 -0.29238829698E+04  0.29238829698E+04  0.25500000920E-02 0.  1.
    10030    2    1    2    0    0  0.00000000000E+00  0.00000000000E+00 -0.21543229174E+04  0.36934430222E+04  0.30000690201E+04 0.  0.
        1    1    3    3  502    0  0.24149098904E+03  0.84261570645E+03 -0.25757854028E+04  0.27208435398E+04  0.50400001928E-02 0.  1.
       -1    1    3    3    0  502 -0.24149098904E+03 -0.84261570645E+03  0.42146248541E+03  0.97259948241E+03  0.50400001928E-02 0. -1.
</event>
<event>
 5   0  0.6636007E-08  0.3004148E+04  0.7818609E-02  0.8242547E-01
        1   -1    0    0  501    0  0.00000000000E+00  0.00000000000E+00  0.29181899820E+04  0.29181899820E+04  0.50400001928E-02 0. -1.
       -1   -1    0    0    0  501  0.00000000000E+00  0.00000000000E+00 -0.77315938967E+03  0.77315938968E+03  0.50400001928E-02 0.  1.
    10030    2    1    2    0    0  0.00000000000E+00  0.00000000000E+00  0.21450305923E+04  0.36913493717E+04  0.30041477896E+04 0.  0.
        2    1    3    3  502    0 -0.46129613141E+03  0.77539537193E+03  0.25481391998E+04  0.27031547283E+04  0.25500000920E-02 0. -1.
       -2    1    3    3    0  502  0.46129613141E+03 -0.77539537193E+03 -0.40310860750E+03  0.98819464334E+03  0.25500000920E-02 0.  1.
</event>
<event>
 5   0  0.6679022E-08  0.2999968E+04  0.7818609E-02  0.8243740E-01
       -1   -1    0    0    0  501  0.00000000000E+00  0.00000000000E+00  0.12124611098E+04  0.12124611098E+04  0.50400001928E-02 0. -1.
        1   -1    0    0  501    0  0.00000000000E+00  0.00000000000E+00 -0.18556905674E+04  0.18556905674E+04  0.50400001928E-02 0.  1.
    10030    2    1    2    0    0  0.00000000000E+00  0.00000000000E+00 -0.64322945765E+03  0.30681516772E+04  0.29999684297E+04 0.  0.
        3    1    3    3  502    0 -0.67981619976E+03  0.12175824347E+04 -0.88670834655E+03  0.16525461424E+04  0.10100000352E+00 0.  1.
       -3    1    3    3    0  502  0.67981619976E+03 -0.12175824347E+04  0.24347888890E+03  0.14156055348E+04  0.10100000352E+00 0. -1.
</event>
<event>
 5   0  0.6525507E-08  0.2996608E+04  0.7818609E-02  0.8244700E-01
       -1   -1    0    0    0  501  0.00000000000E+00  0.00000000000E+00  0.15060502883E+04  0.15060502883E+04  0.50400001928E-02 0. -1.
        1   -1    0    0  501    0  0.00000000000E+00  0.00000000000E+00 -0.14905976510E+04  0.14905976510E+04  0.50400001928E-02 0.  1.
    10030    2    1    2    0    0  0.00000000000E+00  0.00000000000E+00  0.15452637267E+02  0.29966479393E+04  0.29966080972E+04 0.  0.
        4    1    3    3  502    0  0.13904850261E+04 -0.55750063075E+03  0.33375208659E+02  0.14984562318E+04  0.12699999809E+01 0.  1.
       -4    1    3    3    0  502 -0.13904850261E+04  0.55750063075E+03 -0.17922571392E+02  0.14981917075E+04  0.12699999809E+01 0. -1.
</event>
<event>
 5   0  0.1817566E-07  0.2994815E+04  0.7818609E-02  0.8245213E-01
       -2   -1    0    0    0  501  0.00000000000E+00  0.00000000000E+00  0.15607601369E+04  0.15607601369E+04  0.25500000920E-02 0. -1.
        2   -1    0    0  501    0  0.00000000000E+00  0.00000000000E+00 -0.14366268753E+04  0.14366268753E+04  0.25500000920E-02 0.  1.
    10030    2    1    2    0    0  0.00000000000E+00  0.00000000000E+00  0.12413326165E+03  0.29973870122E+04  0.29948154926E+04 0.  0.
        1    1    3    3  502    0  0.90024819714E+03 -0.83140840441E+03 -0.79922048658E+03  0.14630243120E+04  0.50400001928E-02 0.  1.
       -1    1    3    3    0  502 -0.90024819714E+03  0.83140840441E+03  0.92335374822E+03  0.15343627002E+04  0.50400001928E-02 0. -1.
</event>
<event>
 5   0  0.6636007E-08  0.3000709E+04  0.7818609E-02  0.8243528E-01
       -1   -1    0    0    0  501  0.00000000000E+00  0.00000000000E+00  0.12400193674E+04  0.12400193675E+04  0.50400001928E-02 0.  1.
        1   -1    0    0  501    0  0.00000000000E+00  0.00000000000E+00 -0.18153455837E+04  0.18153455837E+04  0.50400001928E-02 0. -1.
    10030    2    1    2    0    0  0.00000000000E+00  0.00000000000E+00 -0.57532621628E+03  0.30553649512E+04  0.30007090379E+04 0.  0.
        2    1    3    3  502    0  0.14136619579E+04  0.49228273419E+03 -0.39090653143E+03  0.15471232459E+04  0.25500000920E-02 0.  1.
       -2    1    3    3    0  502 -0.14136619579E+04 -0.49228273419E+03 -0.18441968485E+03  0.15082417053E+04  0.25500000920E-02 0. -1.
</event>
<event>
 5   0  0.6464436E-08  0.2998554E+04  0.7818609E-02  0.8244144E-01
        1   -1    0    0  501    0  0.00000000000E+00  0.00000000000E+00  0.13489108330E+04  0.13489108330E+04  0.50400001928E-02 0.  1.
       -1   -1    0    0    0  501  0.00000000000E+00  0.00000000000E+00 -0.16664053548E+04  0.16664053548E+04  0.50400001928E-02 0. -1.
    10030    2    1    2    0    0  0.00000000000E+00  0.00000000000E+00 -0.31749452172E+03  0.30153161878E+04  0.29985544753E+04 0.  0.
        5    1    3    3  502    0 -0.70332833945E+03  0.95770233340E+03 -0.10781587632E+04  0.16044665535E+04  0.46999998093E+01 0. -1.
       -5    1    3    3    0  502  0.70332833945E+03 -0.95770233340E+03  0.76066424149E+03  0.14108496344E+04  0.46999998093E+01 0.  1.
</event>
<event>
 5   0  0.6464436E-08  0.2995257E+04  0.7818609E-02  0.8245086E-01
        1   -1    0    0  501    0  0.00000000000E+00  0.00000000000E+00  0.15548157510E+04  0.15548157510E+04  0.50400001928E-02 0.  1.
       -1   -1    0    0    0  501  0.00000000000E+00  0.00000000000E+00 -0.14425450083E+04  0.14425450083E+04  0.50400001928E-02 0. -1.
    10030    2    1    2    0    0  0.00000000000E+00  0.00000000000E+00  0.11227074273E+03  0.29973607593E+04  0.29952573849E+04 0.  0.
        5    1    3    3  502    0  0.13126507402E+04  0.58081816843E+03  0.48359795507E+03  0.15146916461E+04  0.46999998093E+01 0. -1.
       -5    1    3    3    0  502 -0.13126507402E+04 -0.58081816843E+03 -0.37132721234E+03  0.14826691132E+04  0.46999998093E+01 0.  1.
</event>
<event>
 5   0  0.1817566E-07  0.3000658E+04  0.7818609E-02  0.8243543E-01
        2   -1    0    0  501    0  0.00000000000E+00  0.00000000000E+00  0.26818265449E+04  0.26818265449E+04  0.25500000920E-02 0.  1.
       -2   -1    0    0    0  501  0.00000000000E+00  0.00000000000E+00 -0.83934826921E+03  0.83934826922E+03  0.25500000920E-02 0. -1.
    10030    2    1    2    0    0  0.00000000000E+00  0.00000000000E+00  0.18424782757E+04  0.35211748141E+04  0.30006575738E+04 0.  0.
        1    1    3    3  502    0 -0.86122479127E+03  0.10601643042E+04  0.19280960263E+03  0.13794317801E+04  0.50400001928E-02 0. -1.
       -1    1    3    3    0  502  0.86122479127E+03 -0.10601643042E+04  0.16496686731E+04  0.21417430341E+04  0.50400001928E-02 0.  1.
</event>
<event>
 5   0  0.6464436E-08  0.2994998E+04  0.7818609E-02  0.8245161E-01
       -1   -1    0    0    0  501  0.00000000000E+00  0.00000000000E+00  0.10343630583E+04  0.10343630583E+04  0.50400001928E-02 0. -1.
        1   -1    0    0  501    0  0.00000000000E+00  0.00000000000E+00 -0.21680039367E+04  0.21680039367E+04  0.50400001928E-02 0.  1.
    10030    2    1    2    0    0  0.00000000000E+00  0.00000000000E+00 -0.11336408784E+04  0.32023669950E+04  0.29949979515E+04 0.  0.
        5    1    3    3  502    0  0.61984706991E+03 -0.54833638695E+03  0.76762938614E+03  0.11287870250E+04  0.46999998093E+01 0. -1.
       -5    1    3    3    0  502 -0.61984706991E+03  0.54833638695E+03 -0.19012702645E+04  0.20735799700E+04  0.46999998093E+01 0.  1.
</event>
<event>
 5   0  0.1821305E-07  0.2999705E+04  0.7818609E-02  0.8243815E-01
       -2   -1    0    0    0  501  0.00000000000E+00  0.00000000000E+00  0.17489297897E+04  0.17489297897E+04  0.25500000920E-02 0.  1.
        2   -1    0    0  501    0  0.00000000000E+00  0.00000000000E+00 -0.12862480381E+04  0.12862480381E+04  0.25500000920E-02 0. -1.
    10030    2    1    2    0    0  0.00000000000E+00  0.00000000000E+00  0.46268175160E+03  0.30351778278E+04  0.29997049927E+04 0.  0.
        2    1    3    3  502    0 -0.78961359247E+03 -0.78765222920E+02  0.15191303228E+04  0.17138992163E+04  0.25500000920E-02 0.  1.
       -2    1    3    3    0  502  0.78961359247E+03  0.78765222920E+02 -0.10564485712E+04  0.13212786116E+04  0.25500000920E-02 0. -1.
</event>
<event>
 5   0  0.6636007E-08  0.3002577E+04  0.7818609E-02  0.8242995E-01
       -1   -1    0    0    0  501  0.00000000000E+00  0.00000000000E+00  0.83013936189E+03  0.83013936191E+03  0.50400001928E-02 0.  1.
        1   -1    0    0  501    0  0.00000000000E+00  0.00000000000E+00 -0.27150467489E+04  0.27150467489E+04  0.50400001928E-02 0. -1.
    10030    2    1    2    0    0  0.00000000000E+00  0.00000000000E+00 -0.18849073870E+04  0.35451861108E+04  0.30025770103E+04 0.  0.
        2    1    3    3  502    0 -0.86429736192E+03 -0.10898449888E+04 -0.16094216713E+04  0.21272071233E+04  0.25500000920E-02 0. -1.
       -2    1    3    3    0  502  0.86429736192E+03  0.10898449888E+04 -0.27548571573E+03  0.14179789875E+04  0.25500000920E-02 0.  1.
</event>
<event>
 5   0  0.1914439E-07  0.2999449E+04  0.7818609E-02  0.8243888E-01
        2   -1    0    0  501    0  0.00000000000E+00  0.00000000000E+00  0.21443296744E+04  0.21443296745E+04  0.25500000920E-02 0.  1.
       -2   -1    0    0    0  501  0.00000000000E+00  0.00000000000E+00 -0.10488936793E+04  0.10488936793E+04  0.25500000920E-02 0. -1.
    10030    2    1    2    0    0  0.00000000000E+00  0.00000000000E+00  0.10954359951E+04  0.31932233538E+04  0.29994491774E+04 0.  0.
        5    1    3    3  502    0  0.58220694496E+03  0.12477821348E+04 -0.85006239518E+02  0.13795554840E+04  0.46999998093E+01 0. -1.
       -5    1    3    3    0  502 -0.58220694496E+03 -0.12477821348E+04  0.11804422347E+04  0.18136678698E+04  0.46999998093E+01 0.  1.
</event>
<event>
 5   0  0.1810055E-07  0.3001361E+04  0.7818609E-02  0.8243342E-01
        2   -1    0    0  501    0  0.00000000000E+00  0.00000000000E+00  0.10814695318E+04  0.10814695318E+04  0.25500000920E-02 0. -1.
       -2   -1    0    0    0  501  0.00000000000E+00  0.00000000000E+00 -0.20823911400E+04  0.20823911400E+04  0.25500000920E-02 0.  1.
    10030    2    1    2    0    0  0.00000000000E+00  0.00000000000E+00 -0.10009216082E+04  0.31638606718E+04  0.30013614052E+04 0.  0.
        4    1    3    3  502    0 -0.11726701666E+04  0.47816190270E+03  0.34826861946E+03  0.13134255856E+04  0.12699999809E+01 0. -1.
       -4    1    3    3    0  502  0.11726701666E+04 -0.47816190270E+03 -0.13491902277E+04  0.18504350861E+04  0.12699999809E+01 0.  1.
</event>
<event>
 5   0  0.1810055E-07  0.2995099E+04  0.7818609E-02  0.8245132E-01
        2   -1    0    0  501    0  0.00000000000E+00  0.00000000000E+00  0.18946183888E+04  0.18946183888E+04  0.25500000920E-02 0.  1.
       -2   -1    0    0    0  501  0.00000000000E+00  0.00000000000E+00 -0.11836973004E+04  0.11836973004E+04  0.25500000920E-02 0. -1.
    10030    2    1    2    0    0  0.00000000000E+00  0.00000000000E+00  0.71092108847E+03  0.30783156892E+04  0.29950991116E+04 0.  0.
        4    1    3    3  502    0  0.29488735520E+03  0.12438619650E+04 -0.44627831458E+03  0.13540004015E+04  0.12699999809E+01 0. -1.
       -4    1    3    3    0  502 -0.29488735520E+03 -0.12438619650E+04  0.11571994031E+04  0.17243152877E+04  0.12699999809E+01 0.  1.
</event>
<event>
 5   0  0.6464436E-08  0.2998951E+04  0.7818609E-02  0.8244031E-01
       -1   -1    0    0    0  501  0.00000000000E+00  0.00000000000E+00  0.11553208446E+04  0.11553208446E+04  0.50400001928E-02 0. -1.
        1   -1    0    0  501    0  0.00000000000E+00  0.00000000000E+00 -0.19461490267E+04  0.19461490267E+04  0.50400001928E-02 0.  1.
    10030    2    1    2    0    0  0.00000000000E+00  0.00000000000E+00 -0.79082818211E+03  0.31014698713E+04  0.29989508413E+04 0.  0.
        5    1    3    3  502    0 -0.47003071348E+02 -0.63267496561E+02  0.11531695107E+04  0.11558694024E+04  0.46999998093E+01 0. -1.
       -5    1    3    3    0  502  0.47003071348E+02  0.63267496561E+02 -0.19439976928E+04  0.19456004689E+04  0.46999998093E+01 0.  1.
</event>
<event>
 5   0  0.6017625E-08  0.2999118E+04  0.7818609E-02  0.8243983E-01
        3   -1    0    0  501    0  0.00000000000E+00  0.00000000000E+00  0.16095274386E+04  0.16095274418E+04  0.10100000352E+00 0. -1.
       -3   -1    0    0    0  501  0.00000000000E+00  0.00000000000E+00 -0.13971038351E+04  0.13971038387E+04  0.10100000352E+00 0.  1.
    10030    2    1    2    0    0  0.00000000000E+00  0.00000000000E+00  0.21242360354E+03  0.30066312805E+04  0.29991178486E+04 0.  0.
        2    1    3    3  502    0 -0.13122463325E+04  0.72056192000E+03  0.19525241113E+02  0.14971910876E+04  0.25500000920E-02 0.  1.
       -2    1    3    3    0  502  0.13122463325E+04 -0.72056192000E+03  0.19289836243E+03  0.15094401929E+04  0.25500000920E-02 0. -1.
</event>
<event>
 5   0  0.6464436E-08  0.3000408E+04  0.7818609E-02  0.8243614E-01
        1   -1    0    0  501    0  0.00000000000E+00  0.00000000000E+00  0.17254066050E+04  0.17254066050E+04  0.50400001928E-02 0. -1.
       -1   -1    0    0    0  501  0.00000000000E+00  0.00000000000E+00 -0.13043949748E+04  0.13043949748E+04  0.50400001928E-02 0.  1.
    10030    2    1    2    0    0  0.00000000000E+00  0.00000000000E+00  0.42101163021E+03  0.30298015799E+04  0.30004077757E+04 0.  0.
        5    1    3    3  502    0 -0.37329894661E+03 -0.14098116720E+04 -0.14460472201E+03  0.14655557546E+04  0.46999998093E+01 0. -1.
       -5    1    3    3    0  502  0.37329894661E+03  0.14098116720E+04  0.56561635222E+03  0.15642458253E+04  0.46999998093E+01 0.  1.
</event>
<event>
 5   0  0.1810055E-07  0.2999839E+04  0.7818609E-02  0.8243777E-01
       -2   -1    0    0    0  501  0.00000000000E+00  0.00000000000E+00  0.10642184135E+04  0.10642184135E+04  0.25500000920E-02 0.  1.
        2   -1    0    0  501    0  0.00000000000E+00  0.00000000000E+00 -0.21140006546E+04  0.21140006546E+04  0.25500000920E-02 0. -1.
    10030    2    1    2    0    0  0.00000000000E+00  0.00000000000E+00 -0.10497822411E+04  0.31782190681E+04  0.29998389441E+04 0.  0.
        4    1    3    3  502    0 -0.12883794943E+04 -0.50981426060E+03 -0.11334367940E+04  0.17901153260E+04  0.12699999809E+01 0. -1.
       -4    1    3    3    0  502  0.12883794943E+04  0.50981426060E+03  0.83654552939E+02  0.13881037420E+04  0.12699999809E+01 0.  1.
</event>
<event>
 5   0  0.1914439E-07  0.3011275E+04  0.7818609E-02  0.8240519E-01
        2   -1    0    0  501    0  0.00000000000E+00  0.00000000000E+00  0.15476362395E+04  0.15476362395E+04  0.25500000920E-02 0. -1.
       -2   -1    0    0    0  501  0.00000000000E+00  0.00000000000E+00 -0.14647780220E+04  0.14647780220E+04  0.25500000920E-02 0.  1.
    10030    2    1    2    0    0  0.00000000000E+00  0.00000000000E+00  0.82858217511E+02  0.30124142615E+04  0.30112745140E+04 0.  0.
        5    1    3    3  502    0  0.14060047547E+03 -0.10469989156E+02  0.15410106002E+04  0.15474539974E+04  0.46999998093E+01 0. -1.
       -5    1    3    3    0  502 -0.14060047547E+03  0.10469989156E+02 -0.14581523827E+04  0.14649602641E+04  0.46999998093E+01 0.  1.
</event>
<event>
 5   0  0.6679022E-08  0.2999974E+04  0.7818609E-02  0.8243738E-01
        1   -1    0    0  501    0  0.00000000000E+00  0.00000000000E+00  0.14982605297E+04  0.14982605297E+04  0.50400001928E-02 0. -1.
       -1   -1    0    0    0  501  0.00000000000E+00  0.00000000000E+00 -0.15017152230E+04  0.15017152230E+04  0.50400001928E-02 0.  1.
    10030    2    1    2    0    0  0.00000000000E+00  0.00000000000E+00 -0.34546933191E+01  0.29999757526E+04  0.29999737635E+04 0.  0.
        3    1    3    3  502    0 -0.61343098661E+03  0.10718970908E+02  0.13670497163E+04  0.14984116286E+04  0.10100000352E+00 0. -1.
       -3    1    3    3    0  502  0.61343098661E+03 -0.10718970908E+02 -0.13705044096E+04  0.15015641241E+04  0.10100000352E+00 0.  1.
</event>
<event>
 5   0  0.1810055E-07  0.2997511E+04  0.7818609E-02  0.8244442E-01
       -2   -1    0    0    0  501  0.00000000000E+00  0.00000000000E+00  0.10629568995E+04  0.10629568995E+04  0.25500000920E-02 0.  1.
        2   -1    0    0  501    0  0.00000000000E+00  0.00000000000E+00 -0.21132262971E+04  0.21132262971E+04  0.25500000920E-02 0. -1.
    10030    2    1    2    0    0  0.00000000000E+00  0.00000000000E+00 -0.10502693976E+04  0.31761831967E+04  0.29975112829E+04 0.  0.
        4    1    3    3  502    0 -0.37629811499E+02  0.48681002786E+03 -0.20265891871E+04  0.20845779794E+04  0.12699999809E+01 0. -1.
       -4    1    3    3    0  502  0.37629811499E+02 -0.48681002786E+03  0.97631978956E+03  0.10916052172E+04  0.12699999809E+01 0.  1.
</event>
<event>
 5   0  0.1817566E-07  0.3001419E+04  0.7818609E-02  0.8243326E-01
        2   -1    0    0  501    0  0.00000000000E+00  0.00000000000E+00  0.20277491120E+04  0.20277491120E+04  0.25500000920E-02 0.  1.
       -2   -1    0    0    0  501  0.00000000000E+00  0.00000000000E+00 -0.11106545372E+04  0.11106545372E+04  0.25500000920E-02 0. -1.
    10030    2    1    2    0    0  0.00000000000E+00  0.00000000000E+00  0.91709457476E+03  0.31384036492E+04  0.30014188322E+04 0.  0.
        1    1    3    3  502    0 -0.82612756090E+02  0.76013588857E+03 -0.89170452403E+03  0.11746354306E+04  0.50400001928E-02 0. -1.
       -1    1    3    3    0  502  0.82612756090E+02 -0.76013588857E+03  0.18087990988E+04  0.19637682186E+04  0.50400001928E-02 0.  1.
</event>
<event>
 5   0  0.6679022E-08  0.3000178E+04  0.7818609E-02  0.8243680E-01
       -1   -1    0    0    0  501  0.00000000000E+00  0.00000000000E+00  0.11955994496E+04  0.11955994496E+04  0.50400001928E-02 0.  1.
        1   -1    0    0  501    0  0.00000000000E+00  0.00000000000E+00 -0.18821250645E+04  0.18821250645E+04  0.50400001928E-02 0. -1.
    10030    2    1    2    0    0  0.00000000000E+00  0.00000000000E+00 -0.68652561489E+03  0.30777245141E+04  0.30001784555E+04 0.  0.
        3    1    3    3  502    0 -0.11194986439E+04  0.99218869407E+03 -0.22833100842E+03  0.15132252568E+04  0.10100000352E+00 0. -1.
       -3    1    3    3    0  502  0.11194986439E+04 -0.99218869407E+03 -0.45819460647E+03  0.15644992572E+04  0.10100000352E+00 0.  1.
</event>
<event>
 5   0  0.1813720E-07  0.2999657E+04  0.7818609E-02  0.8243829E-01
       -2   -1    0    0    0  501  0.00000000000E+00  0.00000000000E+00  0.17067733831E+04  0.17067733831E+04  0.25500000920E-02 0.  1.
        2   -1    0    0  501    0  0.00000000000E+00  0.00000000000E+00 -0.13179754367E+04  0.13179754367E+04  0.25500000920E-02 0. -1.
    10030    2    1    2    0    0  0.00000000000E+00  0.00000000000E+00  0.38879794644E+03  0.30247488198E+04  0.29996569103E+04 0.  0.
        3    1    3    3  502    0  0.60654600933E+03 -0.11711412423E+04  0.91452652107E+03  0.16049388271E+04  0.10100000352E+00 0.  1.
       -3    1    3    3    0  502 -0.60654600933E+03  0.11711412423E+04 -0.52572857462E+03  0.14198099927E+04  0.10100000352E+00 0. -1.
</event>
<event>
 5   0  0.6679022E-08  0.2999331E+04  0.7818609E-02  0.8243922E-01
       -1   -1    0    0    0  501  0.00000000000E+00  0.00000000000E+00  0.11027925967E+04  0.11027925967E+04  0.50400001928E-02 0.  1.
        1   -1    0    0  501    0  0.00000000000E+00  0.00000000000E+00 -0.20393654472E+04  0.20393654472E+04  0.50400001928E-02 0. -1.
    10030    2    1    2    0    0  0.00000000000E+00  0.00000000000E+00 -0.93657285051E+03  0.31421580439E+04  0.29993313369E+04 0.  0.
        3    1    3    3  502    0 -0.82597580229E+03 -0.19560828158E+03 -0.17634841895E+04  0.19571344160E+04  0.10100000352E+00 0. -1.
       -3    1    3    3    0  502  0.82597580229E+03  0.19560828158E+03  0.82691133894E+03  0.11850236278E+04  0.10100000352E+00 0.  1.
</event>
<event>
 5   0  0.6464436E-08  0.3000170E+04  0.7818609E-02  0.8243682E-01
       -1   -1    0    0    0  501  0.00000000000E+00  0.00000000000E+00  0.15291293641E+04  0.15291293641E+04  0.50400001928E-02 0. -1.
        1   -1    0    0  501    0  0.00000000000E+00  0.00000000000E+00 -0.14715923858E+04  0.14715923858E+04  0.50400001928E-02 0.  1.
    10030    2    1    2    0    0  0.00000000000E+00  0.00000000000E+00  0.57536978278E+02  0.30007217499E+04  0.30001700813E+04 0.  0.
        5    1    3    3  502    0  0.13368350262E+04 -0.68014686453E+03  0.62833726004E+01  0.14999297368E+04  0.46999998093E+01 0. -1.
       -5    1    3    3    0  502 -0.13368350262E+04  0.68014686453E+03  0.51253605677E+02  0.15007920131E+04  0.46999998093E+01 0.  1.
</event>
<event>
 5   0  0.6374748E-08  0.3002213E+04  0.7818609E-02  0.8243099E-01
        1   -1    0    0  501    0  0.00000000000E+00  0.00000000000E+00  0.24307354900E+04  0.24307354900E+04  0.50400001928E-02 0.  1.
       -1   -1    0    0    0  501  0.00000000000E+00  0.00000000000E+00 -0.92701209144E+03  0.92701209145E+03  0.50400001928E-02 0. -1.
    10030    2    1    2    0    0  0.00000000000E+00  0.00000000000E+00  0.15037233986E+04  0.33577475815E+04  0.30022133104E+04 0.  0.
        1    1    3    3  502    0  0.50060065017E+03  0.59032293961E+03  0.21903476593E+04  0.23230809398E+04  0.50400001928E-02 0.  1.
       -1    1    3    3    0  502 -0.50060065017E+03 -0.59032293961E+03 -0.68662426075E+03  0.10346666417E+04  0.50400001928E-02 0. -1.
</event>
<event>
 5   0  0.6374748E-08  0.2999637E+04  0.7818609E-02  0.8243835E-01
       -1   -1    0    0    0  501  0.00000000000E+00  0.00000000000E+00  0.89362655119E+03  0.89362655120E+03  0.50400001928E-02 0.  1.
        1   -1    0    0  501    0  0.00000000000E+00  0.00000000000E+00 -0.25172205664E+04  0.25172205664E+04  0.50400001928E-02 0. -1.
    10030    2    1    2    0    0  0.00000000000E+00  0.00000000000E+00 -0.16235940152E+04  0.34108471176E+04  0.29996367336E+04 0.  0.
        1    1    3    3  502    0  0.13716020204E+04 -0.44197083920E+03 -0.12845090131E+04  0.19304387402E+04  0.50400001928E-02 0. -1.
       -1    1    3    3    0  502 -0.13716020204E+04  0.44197083920E+03 -0.33908500217E+03  0.14804083774E+04  0.50400001928E-02 0.  1.
</event>
<event>
 5   0  0.1813720E-07  0.3000698E+04  0.7818609E-02  0.8243532E-01
       -2   -1    0    0    0  501  0.00000000000E+00  0.00000000000E+00  0.13085349267E+04  0.13085349267E+04  0.25500000920E-02 0. -1.
        2   -1    0    0  501    0  0.00000000000E+00  0.00000000000E+00 -0.17202803598E+04  0.17202803598E+04  0.25500000920E-02 0.  1.
    10030    2    1    2    0    0  0.00000000000E+00  0.00000000000E+00 -0.41174543309E+03  0.30288152866E+04  0.30006978752E+04 0.  0.
        3    1    3    3  502    0 -0.81948276285E+03 -0.51564479329E+03 -0.13627384991E+04  0.16716751415E+04  0.10100000352E+00 0.  1.
       -3    1    3    3    0  502  0.81948276285E+03  0.51564479329E+03  0.95099306606E+03  0.13571401451E+04  0.10100000352E+00 0. -1.
</event>
<event>
 5   0  0.6374748E-08  0.3000217E+04  0.7818609E-02  0.8243669E-01
       -1   -1    0    0    0  501  0.00000000000E+00  0.00000000000E+00  0.11745863569E+04  0.11745863569E+04  0.50400001928E-02 0. -1.
        1   -1    0    0  501    0  0.00000000000E+00  0.00000000000E+00 -0.19158456257E+04  0.19158456257E+04  0.50400001928E-02 0.  1.
    10030    2    1    2    0    0  0.00000000000E+00  0.00000000000E+00 -0.74125926882E+03  0.30904319826E+04  0.30002174147E+04 0.  0.
        1    1    3    3  502    0  0.23321029904E+03 -0.11218204238E+04 -0.13679676608E+04  0.17844336995E+04  0.50400001928E-02 0.  1.
       -1    1    3    3    0  502 -0.23321029904E+03  0.11218204238E+04  0.62670839199E+03  0.13059982831E+04  0.50400001928E-02 0. -1.
</event>
<event>
 5   0  0.6636007E-08  0.2999841E+04  0.7818609E-02  0.8243776E-01
       -1   -1    0    0    0  501  0.00000000000E+00  0.00000000000E+00  0.10541108670E+04  0.10541108670E+04  0.50400001928E-02 0. -1.
        1   -1    0    0  501    0  0.00000000000E+00  0.00000000000E+00 -0.21342740851E+04  0.21342740851E+04  0.50400001928E-02 0.  1.
    10030    2    1    2    0    0  0.00000000000E+00  0.00000000000E+00 -0.10801632180E+04  0.31883849521E+04  0.29998410000E+04 0.  0.
        2    1    3    3  502    0 -0.89942135786E+03 -0.59585564775E+03 -0.16475700143E+04  0.19693881497E+04  0.25500000920E-02 0.  1.
       -2    1    3    3    0  502  0.89942135786E+03  0.59585564775E+03  0.56740679629E+03  0.12189968025E+04  0.25500000920E-02 0. -1.
</event>
<event>
 5   0  0.6464436E-08  0.3000625E+04  0.7818609E-02  0.8243552E-01
       -1   -1    0    0    0  501  0.00000000000E+00  0.00000000000E+00  0.88250901911E+03  0.88250901913E+03  0.50400001928E-02 0. -1.
        1   -1    0    0  501    0  0.00000000000E+00  0.00000000000E+00 -0.25506112090E+04  0.25506112090E+04  0.50400001928E-02 0.  1.
    10030    2    1    2    0    0  0.00000000000E+00  0.00000000000E+00 -0.16681021899E+04  0.34331202282E+04  0.30006248658E+04 0.  0.
        5    1    3    3  502    0  0.10200633220E+04  0.81817212992E+03 -0.16755782037E+04  0.21254456525E+04  0.46999998093E+01 0.  1.
       -5    1    3    3    0  502 -0.10200633220E+04 -0.81817212992E+03  0.74760137468E+01  0.13076745757E+04  0.46999998093E+01 0. -1.
</event>
<event>
 5   0  0.1810055E-07  0.3000221E+04  0.7818609E-02  0.8243668E-01
       -2   -1    0    0    0  501  0.00000000000E+00  0.00000000000E+00  0.13444688307E+04  0.13444688307E+04  0.25500000920E-02 0. -1.
        2   -1    0    0  501    0  0.00000000000E+00  0.00000000000E+00 -0.16737694097E+04  0.16737694097E+04  0.25500000920E-02 0.  1.
    10030    2    1    2    0    0  0.00000000000E+00  0.00000000000E+00 -0.32930057893E+03  0.30182382404E+04  0.30002205260E+04 0.  0.
        4    1    3    3  502    0 -0.19982202963E+03 -0.13189688161E+04  0.52556155232E+03  0.14338145415E+04  0.12699999809E+01 0. -1.
       -4    1    3    3    0  502  0.19982202963E+03  0.13189688161E+04 -0.85486213125E+03  0.15844236989E+04  0.12699999809E+01 0.  1.
</event>
<event>
 5   0  0.1813720E-07  0.3001774E+04  0.7818609E-02  0.8243225E-01
        2   -1    0    0  501    0  0.00000000000E+00  0.00000000000E+00  0.23455842053E+04  0.23455842053E+04  0.25500000920E-02 0.  1.
       -2   -1    0    0    0  501  0.00000000000E+00  0.00000000000E+00 -0.96038395514E+03  0.96038395515E+03  0.25500000920E-02 0. -1.
    10030    2    1    2    0    0  0.00000000000E+00  0.00000000000E+00  0.13852002501E+04  0.33059681604E+04  0.30017737664E+04 0.  0.
        3    1    3    3  502    0 -0.83538803298E+03  0.90503473891E+03  0.16372507135E+04  0.20487925599E+04  0.10100000352E+00 0.  1.
       -3    1    3    3    0  502  0.83538803298E+03 -0.90503473891E+03 -0.25205046340E+03  0.12571756005E+04  0.10100000352E+00 0. -1.
</event>
<event>
 5   0  0.6525507E-08  0.2999813E+04  0.7818609E-02  0.8243784E-01
        1   -1    0    0  501    0  0.00000000000E+00  0.00000000000E+00  0.25841269619E+04  0.25841269619E+04  0.50400001928E-02 0.  1.
       -1   -1    0    0    0  501  0.00000000000E+00  0.00000000000E+00 -0.87059141982E+03  0.87059141984E+03  0.50400001928E-02 0. -1.
    10030    2    1    2    0    0  0.00000000000E+00  0.00000000000E+00  0.17135355420E+04  0.34547183817E+04  0.29998125013E+04 0.  0.
        4    1    3    3  502    0 -0.95650808625E+03  0.70757809095E+03  0.19085811969E+04  0.22490571962E+04  0.12699999809E+01 0.  1.
       -4    1    3    3    0  502  0.95650808625E+03 -0.70757809095E+03 -0.19504565482E+03  0.12056611855E+04  0.12699999809E+01 0. -1.
</event>
<event>
 5   0  0.6636007E-08  0.2999699E+04  0.7818609E-02  0.8243817E-01
        1   -1    0    0  501    0  0.00000000000E+00  0.00000000000E+00  0.10573313412E+04  0.10573313412E+04  0.50400001928E-02 0. -1.
       -1   -1    0    0    0  501  0.00000000000E+00  0.00000000000E+00 -0.21275721543E+04  0.21275721543E+04  0.50400001928E-02 0.  1.
    10030    2    1    2    0    0  0.00000000000E+00  0.00000000000E+00 -0.10702408131E+04  0.31849034956E+04  0.29996991313E+04 0.  0.
        2    1    3    3  502    0  0.76545265205E+03  0.12605837658E+04 -0.82503504893E+03  0.16898733755E+04  0.25500000920E-02 0.  1.
       -2    1    3    3    0  502 -0.76545265205E+03 -0.12605837658E+04 -0.24520576418E+03  0.14950301201E+04  0.25500000920E-02 0. -1.
</event>
<event>
 5   0  0.6525507E-08  0.3002339E+04  0.7818609E-02  0.8243063E-01
       -1   -1    0    0    0  501  0.00000000000E+00  0.00000000000E+00  0.27193482477E+04  0.27193482477E+04  0.50400001928E-02 0. -1.
        1   -1    0    0  501    0  0.00000000000E+00  0.00000000000E+00 -0.82869459681E+03  0.82869459682E+03  0.50400001928E-02 0.  1.
    10030    2    1    2    0    0  0.00000000000E+00  0.00000000000E+00  0.18906536509E+04  0.35480428445E+04  0.30023385550E+04 0.  0.
        4    1    3    3  502    0 -0.14037154841E+04 -0.48590176768E+03  0.12014986999E+04  0.19105283110E+04  0.12699999809E+01 0. -1.
       -4    1    3    3    0  502  0.14037154841E+04  0.48590176768E+03  0.68915495094E+03  0.16375145335E+04  0.12699999809E+01 0.  1.
</event>
<event>
 5   0  0.6374748E-08  0.2999788E+04  0.7818609E-02  0.8243792E-01
       -1   -1    0    0    0  501  0.00000000000E+00  0.00000000000E+00  0.12394048674E+04  0.12394048674E+04  0.50400001928E-02 0. -1.
        1   -1    0    0  501    0  0.00000000000E+00  0.00000000000E+00 -0.18151302560E+04  0.18151302560E+04  0.50400001928E-02 0.  1.
    10030    2    1    2    0    0  0.00000000000E+00  0.00000000000E+00 -0.57572538863E+03  0.30545351234E+04  0.29997875086E+04 0.  0.
        1    1    3    3  502    0 -0.47578412347E+02 -0.56561352813E+03 -0.17015446057E+04  0.17937213869E+04  0.50400001928E-02 0.  1.
       -1    1    3    3    0  502  0.47578412347E+02  0.56561352813E+03  0.11258192171E+04  0.12608137365E+04  0.50400001928E-02 0. -1.
</event>
<event>
 5   0  0.6017625E-08  0.2999695E+04  0.7818609E-02  0.8243818E-01
       -3   -1    0    0    0  501  0.00000000000E+00  0.00000000000E+00  0.15217943809E+04  0.15217943842E+04  0.10100000352E+00 0. -1.
        3   -1    0    0  501    0  0.00000000000E+00  0.00000000000E+00 -0.14782167895E+04  0.14782167929E+04  0.10100000352E+00 0.  1.
    10030    2    1    2    0    0  0.00000000000E+00  0.00000000000E+00  0.43577591414E+02  0.30000111771E+04  0.29996946605E+04 0.  0.
        5    1    3    3  502    0  0.41578309050E+03  0.10655296508E+04 -0.94851505494E+03  0.14859111395E+04  0.46999998093E+01 0.  1.
       -5    1    3    3    0  502 -0.41578309050E+03 -0.10655296508E+04  0.99209264635E+03  0.15141000376E+04  0.46999998093E+01 0. -1.
</event>
<event>
 5   0  0.6374748E-08  0.2999913E+04  0.7818609E-02  0.8243756E-01
       -1   -1    0    0    0  501  0.00000000000E+00  0.00000000000E+00  0.12842209956E+04  0.12842209956E+04  0.50400001928E-02 0. -1.
        1   -1    0    0  501    0  0.00000000000E+00  0.00000000000E+00 -0.17519330078E+04  0.17519330078E+04  0.50400001928E-02 0.  1.
    10030    2    1    2    0    0  0.00000000000E+00  0.00000000000E+00 -0.46771201219E+03  0.30361540034E+04  0.29999127664E+04 0.  0.
        1    1    3    3  502    0  0.57121190926E+02  0.23008514944E+03 -0.17328522196E+04  0.17489936596E+04  0.50400001928E-02 0.  1.
       -1    1    3    3    0  502 -0.57121190926E+02 -0.23008514944E+03  0.12651402074E+04  0.12871603438E+04  0.50400001928E-02 0. -1.
</event>
<event>
 5   0  0.1810055E-07  0.2997865E+04  0.7818609E-02  0.8244341E-01
        2   -1    0    0  501    0  0.00000000000E+00  0.00000000000E+00  0.10480900698E+04  0.10480900698E+04  0.25500000920E-02 0.  1.
       -2   -1    0    0    0  501  0.00000000000E+00  0.00000000000E+00 -0.21437073625E+04  0.21437073625E+04  0.25500000920E-02 0. -1.
    10030    2    1    2    0    0  0.00000000000E+00  0.00000000000E+00 -0.10956172927E+04  0.31917974324E+04  0.29978648397E+04 0.  0.
        4    1    3    3  502    0  0.22709538219E+03  0.79451893461E+03 -0.18792948396E+04  0.20529450449E+04  0.12699999809E+01 0. -1.
       -4    1    3    3    0  502 -0.22709538219E+03 -0.79451893461E+03  0.78367754693E+03  0.11388523875E+04  0.12699999809E+01 0.  1.
</event>
<event>
 5   0  0.1810055E-07  0.3001022E+04  0.7818609E-02  0.8243439E-01
       -2   -1    0    0    0  501  0.00000000000E+00  0.00000000000E+00  0.82965014878E+03  0.82965014878E+03  0.25500000920E-02 0. -1.
        2   -1    0    0  501    0  0.00000000000E+00  0.00000000000E+00 -0.27138339498E+04  0.27138339498E+04  0.25500000920E-02 0.  1.
    10030    2    1    2    0    0  0.00000000000E+00  0.00000000000E+00 -0.18841838010E+04  0.35434840986E+04  0.30010216528E+04 0.  0.
        4    1    3    3  502    0  0.14744864505E+04  0.24839783081E+03 -0.79405203526E+03  0.16930245192E+04  0.12699999809E+01 0.  1.
       -4    1    3    3    0  502 -0.14744864505E+04 -0.24839783081E+03 -0.10901317657E+04  0.18504595793E+04  0.12699999809E+01 0. -1.
</event>
<event>
 5   0  0.6374748E-08  0.3000520E+04  0.7818609E-02  0.8243583E-01
        1   -1    0    0  501    0  0.00000000000E+00  0.00000000000E+00  0.14068692873E+04  0.14068692873E+04  0.50400001928E-02 0. -1.
       -1   -1    0    0    0  501  0.00000000000E+00  0.00000000000E+00 -0.15998497645E+04  0.15998497645E+04  0.50400001928E-02 0.  1.
    10030    2    1    2    0    0  0.00000000000E+00  0.00000000000E+00 -0.19298047718E+03  0.30067190518E+04  0.30005196203E+04 0.  0.
        1    1    3    3  502    0 -0.65036767130E+03  0.11728928364E+04  0.57730052852E+03  0.14601135619E+04  0.50400001928E-02 0. -1.
       -1    1    3    3    0  502  0.65036767130E+03 -0.11728928364E+04 -0.77028100570E+03  0.15466054898E+04  0.50400001928E-02 0.  1.
</event>
<event>
 5   0  0.6525507E-08  0.2997292E+04  0.7818609E-02  0.8244505E-01
       -1   -1    0    0    0  501  0.00000000000E+00  0.00000000000E+00  0.89888229659E+03  0.89888229660E+03  0.50400001928E-02 0. -1.
        1   -1    0    0  501    0  0.00000000000E+00  0.00000000000E+00 -0.24985914793E+04  0.24985914793E+04  0.50400001928E-02 0.  1.
    10030    2    1    2    0    0  0.00000000000E+00  0.00000000000E+00 -0.15997091827E+04  0.33974737759E+04  0.29972918758E+04 0.  0.
        4    1    3    3  502    0  0.22229719373E+03 -0.11014772096E+04  0.32413802887E+03  0.11695020993E+04  0.12699999809E+01 0. -1.
       -4    1    3    3    0  502 -0.22229719373E+03  0.11014772096E+04 -0.19238472116E+04  0.22279716767E+04  0.12699999809E+01 0.  1.
</event>
<event>
 5   0  0.1810055E-07  0.3000447E+04  0.7818609E-02  0.8243603E-01
        2   -1    0    0  501    0  0.00000000000E+00  0.00000000000E+00  0.21368533296E+04  0.21368533296E+04  0.25500000920E-02 0.  1.
       -2   -1    0    0    0  501  0.00000000000E+00  0.00000000000E+00 -0.10532641713E+04  0.10532641713E+04  0.25500000920E-02 0. -1.
    10030    2    1    2    0    0  0.00000000000E+00  0.00000000000E+00  0.10835891584E+04  0.31901175009E+04  0.30004473343E+04 0.  0.
        4    1    3    3  502    0  0.20478652707E+02 -0.38411887730E+03  0.20835291575E+04  0.21187406756E+04  0.12699999809E+01 0.  1.
       -4    1    3    3    0  502 -0.20478652707E+02  0.38411887730E+03 -0.99993999917E+03  0.10713768254E+04  0.12699999809E+01 0. -1.
</event>
<event>
 5   0  0.1810055E-07  0.2997129E+04  0.7818609E-02  0.8244551E-01
       -2   -1    0    0    0  501  0.00000000000E+00  0.00000000000E+00  0.10036757444E+04  0.10036757444E+04  0.25500000920E-02 0.  1.
        2   -1    0    0  501    0  0.00000000000E+00  0.00000000000E+00 -0.22374717152E+04  0.22374717152E+04  0.25500000920E-02 0. -1.
    10030    2    1    2    0    0  0.00000000000E+00  0.00000000000E+00 -0.12337959708E+04  0.32411474596E+04  0.29971293527E+04 0.  0.
        4    1    3    3  502    0 -0.75175758499E+03 -0.22005643045E+03  0.76466503612E+03  0.10946590928E+04  0.12699999809E+01 0.  1.
       -4    1    3    3    0  502  0.75175758499E+03  0.22005643045E+03 -0.19984610070E+04  0.21464883667E+04  0.12699999809E+01 0. -1.
</event>
<event>
 5   0  0.1914439E-07  0.3002113E+04  0.7818609E-02  0.8243128E-01
        2   -1    0    0  501    0  0.00000000000E+00  0.00000000000E+00  0.18555243863E+04  0.18555243863E+04  0.25500000920E-02 0.  1.
       -2   -1    0    0    0  501  0.00000000000E+00  0.00000000000E+00 -0.12143035659E+04  0.12143035659E+04  0.25500000920E-02 0. -1.
    10030    2    1    2    0    0  0.00000000000E+00  0.00000000000E+00  0.64122082041E+03  0.30698279522E+04  0.30021125088E+04 0.  0.
        5    1    3    3  502    0  0.60885083173E+03 -0.13405619931E+04  0.21887541684E+02  0.14725172145E+04  0.46999998093E+01 0. -1.
       -5    1    3    3    0  502 -0.60885083173E+03  0.13405619931E+04  0.61933327872E+03  0.15973107377E+04  0.46999998093E+01 0.  1.
</event>
<event>
 5   0  0.1817566E-07  0.2999141E+04  0.7818609E-02  0.8243976E-01
       -2   -1    0    0    0  501  0.00000000000E+00  0.00000000000E+00  0.24796691697E+04  0.24796691697E+04  0.25500000920E-02 0.  1.
        2   -1    0    0  501    0  0.00000000000E+00  0.00000000000E+00 -0.90685979518E+03  0.90685979518E+03  0.25500000920E-02 0. -1.
    10030    2    1    2    0    0  0.00000000000E+00  0.00000000000E+00  0.15728093745E+04  0.33865289649E+04  0.29991413940E+04 0.  0.
        1    1    3    3  502    0 -0.79004378984E+02  0.14780990337E+04  0.10576252035E+04  0.18192277253E+04  0.50400001928E-02 0.  1.
       -1    1    3    3    0  502  0.79004378984E+02 -0.14780990337E+04  0.51518417102E+03  0.15673012396E+04  0.50400001928E-02 0. -1.
</event>
<event>
 5   0  0.6464436E-08  0.2994857E+04  0.7818609E-02  0.8245201E-01
        1   -1    0    0  501    0  0.00000000000E+00  0.00000000000E+00  0.18087289411E+04  0.18087289412E+04  0.50400001928E-02 0. -1.
       -1   -1    0    0    0  501  0.00000000000E+00  0.00000000000E+00 -0.12397062854E+04  0.12397062854E+04  0.50400001928E-02 0.  1.
    10030    2    1    2    0    0  0.00000000000E+00  0.00000000000E+00  0.56902265573E+03  0.30484352266E+04  0.29948573502E+04 0.  0.
        5    1    3    3  502    0  0.37286128274E+03 -0.32283590990E+03  0.17236731043E+04  0.17928523702E+04  0.46999998093E+01 0. -1.
       -5    1    3    3    0  502 -0.37286128274E+03  0.32283590990E+03 -0.11546504486E+04  0.12555828564E+04  0.46999998093E+01 0.  1.
</event>
<event>
 5   0  0.1914439E-07  0.3000992E+04  0.7818609E-02  0.8243448E-01
       -2   -1    0    0    0  501  0.00000000000E+00  0.00000000000E+00  0.21765611692E+04  0.21765611692E+04  0.25500000920E-02 0.  1.
        2   -1    0    0  501    0  0.00000000000E+00  0.00000000000E+00 -0.10344245523E+04  0.10344245523E+04  0.25500000920E-02 0. -1.
    10030    2    1    2    0    0  0.00000000000E+00  0.00000000000E+00  0.11421366169E+04  0.32109857215E+04  0.30009920446E+04 0.  0.
        5    1    3    3  502    0 -0.42119442653E+03  0.52140895006E+03  0.20074647555E+04  0.21164141543E+04  0.46999998093E+01 0.  1.
       -5    1    3    3    0  502  0.42119442653E+03 -0.52140895006E+03 -0.86532813861E+03  0.10945715671E+04  0.46999998093E+01 0. -1.
</event>
<event>
 5   0  0.6636007E-08  0.3003183E+04  0.7818609E-02  0.8242822E-01
        1   -1    0    0  501    0  0.00000000000E+00  0.00000000000E+00  0.17091628558E+04  0.17091628558E+04  0.50400001928E-02 0. -1.
       -1   -1    0    0    0  501  0.00000000000E+00  0.00000000000E+00 -0.13192292576E+04  0.13192292576E+04  0.50400001928E-02 0.  1.
    10030    2    1    2    0    0  0.00000000000E+00  0.00000000000E+00  0.38993359825E+03  0.30283921134E+04  0.30031834079E+04 0.  0.
        2    1    3    3  502    0 -0.17432903658E+03 -0.14898620396E+04  0.26408509263E+03  0.15230956786E+04  0.25500000920E-02 0. -1.
       -2    1    3    3    0  502  0.17432903658E+03  0.14898620396E+04  0.12584850562E+03  0.15052964348E+04  0.25500000920E-02 0.  1.
</event>
<event>
 5   0  0.1914439E-07  0.3002238E+04  0.7818609E-02  0.8243092E-01
        2   -1    0    0  501    0  0.00000000000E+00  0.00000000000E+00  0.22714045838E+04  0.22714045838E+04  0.25500000920E-02 0.  1.
       -2   -1    0    0    0  501  0.00000000000E+00  0.00000000000E+00 -0.99205495123E+03  0.99205495124E+03  0.25500000920E-02 0. -1.
    10030    2    1    2    0    0  0.00000000000E+00  0.00000000000E+00  0.12793496325E+04  0.32634595350E+04  0.30022379410E+04 0.  0.
        5    1    3    3  502    0 -0.54705901247E+03 -0.83968524100E+03 -0.57514764561E+03  0.11554920040E+04  0.46999998093E+01 0. -1.
       -5    1    3    3    0  502  0.54705901247E+03  0.83968524100E+03  0.18544972781E+04  0.21079675310E+04  0.46999998093E+01 0.  1.
</event>
<event>
 5   0  0.6679022E-08  0.2999069E+04  0.7818609E-02  0.8243997E-01
       -1   -1    0    0    0  501  0.00000000000E+00  0.00000000000E+00  0.16224313069E+04  0.16224313069E+04  0.50400001928E-02 0.  1.
        1   -1    0    0  501    0  0.00000000000E+00  0.00000000000E+00 -0.13859467022E+04  0.13859467022E+04  0.50400001928E-02 0. -1.
    10030    2    1    2    0    0  0.00000000000E+00  0.00000000000E+00  0.23648460471E+03  0.30083780091E+04  0.29990687350E+04 0.  0.
        3    1    3    3  502    0 -0.32773660659E+03  0.15697116465E+03 -0.13411110683E+04  0.13894711719E+04  0.10100000352E+00 0. -1.
       -3    1    3    3    0  502  0.32773660659E+03 -0.15697116465E+03  0.15775956730E+04  0.16189068372E+04  0.10100000352E+00 0.  1.
</event>
<event>
 5   0  0.6525507E-08  0.3000800E+04  0.7818609E-02  0.8243503E-01
        1   -1    0    0  501    0  0.00000000000E+00  0.00000000000E+00  0.14861016614E+04  0.14861016615E+04  0.50400001928E-02 0. -1.
       -1   -1    0    0    0  501  0.00000000000E+00  0.00000000000E+00 -0.15148355339E+04  0.15148355339E+04  0.50400001928E-02 0.  1.
    10030    2    1    2    0    0  0.00000000000E+00  0.00000000000E+00 -0.28733872456E+02  0.30009371954E+04  0.30007996293E+04 0.  0.
        4    1    3    3  502    0  0.58801800669E+02 -0.13365415693E+04  0.66492628282E+03  0.14939643880E+04  0.12699999809E+01 0. -1.
       -4    1    3    3    0  502 -0.58801800669E+02  0.13365415693E+04 -0.69366015527E+03  0.15069728073E+04  0.12699999809E+01 0.  1.
</event>
<event>
 5   0  0.6679022E-08  0.3014461E+04  0.7818609E-02  0.8239613E-01
        1   -1    0    0  501    0  0.00000000000E+00  0.00000000000E+00  0.22643322865E+04  0.22643322866E+04  0.50400001928E-02 0. -1.
       -1   -1    0    0    0  501  0.00000000000E+00  0.00000000000E+00 -0.10032731622E+04  0.10032731622E+04  0.50400001928E-02 0.  1.
    10030    2    1    2    0    0  0.00000000000E+00  0.00000000000E+00  0.12610591244E+04  0.32676054487E+04  0.30144610220E+04 0.  0.
        3    1    3    3  502    0  0.11261687253E+04  0.91291539732E+03  0.10775609175E+04  0.18063244619E+04  0.10100000352E+00 0. -1.
       -3    1    3    3    0  502 -0.11261687253E+04 -0.91291539732E+03  0.18349820688E+03  0.14612809868E+04  0.10100000352E+00 0.  1.
</event>
<event>
 5   0  0.6679022E-08  0.3002166E+04  0.7818609E-02  0.8243113E-01
        1   -1    0    0  501    0  0.00000000000E+00  0.00000000000E+00  0.13968340680E+04  0.13968340680E+04  0.50400001928E-02 0.  1.
       -1   -1    0    0    0  501  0.00000000000E+00  0.00000000000E+00 -0.16131120858E+04  0.16131120858E+04  0.50400001928E-02 0. -1.
    10030    2    1    2    0    0  0.00000000000E+00  0.00000000000E+00 -0.21627801786E+03  0.30099461538E+04  0.30021658295E+04 0.  0.
        3    1    3    3  502    0 -0.39076368350E+03 -0.14008557470E+04 -0.48079681525E+03  0.15317501977E+04  0.10100000352E+00 0. -1.
       -3    1    3    3    0  502  0.39076368350E+03  0.14008557470E+04  0.26451879739E+03  0.14781959561E+04  0.10100000352E+00 0.  1.
</event>
<event>
 5   0  0.1821305E-07  0.3000087E+04  0.7818609E-02  0.8243706E-01
       -2   -1    0    0    0  501  0.00000000000E+00  0.00000000000E+00  0.76897943153E+03  0.76897943153E+03  0.25500000920E-02 0. -1.
        2   -1    0    0  501    0  0.00000000000E+00  0.00000000000E+00 -0.29261248377E+04  0.29261248377E+04  0.25500000920E-02 0.  1.
    10030    2    1    2    0    0  0.00000000000E+00  0.00000000000E+00 -0.21571454062E+04  0.36951042692E+04  0.30000865416E+04 0.  0.
        2    1    3    3  502    0  0.20720031727E+03 -0.14279471618E+04 -0.15836529604E+04  0.21424102705E+04  0.25500000920E-02 0.  1.
       -2    1    3    3    0  502 -0.20720031727E+03  0.14279471618E+04 -0.57349244578E+03  0.15526939987E+04  0.25500000920E-02 0. -1.
</event>
<event>
 5   0  0.6464436E-08  0.3003574E+04  0.7818609E-02  0.8242711E-01
       -1   -1    0    0    0  501  0.00000000000E+00  0.00000000000E+00  0.13494677815E+04  0.13494677815E+04  0.50400001928E-02 0. -1.
        1   -1    0    0  501    0  0.00000000000E+00  0.00000000000E+00 -0.16712990852E+04  0.16712990852E+04  0.50400001928E-02 0.  1.
    10030    2    1    2    0    0  0.00000000000E+00  0.00000000000E+00 -0.32183130364E+03  0.30207668667E+04  0.30035740502E+04 0.  0.
        5    1    3    3  502    0  0.11202915427E+04 -0.10001423790E+04 -0.16299141675E+03  0.15106045845E+04  0.46999998093E+01 0.  1.
       -5    1    3    3    0  502 -0.11202915427E+04  0.10001423790E+04 -0.15883988689E+03  0.15101622822E+04  0.46999998093E+01 0. -1.
</event>
<event>
 5   0  0.6636007E-08  0.3000729E+04  0.7818609E-02  0.8243523E-01
       -1   -1    0    0    0  501  0.00000000000E+00  0.00000000000E+00  0.12627445013E+04  0.12627445013E+04  0.50400001928E-02 0. -1.
        1   -1    0    0  501    0  0.00000000000E+00  0.00000000000E+00 -0.17826992158E+04  0.17826992158E+04  0.50400001928E-02 0.  1.
    10030    2    1    2    0    0  0.00000000000E+00  0.00000000000E+00 -0.51995471451E+03  0.30454437171E+04  0.30007289995E+04 0.  0.
        2    1    3    3  502    0 -0.46741847389E+03  0.29923770839E+03 -0.16746894632E+04  0.17642584941E+04  0.25500000920E-02 0.  1.
       -2    1    3    3    0  502  0.46741847389E+03 -0.29923770839E+03  0.11547347487E+04  0.12811852230E+04  0.25500000920E-02 0. -1.
</event>
<event>
 5   0  0.6679022E-08  0.2997528E+04  0.7818609E-02  0.8244437E-01
       -1   -1    0    0    0  501  0.00000000000E+00  0.00000000000E+00  0.15820401624E+04  0.15820401624E+04  0.50400001928E-02 0. -1.
        1   -1    0    0  501    0  0.00000000000E+00  0.00000000000E+00 -0.14198710328E+04  0.14198710328E+04  0.50400001928E-02 0.  1.
    10030    2    1    2    0    0  0.00000000000E+00  0.00000000000E+00  0.16216912957E+03  0.30019111952E+04  0.29975276475E+04 0.  0.
        3    1    3    3  502    0 -0.42172327154E+02  0.67782634929E+03 -0.12569328711E+04  0.14286732718E+04  0.10100000352E+00 0.  1.
       -3    1    3    3    0  502  0.42172327154E+02 -0.67782634929E+03  0.14191020007E+04  0.15732379234E+04  0.10100000352E+00 0. -1.
</event>
<event>
 5   0  0.1817566E-07  0.2998309E+04  0.7818609E-02  0.8244214E-01
        2   -1    0    0  501    0  0.00000000000E+00  0.00000000000E+00  0.13056249596E+04  0.13056249596E+04  0.25500000920E-02 0. -1.
       -2   -1    0    0    0  501  0.00000000000E+00  0.00000000000E+00 -0.17213701022E+04  0.17213701022E+04  0.25500000920E-02 0.  1.
    10030    2    1    2    0    0  0.00000000000E+00  0.00000000000E+00 -0.41574514263E+03  0.30269950618E+04  0.29983087033E+04 0.  0.
        1    1    3    3  502    0 -0.50335206499E+03  0.22366298751E+03  0.11997684431E+04  0.13201639104E+04  0.50400001928E-02 0. -1.
       -1    1    3    3    0  502  0.50335206499E+03 -0.22366298751E+03 -0.16155135858E+04  0.17068311513E+04  0.50400001928E-02 0.  1.
</event>
<event>
 5   0  0.1821305E-07  0.3000869E+04  0.7818609E-02  0.8243483E-01
        2   -1    0    0  501    0  0.00000000000E+00  0.00000000000E+00  0.13254478152E+04  0.13254478152E+04  0.25500000920E-02 0. -1.
       -2   -1    0    0    0  501  0.00000000000E+00  0.00000000000E+00 -0.16985235476E+04  0.16985235476E+04  0.25500000920E-02 0.  1.
    10030    2    1    2    0    0  0.00000000000E+00  0.00000000000E+00 -0.37307573242E+03  0.30239713628E+04  0.30008694241E+04 0.  0.
        2    1    3    3  502    0  0.10269392772E+04 -0.27696331408E+03 -0.12529815181E+04  0.16435557919E+04  0.25500000920E-02 0.  1.
       -2    1    3    3    0  502 -0.10269392772E+04  0.27696331408E+03  0.87990578570E+03  0.13804155708E+04  0.25500000920E-02 0. -1.
</event>
<event>
 5   0  0.6679022E-08  0.3000223E+04  0.7818609E-02  0.8243667E-01
       -1   -1    0    0    0  501  0.00000000000E+00  0.00000000000E+00  0.12491510917E+04  0.12491510917E+04  0.50400001928E-02 0.  1.
        1   -1    0    0  501    0  0.00000000000E+00  0.00000000000E+00 -0.18014912874E+04  0.18014912875E+04  0.50400001928E-02 0. -1.
    10030    2    1    2    0    0  0.00000000000E+00  0.00000000000E+00 -0.55234019576E+03  0.30506423792E+04  0.30002231973E+04 0.  0.
        3    1    3    3  502    0  0.78641235338E+03  0.11684646743E+04 -0.80116138717E+03  0.16203745441E+04  0.10100000352E+00 0. -1.
       -3    1    3    3    0  502 -0.78641235338E+03 -0.11684646743E+04  0.24882119141E+03  0.14302678351E+04  0.10100000352E+00 0.  1.
</event>
<event>
 5   0  0.1817566E-07  0.2996763E+04  0.7818609E-02  0.8244656E-01
        2   -1    0    0  501    0  0.00000000000E+00  0.00000000000E+00  0.17677407482E+04  0.17677407482E+04  0.25500000920E-02 0.  1.
       -2   -1    0    0    0  501  0.00000000000E+00  0.00000000000E+00 -0.12700660375E+04  0.12700660375E+04  0.25500000920E-02 0. -1.
    10030    2    1    2    0    0  0.00000000000E+00  0.00000000000E+00  0.49767471070E+03  0.30378067858E+04  0.29967632456E+04 0.  0.
        1    1    3    3  502    0 -0.13325061306E+04  0.41585032038E+03  0.80094666080E+03  0.16093537929E+04  0.50400001928E-02 0.  1.
       -1    1    3    3    0  502  0.13325061306E+04 -0.41585032038E+03 -0.30327195010E+03  0.14284529929E+04  0.50400001928E-02 0. -1.
</event>
<event>
 5   0  0.6374748E-08  0.2999867E+04  0.7818609E-02  0.8243769E-01
       -1   -1    0    0    0  501  0.00000000000E+00  0.00000000000E+00  0.14123064964E+04  0.14123064965E+04  0.50400001928E-02 0. -1.
        1   -1    0    0  501    0  0.00000000000E+00  0.00000000000E+00 -0.15929970532E+04  0.15929970533E+04  0.50400001928E-02 0.  1.
    10030    2    1    2    0    0  0.00000000000E+00  0.00000000000E+00 -0.18069055680E+03  0.30053035497E+04  0.29998667218E+04 0.  0.
        1    1    3    3  502    0  0.28126629192E+03 -0.85014000560E+03  0.11151440393E+04  0.14301730610E+04  0.50400001928E-02 0. -1.
       -1    1    3    3    0  502 -0.28126629192E+03  0.85014000560E+03 -0.12958345961E+04  0.15751304887E+04  0.50400001928E-02 0.  1.
</event>
<event>
 5   0  0.6679022E-08  0.2999229E+04  0.7818609E-02  0.8243951E-01
       -1   -1    0    0    0  501  0.00000000000E+00  0.00000000000E+00  0.11298615303E+04  0.11298615303E+04  0.50400001928E-02 0.  1.
        1   -1    0    0  501    0  0.00000000000E+00  0.00000000000E+00 -0.19903707549E+04  0.19903707549E+04  0.50400001928E-02 0. -1.
    10030    2    1    2    0    0  0.00000000000E+00  0.00000000000E+00 -0.86050922456E+03  0.31202322852E+04  0.29992287988E+04 0.  0.
        3    1    3    3  502    0 -0.13307606200E+04  0.68283675277E+03 -0.31794805572E+03  0.15291438242E+04  0.10100000352E+00 0.  1.
       -3    1    3    3    0  502  0.13307606200E+04 -0.68283675277E+03 -0.54256116884E+03  0.15910884610E+04  0.10100000352E+00 0. -1.
</event>
<event>
 5   0  0.1810055E-07  0.3000041E+04  0.7818609E-02  0.8243719E-01
        2   -1    0    0  501    0  0.00000000000E+00  0.00000000000E+00  0.12819760702E+04  0.12819760702E+04  0.25500000920E-02 0. -1.
       -2   -1    0    0    0  501  0.00000000000E+00  0.00000000000E+00 -0.17551515025E+04  0.17551515025E+04  0.25500000920E-02 0.  1.
    10030    2    1    2    0    0  0.00000000000E+00  0.00000000000E+00 -0.47317543235E+03  0.30371275727E+04  0.30000414836E+04 0.  0.
        4    1    3    3  502    0  0.44691195434E+03  0.10891865393E+03 -0.16819862902E+04  0.17437525803E+04  0.12699999809E+01 0.  1.
       -4    1    3    3    0  502 -0.44691195434E+03 -0.10891865393E+03  0.12088108578E+04  0.12933749924E+04  0.12699999809E+01 0. -1.
</event>
<event>
 5   0  0.6017625E-08  0.3002757E+04  0.7818609E-02  0.8242944E-01
       -4   -1    0    0    0  501  0.00000000000E+00  0.00000000000E+00  0.30314376615E+04  0.30314379275E+04  0.12699999809E+01 0.  1.
        4   -1    0    0  501    0  0.00000000000E+00  0.00000000000E+00 -0.74358625317E+03  0.74358733771E+03  0.12699999809E+01 0. -1.
    10030    2    1    2    0    0  0.00000000000E+00  0.00000000000E+00  0.22878514083E+04  0.37750252652E+04  0.30027573473E+04 0.  0.
        2    1    3    3  502    0 -0.11385615409E+04  0.23938509043E+03  0.23369353933E+04  0.26105353161E+04  0.25500000920E-02 0. -1.
       -2    1    3    3    0  502  0.11385615409E+04 -0.23938509043E+03 -0.49083984992E+02  0.11644899491E+04  0.25500000920E-02 0.  1.
</event>
<event>
 5   0  0.1817566E-07  0.3000816E+04  0.7818609E-02  0.8243498E-01
        2   -1    0    0  501    0  0.00000000000E+00  0.00000000000E+00  0.16750194857E+04  0.16750194857E+04  0.25500000920E-02 0. -1.
       -2   -1    0    0    0  501  0.00000000000E+00  0.00000000000E+00 -0.13439990215E+04  0.13439990215E+04  0.25500000920E-02 0.  1.
    10030    2    1    2    0    0  0.00000000000E+00  0.00000000000E+00  0.33102046415E+03  0.30190185072E+04  0.30008162555E+04 0.  0.
        1    1    3    3  502    0 -0.58413654407E+03  0.11306344666E+04  0.96511086710E+03  0.15971815129E+04  0.50400001928E-02 0. -1.
       -1    1    3    3    0  502  0.58413654407E+03 -0.11306344666E+04 -0.63409040295E+03  0.14218369943E+04  0.50400001928E-02 0.  1.
</event>
<event>
 5   0  0.1914439E-07  0.2999734E+04  0.7818609E-02  0.8243807E-01
       -2   -1    0    0    0  501  0.00000000000E+00  0.00000000000E+00  0.14140299097E+04  0.14140299097E+04  0.25500000920E-02 0. -1.
        2   -1    0    0  501    0  0.00000000000E+00  0.00000000000E+00 -0.15909148026E+04  0.15909148026E+04  0.25500000920E-02 0.  1.
    10030    2    1    2    0    0  0.00000000000E+00  0.00000000000E+00 -0.17688489289E+03  0.30049447124E+04  0.29997340647E+04 0.  0.
        5    1    3    3  502    0 -0.10194014942E+04 -0.10842182016E+04 -0.27550328598E+03  0.15134836192E+04  0.46999998093E+01 0. -1.
       -5    1    3    3    0  502  0.10194014942E+04  0.10842182016E+04  0.98618393095E+02  0.14914610932E+04  0.46999998093E+01 0.  1.
</event>
<event>
 5   0  0.1810055E-07  0.2998975E+04  0.7818609E-02  0.8244024E-01
        2   -1    0    0  501    0  0.00000000000E+00  0.00000000000E+00  0.20870666168E+04  0.20870666168E+04  0.25500000920E-02 0.  1.
       -2   -1    0    0    0  501  0.00000000000E+00  0.00000000000E+00 -0.10773318176E+04  0.10773318176E+04  0.25500000920E-02 0. -1.
    10030    2    1    2    0    0  0.00000000000E+00  0.00000000000E+00  0.10097347992E+04  0.31643984344E+04  0.29989753394E+04 0.  0.
        4    1    3    3  502    0 -0.27486890212E+03 -0.11523702014E+04  0.14747835685E+04  0.18916918833E+04  0.12699999809E+01 0.  1.
       -4    1    3    3    0  502  0.27486890212E+03  0.11523702014E+04 -0.46504876927E+03  0.12727065511E+04  0.12699999809E+01 0. -1.
</event>
<event>
 5   0  0.6679022E-08  0.3000030E+04  0.7818609E-02  0.8243722E-01
        1   -1    0    0  501    0  0.00000000000E+00  0.00000000000E+00  0.13579164408E+04  0.13579164408E+04  0.50400001928E-02 0.  1.
       -1   -1    0    0    0  501  0.00000000000E+00  0.00000000000E+00 -0.16569839488E+04  0.16569839489E+04  0.50400001928E-02 0. -1.
    10030    2    1    2    0    0  0.00000000000E+00  0.00000000000E+00 -0.29906750808E+03  0.30149003896E+04  0.30000304973E+04 0.  0.
        3    1    3    3  502    0 -0.84318887539E+03 -0.63899262107E+03 -0.12181795976E+04  0.16134561015E+04  0.10100000352E+00 0. -1.
       -3    1    3    3    0  502  0.84318887539E+03  0.63899262107E+03  0.91911208951E+03  0.14014442881E+04  0.10100000352E+00 0.  1.
</event>
<event>
 5   0  0.6679022E-08  0.3001290E+04  0.7818609E-02  0.8243363E-01
        1   -1    0    0  501    0  0.00000000000E+00  0.00000000000E+00  0.15990975190E+04  0.15990975191E+04  0.50400001928E-02 0.  1.
       -1   -1    0    0    0  501  0.00000000000E+00  0.00000000000E+00 -0.14082538393E+04  0.14082538393E+04  0.50400001928E-02 0. -1.
    10030    2    1    2    0    0  0.00000000000E+00  0.00000000000E+00  0.19084367971E+03  0.30073513584E+04  0.30012898698E+04 0.  0.
        3    1    3    3  502    0 -0.42829931016E+03  0.12461912625E+04  0.81485675476E+03  0.15493303401E+04  0.10100000352E+00 0. -1.
       -3    1    3    3    0  502  0.42829931016E+03 -0.12461912625E+04 -0.62401307505E+03  0.14580210183E+04  0.10100000352E+00 0.  1.
</event>
<event>
 5   0  0.1813720E-07  0.3001911E+04  0.7818609E-02  0.8243185E-01
        2   -1    0    0  501    0  0.00000000000E+00  0.00000000000E+00  0.16597134192E+04  0.16597134192E+04  0.25500000920E-02 0. -1.
       -2   -1    0    0    0  501  0.00000000000E+00  0.00000000000E+00 -0.13573833402E+04  0.13573833402E+04  0.25500000920E-02 0.  1.
    10030    2    1    2    0    0  0.00000000000E+00  0.00000000000E+00  0.30233007894E+03  0.30170967594E+04  0.30019109545E+04 0.  0.
        3    1    3    3  502    0  0.10983548470E+04  0.87987097645E+03  0.67563914219E+03  0.15611036371E+04  0.10100000352E+00 0.  1.
       -3    1    3    3    0  502 -0.10983548470E+04 -0.87987097645E+03 -0.37330906325E+03  0.14559931223E+04  0.10100000352E+00 0. -1.
</event>
<event>
 5   0  0.1810055E-07  0.2999400E+04  0.7818609E-02  0.8243902E-01
        2   -1    0    0  501    0  0.00000000000E+00  0.00000000000E+00  0.12575330746E+04  0.12575330746E+04  0.25500000920E-02 0. -1.
       -2   -1    0    0    0  501  0.00000000000E+00  0.00000000000E+00 -0.17885020971E+04  0.17885020971E+04  0.25500000920E-02 0.  1.
    10030    2    1    2    0    0  0.00000000000E+00  0.00000000000E+00 -0.53096902250E+03  0.30460351718E+04  0.29994003009E+04 0.  0.
        4    1    3    3  502    0 -0.10941814378E+03 -0.84394845866E+03 -0.15195435277E+04  0.17416186370E+04  0.12699999809E+01 0.  1.
       -4    1    3    3    0  502  0.10941814378E+03  0.84394845866E+03  0.98857450522E+03  0.13044165348E+04  0.12699999809E+01 0. -1.
</event>
<event>
 5   0  0.6636007E-08  0.2999336E+04  0.7818609E-02  0.8243921E-01
        1   -1    0    0  501    0  0.00000000000E+00  0.00000000000E+00  0.20584537374E+04  0.20584537374E+04  0.50400001928E-02 0.  1.
       -1   -1    0    0    0  501  0.00000000000E+00  0.00000000000E+00 -0.10925696430E+04  0.10925696430E+04  0.50400001928E-02 0. -1.
    10030    2    1    2    0    0  0.00000000000E+00  0.00000000000E+00  0.96588409437E+03  0.31510233804E+04  0.29993359698E+04 0.  0.
        2    1    3    3  502    0  0.98237833198E+03 -0.82423643108E+03 -0.33392284539E+03  0.13251178620E+04  0.25500000920E-02 0. -1.
       -2    1    3    3    0  502 -0.98237833198E+03  0.82423643108E+03  0.12998069398E+04  0.18259055184E+04  0.25500000920E-02 0.  1.
</event>
<event>
 5   0  0.6374748E-08  0.2999137E+04  0.7818609E-02  0.8243977E-01
        1   -1    0    0  501    0  0.00000000000E+00  0.00000000000E+00  0.18752853992E+04  0.18752853992E+04  0.50400001928E-02 0.  1.
       -1   -1    0    0    0  501  0.00000000000E+00  0.00000000000E+00 -0.11991272345E+04  0.11991272345E+04  0.50400001928E-02 0. -1.
    10030    2    1    2    0    0  0.00000000000E+00  0.00000000000E+00  0.67615816471E+03  0.30744126338E+04  0.29991370724E+04 0.  0.
        1    1    3    3  502    0 -0.10460184017E+04 -0.57206859101E+03  0.12704622400E+04  0.17422661315E+04  0.50400001928E-02 0.  1.
       -1    1    3    3    0  502  0.10460184017E+04  0.57206859101E+03 -0.59430407534E+03  0.13321465023E+04  0.50400001928E-02 0. -1.
</event>
<event>
 5   0  0.6636007E-08  0.2998458E+04  0.7818609E-02  0.8244171E-01
        1   -1    0    0  501    0  0.00000000000E+00  0.00000000000E+00  0.23011741825E+04  0.23011741825E+04  0.50400001928E-02 0.  1.
       -1   -1    0    0    0  501  0.00000000000E+00  0.00000000000E+00 -0.97675653292E+03  0.97675653294E+03  0.50400001928E-02 0. -1.
    10030    2    1    2    0    0  0.00000000000E+00  0.00000000000E+00  0.13244176496E+04  0.32779307155E+04  0.29984575476E+04 0.  0.
        2    1    3    3  502    0  0.95887731922E+03  0.30319711582E+03  0.18777398065E+04  0.21300894313E+04  0.25500000920E-02 0.  1.
       -2    1    3    3    0  502 -0.95887731922E+03 -0.30319711582E+03 -0.55332215689E+03  0.11478412842E+04  0.25500000920E-02 0. -1.
</event>
<event>
 5   0  0.1810055E-07  0.2999687E+04  0.7818609E-02  0.8243820E-01
       -2   -1    0    0    0  501  0.00000000000E+00  0.00000000000E+00  0.15399226686E+04  0.15399226686E+04  0.25500000920E-02 0. -1.
        2   -1    0    0  501    0  0.00000000000E+00  0.00000000000E+00 -0.14608072808E+04  0.14608072808E+04  0.25500000920E-02 0.  1.
    10030    2    1    2    0    0  0.00000000000E+00  0.00000000000E+00  0.79115387871E+02  0.30007299494E+04  0.29996868144E+04 0.  0.
        4    1    3    3  502    0  0.36310475274E+03 -0.14416018184E+04  0.23829174627E+03  0.15056046737E+04  0.12699999809E+01 0. -1.
       -4    1    3    3    0  502 -0.36310475274E+03  0.14416018184E+04 -0.15917635840E+03  0.14951252757E+04  0.12699999809E+01 0.  1.
</event>
<event>
 5   0  0.1810055E-07  0.2982577E+04  0.7818609E-02  0.8248724E-01
       -2   -1    0    0    0  501  0.00000000000E+00  0.00000000000E+00  0.26561730973E+04  0.26561730973E+04  0.25500000920E-02 0.  1.
        2   -1    0    0  501    0  0.00000000000E+00  0.00000000000E+00 -0.83727264629E+03  0.83727264629E+03  0.25500000920E-02 0. -1.
    10030    2    1    2    0    0  0.00000000000E+00  0.00000000000E+00  0.18189004510E+04  0.34934457436E+04  0.29825767908E+04 0.  0.
        4    1    3    3  502    0 -0.61701500900E+02 -0.13380637052E+04  0.14163963773E+03  0.13469539540E+04  0.12699999809E+01 0. -1.
       -4    1    3    3    0  502  0.61701500900E+02  0.13380637052E+04  0.16772608133E+04  0.21464917896E+04  0.12699999809E+01 0.  1.
</event>
<event>
 5   0  0.1914439E-07  0.3000580E+04  0.7818609E-02  0.8243565E-01
        2   -1    0    0  501    0  0.00000000000E+00  0.00000000000E+00  0.21883792675E+04  0.21883792675E+04  0.25500000920E-02 0.  1.
       -2   -1    0    0    0  501  0.00000000000E+00  0.00000000000E+00 -0.10285558093E+04  0.10285558093E+04  0.25500000920E-02 0. -1.
    10030    2    1    2    0    0  0.00000000000E+00  0.00000000000E+00  0.11598234582E+04  0.32169350768E+04  0.30005800830E+04 0.  0.
        5    1    3    3  502    0  0.12204366150E+03  0.14048296923E+04  0.30718997083E+02  0.14104633517E+04  0.46999998093E+01 0. -1.
       -5    1    3    3    0  502 -0.12204366150E+03 -0.14048296923E+04  0.11291044612E+04  0.18064717252E+04  0.46999998093E+01 0.  1.
</event>
<event>
 5   0  0.6679022E-08  0.2999399E+04  0.7818609E-02  0.8243902E-01
        1   -1    0    0  501    0  0.00000000000E+00  0.00000000000E+00  0.86313647893E+03  0.86313647895E+03  0.50400001928E-02 0. -1.
       -1   -1    0    0    0  501  0.00000000000E+00  0.00000000000E+00 -0.26057284875E+04  0.26057284876E+04  0.50400001928E-02 0.  1.
    10030    2    1    2    0    0  0.00000000000E+00  0.00000000000E+00 -0.17425920086E+04  0.34688649665E+04  0.29993994811E+04 0.  0.
        3    1    3    3  502    0 -0.12057776793E+04 -0.19886711877E+03  0.13404597184E+03  0.12293967120E+04  0.10100000352E+00 0. -1.
       -3    1    3    3    0  502  0.12057776793E+04  0.19886711877E+03 -0.18766379805E+04  0.22394682545E+04  0.10100000352E+00 0.  1.
</event>
<event>
 5   0  0.6636007E-08  0.3000676E+04  0.7818609E-02  0.8243538E-01
        1   -1    0    0  501    0  0.00000000000E+00  0.00000000000E+00  0.16828243486E+04  0.16828243486E+04  0.50400001928E-02 0. -1.
       -1   -1    0    0    0  501  0.00000000000E+00  0.00000000000E+00 -0.13376401739E+04  0.13376401739E+04  0.50400001928E-02 0.  1.
    10030    2    1    2    0    0  0.00000000000E+00  0.00000000000E+00  0.34518417474E+03  0.30204645225E+04  0.30006755602E+04 0.  0.
        2    1    3    3  502    0  0.91445319064E+03 -0.97413359111E+03  0.85962721466E+03  0.15887478842E+04  0.25500000920E-02 0. -1.
       -2    1    3    3    0  502 -0.91445319064E+03  0.97413359111E+03 -0.51444303993E+03  0.14317166384E+04  0.25500000920E-02 0.  1.
</event>
<event>
 5   0  0.1817566E-07  0.3000192E+04  0.7818609E-02  0.8243676E-01
        2   -1    0    0  501    0  0.00000000000E+00  0.00000000000E+00  0.22402403640E+04  0.22402403640E+04  0.25500000920E-02 0. -1.
       -2   -1    0    0    0  501  0.00000000000E+00  0.00000000000E+00 -0.10044851094E+04  0.10044851094E+04  0.25500000920E-02 0.  1.
    10030    2    1    2    0    0  0.00000000000E+00  0.00000000000E+00  0.12357552546E+04  0.32447254733E+04  0.30001920518E+04 0.  0.
        1    1    3    3  502    0  0.14202928804E+04  0.39280221780E+03  0.92139882709E+03  0.17379589313E+04  0.50400001928E-02 0.  1.
       -1    1    3    3    0  502 -0.14202928804E+04 -0.39280221780E+03  0.31435642753E+03  0.15067665420E+04  0.50400001928E-02 0. -1.
</event>
<event>
 5   0  0.6525507E-08  0.2999191E+04  0.7818609E-02  0.8243962E-01
       -1   -1    0    0    0  501  0.00000000000E+00  0.00000000000E+00  0.10851582555E+04  0.10851582555E+04  0.50400001928E-02 0. -1.
        1   -1    0    0  501    0  0.00000000000E+00  0.00000000000E+00 -0.20723115063E+04  0.20723115063E+04  0.50400001928E-02 0.  1.
    10030    2    1    2    0    0  0.00000000000E+00  0.00000000000E+00 -0.98715325076E+03  0.31574697618E+04  0.29991905169E+04 0.  0.
        4    1    3    3  502    0 -0.62826787414E+03  0.61915829489E+03  0.78315082972E+03  0.11795780393E+04  0.12699999809E+01 0. -1.
       -4    1    3    3    0  502  0.62826787414E+03 -0.61915829489E+03 -0.17703040805E+04  0.19778917225E+04  0.12699999809E+01 0.  1.
</event>
<event>
 5   0  0.1810055E-07  0.2997715E+04  0.7818609E-02  0.8244384E-01
        2   -1    0    0  501    0  0.00000000000E+00  0.00000000000E+00  0.18441014288E+04  0.18441014288E+04  0.25500000920E-02 0.  1.
       -2   -1    0    0    0  501  0.00000000000E+00  0.00000000000E+00 -0.12182488970E+04  0.12182488970E+04  0.25500000920E-02 0. -1.
    10030    2    1    2    0    0  0.00000000000E+00  0.00000000000E+00  0.62585253175E+03  0.30623503258E+04  0.29977154845E+04 0.  0.
        4    1    3    3  502    0 -0.49427570691E+02  0.38212710040E+03 -0.11667900206E+04  0.12287655475E+04  0.12699999809E+01 0. -1.
       -4    1    3    3    0  502  0.49427570691E+02 -0.38212710040E+03  0.17926425524E+04  0.18335847783E+04  0.12699999809E+01 0.  1.
</event>
<event>
 5   0  0.6017625E-08  0.2999967E+04  0.7818609E-02  0.8243740E-01
       -3   -1    0    0    0  501  0.00000000000E+00  0.00000000000E+00  0.22265383835E+04  0.22265383858E+04  0.10100000352E+00 0. -1.
        3   -1    0    0  501    0  0.00000000000E+00  0.00000000000E+00 -0.10105153302E+04  0.10105153352E+04  0.10100000352E+00 0.  1.
    10030    2    1    2    0    0  0.00000000000E+00  0.00000000000E+00  0.12160230533E+04  0.32370537210E+04  0.29999674543E+04 0.  0.
        5    1    3    3  502    0 -0.13088758352E+04  0.69819960115E+03  0.36845126209E+03  0.15285342841E+04  0.46999998093E+01 0.  1.
       -5    1    3    3    0  502  0.13088758352E+04 -0.69819960115E+03  0.84757179120E+03  0.17085194369E+04  0.46999998093E+01 0. -1.
</event>
<event>
 5   0  0.1821305E-07  0.3000763E+04  0.7818609E-02  0.8243513E-01
       -2   -1    0    0    0  501  0.00000000000E+00  0.00000000000E+00  0.14363395921E+04  0.14363395921E+04  0.25500000920E-02 0. -1.
        2   -1    0    0  501    0  0.00000000000E+00  0.00000000000E+00 -0.15672786999E+04  0.15672786999E+04  0.25500000920E-02 0.  1.
    10030    2    1    2    0    0  0.00000000000E+00  0.00000000000E+00 -0.13093910783E+03  0.30036182920E+04  0.30007628687E+04 0.  0.
        2    1    3    3  502    0  0.72715749589E+03  0.73563236867E+03 -0.11533484770E+04  0.15492339123E+04  0.25500000920E-02 0.  1.
       -2    1    3    3    0  502 -0.72715749589E+03 -0.73563236867E+03  0.10224093692E+04  0.14543843797E+04  0.25500000920E-02 0. -1.
</event>
<event>
 5   0  0.6525507E-08  0.3000060E+04  0.7818609E-02  0.8243714E-01
       -1   -1    0    0    0  501  0.00000000000E+00  0.00000000000E+00  0.11619678184E+04  0.11619678184E+04  0.50400001928E-02 0. -1.
        1   -1    0    0  501    0  0.00000000000E+00  0.00000000000E+00 -0.19364482058E+04  0.19364482059E+04  0.50400001928E-02 0.  1.
    10030    2    1    2    0    0  0.00000000000E+00  0.00000000000E+00 -0.77448038741E+03  0.30984160243E+04  0.30000603309E+04 0.  0.
        4    1    3    3  502    0 -0.86940552368E+03  0.22459365351E+03 -0.16282075119E+04  0.18594003304E+04  0.12699999809E+01 0.  1.
       -4    1    3    3    0  502  0.86940552368E+03 -0.22459365351E+03  0.85372712450E+03  0.12390156939E+04  0.12699999809E+01 0. -1.
</event>
<event>
 5   0  0.1810055E-07  0.2999770E+04  0.7818609E-02  0.8243796E-01
        2   -1    0    0  501    0  0.00000000000E+00  0.00000000000E+00  0.29880377552E+04  0.29880377552E+04  0.25500000920E-02 0. -1.
       -2   -1    0    0    0  501  0.00000000000E+00  0.00000000000E+00 -0.75288720480E+03  0.75288720481E+03  0.25500000920E-02 0.  1.
    10030    2    1    2    0    0  0.00000000000E+00  0.00000000000E+00  0.22351505504E+04  0.37409249600E+04  0.29997702534E+04 0.  0.
        4    1    3    3  502    0  0.68701217147E+02 -0.30116823581E+03  0.29479381577E+04  0.29640788043E+04  0.12699999809E+01 0. -1.
       -4    1    3    3    0  502 -0.68701217147E+02  0.30116823581E+03 -0.71278760735E+03  0.77684615568E+03  0.12699999809E+01 0.  1.
</event>
<event>
 5   0  0.6679022E-08  0.3000450E+04  0.7818609E-02  0.8243602E-01
       -1   -1    0    0    0  501  0.00000000000E+00  0.00000000000E+00  0.18974906659E+04  0.18974906659E+04  0.50400001928E-02 0. -1.
        1   -1    0    0  501    0  0.00000000000E+00  0.00000000000E+00 -0.11861325743E+04  0.11861325743E+04  0.50400001928E-02 0.  1.
    10030    2    1    2    0    0  0.00000000000E+00  0.00000000000E+00  0.71135809157E+03  0.30836232403E+04  0.30004502918E+04 0.  0.
        3    1    3    3  502    0  0.11295641244E+04  0.48919570925E+03  0.12370339743E+04  0.17451305444E+04  0.10100000352E+00 0. -1.
       -3    1    3    3    0  502 -0.11295641244E+04 -0.48919570925E+03 -0.52567588272E+03  0.13384926959E+04  0.10100000352E+00 0.  1.
</event>
<event>
 5   0  0.1914439E-07  0.2998971E+04  0.7818609E-02  0.8244025E-01
       -2   -1    0    0    0  501  0.00000000000E+00  0.00000000000E+00  0.22915281902E+04  0.22915281902E+04  0.25500000920E-02 0. -1.
        2   -1    0    0  501    0  0.00000000000E+00  0.00000000000E+00 -0.98120402788E+03  0.98120402789E+03  0.25500000920E-02 0.  1.
    10030    2    1    2    0    0  0.00000000000E+00  0.00000000000E+00  0.13103241623E+04  0.32727322181E+04  0.29989709503E+04 0.  0.
        5    1    3    3  502    0  0.13172076454E+04 -0.54181332788E+03  0.14349374160E+03  0.14315062721E+04  0.46999998093E+01 0.  1.
       -5    1    3    3    0  502 -0.13172076454E+04  0.54181332788E+03  0.11668304207E+04  0.18412259460E+04  0.46999998093E+01 0. -1.
</event>
<event>
 5   0  0.1914439E-07  0.2983140E+04  0.7818609E-02  0.8248562E-01
        2   -1    0    0  501    0  0.00000000000E+00  0.00000000000E+00  0.17578085389E+04  0.17578085389E+04  0.25500000920E-02 0.  1.
       -2   -1    0    0    0  501  0.00000000000E+00  0.00000000000E+00 -0.12656562170E+04  0.12656562170E+04  0.25500000920E-02 0. -1.
    10030    2    1    2    0    0  0.00000000000E+00  0.00000000000E+00  0.49215232187E+03  0.30234647559E+04  0.29831401614E+04 0.  0.
        5    1    3    3  502    0 -0.51262883504E+02  0.11762327032E+04  0.11742102881E+04  0.16628118191E+04  0.46999998093E+01 0.  1.
       -5    1    3    3    0  502  0.51262883504E+02 -0.11762327032E+04 -0.68205796619E+03  0.13606529368E+04  0.46999998093E+01 0. -1.
</event>
<event>
 5   0  0.1817566E-07  0.2997965E+04  0.7818609E-02  0.8244312E-01
        2   -1    0    0  501    0  0.00000000000E+00  0.00000000000E+00  0.20326518941E+04  0.20326518941E+04  0.25500000920E-02 0.  1.
       -2   -1    0    0    0  501  0.00000000000E+00  0.00000000000E+00 -0.11054272184E+04  0.11054272184E+04  0.25500000920E-02 0. -1.
    10030    2    1    2    0    0  0.00000000000E+00  0.00000000000E+00  0.92722467571E+03  0.31380791125E+04  0.29979651294E+04 0.  0.
        1    1    3    3  502    0  0.60206630320E+03  0.11407096725E+04  0.12630108245E+04  0.18052420151E+04  0.50400001928E-02 0.  1.
       -1    1    3    3    0  502 -0.60206630320E+03 -0.11407096725E+04 -0.33578614878E+03  0.13328370974E+04  0.50400001928E-02 0. -1.
</event>
<event>
 5   0  0.6525507E-08  0.3004318E+04  0.7818609E-02  0.8242499E-01
       -1   -1    0    0    0  501  0.00000000000E+00  0.00000000000E+00  0.95131515262E+03  0.95131515263E+03  0.50400001928E-02 0. -1.
        1   -1    0    0  501    0  0.00000000000E+00  0.00000000000E+00 -0.23719599819E+04  0.23719599820E+04  0.50400001928E-02 0.  1.
    10030    2    1    2    0    0  0.00000000000E+00  0.00000000000E+00 -0.14206448293E+04  0.33232751346E+04  0.30043178742E+04 0.  0.
        4    1    3    3  502    0  0.59605972970E+03  0.27923031078E+03 -0.22039431110E+04  0.23001355650E+04  0.12699999809E+01 0.  1.
       -4    1    3    3    0  502 -0.59605972970E+03 -0.27923031078E+03  0.78329828170E+03  0.10231395696E+04  0.12699999809E+01 0. -1.
</event>
<event>
 5   0  0.6679022E-08  0.2999931E+04  0.7818609E-02  0.8243751E-01
        1   -1    0    0  501    0  0.00000000000E+00  0.00000000000E+00  0.28822243220E+04  0.28822243220E+04  0.50400001928E-02 0. -1.
       -1   -1    0    0    0  501  0.00000000000E+00  0.00000000000E+00 -0.78061109810E+03  0.78061109812E+03  0.50400001928E-02 0.  1.
    10030    2    1    2    0    0  0.00000000000E+00  0.00000000000E+00  0.21016132239E+04  0.36628354201E+04  0.29999308612E+04 0.  0.
        3    1    3    3  502    0  0.69488393641E+03 -0.64294239870E+03  0.24713698892E+04  0.26464897039E+04  0.10100000352E+00 0. -1.
       -3    1    3    3    0  502 -0.69488393641E+03  0.64294239870E+03 -0.36975666535E+03  0.10163457162E+04  0.10100000352E+00 0.  1.
</event>
<event>
 5   0  0.6679022E-08  0.2999483E+04  0.7818609E-02  0.8243879E-01
        1   -1    0    0  501    0  0.00000000000E+00  0.00000000000E+00  0.15413736627E+04  0.15413736627E+04  0.50400001928E-02 0.  1.
       -1   -1    0    0    0  501  0.00000000000E+00  0.00000000000E+00 -0.14592338337E+04  0.14592338337E+04  0.50400001928E-02 0. -1.
    10030    2    1    2    0    0  0.00000000000E+00  0.00000000000E+00  0.82139828934E+02  0.30006074964E+04  0.29994830215E+04 0.  0.
        3    1    3    3  502    0 -0.10289540502E+04  0.83006559372E+03 -0.66734050554E+03  0.14809114382E+04  0.10100000352E+00 0. -1.
       -3    1    3    3    0  502  0.10289540502E+04 -0.83006559372E+03  0.74948033447E+03  0.15196960582E+04  0.10100000352E+00 0.  1.
</event>
<event>
 5   0  0.1810055E-07  0.3000102E+04  0.7818609E-02  0.8243702E-01
        2   -1    0    0  501    0  0.00000000000E+00  0.00000000000E+00  0.15972034375E+04  0.15972034375E+04  0.25500000920E-02 0. -1.
       -2   -1    0    0    0  501  0.00000000000E+00  0.00000000000E+00 -0.14088077321E+04  0.14088077321E+04  0.25500000920E-02 0.  1.
    10030    2    1    2    0    0  0.00000000000E+00  0.00000000000E+00  0.18839570544E+03  0.30060111696E+04  0.30001016999E+04 0.  0.
        4    1    3    3  502    0 -0.10929722296E+04  0.16727405500E+03  0.11098918002E+04  0.15666621605E+04  0.12699999809E+01 0. -1.
       -4    1    3    3    0  502  0.10929722296E+04 -0.16727405500E+03 -0.92149609475E+03  0.14393490090E+04  0.12699999809E+01 0.  1.
</event>
<event>
 5   0  0.6464436E-08  0.3003029E+04  0.7818609E-02  0.8242866E-01
        1   -1    0    0  501    0  0.00000000000E+00  0.00000000000E+00  0.26879749950E+04  0.26879749950E+04  0.50400001928E-02 0. -1.
       -1   -1    0    0    0  501  0.00000000000E+00  0.00000000000E+00 -0.83875278958E+03  0.83875278960E+03  0.50400001928E-02 0.  1.
    10030    2    1    2    0    0  0.00000000000E+00  0.00000000000E+00  0.18492222054E+04  0.35267277846E+04  0.30030294873E+04 0.  0.
        5    1    3    3  502    0 -0.10646992830E+03  0.41628901797E+03 -0.76499780410E+03  0.87742585008E+03  0.46999998093E+01 0.  1.
       -5    1    3    3    0  502  0.10646992830E+03 -0.41628901797E+03  0.26142200095E+04  0.26493019345E+04  0.46999998093E+01 0. -1.
</event>
<event>
 5   0  0.6525507E-08  0.2996213E+04  0.7818609E-02  0.8244813E-01
       -1   -1    0    0    0  501  0.00000000000E+00  0.00000000000E+00  0.15430775284E+04  0.15430775285E+04  0.50400001928E-02 0.  1.
        1   -1    0    0  501    0  0.00000000000E+00  0.00000000000E+00 -0.14544460251E+04  0.14544460252E+04  0.50400001928E-02 0. -1.
    10030    2    1    2    0    0  0.00000000000E+00  0.00000000000E+00  0.88631503300E+02  0.29975235536E+04  0.29962129282E+04 0.  0.
        4    1    3    3  502    0 -0.13776369543E+04  0.53331445438E+03 -0.20481823739E+03  0.14913953226E+04  0.12699999809E+01 0. -1.
       -4    1    3    3    0  502  0.13776369543E+04 -0.53331445438E+03  0.29344974069E+03  0.15061282310E+04  0.12699999809E+01 0.  1.
</event>
<event>
 5   0  0.6636007E-08  0.2999790E+04  0.7818609E-02  0.8243791E-01
       -1   -1    0    0    0  501  0.00000000000E+00  0.00000000000E+00  0.83960143044E+03  0.83960143045E+03  0.50400001928E-02 0. -1.
        1   -1    0    0  501    0  0.00000000000E+00  0.00000000000E+00 -0.26794679981E+04  0.26794679981E+04  0.50400001928E-02 0.  1.
    10030    2    1    2    0    0  0.00000000000E+00  0.00000000000E+00 -0.18398665677E+04  0.35190694286E+04  0.29997901020E+04 0.  0.
        2    1    3    3  502    0  0.77270487429E+02  0.10142583125E+04 -0.22130095051E+04  0.24355906311E+04  0.25500000920E-02 0.  1.
       -2    1    3    3    0  502 -0.77270487429E+02 -0.10142583125E+04  0.37314293740E+03  0.10834787975E+04  0.25500000920E-02 0. -1.
</event>
<event>
 5   0  0.1813720E-07  0.2999281E+04  0.7818609E-02  0.8243936E-01
        2   -1    0    0  501    0  0.00000000000E+00  0.00000000000E+00  0.14994304176E+04  0.14994304176E+04  0.25500000920E-02 0. -1.
       -2   -1    0    0    0  501  0.00000000000E+00  0.00000000000E+00 -0.14998503111E+04  0.14998503111E+04  0.25500000920E-02 0.  1.
    10030    2    1    2    0    0  0.00000000000E+00  0.00000000000E+00 -0.41989356255E+00  0.29992807287E+04  0.29992806993E+04 0.  0.
        3    1    3    3  502    0 -0.34648532691E+03 -0.13469411066E+04 -0.56111880555E+03  0.14997188905E+04  0.10100000352E+00 0.  1.
       -3    1    3    3    0  502  0.34648532691E+03  0.13469411066E+04  0.56069891199E+03  0.14995618382E+04  0.10100000352E+00 0. -1.
</event>
<event>
 5   0  0.1810055E-07  0.2999772E+04  0.7818609E-02  0.8243796E-01
       -2   -1    0    0    0  501  0.00000000000E+00  0.00000000000E+00  0.14092273939E+04  0.14092273939E+04  0.25500000920E-02 0.  1.
        2   -1    0    0  501    0  0.00000000000E+00  0.00000000000E+00 -0.15963768278E+04  0.15963768278E+04  0.25500000920E-02 0. -1.
    10030    2    1    2    0    0  0.00000000000E+00  0.00000000000E+00 -0.18714943389E+03  0.30056042217E+04  0.29997719625E+04 0.  0.
        4    1    3    3  502    0 -0.95638057482E+03  0.73354118459E+02 -0.12489044934E+04  0.15747408286E+04  0.12699999809E+01 0. -1.
       -4    1    3    3    0  502  0.95638057482E+03 -0.73354118459E+02  0.10617550595E+04  0.14308633932E+04  0.12699999809E+01 0.  1.
</event>
<event>
 5   0  0.1817566E-07  0.2999991E+04  0.7818609E-02  0.8243733E-01
       -2   -1    0    0    0  501  0.00000000000E+00  0.00000000000E+00  0.19811220976E+04  0.19811220976E+04  0.25500000920E-02 0. -1.
        2   -1    0    0  501    0  0.00000000000E+00  0.00000000000E+00 -0.11357133147E+04  0.11357133147E+04  0.25500000920E-02 0.  1.
    10030    2    1    2    0    0  0.00000000000E+00  0.00000000000E+00  0.84540878287E+03  0.31168354123E+04  0.29999911629E+04 0.  0.
        1    1    3    3  502    0 -0.40057499961E+03  0.27340574958E+03 -0.10520077210E+04  0.11584175755E+04  0.50400001928E-02 0.  1.
       -1    1    3    3    0  502  0.40057499961E+03 -0.27340574958E+03  0.18974165039E+04  0.19584178368E+04  0.50400001928E-02 0. -1.
</event>
<event>
 5   0  0.1813720E-07  0.2999343E+04  0.7818609E-02  0.8243918E-01
        2   -1    0    0  501    0  0.00000000000E+00  0.00000000000E+00  0.14188948645E+04  0.14188948645E+04  0.25500000920E-02 0.  1.
       -2   -1    0    0    0  501  0.00000000000E+00  0.00000000000E+00 -0.15850471059E+04  0.15850471059E+04  0.25500000920E-02 0. -1.
    10030    2    1    2    0    0  0.00000000000E+00  0.00000000000E+00 -0.16615224138E+03  0.30039419704E+04  0.29993433939E+04 0.  0.
        3    1    3    3  502    0  0.13157640012E+03 -0.14175013899E+04  0.38923216217E+03  0.14758469520E+04  0.10100000352E+00 0.  1.
       -3    1    3    3    0  502 -0.13157640012E+03  0.14175013899E+04 -0.55538440355E+03  0.15280950184E+04  0.10100000352E+00 0. -1.
</event>
<event>
 5   0  0.6464436E-08  0.3000103E+04  0.7818609E-02  0.8243701E-01
        1   -1    0    0  501    0  0.00000000000E+00  0.00000000000E+00  0.23584578879E+04  0.23584578879E+04  0.50400001928E-02 0. -1.
       -1   -1    0    0    0  501  0.00000000000E+00  0.00000000000E+00 -0.95407874260E+03  0.95407874262E+03  0.50400001928E-02 0.  1.
    10030    2    1    2    0    0  0.00000000000E+00  0.00000000000E+00  0.14043791453E+04  0.33125366305E+04  0.30001030223E+04 0.  0.
        5    1    3    3  502    0  0.13820637321E+04  0.91660293129E+02  0.13380354647E+04  0.19258407940E+04  0.46999998093E+01 0. -1.
       -5    1    3    3    0  502 -0.13820637321E+04 -0.91660293129E+02  0.66343680593E+02  0.13866958365E+04  0.46999998093E+01 0.  1.
</event>
<event>
 5   0  0.6525507E-08  0.3000701E+04  0.7818609E-02  0.8243531E-01
       -1   -1    0    0    0  501  0.00000000000E+00  0.00000000000E+00  0.88383616387E+03  0.88383616389E+03  0.50400001928E-02 0.  1.
        1   -1    0    0  501    0  0.00000000000E+00  0.00000000000E+00 -0.25469106539E+04  0.25469106539E+04  0.50400001928E-02 0. -1.
    10030    2    1    2    0    0  0.00000000000E+00  0.00000000000E+00 -0.16630744900E+04  0.34307468178E+04  0.30007010795E+04 0.  0.
        4    1    3    3  502    0 -0.13057193360E+04 -0.41697971672E+03 -0.13395100395E+03  0.13772144179E+04  0.12699999809E+01 0.  1.
       -4    1    3    3    0  502  0.13057193360E+04  0.41697971672E+03 -0.15291234860E+04  0.20535323998E+04  0.12699999809E+01 0. -1.
</event>
<event>
 5   0  0.6464436E-08  0.3000052E+04  0.7818609E-02  0.8243716E-01
        1   -1    0    0  501    0  0.00000000000E+00  0.00000000000E+00  0.17441954666E+04  0.17441954666E+04  0.50400001928E-02 0. -1.
       -1   -1    0    0    0  501  0.00000000000E+00  0.00000000000E+00 -0.12900378466E+04  0.12900378466E+04  0.50400001928E-02 0.  1.
    10030    2    1    2    0    0  0.00000000000E+00  0.00000000000E+00  0.45415762001E+03  0.30342333131E+04  0.30000521087E+04 0.  0.
        5    1    3    3  502    0 -0.11018330885E+04  0.39449396755E+03 -0.72190502941E+03  0.13750747641E+04  0.46999998093E+01 0.  1.
       -5    1    3    3    0  502  0.11018330885E+04 -0.39449396755E+03  0.11760626494E+04  0.16591585490E+04  0.46999998093E+01 0. -1.
</event>
<event>
 5   0  0.6374748E-08  0.3002324E+04  0.7818609E-02  0.8243067E-01
       -1   -1    0    0    0  501  0.00000000000E+00  0.00000000000E+00  0.14893882754E+04  0.14893882754E+04  0.50400001928E-02 0. -1.
        1   -1    0    0  501    0  0.00000000000E+00  0.00000000000E+00 -0.15130292976E+04  0.15130292976E+04  0.50400001928E-02 0.  1.
    10030    2    1    2    0    0  0.00000000000E+00  0.00000000000E+00 -0.23641022252E+02  0.30024175730E+04  0.30023244969E+04 0.  0.
        1    1    3    3  502    0 -0.92773108381E+03  0.11607166054E+04 -0.22522837880E+03  0.15028891591E+04  0.50400001928E-02 0.  1.
       -1    1    3    3    0  502  0.92773108381E+03 -0.11607166054E+04  0.20158735655E+03  0.14995284139E+04  0.50400001928E-02 0. -1.
</event>
<event>
 5   0  0.1810055E-07  0.2997448E+04  0.7818609E-02  0.8244460E-01
       -2   -1    0    0    0  501  0.00000000000E+00  0.00000000000E+00  0.11229346589E+04  0.11229346589E+04  0.25500000920E-02 0.  1.
        2   -1    0    0  501    0  0.00000000000E+00  0.00000000000E+00 -0.20002715784E+04  0.20002715784E+04  0.25500000920E-02 0. -1.
    10030    2    1    2    0    0  0.00000000000E+00  0.00000000000E+00 -0.87733691958E+03  0.31232062373E+04  0.29974484367E+04 0.  0.
        4    1    3    3  502    0  0.85505871524E+03  0.41276037835E+02  0.84312398587E+03  0.12015360112E+04  0.12699999809E+01 0.  1.
       -4    1    3    3    0  502 -0.85505871524E+03 -0.41276037835E+02 -0.17204609054E+04  0.19216702261E+04  0.12699999809E+01 0. -1.
</event>
<event>
 5   0  0.1817566E-07  0.2998309E+04  0.7818609E-02  0.8244214E-01
       -2   -1    0    0    0  501  0.00000000000E+00  0.00000000000E+00  0.11992391103E+04  0.11992391103E+04  0.25500000920E-02 0. -1.
        2   -1    0    0  501    0  0.00000000000E+00  0.00000000000E+00 -0.18740755062E+04  0.18740755062E+04  0.25500000920E-02 0.  1.
    10030    2    1    2    0    0  0.00000000000E+00  0.00000000000E+00 -0.67483639588E+03  0.30733146165E+04  0.29983092854E+04 0.  0.
        1    1    3    3  502    0  0.72327126580E+03  0.92553135346E+03  0.61740762841E+03  0.13269972833E+04  0.50400001928E-02 0. -1.
       -1    1    3    3    0  502 -0.72327126580E+03 -0.92553135346E+03 -0.12922440243E+04  0.17463173333E+04  0.50400001928E-02 0.  1.
</event>
<event>
 5   0  0.1821305E-07  0.2999443E+04  0.7818609E-02  0.8243890E-01
       -2   -1    0    0    0  501  0.00000000000E+00  0.00000000000E+00  0.11325130520E+04  0.11325130520E+04  0.25500000920E-02 0. -1.
        2   -1    0    0  501    0  0.00000000000E+00  0.00000000000E+00 -0.19859943790E+04  0.19859943790E+04  0.25500000920E-02 0.  1.
    10030    2    1    2    0    0  0.00000000000E+00  0.00000000000E+00 -0.85348132698E+03  0.31185074310E+04  0.29994429852E+04 0.  0.
        2    1    3    3  502    0  0.45955375727E+02 -0.13401593716E+04  0.27150255902E+03  0.13681566714E+04  0.25500000920E-02 0. -1.
       -2    1    3    3    0  502 -0.45955375727E+02  0.13401593716E+04 -0.11249838860E+04  0.17503507596E+04  0.25500000920E-02 0.  1.
</event>
<event>
 5   0  0.6679022E-08  0.2999600E+04  0.7818609E-02  0.8243845E-01
       -1   -1    0    0    0  501  0.00000000000E+00  0.00000000000E+00  0.12346244854E+04  0.12346244854E+04  0.50400001928E-02 0. -1.
        1   -1    0    0  501    0  0.00000000000E+00  0.00000000000E+00 -0.18219300323E+04  0.18219300323E+04  0.50400001928E-02 0.  1.
    10030    2    1    2    0    0  0.00000000000E+00  0.00000000000E+00 -0.58730554690E+03  0.30565545177E+04  0.29995995923E+04 0.  0.
        3    1    3    3  502    0  0.76331218661E+03  0.21079637819E+03 -0.15915400127E+04  0.17776614496E+04  0.10100000352E+00 0.  1.
       -3    1    3    3    0  502 -0.76331218661E+03 -0.21079637819E+03  0.10042344657E+04  0.12788930681E+04  0.10100000352E+00 0. -1.
</event>
<event>
 5   0  0.1813720E-07  0.3000838E+04  0.7818609E-02  0.8243492E-01
        2   -1    0    0  501    0  0.00000000000E+00  0.00000000000E+00  0.22834664657E+04  0.22834664657E+04  0.25500000920E-02 0.  1.
       -2   -1    0    0    0  501  0.00000000000E+00  0.00000000000E+00 -0.98589424688E+03  0.98589424688E+03  0.25500000920E-02 0. -1.
    10030    2    1    2    0    0  0.00000000000E+00  0.00000000000E+00  0.12975722188E+04  0.32693607126E+04  0.30008375174E+04 0.  0.
        3    1    3    3  502    0  0.11279373123E+04  0.11060031232E+02  0.17267088779E+04  0.20624956882E+04  0.10100000352E+00 0.  1.
       -3    1    3    3    0  502 -0.11279373123E+04 -0.11060031232E+02 -0.42913665902E+03  0.12068650244E+04  0.10100000352E+00 0. -1.
</event>
<event>
 5   0  0.1914439E-07  0.3000816E+04  0.7818609E-02  0.8243498E-01
       -2   -1    0    0    0  501  0.00000000000E+00  0.00000000000E+00  0.13852344797E+04  0.13852344797E+04  0.25500000920E-02 0. -1.
        2   -1    0    0  501    0  0.00000000000E+00  0.00000000000E+00 -0.16251572934E+04  0.16251572934E+04  0.25500000920E-02 0.  1.
    10030    2    1    2    0    0  0.00000000000E+00  0.00000000000E+00 -0.23992281372E+03  0.30103917731E+04  0.30008158342E+04 0.  0.
        5    1    3    3  502    0 -0.51301670566E+00  0.93864113769E+03  0.10543098409E+04  0.14116085786E+04  0.46999998093E+01 0. -1.
       -5    1    3    3    0  502  0.51301670566E+00 -0.93864113769E+03 -0.12942326547E+04  0.15987831945E+04  0.46999998093E+01 0.  1.
</event>
<event>
 5   0  0.1817566E-07  0.2997660E+04  0.7818609E-02  0.8244399E-01
        2   -1    0    0  501    0  0.00000000000E+00  0.00000000000E+00  0.18918506704E+04  0.18918506704E+04  0.25500000920E-02 0.  1.
       -2   -1    0    0    0  501  0.00000000000E+00  0.00000000000E+00 -0.11874570644E+04  0.11874570644E+04  0.25500000920E-02 0. -1.
    10030    2    1    2    0    0  0.00000000000E+00  0.00000000000E+00  0.70439360608E+03  0.30793077348E+04  0.29976600496E+04 0.  0.
        1    1    3    3  502    0  0.78603315076E+03 -0.19206014460E+03  0.16482087113E+04  0.18361174171E+04  0.50400001928E-02 0.  1.
       -1    1    3    3    0  502 -0.78603315076E+03  0.19206014460E+03 -0.94381510521E+03  0.12431903177E+04  0.50400001928E-02 0. -1.
</event>
<event>
 5   0  0.6679022E-08  0.3000435E+04  0.7818609E-02  0.8243607E-01
       -1   -1    0    0    0  501  0.00000000000E+00  0.00000000000E+00  0.96478063742E+03  0.96478063743E+03  0.50400001928E-02 0. -1.
        1   -1    0    0  501    0  0.00000000000E+00  0.00000000000E+00 -0.23328130773E+04  0.23328130773E+04  0.50400001928E-02 0.  1.
    10030    2    1    2    0    0  0.00000000000E+00  0.00000000000E+00 -0.13680324399E+04  0.32975937148E+04  0.30004352269E+04 0.  0.
        3    1    3    3  502    0 -0.99105797846E+02  0.11152651840E+04  0.41338041848E+03  0.11935333135E+04  0.10100000352E+00 0. -1.
       -3    1    3    3    0  502  0.99105797846E+02 -0.11152651840E+04 -0.17814128584E+04  0.21040604013E+04  0.10100000352E+00 0.  1.
</event>
<event>
 5   0  0.6525507E-08  0.3001628E+04  0.7818609E-02  0.8243266E-01
       -1   -1    0    0    0  501  0.00000000000E+00  0.00000000000E+00  0.11270072922E+04  0.11270072922E+04  0.50400001928E-02 0. -1.
        1   -1    0    0  501    0  0.00000000000E+00  0.00000000000E+00 -0.19986045967E+04  0.19986045967E+04  0.50400001928E-02 0.  1.
    10030    2    1    2    0    0  0.00000000000E+00  0.00000000000E+00 -0.87159730452E+03  0.31256118890E+04  0.30016275284E+04 0.  0.
        4    1    3    3  502    0 -0.63137671305E+03 -0.13352861549E+04 -0.15869651434E+03  0.14855342022E+04  0.12699999809E+01 0. -1.
       -4    1    3    3    0  502  0.63137671305E+03  0.13352861549E+04 -0.71290079018E+03  0.16400776868E+04  0.12699999809E+01 0.  1.
</event>
<event>
 5   0  0.6679022E-08  0.2997519E+04  0.7818609E-02  0.8244440E-01
        1   -1    0    0  501    0  0.00000000000E+00  0.00000000000E+00  0.17260766493E+04  0.17260766493E+04  0.50400001928E-02 0.  1.
       -1   -1    0    0    0  501  0.00000000000E+00  0.00000000000E+00 -0.13013789565E+04  0.13013789565E+04  0.50400001928E-02 0. -1.
    10030    2    1    2    0    0  0.00000000000E+00  0.00000000000E+00  0.42469769281E+03  0.30274556058E+04  0.29975188598E+04 0.  0.
        3    1    3    3  502    0 -0.80126336947E+03  0.14113440093E+03  0.14836246073E+04  0.16920649787E+04  0.10100000352E+00 0.  1.
       -3    1    3    3    0  502  0.80126336947E+03 -0.14113440093E+03 -0.10589269145E+04  0.13353906271E+04  0.10100000352E+00 0. -1.
</event>
<event>
 5   0  0.1810055E-07  0.3000767E+04  0.7818609E-02  0.8243512E-01
       -2   -1    0    0    0  501  0.00000000000E+00  0.00000000000E+00  0.13494250685E+04  0.13494250685E+04  0.25500000920E-02 0. -1.
        2   -1    0    0  501    0  0.00000000000E+00  0.00000000000E+00 -0.16682295584E+04  0.16682295584E+04  0.25500000920E-02 0.  1.
    10030    2    1    2    0    0  0.00000000000E+00  0.00000000000E+00 -0.31880448986E+03  0.30176546269E+04  0.30007670926E+04 0.  0.
        4    1    3    3  502    0 -0.25075860018E+03 -0.14280057563E+04  0.22886495711E+03  0.14678082630E+04  0.12699999809E+01 0. -1.
       -4    1    3    3    0  502  0.25075860018E+03  0.14280057563E+04 -0.54766944697E+03  0.15498463638E+04  0.12699999809E+01 0.  1.
</event>
<event>
 5   0  0.1914439E-07  0.2999998E+04  0.7818609E-02  0.8243731E-01
       -2   -1    0    0    0  501  0.00000000000E+00  0.00000000000E+00  0.20435962293E+04  0.20435962293E+04  0.25500000920E-02 0.  1.
        2   -1    0    0  501    0  0.00000000000E+00  0.00000000000E+00 -0.11009991621E+04  0.11009991621E+04  0.25500000920E-02 0. -1.
    10030    2    1    2    0    0  0.00000000000E+00  0.00000000000E+00  0.94259706716E+03  0.31445953914E+04  0.29999984908E+04 0.  0.
        5    1    3    3  502    0 -0.38489564290E+03  0.11755482583E+04  0.13606737787E+04  0.18388892260E+04  0.46999998093E+01 0.  1.
       -5    1    3    3    0  502  0.38489564290E+03 -0.11755482583E+04 -0.41807671151E+03  0.13057061654E+04  0.46999998093E+01 0. -1.
</event>
<event>
 5   0  0.1821305E-07  0.2999605E+04  0.7818609E-02  0.8243844E-01
        2   -1    0    0  501    0  0.00000000000E+00  0.00000000000E+00  0.91628320175E+03  0.91628320175E+03  0.25500000920E-02 0.  1.
       -2   -1    0    0    0  501  0.00000000000E+00  0.00000000000E+00 -0.24549260218E+04  0.24549260218E+04  0.25500000920E-02 0. -1.
    10030    2    1    2    0    0  0.00000000000E+00  0.00000000000E+00 -0.15386428200E+04  0.33712092235E+04  0.29996049575E+04 0.  0.
        2    1    3    3  502    0 -0.95075204646E+03 -0.28402965437E+03 -0.20332817907E+04  0.22624847268E+04  0.25500000920E-02 0. -1.
       -2    1    3    3    0  502  0.95075204646E+03  0.28402965437E+03  0.49463897068E+03  0.11087244968E+04  0.25500000920E-02 0.  1.
</event>
<event>
 5   0  0.1813720E-07  0.2998306E+04  0.7818609E-02  0.8244215E-01
        2   -1    0    0  501    0  0.00000000000E+00  0.00000000000E+00  0.16450587199E+04  0.16450587199E+04  0.25500000920E-02 0. -1.
       -2   -1    0    0    0  501  0.00000000000E+00  0.00000000000E+00 -0.13661878806E+04  0.13661878806E+04  0.25500000920E-02 0.  1.
    10030    2    1    2    0    0  0.00000000000E+00  0.00000000000E+00  0.27887083934E+03  0.30112466006E+04  0.29983057123E+04 0.  0.
        3    1    3    3  502    0  0.63504334160E+03  0.13403642735E+04 -0.79687024105E+02  0.14853304223E+04  0.10100000352E+00 0.  1.
       -3    1    3    3    0  502 -0.63504334160E+03 -0.13403642735E+04  0.35855786345E+03  0.15259161783E+04  0.10100000352E+00 0. -1.
</event>
<event>
 5   0  0.1821305E-07  0.2998924E+04  0.7818609E-02  0.8244038E-01
        2   -1    0    0  501    0  0.00000000000E+00  0.00000000000E+00  0.20023067671E+04  0.20023067671E+04  0.25500000920E-02 0.  1.
       -2   -1    0    0    0  501  0.00000000000E+00  0.00000000000E+00 -0.11228976382E+04  0.11228976382E+04  0.25500000920E-02 0. -1.
    10030    2    1    2    0    0  0.00000000000E+00  0.00000000000E+00  0.87940912898E+03  0.31252044053E+04  0.29989235000E+04 0.  0.
        2    1    3    3  502    0  0.99469404920E+02 -0.13505436274E+04  0.11106504707E+04  0.17514013590E+04  0.25500000920E-02 0.  1.
       -2    1    3    3    0  502 -0.99469404920E+02  0.13505436274E+04 -0.23124134176E+03  0.13738030464E+04  0.25500000920E-02 0. -1.
</event>
<event>
 5   0  0.1813720E-07  0.3007363E+04  0.7818609E-02  0.8241632E-01
        2   -1    0    0  501    0  0.00000000000E+00  0.00000000000E+00  0.12695016347E+04  0.12695016347E+04  0.25500000920E-02 0. -1.
       -2   -1    0    0    0  501  0.00000000000E+00  0.00000000000E+00 -0.17810593726E+04  0.17810593726E+04  0.25500000920E-02 0.  1.
    10030    2    1    2    0    0  0.00000000000E+00  0.00000000000E+00 -0.51155773787E+03  0.30505610074E+04  0.30073628216E+04 0.  0.
        3    1    3    3  502    0  0.89422632592E+03 -0.11326707763E+04 -0.68430896169E+03  0.15971420021E+04  0.10100000352E+00 0. -1.
       -3    1    3    3    0  502 -0.89422632592E+03  0.11326707763E+04  0.17275122382E+03  0.14534190053E+04  0.10100000352E+00 0.  1.
</event>
<event>
 5   0  0.1813720E-07  0.2998409E+04  0.7818609E-02  0.8244185E-01
       -2   -1    0    0    0  501  0.00000000000E+00  0.00000000000E+00  0.17894102308E+04  0.17894102308E+04  0.25500000920E-02 0. -1.
        2   -1    0    0  501    0  0.00000000000E+00  0.00000000000E+00 -0.12560641675E+04  0.12560641675E+04  0.25500000920E-02 0.  1.
    10030    2    1    2    0    0  0.00000000000E+00  0.00000000000E+00  0.53334606323E+03  0.30454743983E+04  0.29984089593E+04 0.  0.
        3    1    3    3  502    0 -0.62772213941E+03 -0.32175566945E+03 -0.10769876092E+04  0.12874253825E+04  0.10100000352E+00 0.  1.
       -3    1    3    3    0  502  0.62772213941E+03  0.32175566945E+03  0.16103336724E+04  0.17580490157E+04  0.10100000352E+00 0. -1.
</event>
<event>
 5   0  0.1810055E-07  0.2997618E+04  0.7818609E-02  0.8244411E-01
       -2   -1    0    0    0  501  0.00000000000E+00  0.00000000000E+00  0.12861189314E+04  0.12861189314E+04  0.25500000920E-02 0. -1.
        2   -1    0    0  501    0  0.00000000000E+00  0.00000000000E+00 -0.17466728349E+04  0.17466728349E+04  0.25500000920E-02 0.  1.
    10030    2    1    2    0    0  0.00000000000E+00  0.00000000000E+00 -0.46055390354E+03  0.30327917663E+04  0.29976183879E+04 0.  0.
        4    1    3    3  502    0 -0.11550278256E+04  0.34608907389E+03 -0.11309816950E+04  0.16531751669E+04  0.12699999809E+01 0.  1.
       -4    1    3    3    0  502  0.11550278256E+04 -0.34608907389E+03  0.67042779144E+03  0.13796165994E+04  0.12699999809E+01 0. -1.
</event>
<event>
 5   0  0.6464436E-08  0.2999345E+04  0.7818609E-02  0.8243918E-01
       -1   -1    0    0    0  501  0.00000000000E+00  0.00000000000E+00  0.12999679846E+04  0.12999679846E+04  0.50400001928E-02 0. -1.
        1   -1    0    0  501    0  0.00000000000E+00  0.00000000000E+00 -0.17300565266E+04  0.17300565266E+04  0.50400001928E-02 0.  1.
    10030    2    1    2    0    0  0.00000000000E+00  0.00000000000E+00 -0.43008854197E+03  0.30300245113E+04  0.29993453260E+04 0.  0.
        5    1    3    3  502    0  0.28901703923E+03 -0.19433612393E+03  0.12585391540E+04  0.13058484867E+04  0.46999998093E+01 0. -1.
       -5    1    3    3    0  502 -0.28901703923E+03  0.19433612393E+03 -0.16886276960E+04  0.17241760246E+04  0.46999998093E+01 0.  1.
</event>
<event>
 5   0  0.6636007E-08  0.2999312E+04  0.7818609E-02  0.8243927E-01
        1   -1    0    0  501    0  0.00000000000E+00  0.00000000000E+00  0.18789621775E+04  0.18789621775E+04  0.50400001928E-02 0.  1.
       -1   -1    0    0    0  501  0.00000000000E+00  0.00000000000E+00 -0.11969205560E+04  0.11969205560E+04  0.50400001928E-02 0. -1.
    10030    2    1    2    0    0  0.00000000000E+00  0.00000000000E+00  0.68204162142E+03  0.30758827335E+04  0.29993122240E+04 0.  0.
        2    1    3    3  502    0 -0.85774953219E+02  0.10441839851E+04 -0.75935398904E+03  0.12939459100E+04  0.25500000920E-02 0. -1.
       -2    1    3    3    0  502  0.85774953219E+02 -0.10441839851E+04  0.14413956105E+04  0.17819368235E+04  0.25500000920E-02 0.  1.
</event>
<event>
 5   0  0.6636007E-08  0.2998774E+04  0.7818609E-02  0.8244081E-01
        1   -1    0    0  501    0  0.00000000000E+00  0.00000000000E+00  0.16657980942E+04  0.16657980942E+04  0.50400001928E-02 0. -1.
       -1   -1    0    0    0  501  0.00000000000E+00  0.00000000000E+00 -0.13496001156E+04  0.13496001156E+04  0.50400001928E-02 0.  1.
    10030    2    1    2    0    0  0.00000000000E+00  0.00000000000E+00  0.31619797864E+03  0.30153982098E+04  0.29987739498E+04 0.  0.
        2    1    3    3  502    0  0.77717086945E+03  0.17338983045E+03  0.14356155129E+04  0.16416608951E+04  0.25500000920E-02 0. -1.
       -2    1    3    3    0  502 -0.77717086945E+03 -0.17338983045E+03 -0.11194175343E+04  0.13737373147E+04  0.25500000920E-02 0.  1.
</event>
<event>
 5   0  0.6679022E-08  0.2998694E+04  0.7818609E-02  0.8244104E-01
        1   -1    0    0  501    0  0.00000000000E+00  0.00000000000E+00  0.21122269898E+04  0.21122269898E+04  0.50400001928E-02 0. -1.
       -1   -1    0    0    0  501  0.00000000000E+00  0.00000000000E+00 -0.10642994988E+04  0.10642994988E+04  0.50400001928E-02 0.  1.
    10030    2    1    2    0    0  0.00000000000E+00  0.00000000000E+00  0.10479274910E+04  0.31765264886E+04  0.29986944670E+04 0.  0.
        3    1    3    3  502    0  0.14771957835E+04 -0.24428880950E+03  0.44016683189E+03  0.15606188693E+04  0.10100000352E+00 0.  1.
       -3    1    3    3    0  502 -0.14771957835E+04  0.24428880950E+03  0.60776065907E+03  0.16159076193E+04  0.10100000352E+00 0. -1.
</event>
<event>
 5   0  0.1817566E-07  0.2999837E+04  0.7818609E-02  0.8243777E-01
       -2   -1    0    0    0  501  0.00000000000E+00  0.00000000000E+00  0.12889523833E+04  0.12889523833E+04  0.25500000920E-02 0. -1.
        2   -1    0    0  501    0  0.00000000000E+00  0.00000000000E+00 -0.17454143791E+04  0.17454143791E+04  0.25500000920E-02 0.  1.
    10030    2    1    2    0    0  0.00000000000E+00  0.00000000000E+00 -0.45646199580E+03  0.30343667624E+04  0.29998373448E+04 0.  0.
        1    1    3    3  502    0 -0.10260025616E+04 -0.55752548094E+02  0.87703401240E+03  0.13509175630E+04  0.50400001928E-02 0. -1.
       -1    1    3    3    0  502  0.10260025616E+04  0.55752548094E+02 -0.13334960082E+04  0.16834491994E+04  0.50400001928E-02 0.  1.
</event>
<event>
 5   0  0.6679022E-08  0.2999903E+04  0.7818609E-02  0.8243759E-01
       -1   -1    0    0    0  501  0.00000000000E+00  0.00000000000E+00  0.13382114782E+04  0.13382114782E+04  0.50400001928E-02 0.  1.
        1   -1    0    0  501    0  0.00000000000E+00  0.00000000000E+00 -0.16812395050E+04  0.16812395050E+04  0.50400001928E-02 0. -1.
    10030    2    1    2    0    0  0.00000000000E+00  0.00000000000E+00 -0.34302802679E+03  0.30194509831E+04  0.29999026672E+04 0.  0.
        3    1    3    3  502    0 -0.48333247173E+02 -0.14583834711E+04  0.17807554948E+03  0.14700099875E+04  0.10100000352E+00 0.  1.
       -3    1    3    3    0  502  0.48333247173E+02  0.14583834711E+04 -0.52110357627E+03  0.15494409957E+04  0.10100000352E+00 0. -1.
</event>
<event>
 5   0  0.1813720E-07  0.2999843E+04  0.7818609E-02  0.8243776E-01
       -2   -1    0    0    0  501  0.00000000000E+00  0.00000000000E+00  0.98592410089E+03  0.98592410089E+03  0.25500000920E-02 0.  1.
        2   -1    0    0  501    0  0.00000000000E+00  0.00000000000E+00 -0.22818837824E+04  0.22818837824E+04  0.25500000920E-02 0. -1.
    10030    2    1    2    0    0  0.00000000000E+00  0.00000000000E+00 -0.12959596815E+04  0.32678078833E+04  0.29998428069E+04 0.  0.
        3    1    3    3  502    0 -0.57029849255E+03 -0.13239341604E+04 -0.10993898742E+04  0.18129258499E+04  0.10100000352E+00 0. -1.
       -3    1    3    3    0  502  0.57029849255E+03  0.13239341604E+04 -0.19656980732E+03  0.14548820334E+04  0.10100000352E+00 0.  1.
</event>
<event>
 5   0  0.6374748E-08  0.2997848E+04  0.7818609E-02  0.8244346E-01
       -1   -1    0    0    0  501  0.00000000000E+00  0.00000000000E+00  0.10804888162E+04  0.10804888162E+04  0.50400001928E-02 0.  1.
        1   -1    0    0  501    0  0.00000000000E+00  0.00000000000E+00 -0.20794043198E+04  0.20794043198E+04  0.50400001928E-02 0. -1.
    10030    2    1    2    0    0  0.00000000000E+00  0.00000000000E+00 -0.99891550357E+03  0.31598931360E+04  0.29978479694E+04 0.  0.
        1    1    3    3  502    0  0.14151566448E+04  0.75612818493E+02 -0.10140989104E+04  0.17426365737E+04  0.50400001928E-02 0. -1.
       -1    1    3    3    0  502 -0.14151566448E+04 -0.75612818493E+02  0.15183406828E+02  0.14172565624E+04  0.50400001928E-02 0.  1.
</event>
<event>
 5   0  0.1810055E-07  0.2997429E+04  0.7818609E-02  0.8244465E-01
        2   -1    0    0  501    0  0.00000000000E+00  0.00000000000E+00  0.23188178471E+04  0.23188178471E+04  0.25500000920E-02 0.  1.
       -2   -1    0    0    0  501  0.00000000000E+00  0.00000000000E+00 -0.96865968378E+03  0.96865968378E+03  0.25500000920E-02 0. -1.
    10030    2    1    2    0    0  0.00000000000E+00  0.00000000000E+00  0.13501581633E+04  0.32874775309E+04  0.29974291401E+04 0.  0.
        4    1    3    3  502    0  0.82031009260E+03 -0.36596007521E+03 -0.64072365950E+03  0.11033421253E+04  0.12699999809E+01 0. -1.
       -4    1    3    3    0  502 -0.82031009260E+03  0.36596007521E+03  0.19908818228E+04  0.21841354056E+04  0.12699999809E+01 0.  1.
</event>
<event>
 5   0  0.1810055E-07  0.2997500E+04  0.7818609E-02  0.8244445E-01
        2   -1    0    0  501    0  0.00000000000E+00  0.00000000000E+00  0.20814750059E+04  0.20814750059E+04  0.25500000920E-02 0.  1.
       -2   -1    0    0    0  501  0.00000000000E+00  0.00000000000E+00 -0.10791635059E+04  0.10791635059E+04  0.25500000920E-02 0. -1.
    10030    2    1    2    0    0  0.00000000000E+00  0.00000000000E+00  0.10023115000E+04  0.31606385118E+04  0.29975002017E+04 0.  0.
        4    1    3    3  502    0  0.26827341945E+03  0.66620756997E+03 -0.88590272435E+03  0.11404509651E+04  0.12699999809E+01 0. -1.
       -4    1    3    3    0  502 -0.26827341945E+03 -0.66620756997E+03  0.18882142244E+04  0.20201875467E+04  0.12699999809E+01 0.  1.
</event>
<event>
 5   0  0.6464436E-08  0.2999801E+04  0.7818609E-02  0.8243788E-01
       -1   -1    0    0    0  501  0.00000000000E+00  0.00000000000E+00  0.84425834656E+03  0.84425834657E+03  0.50400001928E-02 0.  1.
        1   -1    0    0  501    0  0.00000000000E+00  0.00000000000E+00 -0.26647078540E+04  0.26647078540E+04  0.50400001928E-02 0. -1.
    10030    2    1    2    0    0  0.00000000000E+00  0.00000000000E+00 -0.18204495074E+04  0.35089662006E+04  0.29998012247E+04 0.  0.
        5    1    3    3  502    0  0.14441282702E+04  0.18470474361E+03 -0.13320711375E+04  0.19733367448E+04  0.46999998093E+01 0. -1.
       -5    1    3    3    0  502 -0.14441282702E+04 -0.18470474361E+03 -0.48837836997E+03  0.15356294558E+04  0.46999998093E+01 0.  1.
</event>
<event>
 5   0  0.6679022E-08  0.3000895E+04  0.7818609E-02  0.8243475E-01
        1   -1    0    0  501    0  0.00000000000E+00  0.00000000000E+00  0.17787682203E+04  0.17787682203E+04  0.50400001928E-02 0. -1.
       -1   -1    0    0    0  501  0.00000000000E+00  0.00000000000E+00 -0.12656752034E+04  0.12656752035E+04  0.50400001928E-02 0.  1.
    10030    2    1    2    0    0  0.00000000000E+00  0.00000000000E+00  0.51309301686E+03  0.30444434238E+04  0.30008950859E+04 0.  0.
        3    1    3    3  502    0  0.24254265229E+02 -0.14753527669E+04 -0.19596000630E+02  0.14756822387E+04  0.10100000352E+00 0.  1.
       -3    1    3    3    0  502 -0.24254265229E+02  0.14753527669E+04  0.53268901749E+03  0.15687611851E+04  0.10100000352E+00 0. -1.
</event>
<event>
 5   0  0.6636007E-08  0.3000282E+04  0.7818609E-02  0.8243650E-01
        1   -1    0    0  501    0  0.00000000000E+00  0.00000000000E+00  0.24161155872E+04  0.24161155872E+04  0.50400001928E-02 0. -1.
       -1   -1    0    0    0  501  0.00000000000E+00  0.00000000000E+00 -0.93142217254E+03  0.93142217255E+03  0.50400001928E-02 0.  1.
    10030    2    1    2    0    0  0.00000000000E+00  0.00000000000E+00  0.14846934147E+04  0.33475377598E+04  0.30002824063E+04 0.  0.
        2    1    3    3  502    0 -0.13983127576E+04  0.53985314065E+03  0.81024802389E+03  0.17038843393E+04  0.25500000920E-02 0.  1.
       -2    1    3    3    0  502  0.13983127576E+04 -0.53985314065E+03  0.67444539076E+03  0.16436534205E+04  0.25500000920E-02 0. -1.
</event>
<event>
 5   0  0.1810055E-07  0.2998018E+04  0.7818609E-02  0.8244297E-01
       -2   -1    0    0    0  501  0.00000000000E+00  0.00000000000E+00  0.13749699558E+04  0.13749699558E+04  0.25500000920E-02 0.  1.
        2   -1    0    0  501    0  0.00000000000E+00  0.00000000000E+00 -0.16342378601E+04  0.16342378601E+04  0.25500000920E-02 0. -1.
    10030    2    1    2    0    0  0.00000000000E+00  0.00000000000E+00 -0.25926790426E+03  0.30092078159E+04  0.29980179842E+04 0.  0.
        4    1    3    3  502    0  0.35787686126E+03 -0.24401150116E+03 -0.15700542693E+04  0.16287079180E+04  0.12699999809E+01 0. -1.
       -4    1    3    3    0  502 -0.35787686126E+03  0.24401150116E+03  0.13107863651E+04  0.13804998980E+04  0.12699999809E+01 0.  1.
</event>
<event>
 5   0  0.6679022E-08  0.2999816E+04  0.7818609E-02  0.8243783E-01
       -1   -1    0    0    0  501  0.00000000000E+00  0.00000000000E+00  0.14456946340E+04  0.14456946340E+04  0.50400001928E-02 0. -1.
        1   -1    0    0  501    0  0.00000000000E+00  0.00000000000E+00 -0.15561541686E+04  0.15561541686E+04  0.50400001928E-02 0.  1.
    10030    2    1    2    0    0  0.00000000000E+00  0.00000000000E+00 -0.11045953458E+03  0.30018488027E+04  0.29998158152E+04 0.  0.
        3    1    3    3  502    0  0.71473918074E+03 -0.64274714654E+03 -0.12074212741E+04  0.15433217857E+04  0.10100000352E+00 0.  1.
       -3    1    3    3    0  502 -0.71473918074E+03  0.64274714654E+03  0.10969617396E+04  0.14585270169E+04  0.10100000352E+00 0. -1.
</event>
<event>
 5   0  0.1821305E-07  0.2998682E+04  0.7818609E-02  0.8244107E-01
       -2   -1    0    0    0  501  0.00000000000E+00  0.00000000000E+00  0.14012552263E+04  0.14012552264E+04  0.25500000920E-02 0. -1.
        2   -1    0    0  501    0  0.00000000000E+00  0.00000000000E+00 -0.16042929018E+04  0.16042929018E+04  0.25500000920E-02 0.  1.
    10030    2    1    2    0    0  0.00000000000E+00  0.00000000000E+00 -0.20303767542E+03  0.30055481281E+04  0.29986822527E+04 0.  0.
        2    1    3    3  502    0 -0.14643875984E+04 -0.31451875709E+03 -0.17001802986E+03  0.15074014785E+04  0.25500000920E-02 0.  1.
       -2    1    3    3    0  502  0.14643875984E+04  0.31451875709E+03 -0.33019645566E+02  0.14981466496E+04  0.25500000920E-02 0. -1.
</event>
<event>
 5   0  0.1810055E-07  0.2999621E+04  0.7818609E-02  0.8243839E-01
        2   -1    0    0  501    0  0.00000000000E+00  0.00000000000E+00  0.20240375231E+04  0.20240375231E+04  0.25500000920E-02 0. -1.
       -2   -1    0    0    0  501  0.00000000000E+00  0.00000000000E+00 -0.11113587816E+04  0.11113587816E+04  0.25500000920E-02 0.  1.
    10030    2    1    2    0    0  0.00000000000E+00  0.00000000000E+00  0.91267874152E+03  0.31353963048E+04  0.29996212266E+04 0.  0.
        4    1    3    3  502    0 -0.41697341543E+03  0.12676501442E+04 -0.25920977373E+03  0.13594098120E+04  0.12699999809E+01 0.  1.
       -4    1    3    3    0  502  0.41697341543E+03 -0.12676501442E+04  0.11718885152E+04  0.17759864927E+04  0.12699999809E+01 0. -1.
</event>
<event>
 5   0  0.6464436E-08  0.2996127E+04  0.7818609E-02  0.8244838E-01
       -1   -1    0    0    0  501  0.00000000000E+00  0.00000000000E+00  0.89660886581E+03  0.89660886582E+03  0.50400001928E-02 0. -1.
        1   -1    0    0  501    0  0.00000000000E+00  0.00000000000E+00 -0.25029808551E+04  0.25029808551E+04  0.50400001928E-02 0.  1.
    10030    2    1    2    0    0  0.00000000000E+00  0.00000000000E+00 -0.16063719893E+04  0.33995897210E+04  0.29961273843E+04 0.  0.
        5    1    3    3  502    0  0.10259839281E+04 -0.10581421159E+04 -0.11073619500E+04  0.18435238909E+04  0.46999998093E+01 0.  1.
       -5    1    3    3    0  502 -0.10259839281E+04  0.10581421159E+04 -0.49901003931E+03  0.15560658300E+04  0.46999998093E+01 0. -1.
</event>
<event>
 5   0  0.6636007E-08  0.3000974E+04  0.7818609E-02  0.8243453E-01
        1   -1    0    0  501    0  0.00000000000E+00  0.00000000000E+00  0.17872982822E+04  0.17872982822E+04  0.50400001928E-02 0.  1.
       -1   -1    0    0    0  501  0.00000000000E+00  0.00000000000E+00 -0.12597009768E+04  0.12597009768E+04  0.50400001928E-02 0. -1.
    10030    2    1    2    0    0  0.00000000000E+00  0.00000000000E+00  0.52759730545E+03  0.30469992590E+04  0.30009741031E+04 0.  0.
        2    1    3    3  502    0 -0.22389492918E+03  0.57884121732E+02  0.17690955100E+04  0.17841464161E+04  0.25500000920E-02 0.  1.
       -2    1    3    3    0  502  0.22389492918E+03 -0.57884121732E+02 -0.12414982045E+04  0.12628528428E+04  0.25500000920E-02 0. -1.
</event>
<event>
 5   0  0.1821305E-07  0.2999987E+04  0.7818609E-02  0.8243735E-01
        2   -1    0    0  501    0  0.00000000000E+00  0.00000000000E+00  0.13830859661E+04  0.13830859661E+04  0.25500000920E-02 0. -1.
       -2   -1    0    0    0  501  0.00000000000E+00  0.00000000000E+00 -0.16267831439E+04  0.16267831439E+04  0.25500000920E-02 0.  1.
    10030    2    1    2    0    0  0.00000000000E+00  0.00000000000E+00 -0.24369717773E+03  0.30098691100E+04  0.29999872908E+04 0.  0.
        2    1    3    3  502    0  0.57681538484E+03 -0.58413546424E+03 -0.13813924285E+04  0.16069148298E+04  0.25500000920E-02 0.  1.
       -2    1    3    3    0  502 -0.57681538484E+03  0.58413546424E+03  0.11376952507E+04  0.14029542802E+04  0.25500000920E-02 0. -1.
</event>
<event>
 5   0  0.1813720E-07  0.3000169E+04  0.7818609E-02  0.8243683E-01
       -2   -1    0    0    0  501  0.00000000000E+00  0.00000000000E+00  0.89597685312E+03  0.89597685313E+03  0.25500000920E-02 0.  1.
        2   -1    0    0  501    0  0.00000000000E+00  0.00000000000E+00 -0.25115077097E+04  0.25115077097E+04  0.25500000920E-02 0. -1.
    10030    2    1    2    0    0  0.00000000000E+00  0.00000000000E+00 -0.16155308565E+04  0.34074845628E+04  0.30001685115E+04 0.  0.
        3    1    3    3  502    0  0.21564064068E+03  0.14108393465E+04 -0.28323871913E+03  0.14550576379E+04  0.10100000352E+00 0. -1.
       -3    1    3    3    0  502 -0.21564064068E+03 -0.14108393465E+04 -0.13322921374E+04  0.19524269249E+04  0.10100000352E+00 0.  1.
</event>
<event>
 5   0  0.1914439E-07  0.3003062E+04  0.7818609E-02  0.8242857E-01
       -2   -1    0    0    0  501  0.00000000000E+00  0.00000000000E+00  0.11753058609E+04  0.11753058609E+04  0.25500000920E-02 0.  1.
        2   -1    0    0  501    0  0.00000000000E+00  0.00000000000E+00 -0.19183052806E+04  0.19183052807E+04  0.25500000920E-02 0. -1.
    10030    2    1    2    0    0  0.00000000000E+00  0.00000000000E+00 -0.74299941974E+03  0.30936111416E+04  0.30030620635E+04 0.  0.
        5    1    3    3  502    0  0.74441965406E+02  0.13978089608E+03  0.11666707843E+04  0.11773797663E+04  0.46999998093E+01 0.  1.
       -5    1    3    3    0  502 -0.74441965406E+02 -0.13978089608E+03 -0.19096702041E+04  0.19162313752E+04  0.46999998093E+01 0. -1.
</event>
<event>
 5   0  0.6636007E-08  0.3001354E+04  0.7818609E-02  0.8243344E-01
        1   -1    0    0  501    0  0.00000000000E+00  0.00000000000E+00  0.12041093533E+04  0.12041093533E+04  0.50400001928E-02 0.  1.
       -1   -1    0    0    0  501  0.00000000000E+00  0.00000000000E+00 -0.18702882714E+04  0.18702882714E+04  0.50400001928E-02 0. -1.
    10030    2    1    2    0    0  0.00000000000E+00  0.00000000000E+00 -0.66617891814E+03  0.30743976247E+04  0.30013540951E+04 0.  0.
        2    1    3    3  502    0 -0.14629289798E+04 -0.21572567065E+03 -0.71266000404E+02  0.14804653349E+04  0.25500000920E-02 0. -1.
       -2    1    3    3    0  502  0.14629289798E+04  0.21572567065E+03 -0.59491291774E+03  0.15939322899E+04  0.25500000920E-02 0.  1.
</event>
<event>
 5   0  0.1821305E-07  0.3001319E+04  0.7818609E-02  0.8243354E-01
       -2   -1    0    0    0  501  0.00000000000E+00  0.00000000000E+00  0.16481314313E+04  0.16481314313E+04  0.25500000920E-02 0. -1.
        2   -1    0    0  501    0  0.00000000000E+00  0.00000000000E+00 -0.13663830126E+04  0.13663830126E+04  0.25500000920E-02 0.  1.
    10030    2    1    2    0    0  0.00000000000E+00  0.00000000000E+00  0.28174841872E+03  0.30145144438E+04  0.30013189035E+04 0.  0.
        2    1    3    3  502    0  0.14394773170E+04 -0.40189296339E+03  0.47575714864E+01  0.14945352237E+04  0.25500000920E-02 0. -1.
       -2    1    3    3    0  502 -0.14394773170E+04  0.40189296339E+03  0.27699084723E+03  0.15199792202E+04  0.25500000920E-02 0.  1.
</event>
<event>
 5   0  0.6636007E-08  0.3002145E+04  0.7818609E-02  0.8243119E-01
        1   -1    0    0  501    0  0.00000000000E+00  0.00000000000E+00  0.20417474632E+04  0.20417474632E+04  0.50400001928E-02 0.  1.
       -1   -1    0    0    0  501  0.00000000000E+00  0.00000000000E+00 -0.11035732707E+04  0.11035732707E+04  0.50400001928E-02 0. -1.
    10030    2    1    2    0    0  0.00000000000E+00  0.00000000000E+00  0.93817419253E+03  0.31453207339E+04  0.30021445175E+04 0.  0.
        2    1    3    3  502    0  0.98882127245E+03  0.81773023896E+03  0.12851893191E+04  0.18160842047E+04  0.25500000920E-02 0.  1.
       -2    1    3    3    0  502 -0.98882127245E+03 -0.81773023896E+03 -0.34701512661E+03  0.13292365292E+04  0.25500000920E-02 0. -1.
</event>
<event>
 5   0  0.1914439E-07  0.2998897E+04  0.7818609E-02  0.8244046E-01
       -2   -1    0    0    0  501  0.00000000000E+00  0.00000000000E+00  0.22336813894E+04  0.22336813894E+04  0.25500000920E-02 0. -1.
        2   -1    0    0  501    0  0.00000000000E+00  0.00000000000E+00 -0.10065649981E+04  0.10065649981E+04  0.25500000920E-02 0.  1.
    10030    2    1    2    0    0  0.00000000000E+00  0.00000000000E+00  0.12271163913E+04  0.32402463876E+04  0.29988967995E+04 0.  0.
        5    1    3    3  502    0 -0.12807857651E+03 -0.75356952055E+03 -0.78024031551E+03  0.10922766060E+04  0.46999998093E+01 0.  1.
       -5    1    3    3    0  502  0.12807857651E+03  0.75356952055E+03  0.20073567068E+04  0.21479697816E+04  0.46999998093E+01 0. -1.
</event>
<event>
 5   0  0.6374748E-08  0.2997750E+04  0.7818609E-02  0.8244374E-01
       -1   -1    0    0    0  501  0.00000000000E+00  0.00000000000E+00  0.10650007897E+04  0.10650007897E+04  0.50400001928E-02 0.  1.
        1   -1    0    0  501    0  0.00000000000E+00  0.00000000000E+00 -0.21095072547E+04  0.21095072547E+04  0.50400001928E-02 0. -1.
    10030    2    1    2    0    0  0.00000000000E+00  0.00000000000E+00 -0.10445064650E+04  0.31745080444E+04  0.29977504180E+04 0.  0.
        1    1    3    3  502    0  0.50118130749E+03 -0.10390810321E+04 -0.15356291076E+04  0.19206844745E+04  0.50400001928E-02 0.  1.
       -1    1    3    3    0  502 -0.50118130749E+03  0.10390810321E+04  0.49112264269E+03  0.12538235699E+04  0.50400001928E-02 0. -1.
</event>
<event>
 5   0  0.6525507E-08  0.2999794E+04  0.7818609E-02  0.8243790E-01
        1   -1    0    0  501    0  0.00000000000E+00  0.00000000000E+00  0.21931819122E+04  0.21931819122E+04  0.50400001928E-02 0. -1.
       -1   -1    0    0    0  501  0.00000000000E+00  0.00000000000E+00 -0.10257655951E+04  0.10257655951E+04  0.50400001928E-02 0.  1.
    10030    2    1    2    0    0  0.00000000000E+00  0.00000000000E+00  0.11674163171E+04  0.32189475073E+04  0.29997936924E+04 0.  0.
        4    1    3    3  502    0  0.10349193599E+04  0.12186591282E+02 -0.58117950675E+03  0.11870037180E+04  0.12699999809E+01 0.  1.
       -4    1    3    3    0  502 -0.10349193599E+04 -0.12186591282E+02  0.17485958239E+04  0.20319437893E+04  0.12699999809E+01 0. -1.
</event>
<event>
 5   0  0.6374748E-08  0.2999909E+04  0.7818609E-02  0.8243757E-01
       -1   -1    0    0    0  501  0.00000000000E+00  0.00000000000E+00  0.23975330028E+04  0.23975330028E+04  0.50400001928E-02 0. -1.
        1   -1    0    0  501    0  0.00000000000E+00  0.00000000000E+00 -0.93840789148E+03  0.93840789149E+03  0.50400001928E-02 0.  1.
    10030    2    1    2    0    0  0.00000000000E+00  0.00000000000E+00  0.14591251114E+04  0.33359408943E+04  0.29999092586E+04 0.  0.
        1    1    3    3  502    0 -0.58968176345E+03  0.52961418773E+03  0.21456450054E+04  0.22873583583E+04  0.50400001928E-02 0. -1.
       -1    1    3    3    0  502  0.58968176345E+03 -0.52961418773E+03 -0.68651989403E+03  0.10485825361E+04  0.50400001928E-02 0.  1.
</event>
<event>
 5   0  0.1914439E-07  0.2998978E+04  0.7818609E-02  0.8244023E-01
       -2   -1    0    0    0  501  0.00000000000E+00  0.00000000000E+00  0.10991191418E+04  0.10991191419E+04  0.25500000920E-02 0.  1.
        2   -1    0    0  501    0  0.00000000000E+00  0.00000000000E+00 -0.20456998153E+04  0.20456998153E+04  0.25500000920E-02 0. -1.
    10030    2    1    2    0    0  0.00000000000E+00  0.00000000000E+00 -0.94658067342E+03  0.31448189571E+04  0.29989783763E+04 0.  0.
        5    1    3    3  502    0 -0.57862822293E+03 -0.64620298514E+03 -0.17559054652E+04  0.19584726220E+04  0.46999998093E+01 0. -1.
       -5    1    3    3    0  502  0.57862822293E+03  0.64620298514E+03  0.80932479175E+03  0.11863463352E+04  0.46999998093E+01 0.  1.
</event>
<event>
 5   0  0.6464436E-08  0.3000297E+04  0.7818609E-02  0.8243646E-01
       -1   -1    0    0    0  501  0.00000000000E+00  0.00000000000E+00  0.10466868394E+04  0.10466868394E+04  0.50400001928E-02 0.  1.
        1   -1    0    0  501    0  0.00000000000E+00  0.00000000000E+00 -0.21500658392E+04  0.21500658392E+04  0.50400001928E-02 0. -1.
    10030    2    1    2    0    0  0.00000000000E+00  0.00000000000E+00 -0.11033789999E+04  0.31967526786E+04  0.30002970638E+04 0.  0.
        5    1    3    3  502    0 -0.86093775086E+03 -0.22906489986E+03  0.73429475930E+03  0.11545109020E+04  0.46999998093E+01 0.  1.
       -5    1    3    3    0  502  0.86093775086E+03  0.22906489986E+03 -0.18376737592E+04  0.20422417767E+04  0.46999998093E+01 0. -1.
</event>
<event>
 5   0  0.6679022E-08  0.3005652E+04  0.7818609E-02  0.8242119E-01
        1   -1    0    0  501    0  0.00000000000E+00  0.00000000000E+00  0.20968066539E+04  0.20968066539E+04  0.50400001928E-02 0.  1.
       -1   -1    0    0    0  501  0.00000000000E+00  0.00000000000E+00 -0.10771073863E+04  0.10771073863E+04  0.50400001928E-02 0. -1.
    10030    2    1    2    0    0  0.00000000000E+00  0.00000000000E+00  0.10196992676E+04  0.31739140403E+04  0.30056519656E+04 0.  0.
        3    1    3    3  502    0 -0.60547433632E+02  0.10990954262E+04 -0.57056443391E+03  0.12398469788E+04  0.10100000352E+00 0. -1.
       -3    1    3    3    0  502  0.60547433632E+02 -0.10990954262E+04  0.15902637015E+04  0.19340670614E+04  0.10100000352E+00 0.  1.
</event>
<event>
 5   0  0.1817566E-07  0.3010104E+04  0.7818609E-02  0.8240851E-01
        2   -1    0    0  501    0  0.00000000000E+00  0.00000000000E+00  0.16365879053E+04  0.16365879053E+04  0.25500000920E-02 0. -1.
       -2   -1    0    0    0  501  0.00000000000E+00  0.00000000000E+00 -0.13840881442E+04  0.13840881442E+04  0.25500000920E-02 0.  1.
    10030    2    1    2    0    0  0.00000000000E+00  0.00000000000E+00  0.25249976116E+03  0.30206760495E+04  0.30101042617E+04 0.  0.
        1    1    3    3  502    0 -0.47256669340E+03 -0.11056192470E+04  0.10346743067E+04  0.15862736586E+04  0.50400001928E-02 0. -1.
       -1    1    3    3    0  502  0.47256669340E+03  0.11056192470E+04 -0.78217454559E+03  0.14344023908E+04  0.50400001928E-02 0.  1.
</event>
<event>
 5   0  0.6679022E-08  0.2998688E+04  0.7818609E-02  0.8244106E-01
        1   -1    0    0  501    0  0.00000000000E+00  0.00000000000E+00  0.15398220686E+04  0.15398220686E+04  0.50400001928E-02 0. -1.
       -1   -1    0    0    0  501  0.00000000000E+00  0.00000000000E+00 -0.14599302335E+04  0.14599302335E+04  0.50400001928E-02 0.  1.
    10030    2    1    2    0    0  0.00000000000E+00  0.00000000000E+00  0.79891835139E+02  0.29997523021E+04  0.29986882413E+04 0.  0.
        3    1    3    3  502    0 -0.84640953346E+03  0.75783750588E+03 -0.93882142135E+03  0.14738088258E+04  0.10100000352E+00 0.  1.
       -3    1    3    3    0  502  0.84640953346E+03 -0.75783750588E+03  0.10187132565E+04  0.15259434763E+04  0.10100000352E+00 0. -1.
</event>
<event>
 5   0  0.1813720E-07  0.2999497E+04  0.7818609E-02  0.8243874E-01
       -2   -1    0    0    0  501  0.00000000000E+00  0.00000000000E+00  0.11801994173E+04  0.11801994173E+04  0.25500000920E-02 0. -1.
        2   -1    0    0  501    0  0.00000000000E+00  0.00000000000E+00 -0.19058186909E+04  0.19058186909E+04  0.25500000920E-02 0.  1.
    10030    2    1    2    0    0  0.00000000000E+00  0.00000000000E+00 -0.72561927356E+03  0.30860181082E+04  0.29994973636E+04 0.  0.
        3    1    3    3  502    0 -0.66264514353E+03  0.12964604189E+04  0.71998665999E+01  0.14560082597E+04  0.10100000352E+00 0. -1.
       -3    1    3    3    0  502  0.66264514353E+03 -0.12964604189E+04 -0.73281914016E+03  0.16300098486E+04  0.10100000352E+00 0.  1.
</event>
<event>
 5   0  0.6374748E-08  0.2997614E+04  0.7818609E-02  0.8244412E-01
        1   -1    0    0  501    0  0.00000000000E+00  0.00000000000E+00  0.21361714808E+04  0.21361714808E+04  0.50400001928E-02 0.  1.
       -1   -1    0    0    0  501  0.00000000000E+00  0.00000000000E+00 -0.10516117354E+04  0.10516117354E+04  0.50400001928E-02 0. -1.
    10030    2    1    2    0    0  0.00000000000E+00  0.00000000000E+00  0.10845597454E+04  0.31877832162E+04  0.29976143835E+04 0.  0.
        1    1    3    3  502    0  0.40395007314E+03 -0.10150378790E+04 -0.54894925507E+03  0.12226294787E+04  0.50400001928E-02 0. -1.
       -1    1    3    3    0  502 -0.40395007314E+03  0.10150378790E+04  0.16335090005E+04  0.19651537375E+04  0.50400001928E-02 0.  1.
</event>
<event>
 5   0  0.6374748E-08  0.2999470E+04  0.7818609E-02  0.8243882E-01
        1   -1    0    0  501    0  0.00000000000E+00  0.00000000000E+00  0.15003214750E+04  0.15003214750E+04  0.50400001928E-02 0. -1.
       -1   -1    0    0    0  501  0.00000000000E+00  0.00000000000E+00 -0.14991487808E+04  0.14991487808E+04  0.50400001928E-02 0.  1.
    10030    2    1    2    0    0  0.00000000000E+00  0.00000000000E+00  0.11726942439E+01  0.29994702558E+04  0.29994700266E+04 0.  0.
        1    1    3    3  502    0 -0.12297032269E+03  0.12873434083E+03 -0.14885446808E+04  0.14991529267E+04  0.50400001928E-02 0.  1.
       -1    1    3    3    0  502  0.12297032269E+03 -0.12873434083E+03  0.14897173750E+04  0.15003173292E+04  0.50400001928E-02 0. -1.
</event>
<event>
 5   0  0.1817566E-07  0.2999661E+04  0.7818609E-02  0.8243828E-01
       -2   -1    0    0    0  501  0.00000000000E+00  0.00000000000E+00  0.13234568531E+04  0.13234568531E+04  0.25500000920E-02 0.  1.
        2   -1    0    0  501    0  0.00000000000E+00  0.00000000000E+00 -0.16997087161E+04  0.16997087161E+04  0.25500000920E-02 0. -1.
    10030    2    1    2    0    0  0.00000000000E+00  0.00000000000E+00 -0.37625186306E+03  0.30231655692E+04  0.29996607466E+04 0.  0.
        1    1    3    3  502    0 -0.45937196094E+01  0.87657532392E+03  0.10384089233E+04  0.13589328507E+04  0.50400001928E-02 0.  1.
       -1    1    3    3    0  502  0.45937196094E+01 -0.87657532392E+03 -0.14146607864E+04  0.16642327185E+04  0.50400001928E-02 0. -1.
</event>
<event>
 5   0  0.6374748E-08  0.3006266E+04  0.7818609E-02  0.8241944E-01
       -1   -1    0    0    0  501  0.00000000000E+00  0.00000000000E+00  0.12375832461E+04  0.12375832461E+04  0.50400001928E-02 0.  1.
        1   -1    0    0  501    0  0.00000000000E+00  0.00000000000E+00 -0.18256616784E+04  0.18256616784E+04  0.50400001928E-02 0. -1.
    10030    2    1    2    0    0  0.00000000000E+00  0.00000000000E+00 -0.58807843233E+03  0.30632449245E+04  0.30062656611E+04 0.  0.
        1    1    3    3  502    0 -0.14168867344E+04  0.33559641783E+03  0.86148342709E+02  0.14586344678E+04  0.50400001928E-02 0.  1.
       -1    1    3    3    0  502  0.14168867344E+04 -0.33559641783E+03 -0.67422677504E+03  0.16046104567E+04  0.50400001928E-02 0. -1.
</event>
<event>
 5   0  0.6374748E-08  0.3000316E+04  0.7818609E-02  0.8243641E-01
        1   -1    0    0  501    0  0.00000000000E+00  0.00000000000E+00  0.15096558687E+04  0.15096558687E+04  0.50400001928E-02 0. -1.
       -1   -1    0    0    0  501  0.00000000000E+00  0.00000000000E+00 -0.14907201162E+04  0.14907201162E+04  0.50400001928E-02 0.  1.
    10030    2    1    2    0    0  0.00000000000E+00  0.00000000000E+00  0.18935752479E+02  0.30003759848E+04  0.30003162313E+04 0.  0.
        1    1    3    3  502    0 -0.68375264474E+02 -0.12831893357E+04 -0.76464335097E+03  0.14953024785E+04  0.50400001928E-02 0.  1.
       -1    1    3    3    0  502  0.68375264474E+02  0.12831893357E+04  0.78357910345E+03  0.15050735063E+04  0.50400001928E-02 0. -1.
</event>
<event>
 5   0  0.1813720E-07  0.3001443E+04  0.7818609E-02  0.8243319E-01
        2   -1    0    0  501    0  0.00000000000E+00  0.00000000000E+00  0.17308473607E+04  0.17308473607E+04  0.25500000920E-02 0.  1.
       -2   -1    0    0    0  501  0.00000000000E+00  0.00000000000E+00 -0.13011924114E+04  0.13011924114E+04  0.25500000920E-02 0. -1.
    10030    2    1    2    0    0  0.00000000000E+00  0.00000000000E+00  0.42965494937E+03  0.30320397721E+04  0.30014432869E+04 0.  0.
        3    1    3    3  502    0  0.65633803693E+03 -0.11316958294E+04 -0.52795732053E+03  0.14107636271E+04  0.10100000352E+00 0. -1.
       -3    1    3    3    0  502 -0.65633803693E+03  0.11316958294E+04  0.95761226990E+03  0.16212761451E+04  0.10100000352E+00 0.  1.
</event>
<event>
 5   0  0.1914439E-07  0.3002364E+04  0.7818609E-02  0.8243056E-01
       -2   -1    0    0    0  501  0.00000000000E+00  0.00000000000E+00  0.10599112785E+04  0.10599112785E+04  0.25500000920E-02 0. -1.
        2   -1    0    0  501    0  0.00000000000E+00  0.00000000000E+00 -0.21261657501E+04  0.21261657501E+04  0.25500000920E-02 0.  1.
    10030    2    1    2    0    0  0.00000000000E+00  0.00000000000E+00 -0.10662544715E+04  0.31860770286E+04  0.30023637744E+04 0.  0.
        5    1    3    3  502    0 -0.98168891298E+03  0.70677179267E+03 -0.14765035353E+04  0.19087493991E+04  0.46999998093E+01 0.  1.
       -5    1    3    3    0  502  0.98168891298E+03 -0.70677179267E+03  0.41024906374E+03  0.12773276295E+04  0.46999998093E+01 0. -1.
</event>
<event>
 5   0  0.1821305E-07  0.2996722E+04  0.7818609E-02  0.8244667E-01
        2   -1    0    0  501    0  0.00000000000E+00  0.00000000000E+00  0.14073697231E+04  0.14073697231E+04  0.25500000920E-02 0.  1.
       -2   -1    0    0    0  501  0.00000000000E+00  0.00000000000E+00 -0.15952354835E+04  0.15952354835E+04  0.25500000920E-02 0. -1.
    10030    2    1    2    0    0  0.00000000000E+00  0.00000000000E+00 -0.18786576036E+03  0.30026052065E+04  0.29967222898E+04 0.  0.
        2    1    3    3  502    0 -0.20497264598E+03 -0.70032700119E+03 -0.14051709027E+04  0.15833436014E+04  0.25500000920E-02 0. -1.
       -2    1    3    3    0  502  0.20497264598E+03  0.70032700119E+03  0.12173051424E+04  0.14192616051E+04  0.25500000920E-02 0.  1.
</event>
<event>
 5   0  0.1821305E-07  0.2999196E+04  0.7818609E-02  0.8243961E-01
       -2   -1    0    0    0  501  0.00000000000E+00  0.00000000000E+00  0.12467419087E+04  0.12467419087E+04  0.25500000920E-02 0.  1.
        2   -1    0    0  501    0  0.00000000000E+00  0.00000000000E+00 -0.18037362970E+04  0.18037362970E+04  0.25500000920E-02 0. -1.
    10030    2    1    2    0    0  0.00000000000E+00  0.00000000000E+00 -0.55699438837E+03  0.30504782057E+04  0.29991956480E+04 0.  0.
        2    1    3    3  502    0  0.66253237436E+03 -0.32677178939E+03  0.10488321658E+04  0.12828787399E+04  0.25500000920E-02 0.  1.
       -2    1    3    3    0  502 -0.66253237436E+03  0.32677178939E+03 -0.16058265541E+04  0.17675994658E+04  0.25500000920E-02 0. -1.
</event>
<event>
 5   0  0.1813720E-07  0.2999938E+04  0.7818609E-02  0.8243749E-01
       -2   -1    0    0    0  501  0.00000000000E+00  0.00000000000E+00  0.19959231121E+04  0.19959231121E+04  0.25500000920E-02 0.  1.
        2   -1    0    0  501    0  0.00000000000E+00  0.00000000000E+00 -0.11272512354E+04  0.11272512354E+04  0.25500000920E-02 0. -1.
    10030    2    1    2    0    0  0.00000000000E+00  0.00000000000E+00  0.86867187676E+03  0.31231743475E+04  0.29999378620E+04 0.  0.
        3    1    3    3  502    0  0.43676159082E+03  0.46491265919E+03  0.18476767835E+04  0.19546902503E+04  0.10100000352E+00 0.  1.
       -3    1    3    3    0  502 -0.43676159082E+03 -0.46491265919E+03 -0.97900490677E+03  0.11684840973E+04  0.10100000352E+00 0. -1.
</event>
<event>
 5   0  0.6636007E-08  0.3001977E+04  0.7818609E-02  0.8243167E-01
       -1   -1    0    0    0  501  0.00000000000E+00  0.00000000000E+00  0.25082810034E+04  0.25082810034E+04  0.50400001928E-02 0.  1.
        1   -1    0    0  501    0  0.00000000000E+00  0.00000000000E+00 -0.89821138306E+03  0.89821138308E+03  0.50400001928E-02 0. -1.
    10030    2    1    2    0    0  0.00000000000E+00  0.00000000000E+00  0.16100696204E+04  0.34064923865E+04  0.30019770480E+04 0.  0.
        2    1    3    3  502    0 -0.91355269770E+03 -0.93807449914E+03  0.16376691066E+04  0.20967885921E+04  0.25500000920E-02 0.  1.
       -2    1    3    3    0  502  0.91355269770E+03  0.93807449914E+03 -0.27599486198E+02  0.13097037944E+04  0.25500000920E-02 0. -1.
</event>
<event>
 5   0  0.1817566E-07  0.3000919E+04  0.7818609E-02  0.8243469E-01
        2   -1    0    0  501    0  0.00000000000E+00  0.00000000000E+00  0.12698832104E+04  0.12698832104E+04  0.25500000920E-02 0.  1.
       -2   -1    0    0    0  501  0.00000000000E+00  0.00000000000E+00 -0.17729016507E+04  0.17729016507E+04  0.25500000920E-02 0. -1.
    10030    2    1    2    0    0  0.00000000000E+00  0.00000000000E+00 -0.50301844033E+03  0.30427848611E+04  0.30009185527E+04 0.  0.
        1    1    3    3  502    0 -0.11705535650E+04 -0.43495519248E+03 -0.10949778735E+04  0.16608305788E+04  0.50400001928E-02 0. -1.
       -1    1    3    3    0  502  0.11705535650E+04  0.43495519248E+03  0.59195943318E+03  0.13819542823E+04  0.50400001928E-02 0.  1.
</event>
<event>
 5   0  0.6679022E-08  0.3002868E+04  0.7818609E-02  0.8242912E-01
        1   -1    0    0  501    0  0.00000000000E+00  0.00000000000E+00  0.20208255931E+04  0.20208255931E+04  0.50400001928E-02 0. -1.
       -1   -1    0    0    0  501  0.00000000000E+00  0.00000000000E+00 -0.11155362307E+04  0.11155362307E+04  0.50400001928E-02 0.  1.
    10030    2    1    2    0    0  0.00000000000E+00  0.00000000000E+00  0.90528936237E+03  0.31363618238E+04  0.30028680724E+04 0.  0.
        3    1    3    3  502    0  0.90166254215E+03 -0.85484163775E+03  0.13330621093E+04  0.18223073734E+04  0.10100000352E+00 0. -1.
       -3    1    3    3    0  502 -0.90166254215E+03  0.85484163775E+03 -0.42777274692E+03  0.13140544505E+04  0.10100000352E+00 0.  1.
</event>
<event>
 5   0  0.6679022E-08  0.2999711E+04  0.7818609E-02  0.8243813E-01
       -1   -1    0    0    0  501  0.00000000000E+00  0.00000000000E+00  0.17251929384E+04  0.17251929384E+04  0.50400001928E-02 0.  1.
        1   -1    0    0  501    0  0.00000000000E+00  0.00000000000E+00 -0.13039505531E+04  0.13039505532E+04  0.50400001928E-02 0. -1.
    10030    2    1    2    0    0  0.00000000000E+00  0.00000000000E+00  0.42124238528E+03  0.30291434916E+04  0.29997108436E+04 0.  0.
        3    1    3    3  502    0  0.11194454993E+04  0.34094976530E+03  0.11579954725E+04  0.16463166441E+04  0.10100000352E+00 0. -1.
       -3    1    3    3    0  502 -0.11194454993E+04 -0.34094976530E+03 -0.73675308722E+03  0.13828268474E+04  0.10100000352E+00 0.  1.
</event>
<event>
 5   0  0.6525507E-08  0.2999685E+04  0.7818609E-02  0.8243821E-01
        1   -1    0    0  501    0  0.00000000000E+00  0.00000000000E+00  0.14726895287E+04  0.14726895287E+04  0.50400001928E-02 0. -1.
       -1   -1    0    0    0  501  0.00000000000E+00  0.00000000000E+00 -0.15274965345E+04  0.15274965345E+04  0.50400001928E-02 0.  1.
    10030    2    1    2    0    0  0.00000000000E+00  0.00000000000E+00 -0.54807005761E+02  0.30001860632E+04  0.29996854179E+04 0.  0.
        4    1    3    3  502    0  0.99678787708E+03 -0.96748657511E+03 -0.59310394322E+03  0.15104271731E+04  0.12699999809E+01 0.  1.
       -4    1    3    3    0  502 -0.99678787708E+03  0.96748657511E+03  0.53829693746E+03  0.14897588901E+04  0.12699999809E+01 0. -1.
</event>
<event>
 5   0  0.1810055E-07  0.3001564E+04  0.7818609E-02  0.8243284E-01
        2   -1    0    0  501    0  0.00000000000E+00  0.00000000000E+00  0.88001150501E+03  0.88001150502E+03  0.25500000920E-02 0. -1.
       -2   -1    0    0    0  501  0.00000000000E+00  0.00000000000E+00 -0.25594514594E+04  0.25594514594E+04  0.25500000920E-02 0.  1.
    10030    2    1    2    0    0  0.00000000000E+00  0.00000000000E+00 -0.16794399544E+04  0.34394629644E+04  0.30015640795E+04 0.  0.
        4    1    3    3  502    0 -0.16830627582E+03  0.20043722081E+03 -0.25330972553E+04  0.25465830832E+04  0.12699999809E+01 0.  1.
       -4    1    3    3    0  502  0.16830627582E+03 -0.20043722081E+03  0.85365730091E+03  0.89287988121E+03  0.12699999809E+01 0. -1.
</event>
<event>
 5   0  0.6679022E-08  0.2999557E+04  0.7818609E-02  0.8243857E-01
       -1   -1    0    0    0  501  0.00000000000E+00  0.00000000000E+00  0.14726123397E+04  0.14726123398E+04  0.50400001928E-02 0.  1.
        1   -1    0    0  501    0  0.00000000000E+00  0.00000000000E+00 -0.15274462097E+04  0.15274462097E+04  0.50400001928E-02 0. -1.
    10030    2    1    2    0    0  0.00000000000E+00  0.00000000000E+00 -0.54833869965E+02  0.30000585495E+04  0.29995573918E+04 0.  0.
        3    1    3    3  502    0  0.66526999238E+03 -0.41324062607E+02 -0.13711607720E+04  0.15245896870E+04  0.10100000352E+00 0. -1.
       -3    1    3    3    0  502 -0.66526999238E+03  0.41324062607E+02  0.13163269020E+04  0.14754688625E+04  0.10100000352E+00 0.  1.
</event>
<event>
 5   0  0.1914439E-07  0.2999773E+04  0.7818609E-02  0.8243796E-01
       -2   -1    0    0    0  501  0.00000000000E+00  0.00000000000E+00  0.88581049755E+03  0.88581049756E+03  0.25500000920E-02 0. -1.
        2   -1    0    0  501    0  0.00000000000E+00  0.00000000000E+00 -0.25396630514E+04  0.25396630514E+04  0.25500000920E-02 0.  1.
    10030    2    1    2    0    0  0.00000000000E+00  0.00000000000E+00 -0.16538525538E+04  0.34254735489E+04  0.29997734522E+04 0.  0.
        5    1    3    3  502    0  0.10759022777E+04  0.49366986187E+03 -0.18787013690E+04  0.22205442052E+04  0.46999998093E+01 0.  1.
       -5    1    3    3    0  502 -0.10759022777E+04 -0.49366986187E+03  0.22484881514E+03  0.12049293437E+04  0.46999998093E+01 0. -1.
</event>
<event>
 5   0  0.6679022E-08  0.2999944E+04  0.7818609E-02  0.8243747E-01
        1   -1    0    0  501    0  0.00000000000E+00  0.00000000000E+00  0.29077924559E+04  0.29077924559E+04  0.50400001928E-02 0. -1.
       -1   -1    0    0    0  501  0.00000000000E+00  0.00000000000E+00 -0.77375382808E+03  0.77375382810E+03  0.50400001928E-02 0.  1.
    10030    2    1    2    0    0  0.00000000000E+00  0.00000000000E+00  0.21340386279E+04  0.36815462840E+04  0.29999436955E+04 0.  0.
        3    1    3    3  502    0 -0.10842897831E+04  0.94135944983E+03  0.15992269042E+04  0.21492716554E+04  0.10100000352E+00 0.  1.
       -3    1    3    3    0  502  0.10842897831E+04 -0.94135944983E+03  0.53481172370E+03  0.15322746286E+04  0.10100000352E+00 0. -1.
</event>
<event>
 5   0  0.1817566E-07  0.3002138E+04  0.7818609E-02  0.8243121E-01
        2   -1    0    0  501    0  0.00000000000E+00  0.00000000000E+00  0.20205814091E+04  0.20205814091E+04  0.25500000920E-02 0. -1.
       -2   -1    0    0    0  501  0.00000000000E+00  0.00000000000E+00 -0.11151288241E+04  0.11151288241E+04  0.25500000920E-02 0.  1.
    10030    2    1    2    0    0  0.00000000000E+00  0.00000000000E+00  0.90545258496E+03  0.31357102332E+04  0.30021382851E+04 0.  0.
        1    1    3    3  502    0  0.20260975455E+03  0.67201840957E+03  0.18386180220E+04  0.19680385378E+04  0.50400001928E-02 0. -1.
       -1    1    3    3    0  502 -0.20260975455E+03 -0.67201840957E+03 -0.93316543701E+03  0.11676716954E+04  0.50400001928E-02 0.  1.
</event>
<event>
 5   0  0.6679022E-08  0.2999333E+04  0.7818609E-02  0.8243921E-01
        1   -1    0    0  501    0  0.00000000000E+00  0.00000000000E+00  0.15764712830E+04  0.15764712830E+04  0.50400001928E-02 0.  1.
       -1   -1    0    0    0  501  0.00000000000E+00  0.00000000000E+00 -0.14266040148E+04  0.14266040148E+04  0.50400001928E-02 0. -1.
    10030    2    1    2    0    0  0.00000000000E+00  0.00000000000E+00  0.14986726825E+03  0.30030752978E+04  0.29993334336E+04 0.  0.
        3    1    3    3  502    0 -0.10330629549E+04 -0.96449910907E+03  0.57707965322E+03  0.15265970446E+04  0.10100000352E+00 0.  1.
       -3    1    3    3    0  502  0.10330629549E+04  0.96449910907E+03 -0.42721238496E+03  0.14764782532E+04  0.10100000352E+00 0. -1.
</event>
<event>
 5   0  0.1914439E-07  0.2997096E+04  0.7818609E-02  0.8244561E-01
        2   -1    0    0  501    0  0.00000000000E+00  0.00000000000E+00  0.16525296376E+04  0.16525296376E+04  0.25500000920E-02 0.  1.
       -2   -1    0    0    0  501  0.00000000000E+00  0.00000000000E+00 -0.13589138743E+04  0.13589138743E+04  0.25500000920E-02 0. -1.
    10030    2    1    2    0    0  0.00000000000E+00  0.00000000000E+00  0.29361576324E+03  0.30114435119E+04  0.29970955622E+04 0.  0.
        5    1    3    3  502    0 -0.62138840395E+03  0.90833882924E+03  0.11687414517E+04  0.16053602861E+04  0.46999998093E+01 0.  1.
       -5    1    3    3    0  502  0.62138840395E+03 -0.90833882924E+03 -0.87512568848E+03  0.14060832258E+04  0.46999998093E+01 0. -1.
</event>
<event>
 5   0  0.1813720E-07  0.3000278E+04  0.7818609E-02  0.8243651E-01
        2   -1    0    0  501    0  0.00000000000E+00  0.00000000000E+00  0.19932829859E+04  0.19932829859E+04  0.25500000920E-02 0.  1.
       -2   -1    0    0    0  501  0.00000000000E+00  0.00000000000E+00 -0.11290002774E+04  0.11290002774E+04  0.25500000920E-02 0. -1.
    10030    2    1    2    0    0  0.00000000000E+00  0.00000000000E+00  0.86428270844E+03  0.31222832633E+04  0.30002780165E+04 0.  0.
        3    1    3    3  502    0 -0.10326432917E+04 -0.31057785750E+03  0.15174334764E+04  0.18615625531E+04  0.10100000352E+00 0.  1.
       -3    1    3    3    0  502  0.10326432917E+04  0.31057785750E+03 -0.65315076794E+03  0.12607207103E+04  0.10100000352E+00 0. -1.
</event>
<event>
 5   0  0.1813720E-07  0.3000447E+04  0.7818609E-02  0.8243603E-01
       -2   -1    0    0    0  501  0.00000000000E+00  0.00000000000E+00  0.97520348935E+03  0.97520348935E+03  0.25500000920E-02 0.  1.
        2   -1    0    0  501    0  0.00000000000E+00  0.00000000000E+00 -0.23078980830E+04  0.23078980830E+04  0.25500000920E-02 0. -1.
    10030    2    1    2    0    0  0.00000000000E+00  0.00000000000E+00 -0.13326945937E+04  0.32831015724E+04  0.30004468091E+04 0.  0.
        3    1    3    3  502    0  0.67938106804E+03  0.81485353437E+03 -0.18269907847E+04  0.21126855554E+04  0.10100000352E+00 0. -1.
       -3    1    3    3    0  502 -0.67938106804E+03 -0.81485353437E+03  0.49429619110E+03  0.11704160170E+04  0.10100000352E+00 0.  1.
</event>
<event>
 5   0  0.6374748E-08  0.2997968E+04  0.7818609E-02  0.8244311E-01
       -1   -1    0    0    0  501  0.00000000000E+00  0.00000000000E+00  0.12582439018E+04  0.12582439018E+04  0.50400001928E-02 0. -1.
        1   -1    0    0  501    0  0.00000000000E+00  0.00000000000E+00 -0.17857854811E+04  0.17857854811E+04  0.50400001928E-02 0.  1.
    10030    2    1    2    0    0  0.00000000000E+00  0.00000000000E+00 -0.52754157932E+03  0.30440293829E+04  0.29979684398E+04 0.  0.
        1    1    3    3  502    0  0.56461101569E+03 -0.68443267298E+03  0.96298061539E+03  0.13094141242E+04  0.50400001928E-02 0. -1.
       -1    1    3    3    0  502 -0.56461101569E+03  0.68443267298E+03 -0.14905221947E+04  0.17346152587E+04  0.50400001928E-02 0.  1.
</event>
<event>
 5   0  0.6525507E-08  0.2999203E+04  0.7818609E-02  0.8243958E-01
        1   -1    0    0  501    0  0.00000000000E+00  0.00000000000E+00  0.16299945162E+04  0.16299945162E+04  0.50400001928E-02 0.  1.
       -1   -1    0    0    0  501  0.00000000000E+00  0.00000000000E+00 -0.13796397112E+04  0.13796397112E+04  0.50400001928E-02 0. -1.
    10030    2    1    2    0    0  0.00000000000E+00  0.00000000000E+00  0.25035480496E+03  0.30096342274E+04  0.29992033366E+04 0.  0.
        4    1    3    3  502    0  0.71223514228E+03 -0.84552281400E+03 -0.89156698495E+03  0.14202397785E+04  0.12699999809E+01 0. -1.
       -4    1    3    3    0  502 -0.71223514228E+03  0.84552281400E+03  0.11419217899E+04  0.15893944489E+04  0.12699999809E+01 0.  1.
</event>
<event>
 5   0  0.6374748E-08  0.3000141E+04  0.7818609E-02  0.8243691E-01
        1   -1    0    0  501    0  0.00000000000E+00  0.00000000000E+00  0.20777153572E+04  0.20777153572E+04  0.50400001928E-02 0. -1.
       -1   -1    0    0    0  501  0.00000000000E+00  0.00000000000E+00 -0.10830220360E+04  0.10830220360E+04  0.50400001928E-02 0.  1.
    10030    2    1    2    0    0  0.00000000000E+00  0.00000000000E+00  0.99469332119E+03  0.31607373932E+04  0.30001410076E+04 0.  0.
        1    1    3    3  502    0 -0.68796595256E+03  0.10089841897E+04 -0.42041325596E+03  0.12915469611E+04  0.50400001928E-02 0.  1.
       -1    1    3    3    0  502  0.68796595256E+03 -0.10089841897E+04  0.14151065772E+04  0.18691904321E+04  0.50400001928E-02 0. -1.
</event>
<event>
 5   0  0.6017625E-08  0.2999743E+04  0.7818609E-02  0.8243804E-01
        3   -1    0    0  501    0  0.00000000000E+00  0.00000000000E+00  0.72787910814E+03  0.72787911515E+03  0.10100000352E+00 0. -1.
       -3   -1    0    0    0  501  0.00000000000E+00  0.00000000000E+00 -0.30906420876E+04  0.30906420893E+04  0.10100000352E+00 0.  1.
    10030    2    1    2    0    0  0.00000000000E+00  0.00000000000E+00 -0.23627629795E+04  0.38185212044E+04  0.29997425375E+04 0.  0.
        2    1    3    3  502    0  0.18346188310E+03 -0.11180305474E+04 -0.24324800612E+04  0.26833952030E+04  0.25500000920E-02 0.  1.
       -2    1    3    3    0  502 -0.18346188310E+03  0.11180305474E+04  0.69717081691E+02  0.11351260014E+04  0.25500000920E-02 0. -1.
</event>
<event>
 5   0  0.6679022E-08  0.2999155E+04  0.7818609E-02  0.8243972E-01
       -1   -1    0    0    0  501  0.00000000000E+00  0.00000000000E+00  0.17610594405E+04  0.17610594405E+04  0.50400001928E-02 0. -1.
        1   -1    0    0  501    0  0.00000000000E+00  0.00000000000E+00 -0.12769202409E+04  0.12769202409E+04  0.50400001928E-02 0.  1.
    10030    2    1    2    0    0  0.00000000000E+00  0.00000000000E+00  0.48413919958E+03  0.30379796815E+04  0.29991548443E+04 0.  0.
        3    1    3    3  502    0 -0.12946982065E+04 -0.72433396771E+03  0.46359980701E+03  0.15542933873E+04  0.10100000352E+00 0. -1.
       -3    1    3    3    0  502  0.12946982065E+04  0.72433396771E+03  0.20539392575E+02  0.14836862941E+04  0.10100000352E+00 0.  1.
</event>
<event>
 5   0  0.6525507E-08  0.3000405E+04  0.7818609E-02  0.8243615E-01
        1   -1    0    0  501    0  0.00000000000E+00  0.00000000000E+00  0.16671750331E+04  0.16671750331E+04  0.50400001928E-02 0.  1.
       -1   -1    0    0    0  501  0.00000000000E+00  0.00000000000E+00 -0.13499530326E+04  0.13499530326E+04  0.50400001928E-02 0. -1.
    10030    2    1    2    0    0  0.00000000000E+00  0.00000000000E+00  0.31722200047E+03  0.30171280657E+04  0.30004053005E+04 0.  0.
        4    1    3    3  502    0 -0.14239527951E+04  0.39132710245E+03 -0.10711151695E+03  0.14806258656E+04  0.12699999809E+01 0. -1.
       -4    1    3    3    0  502  0.14239527951E+04 -0.39132710245E+03  0.42433351742E+03  0.15365022001E+04  0.12699999809E+01 0.  1.
</event>
<event>
 5   0  0.6636007E-08  0.3000027E+04  0.7818609E-02  0.8243723E-01
        1   -1    0    0  501    0  0.00000000000E+00  0.00000000000E+00  0.10397915118E+04  0.10397915118E+04  0.50400001928E-02 0.  1.
       -1   -1    0    0    0  501  0.00000000000E+00  0.00000000000E+00 -0.21639341173E+04  0.21639341173E+04  0.50400001928E-02 0. -1.
    10030    2    1    2    0    0  0.00000000000E+00  0.00000000000E+00 -0.11241426055E+04  0.32037256292E+04  0.30000268848E+04 0.  0.
        2    1    3    3  502    0  0.46444688880E+03  0.14172559732E+04 -0.73331822190E+03  0.16619509682E+04  0.25500000920E-02 0. -1.
       -2    1    3    3    0  502 -0.46444688880E+03 -0.14172559732E+04 -0.39082438364E+03  0.15417746609E+04  0.25500000920E-02 0.  1.
</event>
<event>
 5   0  0.1821305E-07  0.3000121E+04  0.7818609E-02  0.8243696E-01
        2   -1    0    0  501    0  0.00000000000E+00  0.00000000000E+00  0.29485843178E+04  0.29485843178E+04  0.25500000920E-02 0.  1.
       -2   -1    0    0    0  501  0.00000000000E+00  0.00000000000E+00 -0.76313951879E+03  0.76313951879E+03  0.25500000920E-02 0. -1.
    10030    2    1    2    0    0  0.00000000000E+00  0.00000000000E+00  0.21854447990E+04  0.37117238366E+04  0.30001208091E+04 0.  0.
        2    1    3    3  502    0  0.14514498487E+04  0.23193580806E+02  0.62497793746E+03  0.15804562721E+04  0.25500000920E-02 0. -1.
       -2    1    3    3    0  502 -0.14514498487E+04 -0.23193580806E+02  0.15604668615E+04  0.21312675645E+04  0.25500000920E-02 0.  1.
</event>
<event>
 5   0  0.6464436E-08  0.3001444E+04  0.7818609E-02  0.8243319E-01
       -1   -1    0    0    0  501  0.00000000000E+00  0.00000000000E+00  0.14141587107E+04  0.14141587108E+04  0.50400001928E-02 0. -1.
        1   -1    0    0  501    0  0.00000000000E+00  0.00000000000E+00 -0.15925841059E+04  0.15925841059E+04  0.50400001928E-02 0.  1.
    10030    2    1    2    0    0  0.00000000000E+00  0.00000000000E+00 -0.17842539513E+03  0.30067428166E+04  0.30014441097E+04 0.  0.
        5    1    3    3  502    0 -0.76748378406E+03 -0.82764859638E+03 -0.10799536189E+04  0.15621637132E+04  0.46999998093E+01 0.  1.
       -5    1    3    3    0  502  0.76748378406E+03  0.82764859638E+03  0.90152822375E+03  0.14445791034E+04  0.46999998093E+01 0. -1.
</event>
<event>
 5   0  0.6679022E-08  0.3002942E+04  0.7818609E-02  0.8242891E-01
        1   -1    0    0  501    0  0.00000000000E+00  0.00000000000E+00  0.74344833081E+03  0.74344833082E+03  0.50400001928E-02 0.  1.
       -1   -1    0    0    0  501  0.00000000000E+00  0.00000000000E+00 -0.30323758771E+04  0.30323758771E+04  0.50400001928E-02 0. -1.
    10030    2    1    2    0    0  0.00000000000E+00  0.00000000000E+00 -0.22889275463E+04  0.37758242079E+04  0.30029417472E+04 0.  0.
        3    1    3    3  502    0 -0.60190700527E+03  0.48873305874E+03 -0.27611874420E+04  0.28679798022E+04  0.10100000352E+00 0. -1.
       -3    1    3    3    0  502  0.60190700527E+03 -0.48873305874E+03  0.47225989572E+03  0.90784440573E+03  0.10100000352E+00 0.  1.
</event>
<event>
 5   0  0.1821305E-07  0.2999978E+04  0.7818609E-02  0.8243737E-01
        2   -1    0    0  501    0  0.00000000000E+00  0.00000000000E+00  0.12598788272E+04  0.12598788272E+04  0.25500000920E-02 0. -1.
       -2   -1    0    0    0  501  0.00000000000E+00  0.00000000000E+00 -0.17858597529E+04  0.17858597529E+04  0.25500000920E-02 0.  1.
    10030    2    1    2    0    0  0.00000000000E+00  0.00000000000E+00 -0.52598092571E+03  0.30457385802E+04  0.29999779273E+04 0.  0.
        2    1    3    3  502    0  0.91982015332E+03  0.64304103360E+03  0.74737619316E+03  0.13483849819E+04  0.25500000920E-02 0. -1.
       -2    1    3    3    0  502 -0.91982015332E+03 -0.64304103360E+03 -0.12733571189E+04  0.16973535983E+04  0.25500000920E-02 0.  1.
</event>
<event>
 5   0  0.6636007E-08  0.3000216E+04  0.7818609E-02  0.8243669E-01
       -1   -1    0    0    0  501  0.00000000000E+00  0.00000000000E+00  0.12997529769E+04  0.12997529769E+04  0.50400001928E-02 0. -1.
        1   -1    0    0  501    0  0.00000000000E+00  0.00000000000E+00 -0.17313478158E+04  0.17313478159E+04  0.50400001928E-02 0.  1.
    10030    2    1    2    0    0  0.00000000000E+00  0.00000000000E+00 -0.43159483897E+03  0.30311007927E+04  0.30002163107E+04 0.  0.
        2    1    3    3  502    0 -0.11833482077E+04  0.13629245240E+03  0.70542009728E+03  0.13843793292E+04  0.25500000920E-02 0. -1.
       -2    1    3    3    0  502  0.11833482077E+04 -0.13629245240E+03 -0.11370149363E+04  0.16467214636E+04  0.25500000920E-02 0.  1.
</event>
<event>
 5   0  0.6464436E-08  0.3000718E+04  0.7818609E-02  0.8243526E-01
       -1   -1    0    0    0  501  0.00000000000E+00  0.00000000000E+00  0.10696421185E+04  0.10696421185E+04  0.50400001928E-02 0.  1.
        1   -1    0    0  501    0  0.00000000000E+00  0.00000000000E+00 -0.21045139241E+04  0.21045139241E+04  0.50400001928E-02 0. -1.
    10030    2    1    2    0    0  0.00000000000E+00  0.00000000000E+00 -0.10348718056E+04  0.31741560426E+04  0.30007177356E+04 0.  0.
        5    1    3    3  502    0  0.41265111224E+03  0.14289199718E+04 -0.72623109491E+03  0.16551516304E+04  0.46999998093E+01 0. -1.
       -5    1    3    3    0  502 -0.41265111224E+03 -0.14289199718E+04 -0.30864071070E+03  0.15190044123E+04  0.46999998093E+01 0.  1.
</event>
<event>
 5   0  0.1817566E-07  0.2999508E+04  0.7818609E-02  0.8243871E-01
        2   -1    0    0  501    0  0.00000000000E+00  0.00000000000E+00  0.27925606553E+04  0.27925606553E+04  0.25500000920E-02 0.  1.
       -2   -1    0    0    0  501  0.00000000000E+00  0.00000000000E+00 -0.80544768491E+03  0.80544768491E+03  0.25500000920E-02 0. -1.
    10030    2    1    2    0    0  0.00000000000E+00  0.00000000000E+00  0.19871129704E+04  0.35980083403E+04  0.29995076361E+04 0.  0.
        1    1    3    3  502    0  0.12859239119E+03  0.26870439297E+03 -0.76960336248E+03  0.82524383636E+03  0.50400001928E-02 0. -1.
       -1    1    3    3    0  502 -0.12859239119E+03 -0.26870439297E+03  0.27567163329E+04  0.27727645039E+04  0.50400001928E-02 0.  1.
</event>
<event>
 5   0  0.1821305E-07  0.3000171E+04  0.7818609E-02  0.8243682E-01
       -2   -1    0    0    0  501  0.00000000000E+00  0.00000000000E+00  0.13374337248E+04  0.13374337248E+04  0.25500000920E-02 0.  1.
        2   -1    0    0  501    0  0.00000000000E+00  0.00000000000E+00 -0.16825182432E+04  0.16825182432E+04  0.25500000920E-02 0. -1.
    10030    2    1    2    0    0  0.00000000000E+00  0.00000000000E+00 -0.34508451840E+03  0.30199519681E+04  0.30001710892E+04 0.  0.
        2    1    3    3  502    0  0.32722877662E+03  0.14582171123E+04 -0.42147351393E+02  0.14950759908E+04  0.25500000920E-02 0. -1.
       -2    1    3    3    0  502 -0.32722877662E+03 -0.14582171123E+04 -0.30293716701E+03  0.15248759773E+04  0.25500000920E-02 0.  1.
</event>
<event>
 5   0  0.1810055E-07  0.2999600E+04  0.7818609E-02  0.8243845E-01
       -2   -1    0    0    0  501  0.00000000000E+00  0.00000000000E+00  0.13410488597E+04  0.13410488597E+04  0.25500000920E-02 0.  1.
        2   -1    0    0  501    0  0.00000000000E+00  0.00000000000E+00 -0.16773436457E+04  0.16773436457E+04  0.25500000920E-02 0. -1.
    10030    2    1    2    0    0  0.00000000000E+00  0.00000000000E+00 -0.33629478601E+03  0.30183925053E+04  0.29995998288E+04 0.  0.
        4    1    3    3  502    0 -0.70199317923E+03  0.49401766652E+03 -0.14057103616E+04  0.16470795707E+04  0.12699999809E+01 0. -1.
       -4    1    3    3    0  502  0.70199317923E+03 -0.49401766652E+03  0.10694155756E+04  0.13713129346E+04  0.12699999809E+01 0.  1.
</event>
<event>
 5   0  0.1914439E-07  0.2998531E+04  0.7818609E-02  0.8244150E-01
       -2   -1    0    0    0  501  0.00000000000E+00  0.00000000000E+00  0.11707005776E+04  0.11707005776E+04  0.25500000920E-02 0.  1.
        2   -1    0    0  501    0  0.00000000000E+00  0.00000000000E+00 -0.19200447917E+04  0.19200447917E+04  0.25500000920E-02 0. -1.
    10030    2    1    2    0    0  0.00000000000E+00  0.00000000000E+00 -0.74934421412E+03  0.30907453694E+04  0.29985313383E+04 0.  0.
        5    1    3    3  502    0 -0.16329444624E+02  0.11389693133E+04  0.63011796657E+03  0.13017636072E+04  0.46999998093E+01 0.  1.
       -5    1    3    3    0  502  0.16329444624E+02 -0.11389693133E+04 -0.13794621807E+04  0.17889817621E+04  0.46999998093E+01 0. -1.
</event>
<event>
 5   0  0.1810055E-07  0.3000340E+04  0.7818609E-02  0.8243634E-01
       -2   -1    0    0    0  501  0.00000000000E+00  0.00000000000E+00  0.13417759662E+04  0.13417759662E+04  0.25500000920E-02 0.  1.
        2   -1    0    0  501    0  0.00000000000E+00  0.00000000000E+00 -0.16772626298E+04  0.16772626298E+04  0.25500000920E-02 0. -1.
    10030    2    1    2    0    0  0.00000000000E+00  0.00000000000E+00 -0.33548666359E+03  0.30190385960E+04  0.30003404378E+04 0.  0.
        4    1    3    3  502    0  0.23601725608E+03 -0.92513220674E+03 -0.13320782715E+04  0.16389044754E+04  0.12699999809E+01 0. -1.
       -4    1    3    3    0  502 -0.23601725608E+03  0.92513220674E+03  0.99659160790E+03  0.13801341206E+04  0.12699999809E+01 0.  1.
</event>
<event>
 5   0  0.1817566E-07  0.2996840E+04  0.7818609E-02  0.8244634E-01
        2   -1    0    0  501    0  0.00000000000E+00  0.00000000000E+00  0.15037436484E+04  0.15037436484E+04  0.25500000920E-02 0.  1.
       -2   -1    0    0    0  501  0.00000000000E+00  0.00000000000E+00 -0.14931151331E+04  0.14931151331E+04  0.25500000920E-02 0. -1.
    10030    2    1    2    0    0  0.00000000000E+00  0.00000000000E+00  0.10628515287E+02  0.29968587816E+04  0.29968399342E+04 0.  0.
        1    1    3    3  502    0 -0.19021213514E+03  0.42462799735E+03 -0.14190446591E+04  0.14933778279E+04  0.50400001928E-02 0. -1.
       -1    1    3    3    0  502  0.19021213514E+03 -0.42462799735E+03  0.14296731744E+04  0.15034809536E+04  0.50400001928E-02 0.  1.
</event>
<event>
 5   0  0.6525507E-08  0.3000037E+04  0.7818609E-02  0.8243720E-01
        1   -1    0    0  501    0  0.00000000000E+00  0.00000000000E+00  0.11475842498E+04  0.11475842498E+04  0.50400001928E-02 0. -1.
       -1   -1    0    0    0  501  0.00000000000E+00  0.00000000000E+00 -0.19606892390E+04  0.19606892390E+04  0.50400001928E-02 0.  1.
    10030    2    1    2    0    0  0.00000000000E+00  0.00000000000E+00 -0.81310498922E+03  0.31082734889E+04  0.30000373928E+04 0.  0.
        4    1    3    3  502    0  0.10107752157E+04  0.53222966722E+03  0.60069436770E+03  0.12906472375E+04  0.12699999809E+01 0. -1.
       -4    1    3    3    0  502 -0.10107752157E+04 -0.53222966722E+03 -0.14137993569E+04  0.18176262514E+04  0.12699999809E+01 0.  1.
</event>
<event>
 5   0  0.1821305E-07  0.3003895E+04  0.7818609E-02  0.8242620E-01
       -2   -1    0    0    0  501  0.00000000000E+00  0.00000000000E+00  0.11035313627E+04  0.11035313627E+04  0.25500000920E-02 0. -1.
        2   -1    0    0  501    0  0.00000000000E+00  0.00000000000E+00 -0.20442066261E+04  0.20442066261E+04  0.25500000920E-02 0.  1.
    10030    2    1    2    0    0  0.00000000000E+00  0.00000000000E+00 -0.94067526332E+03  0.31477379888E+04  0.30038948875E+04 0.  0.
        2    1    3    3  502    0 -0.37099217362E+02 -0.18118993136E+03 -0.20322284967E+04  0.20406270619E+04  0.25500000920E-02 0.  1.
       -2    1    3    3    0  502  0.37099217362E+02  0.18118993136E+03  0.10915532334E+04  0.11071109269E+04  0.25500000920E-02 0. -1.
</event>
<event>
 5   0  0.1813720E-07  0.2998713E+04  0.7818609E-02  0.8244099E-01
        2   -1    0    0  501    0  0.00000000000E+00  0.00000000000E+00  0.16727284906E+04  0.16727284906E+04  0.25500000920E-02 0.  1.
       -2   -1    0    0    0  501  0.00000000000E+00  0.00000000000E+00 -0.13439536400E+04  0.13439536400E+04  0.25500000920E-02 0. -1.
    10030    2    1    2    0    0  0.00000000000E+00  0.00000000000E+00  0.32877485057E+03  0.30166821305E+04  0.29987127529E+04 0.  0.
        3    1    3    3  502    0 -0.22563337460E+03 -0.30251337272E+03  0.16241668478E+04  0.16674359718E+04  0.10100000352E+00 0.  1.
       -3    1    3    3    0  502  0.22563337460E+03  0.30251337272E+03 -0.12953919972E+04  0.13492461588E+04  0.10100000352E+00 0. -1.
</event>
<event>
 5   0  0.1914439E-07  0.2999285E+04  0.7818609E-02  0.8243935E-01
       -2   -1    0    0    0  501  0.00000000000E+00  0.00000000000E+00  0.14825689302E+04  0.14825689302E+04  0.25500000920E-02 0.  1.
        2   -1    0    0  501    0  0.00000000000E+00  0.00000000000E+00 -0.15169125835E+04  0.15169125835E+04  0.25500000920E-02 0. -1.
    10030    2    1    2    0    0  0.00000000000E+00  0.00000000000E+00 -0.34343653317E+02  0.29994815137E+04  0.29992848922E+04 0.  0.
        5    1    3    3  502    0  0.27185080094E+03 -0.28858116376E+03  0.14292021532E+04  0.14831799725E+04  0.46999998093E+01 0.  1.
       -5    1    3    3    0  502 -0.27185080094E+03  0.28858116376E+03 -0.14635458065E+04  0.15163015412E+04  0.46999998093E+01 0. -1.
</event>
<event>
 5   0  0.1817566E-07  0.2999219E+04  0.7818609E-02  0.8243954E-01
       -2   -1    0    0    0  501  0.00000000000E+00  0.00000000000E+00  0.14129507274E+04  0.14129507274E+04  0.25500000920E-02 0.  1.
        2   -1    0    0  501    0  0.00000000000E+00  0.00000000000E+00 -0.15915831169E+04  0.15915831169E+04  0.25500000920E-02 0. -1.
    10030    2    1    2    0    0  0.00000000000E+00  0.00000000000E+00 -0.17863238956E+03  0.30045338443E+04  0.29992189134E+04 0.  0.
        1    1    3    3  502    0 -0.92785803923E+02 -0.57321976432E+03 -0.14743864711E+04  0.15846152750E+04  0.50400001928E-02 0. -1.
       -1    1    3    3    0  502  0.92785803923E+02  0.57321976432E+03  0.12957540815E+04  0.14199185693E+04  0.50400001928E-02 0.  1.
</event>
<event>
 5   0  0.6374748E-08  0.2999966E+04  0.7818609E-02  0.8243741E-01
        1   -1    0    0  501    0  0.00000000000E+00  0.00000000000E+00  0.17673811429E+04  0.17673811429E+04  0.50400001928E-02 0. -1.
       -1   -1    0    0    0  501  0.00000000000E+00  0.00000000000E+00 -0.12730408133E+04  0.12730408133E+04  0.50400001928E-02 0.  1.
    10030    2    1    2    0    0  0.00000000000E+00  0.00000000000E+00  0.49434032962E+03  0.30404219562E+04  0.29999655515E+04 0.  0.
        1    1    3    3  502    0  0.45029087443E+03  0.54231966507E+03  0.15890633404E+04  0.17383885614E+04  0.50400001928E-02 0. -1.
       -1    1    3    3    0  502 -0.45029087443E+03 -0.54231966507E+03 -0.10947230108E+04  0.13020333948E+04  0.50400001928E-02 0.  1.
</event>
<event>
 5   0  0.1821305E-07  0.2999778E+04  0.7818609E-02  0.8243794E-01
       -2   -1    0    0    0  501  0.00000000000E+00  0.00000000000E+00  0.15126594840E+04  0.15126594840E+04  0.25500000920E-02 0.  1.
        2   -1    0    0  501    0  0.00000000000E+00  0.00000000000E+00 -0.14872266639E+04  0.14872266639E+04  0.25500000920E-02 0. -1.
    10030    2    1    2    0    0  0.00000000000E+00  0.00000000000E+00  0.25432820169E+02  0.29998861479E+04  0.29997783372E+04 0.  0.
        2    1    3    3  502    0  0.45612929966E+03 -0.77965629109E+03 -0.11847194781E+04  0.14897912982E+04  0.25500000920E-02 0. -1.
       -2    1    3    3    0  502 -0.45612929966E+03  0.77965629109E+03  0.12101522983E+04  0.15100948498E+04  0.25500000920E-02 0.  1.
</event>
<event>
 5   0  0.6464436E-08  0.2996362E+04  0.7818609E-02  0.8244771E-01
        1   -1    0    0  501    0  0.00000000000E+00  0.00000000000E+00  0.14681917891E+04  0.14681917891E+04  0.50400001928E-02 0.  1.
       -1   -1    0    0    0  501  0.00000000000E+00  0.00000000000E+00 -0.15287823117E+04  0.15287823117E+04  0.50400001928E-02 0. -1.
    10030    2    1    2    0    0  0.00000000000E+00  0.00000000000E+00 -0.60590522607E+02  0.29969741008E+04  0.29963615518E+04 0.  0.
        5    1    3    3  502    0 -0.97662956275E+03  0.78551069804E+03 -0.85124998753E+03  0.15150844831E+04  0.46999998093E+01 0. -1.
       -5    1    3    3    0  502  0.97662956275E+03 -0.78551069804E+03  0.79065946493E+03  0.14818896177E+04  0.46999998093E+01 0.  1.
</event>
<event>
 5   0  0.1914439E-07  0.2998195E+04  0.7818609E-02  0.8244246E-01
       -2   -1    0    0    0  501  0.00000000000E+00  0.00000000000E+00  0.12039460297E+04  0.12039460297E+04  0.25500000920E-02 0. -1.
        2   -1    0    0  501    0  0.00000000000E+00  0.00000000000E+00 -0.18666066258E+04  0.18666066258E+04  0.25500000920E-02 0.  1.
    10030    2    1    2    0    0  0.00000000000E+00  0.00000000000E+00 -0.66266059607E+03  0.30705526556E+04  0.29981952146E+04 0.  0.
        5    1    3    3  502    0 -0.11057690230E+04 -0.87795446556E+03 -0.84721558152E+03  0.16466103083E+04  0.46999998093E+01 0.  1.
       -5    1    3    3    0  502  0.11057690230E+04  0.87795446556E+03  0.18455498545E+03  0.14239423473E+04  0.46999998093E+01 0. -1.
</event>
<event>
 5   0  0.6525507E-08  0.3000027E+04  0.7818609E-02  0.8243723E-01
       -1   -1    0    0    0  501  0.00000000000E+00  0.00000000000E+00  0.14172461119E+04  0.14172461119E+04  0.50400001928E-02 0.  1.
        1   -1    0    0  501    0  0.00000000000E+00  0.00000000000E+00 -0.15876145285E+04  0.15876145285E+04  0.50400001928E-02 0. -1.
    10030    2    1    2    0    0  0.00000000000E+00  0.00000000000E+00 -0.17036841664E+03  0.30048606404E+04  0.30000270117E+04 0.  0.
        4    1    3    3  502    0 -0.17561132383E+03 -0.11033779634E+04 -0.10876747514E+04  0.15592691380E+04  0.12699999809E+01 0.  1.
       -4    1    3    3    0  502  0.17561132383E+03  0.11033779634E+04  0.91730633475E+03  0.14455915024E+04  0.12699999809E+01 0. -1.
</event>
<event>
 5   0  0.1810055E-07  0.3000590E+04  0.7818609E-02  0.8243562E-01
        2   -1    0    0  501    0  0.00000000000E+00  0.00000000000E+00  0.14957749973E+04  0.14957749973E+04  0.25500000920E-02 0. -1.
       -2   -1    0    0    0  501  0.00000000000E+00  0.00000000000E+00 -0.15048286861E+04  0.15048286861E+04  0.25500000920E-02 0.  1.
    10030    2    1    2    0    0  0.00000000000E+00  0.00000000000E+00 -0.90536887626E+01  0.30006036834E+04  0.30005900246E+04 0.  0.
        4    1    3    3  502    0 -0.95909835793E+03  0.60388668854E+03 -0.98755457332E+03  0.15032679205E+04  0.12699999809E+01 0.  1.
       -4    1    3    3    0  502  0.95909835793E+03 -0.60388668854E+03  0.97850088455E+03  0.14973357629E+04  0.12699999809E+01 0. -1.
</event>
<event>
 5   0  0.6374748E-08  0.3010822E+04  0.7818609E-02  0.8240647E-01
        1   -1    0    0  501    0  0.00000000000E+00  0.00000000000E+00  0.24440388739E+04  0.24440388739E+04  0.50400001928E-02 0. -1.
       -1   -1    0    0    0  501  0.00000000000E+00  0.00000000000E+00 -0.92726128270E+03  0.92726128271E+03  0.50400001928E-02 0.  1.
    10030    2    1    2    0    0  0.00000000000E+00  0.00000000000E+00  0.15167775912E+04  0.33713001566E+04  0.30108222274E+04 0.  0.
        1    1    3    3  502    0  0.31701421150E+03  0.81902544991E+03 -0.61068662288E+03  0.10696910064E+04  0.50400001928E-02 0.  1.
       -1    1    3    3    0  502 -0.31701421150E+03 -0.81902544991E+03  0.21274642141E+04  0.23016091501E+04  0.50400001928E-02 0. -1.
</event>
<event>
 5   0  0.1817566E-07  0.3000230E+04  0.7818609E-02  0.8243665E-01
        2   -1    0    0  501    0  0.00000000000E+00  0.00000000000E+00  0.22084351656E+04  0.22084351656E+04  0.25500000920E-02 0. -1.
       -2   -1    0    0    0  501  0.00000000000E+00  0.00000000000E+00 -0.10189771041E+04  0.10189771041E+04  0.25500000920E-02 0.  1.
    10030    2    1    2    0    0  0.00000000000E+00  0.00000000000E+00  0.11894580614E+04  0.32274122697E+04  0.30002299043E+04 0.  0.
        1    1    3    3  502    0  0.85609804509E+02 -0.11124140359E+04 -0.48397407127E+03  0.12161516877E+04  0.50400001928E-02 0.  1.
       -1    1    3    3    0  502 -0.85609804509E+02  0.11124140359E+04  0.16734321327E+04  0.20112605820E+04  0.50400001928E-02 0. -1.
</event>
<event>
 5   0  0.6525507E-08  0.2997999E+04  0.7818609E-02  0.8244303E-01
       -1   -1    0    0    0  501  0.00000000000E+00  0.00000000000E+00  0.20092481441E+04  0.20092481441E+04  0.50400001928E-02 0. -1.
        1   -1    0    0  501    0  0.00000000000E+00  0.00000000000E+00 -0.11183283180E+04  0.11183283180E+04  0.50400001928E-02 0.  1.
    10030    2    1    2    0    0  0.00000000000E+00  0.00000000000E+00  0.89091982608E+03  0.31275764621E+04  0.29979987307E+04 0.  0.
        4    1    3    3  502    0  0.24501041917E+03  0.10297027806E+04 -0.66186915259E+03  0.12483550416E+04  0.12699999809E+01 0.  1.
       -4    1    3    3    0  502 -0.24501041917E+03 -0.10297027806E+04  0.15527889787E+04  0.18792214204E+04  0.12699999809E+01 0. -1.
</event>
<event>
 5   0  0.1813720E-07  0.2999381E+04  0.7818609E-02  0.8243908E-01
       -2   -1    0    0    0  501  0.00000000000E+00  0.00000000000E+00  0.10797233836E+04  0.10797233836E+04  0.25500000920E-02 0.  1.
        2   -1    0    0  501    0  0.00000000000E+00  0.00000000000E+00 -0.20830077247E+04  0.20830077247E+04  0.25500000920E-02 0. -1.
    10030    2    1    2    0    0  0.00000000000E+00  0.00000000000E+00 -0.10032843412E+04  0.31627311083E+04  0.29993813686E+04 0.  0.
        3    1    3    3  502    0 -0.60781431521E+03 -0.77507242356E+03 -0.16941144804E+04  0.19596426681E+04  0.10100000352E+00 0. -1.
       -3    1    3    3    0  502  0.60781431521E+03  0.77507242356E+03  0.69083013924E+03  0.12030884402E+04  0.10100000352E+00 0.  1.
</event>
<event>
 5   0  0.6679022E-08  0.3000067E+04  0.7818609E-02  0.8243712E-01
       -1   -1    0    0    0  501  0.00000000000E+00  0.00000000000E+00  0.23213248951E+04  0.23213248951E+04  0.50400001928E-02 0. -1.
        1   -1    0    0  501    0  0.00000000000E+00  0.00000000000E+00 -0.96931744374E+03  0.96931744375E+03  0.50400001928E-02 0.  1.
    10030    2    1    2    0    0  0.00000000000E+00  0.00000000000E+00  0.13520074514E+04  0.32906423389E+04  0.30000671415E+04 0.  0.
        3    1    3    3  502    0 -0.73557332243E+03  0.10563111467E+04 -0.16881723947E+03  0.12982143975E+04  0.10100000352E+00 0. -1.
       -3    1    3    3    0  502  0.73557332243E+03 -0.10563111467E+04  0.15208246908E+04  0.19924279414E+04  0.10100000352E+00 0.  1.
</event>
<event>
 5   0  0.1817566E-07  0.2998784E+04  0.7818609E-02  0.8244078E-01
       -2   -1    0    0    0  501  0.00000000000E+00  0.00000000000E+00  0.87285021518E+03  0.87285021518E+03  0.25500000920E-02 0. -1.
        2   -1    0    0  501    0  0.00000000000E+00  0.00000000000E+00 -0.25756730023E+04  0.25756730023E+04  0.25500000920E-02 0.  1.
    10030    2    1    2    0    0  0.00000000000E+00  0.00000000000E+00 -0.17028227872E+04  0.34485232175E+04  0.29987842432E+04 0.  0.
        1    1    3    3  502    0  0.62111619258E+03 -0.12530563287E+04 -0.14730796472E+04  0.20312309407E+04  0.50400001928E-02 0.  1.
       -1    1    3    3    0  502 -0.62111619258E+03  0.12530563287E+04 -0.22974313999E+03  0.14172922768E+04  0.50400001928E-02 0. -1.
</event>
<event>
 5   0  0.6525507E-08  0.3000258E+04  0.7818609E-02  0.8243657E-01
        1   -1    0    0  501    0  0.00000000000E+00  0.00000000000E+00  0.13773417349E+04  0.13773417349E+04  0.50400001928E-02 0.  1.
       -1   -1    0    0    0  501  0.00000000000E+00  0.00000000000E+00 -0.16338630252E+04  0.16338630252E+04  0.50400001928E-02 0. -1.
    10030    2    1    2    0    0  0.00000000000E+00  0.00000000000E+00 -0.25652129028E+03  0.30112047601E+04  0.30002584780E+04 0.  0.
        4    1    3    3  502    0  0.20460996348E+03 -0.13345415220E+04  0.52797488169E+03  0.14496983823E+04  0.12699999809E+01 0.  1.
       -4    1    3    3    0  502 -0.20460996348E+03  0.13345415220E+04 -0.78449617196E+03  0.15615063778E+04  0.12699999809E+01 0. -1.
</event>
<event>
 5   0  0.1813720E-07  0.2999738E+04  0.7818609E-02  0.8243806E-01
       -2   -1    0    0    0  501  0.00000000000E+00  0.00000000000E+00  0.24900505340E+04  0.24900505340E+04  0.25500000920E-02 0. -1.
        2   -1    0    0  501    0  0.00000000000E+00  0.00000000000E+00 -0.90343837507E+03  0.90343837507E+03  0.25500000920E-02 0.  1.
    10030    2    1    2    0    0  0.00000000000E+00  0.00000000000E+00  0.15866121590E+04  0.33934889091E+04  0.29997381275E+04 0.  0.
        3    1    3    3  502    0 -0.20980349270E+03 -0.21124087514E+03 -0.86967442129E+03  0.91922457655E+03  0.10100000352E+00 0.  1.
       -3    1    3    3    0  502  0.20980349270E+03  0.21124087514E+03  0.24562865803E+04  0.24742643326E+04  0.10100000352E+00 0. -1.
</event>
<event>
 5   0  0.6525507E-08  0.2999143E+04  0.7818609E-02  0.8243976E-01
        1   -1    0    0  501    0  0.00000000000E+00  0.00000000000E+00  0.26086882503E+04  0.26086882503E+04  0.50400001928E-02 0. -1.
       -1   -1    0    0    0  501  0.00000000000E+00  0.00000000000E+00 -0.86200962187E+03  0.86200962188E+03  0.50400001928E-02 0.  1.
    10030    2    1    2    0    0  0.00000000000E+00  0.00000000000E+00  0.17466786284E+04  0.34706978722E+04  0.29991427923E+04 0.  0.
        4    1    3    3  502    0  0.50423035552E+01  0.10618659163E+04  0.20986530077E+04  0.23520056779E+04  0.12699999809E+01 0. -1.
       -4    1    3    3    0  502 -0.50423035552E+01 -0.10618659163E+04 -0.35197437931E+03  0.11186921943E+04  0.12699999809E+01 0.  1.
</event>
<event>
 5   0  0.6017625E-08  0.2998442E+04  0.7818609E-02  0.8244176E-01
       -3   -1    0    0    0  501  0.00000000000E+00  0.00000000000E+00  0.11172456870E+04  0.11172456916E+04  0.10100000352E+00 0.  1.
        3   -1    0    0  501    0  0.00000000000E+00  0.00000000000E+00 -0.20117899158E+04  0.20117899183E+04  0.10100000352E+00 0. -1.
    10030    2    1    2    0    0  0.00000000000E+00  0.00000000000E+00 -0.89454422875E+03  0.31290356099E+04  0.29984420073E+04 0.  0.
        2    1    3    3  502    0  0.13475038919E+03  0.10182944357E+04 -0.15868894542E+04  0.18903172657E+04  0.25500000920E-02 0. -1.
       -2    1    3    3    0  502 -0.13475038919E+03 -0.10182944357E+04  0.69234522545E+03  0.12387183442E+04  0.25500000920E-02 0.  1.
</event>
<event>
 5   0  0.6525507E-08  0.2999159E+04  0.7818609E-02  0.8243971E-01
       -1   -1    0    0    0  501  0.00000000000E+00  0.00000000000E+00  0.10576652025E+04  0.10576652026E+04  0.50400001928E-02 0. -1.
        1   -1    0    0  501    0  0.00000000000E+00  0.00000000000E+00 -0.21261346512E+04  0.21261346512E+04  0.50400001928E-02 0.  1.
    10030    2    1    2    0    0  0.00000000000E+00  0.00000000000E+00 -0.10684694487E+04  0.31837998538E+04  0.29991589732E+04 0.  0.
        4    1    3    3  502    0  0.18170652189E+03  0.14205192166E+04 -0.10064159580E+04  0.17503619049E+04  0.12699999809E+01 0.  1.
       -4    1    3    3    0  502 -0.18170652189E+03 -0.14205192166E+04 -0.62053490666E+02  0.14334379489E+04  0.12699999809E+01 0. -1.
</event>
<event>
 5   0  0.6464436E-08  0.2998441E+04  0.7818609E-02  0.8244176E-01
       -1   -1    0    0    0  501  0.00000000000E+00  0.00000000000E+00  0.95269675477E+03  0.95269675478E+03  0.50400001928E-02 0. -1.
        1   -1    0    0  501    0  0.00000000000E+00  0.00000000000E+00 -0.23592633943E+04  0.23592633943E+04  0.50400001928E-02 0.  1.
    10030    2    1    2    0    0  0.00000000000E+00  0.00000000000E+00 -0.14065666395E+04  0.33119601490E+04  0.29984413147E+04 0.  0.
        5    1    3    3  502    0 -0.10221447252E+04 -0.42695353330E+02  0.50722528106E+03  0.11418854182E+04  0.46999998093E+01 0.  1.
       -5    1    3    3    0  502  0.10221447252E+04  0.42695353330E+02 -0.19137919205E+04  0.21700747309E+04  0.46999998093E+01 0. -1.
</event>
<event>
 5   0  0.1821305E-07  0.2998421E+04  0.7818609E-02  0.8244182E-01
        2   -1    0    0  501    0  0.00000000000E+00  0.00000000000E+00  0.21038990922E+04  0.21038990922E+04  0.25500000920E-02 0. -1.
       -2   -1    0    0    0  501  0.00000000000E+00  0.00000000000E+00 -0.10683177708E+04  0.10683177708E+04  0.25500000920E-02 0.  1.
    10030    2    1    2    0    0  0.00000000000E+00  0.00000000000E+00  0.10355813215E+04  0.31722168630E+04  0.29984214435E+04 0.  0.
        2    1    3    3  502    0  0.60323043051E+03  0.12608613732E+04 -0.55830250802E+02  0.13988478730E+04  0.25500000920E-02 0.  1.
       -2    1    3    3    0  502 -0.60323043051E+03 -0.12608613732E+04  0.10914115723E+04  0.17733689901E+04  0.25500000920E-02 0. -1.
</event>
<event>
 5   0  0.1810055E-07  0.2999893E+04  0.7818609E-02  0.8243762E-01
        2   -1    0    0  501    0  0.00000000000E+00  0.00000000000E+00  0.95041197187E+03  0.95041197187E+03  0.25500000920E-02 0.  1.
       -2   -1    0    0    0  501  0.00000000000E+00  0.00000000000E+00 -0.23672251317E+04  0.23672251317E+04  0.25500000920E-02 0. -1.
    10030    2    1    2    0    0  0.00000000000E+00  0.00000000000E+00 -0.14168131599E+04  0.33176371036E+04  0.29998927350E+04 0.  0.
        4    1    3    3  502    0  0.91406224689E+03  0.64123389120E+03  0.39925068117E+03  0.11857880982E+04  0.12699999809E+01 0.  1.
       -4    1    3    3    0  502 -0.91406224689E+03 -0.64123389120E+03 -0.18160638410E+04  0.21318490055E+04  0.12699999809E+01 0. -1.
</event>
<event>
 5   0  0.1914439E-07  0.3000576E+04  0.7818609E-02  0.8243567E-01
        2   -1    0    0  501    0  0.00000000000E+00  0.00000000000E+00  0.15671586996E+04  0.15671586996E+04  0.25500000920E-02 0.  1.
       -2   -1    0    0    0  501  0.00000000000E+00  0.00000000000E+00 -0.14362703891E+04  0.14362703891E+04  0.25500000920E-02 0. -1.
    10030    2    1    2    0    0  0.00000000000E+00  0.00000000000E+00  0.13088831050E+03  0.30034290887E+04  0.30005757016E+04 0.  0.
        5    1    3    3  502    0 -0.33440489571E+03 -0.11682964247E+04  0.94610943067E+03  0.15400936060E+04  0.46999998093E+01 0.  1.
       -5    1    3    3    0  502  0.33440489571E+03  0.11682964247E+04 -0.81522112017E+03  0.14633354828E+04  0.46999998093E+01 0. -1.
</event>
<event>
 5   0  0.1914439E-07  0.3001101E+04  0.7818609E-02  0.8243417E-01
       -2   -1    0    0    0  501  0.00000000000E+00  0.00000000000E+00  0.26213705340E+04  0.26213705340E+04  0.25500000920E-02 0. -1.
        2   -1    0    0  501    0  0.00000000000E+00  0.00000000000E+00 -0.85895953929E+03  0.85895953930E+03  0.25500000920E-02 0.  1.
    10030    2    1    2    0    0  0.00000000000E+00  0.00000000000E+00  0.17624109947E+04  0.34803300733E+04  0.30011006156E+04 0.  0.
        5    1    3    3  502    0 -0.50453214172E+03 -0.13443823750E+04  0.37609332613E+03  0.14843803193E+04  0.46999998093E+01 0. -1.
       -5    1    3    3    0  502  0.50453214172E+03  0.13443823750E+04  0.13863176686E+04  0.19959497540E+04  0.46999998093E+01 0.  1.
</event>
<event>
 5   0  0.6525507E-08  0.2999568E+04  0.7818609E-02  0.8243854E-01
        1   -1    0    0  501    0  0.00000000000E+00  0.00000000000E+00  0.79126102399E+03  0.79126102400E+03  0.50400001928E-02 0.  1.
       -1   -1    0    0    0  501  0.00000000000E+00  0.00000000000E+00 -0.28427431311E+04  0.28427431311E+04  0.50400001928E-02 0. -1.
    10030    2    1    2    0    0  0.00000000000E+00  0.00000000000E+00 -0.20514821071E+04  0.36340041551E+04  0.29995678628E+04 0.  0.
        4    1    3    3  502    0  0.93008740367E+03 -0.99726948215E+02  0.39453958346E+03  0.10152197489E+04  0.12699999809E+01 0.  1.
       -4    1    3    3    0  502 -0.93008740367E+03  0.99726948215E+02 -0.24460216905E+04  0.26187844062E+04  0.12699999809E+01 0. -1.
</event>
<event>
 5   0  0.6374748E-08  0.2999969E+04  0.7818609E-02  0.8243740E-01
       -1   -1    0    0    0  501  0.00000000000E+00  0.00000000000E+00  0.14081784938E+04  0.14081784938E+04  0.50400001928E-02 0.  1.
        1   -1    0    0  501    0  0.00000000000E+00  0.00000000000E+00 -0.15977753347E+04  0.15977753347E+04  0.50400001928E-02 0. -1.
    10030    2    1    2    0    0  0.00000000000E+00  0.00000000000E+00 -0.18959684092E+03  0.30059538285E+04  0.29999685760E+04 0.  0.
        1    1    3    3  502    0 -0.42806218766E+03  0.10182174873E+04  0.92209025984E+03  0.14388379114E+04  0.50400001928E-02 0. -1.
       -1    1    3    3    0  502  0.42806218766E+03 -0.10182174873E+04 -0.11116871008E+04  0.15671159172E+04  0.50400001928E-02 0.  1.
</event>
<event>
 5   0  0.1813720E-07  0.2999662E+04  0.7818609E-02  0.8243828E-01
        2   -1    0    0  501    0  0.00000000000E+00  0.00000000000E+00  0.18331452343E+04  0.18331452343E+04  0.25500000920E-02 0.  1.
       -2   -1    0    0    0  501  0.00000000000E+00  0.00000000000E+00 -0.12271217678E+04  0.12271217678E+04  0.25500000920E-02 0. -1.
    10030    2    1    2    0    0  0.00000000000E+00  0.00000000000E+00  0.60602346647E+03  0.30602670021E+04  0.29996615946E+04 0.  0.
        3    1    3    3  502    0 -0.66808559664E+03  0.19813584110E+03  0.16579626815E+04  0.17984539025E+04  0.10100000352E+00 0.  1.
       -3    1    3    3    0  502  0.66808559664E+03 -0.19813584110E+03 -0.10519392150E+04  0.12618130996E+04  0.10100000352E+00 0. -1.
</event>
<event>
 5   0  0.1817566E-07  0.3000460E+04  0.7818609E-02  0.8243599E-01
        2   -1    0    0  501    0  0.00000000000E+00  0.00000000000E+00  0.21560216601E+04  0.21560216601E+04  0.25500000920E-02 0.  1.
       -2   -1    0    0    0  501  0.00000000000E+00  0.00000000000E+00 -0.10439091673E+04  0.10439091673E+04  0.25500000920E-02 0. -1.
    10030    2    1    2    0    0  0.00000000000E+00  0.00000000000E+00  0.11121124928E+04  0.31999308274E+04  0.30004604819E+04 0.  0.
        1    1    3    3  502    0  0.75597463984E+03 -0.24959851993E+02 -0.82567132542E+03  0.11197561288E+04  0.50400001928E-02 0. -1.
       -1    1    3    3    0  502 -0.75597463984E+03  0.24959851993E+02  0.19377838183E+04  0.20801746986E+04  0.50400001928E-02 0.  1.
</event>
<event>
 5   0  0.1914439E-07  0.2998437E+04  0.7818609E-02  0.8244177E-01
        2   -1    0    0  501    0  0.00000000000E+00  0.00000000000E+00  0.18280693649E+04  0.18280693649E+04  0.25500000920E-02 0. -1.
       -2   -1    0    0    0  501  0.00000000000E+00  0.00000000000E+00 -0.12295248114E+04  0.12295248114E+04  0.25500000920E-02 0.  1.
    10030    2    1    2    0    0  0.00000000000E+00  0.00000000000E+00  0.59854455355E+03  0.30575941763E+04  0.29984373537E+04 0.  0.
        5    1    3    3  502    0  0.93217374543E+03  0.13413077239E+03  0.14887747584E+04  0.17616501715E+04  0.46999998093E+01 0. -1.
       -5    1    3    3    0  502 -0.93217374543E+03 -0.13413077239E+03 -0.89023020482E+03  0.12959440047E+04  0.46999998093E+01 0.  1.
</event>
<event>
 5   0  0.6679022E-08  0.3001171E+04  0.7818609E-02  0.8243397E-01
       -1   -1    0    0    0  501  0.00000000000E+00  0.00000000000E+00  0.13212134748E+04  0.13212134748E+04  0.50400001928E-02 0. -1.
        1   -1    0    0  501    0  0.00000000000E+00  0.00000000000E+00 -0.17043091578E+04  0.17043091578E+04  0.50400001928E-02 0.  1.
    10030    2    1    2    0    0  0.00000000000E+00  0.00000000000E+00 -0.38309568296E+03  0.30255226326E+04  0.30011705879E+04 0.  0.
        3    1    3    3  502    0 -0.73721778052E+03 -0.75354408719E+02  0.11238723141E+04  0.13462010739E+04  0.10100000352E+00 0. -1.
       -3    1    3    3    0  502  0.73721778052E+03  0.75354408719E+02 -0.15069679971E+04  0.16793215586E+04  0.10100000352E+00 0.  1.
</event>
<event>
 5   0  0.1821305E-07  0.2999730E+04  0.7818609E-02  0.8243808E-01
        2   -1    0    0  501    0  0.00000000000E+00  0.00000000000E+00  0.14756620816E+04  0.14756620816E+04  0.25500000920E-02 0. -1.
       -2   -1    0    0    0  501  0.00000000000E+00  0.00000000000E+00 -0.15244644544E+04  0.15244644544E+04  0.25500000920E-02 0.  1.
    10030    2    1    2    0    0  0.00000000000E+00  0.00000000000E+00 -0.48802372806E+02  0.30001265359E+04  0.29997295811E+04 0.  0.
        2    1    3    3  502    0  0.13197862424E+03 -0.85304410442E+03 -0.12511407653E+04  0.15200183604E+04  0.25500000920E-02 0.  1.
       -2    1    3    3    0  502 -0.13197862424E+03  0.85304410442E+03  0.12023383925E+04  0.14801081756E+04  0.25500000920E-02 0. -1.
</event>
<event>
 5   0  0.6374748E-08  0.3000073E+04  0.7818609E-02  0.8243710E-01
       -1   -1    0    0    0  501  0.00000000000E+00  0.00000000000E+00  0.11077555533E+04  0.11077555533E+04  0.50400001928E-02 0. -1.
        1   -1    0    0  501    0  0.00000000000E+00  0.00000000000E+00 -0.20312334222E+04  0.20312334222E+04  0.50400001928E-02 0.  1.
    10030    2    1    2    0    0  0.00000000000E+00  0.00000000000E+00 -0.92347786892E+03  0.31389889756E+04  0.30000734015E+04 0.  0.
        1    1    3    3  502    0 -0.13632660250E+04  0.57584059211E+03 -0.20539772621E+03  0.14940799404E+04  0.50400001928E-02 0. -1.
       -1    1    3    3    0  502  0.13632660250E+04 -0.57584059211E+03 -0.71808014271E+03  0.16449090351E+04  0.50400001928E-02 0.  1.
</event>
<event>
 5   0  0.1813720E-07  0.3000776E+04  0.7818609E-02  0.8243509E-01
       -2   -1    0    0    0  501  0.00000000000E+00  0.00000000000E+00  0.15641002911E+04  0.15641002911E+04  0.25500000920E-02 0.  1.
        2   -1    0    0  501    0  0.00000000000E+00  0.00000000000E+00 -0.14392707531E+04  0.14392707531E+04  0.25500000920E-02 0. -1.
    10030    2    1    2    0    0  0.00000000000E+00  0.00000000000E+00  0.12482953805E+03  0.30033710442E+04  0.30007757689E+04 0.  0.
        3    1    3    3  502    0 -0.57266813873E+03  0.46806060035E+03  0.13689687282E+04  0.15559900102E+04  0.10100000352E+00 0.  1.
       -3    1    3    3    0  502  0.57266813873E+03 -0.46806060035E+03 -0.12441391902E+04  0.14473810340E+04  0.10100000352E+00 0. -1.
</event>
<event>
 5   0  0.1821305E-07  0.2999658E+04  0.7818609E-02  0.8243829E-01
       -2   -1    0    0    0  501  0.00000000000E+00  0.00000000000E+00  0.15584794404E+04  0.15584794404E+04  0.25500000920E-02 0. -1.
        2   -1    0    0  501    0  0.00000000000E+00  0.00000000000E+00 -0.14433854665E+04  0.14433854665E+04  0.25500000920E-02 0.  1.
    10030    2    1    2    0    0  0.00000000000E+00  0.00000000000E+00  0.11509397385E+03  0.30018649069E+04  0.29996576965E+04 0.  0.
        2    1    3    3  502    0  0.39948387011E+03  0.11413427199E+04  0.94546306559E+03  0.15349758875E+04  0.25500000920E-02 0. -1.
       -2    1    3    3    0  502 -0.39948387011E+03 -0.11413427199E+04 -0.83036909174E+03  0.14668890194E+04  0.25500000920E-02 0.  1.
</event>
<event>
 5   0  0.6374748E-08  0.2999260E+04  0.7818609E-02  0.8243942E-01
        1   -1    0    0  501    0  0.00000000000E+00  0.00000000000E+00  0.17782061789E+04  0.17782061789E+04  0.50400001928E-02 0.  1.
       -1   -1    0    0    0  501  0.00000000000E+00  0.00000000000E+00 -0.12646960024E+04  0.12646960024E+04  0.50400001928E-02 0. -1.
    10030    2    1    2    0    0  0.00000000000E+00  0.00000000000E+00  0.51351017653E+03  0.30429021813E+04  0.29992600727E+04 0.  0.
        1    1    3    3  502    0  0.50988402858E+03  0.17270263774E+02  0.16874555045E+04  0.17628913932E+04  0.50400001928E-02 0.  1.
       -1    1    3    3    0  502 -0.50988402858E+03 -0.17270263774E+02 -0.11739453279E+04  0.12800107881E+04  0.50400001928E-02 0. -1.
</event>
<event>
 5   0  0.1914439E-07  0.3018893E+04  0.7818609E-02  0.8238356E-01
       -2   -1    0    0    0  501  0.00000000000E+00  0.00000000000E+00  0.18431369239E+04  0.18431369239E+04  0.25500000920E-02 0.  1.
        2   -1    0    0  501    0  0.00000000000E+00  0.00000000000E+00 -0.12361689480E+04  0.12361689480E+04  0.25500000920E-02 0. -1.
    10030    2    1    2    0    0  0.00000000000E+00  0.00000000000E+00  0.60696797594E+03  0.30793058719E+04  0.30188929310E+04 0.  0.
        5    1    3    3  502    0  0.46599102268E+03  0.11148827218E+04  0.12261832672E+04  0.17215279874E+04  0.46999998093E+01 0.  1.
       -5    1    3    3    0  502 -0.46599102268E+03 -0.11148827218E+04 -0.61921529128E+03  0.13577778845E+04  0.46999998093E+01 0. -1.
</event>
<event>
 5   0  0.1821305E-07  0.2998672E+04  0.7818609E-02  0.8244110E-01
        2   -1    0    0  501    0  0.00000000000E+00  0.00000000000E+00  0.18011074012E+04  0.18011074012E+04  0.25500000920E-02 0. -1.
       -2   -1    0    0    0  501  0.00000000000E+00  0.00000000000E+00 -0.12481255886E+04  0.12481255886E+04  0.25500000920E-02 0.  1.
    10030    2    1    2    0    0  0.00000000000E+00  0.00000000000E+00  0.55298181261E+03  0.30492329899E+04  0.29986718629E+04 0.  0.
        2    1    3    3  502    0  0.50433730946E+03  0.32583396216E+03  0.16735132238E+04  0.17779680545E+04  0.25500000920E-02 0. -1.
       -2    1    3    3    0  502 -0.50433730946E+03 -0.32583396216E+03 -0.11205314112E+04  0.12712649354E+04  0.25500000920E-02 0.  1.
</event>
<event>
 5   0  0.1914439E-07  0.2999864E+04  0.7818609E-02  0.8243770E-01
       -2   -1    0    0    0  501  0.00000000000E+00  0.00000000000E+00  0.19164405689E+04  0.19164405689E+04  0.25500000920E-02 0. -1.
        2   -1    0    0  501    0  0.00000000000E+00  0.00000000000E+00 -0.11739447852E+04  0.11739447852E+04  0.25500000920E-02 0.  1.
    10030    2    1    2    0    0  0.00000000000E+00  0.00000000000E+00  0.74249578364E+03  0.30903853541E+04  0.29998636049E+04 0.  0.
        5    1    3    3  502    0  0.33125741847E+03 -0.63916567965E+03 -0.98432699443E+03  0.12195023433E+04  0.46999998093E+01 0.  1.
       -5    1    3    3    0  502 -0.33125741847E+03  0.63916567965E+03  0.17268227781E+04  0.18708830108E+04  0.46999998093E+01 0. -1.
</event>
<event>
 5   0  0.6374748E-08  0.2996833E+04  0.7818609E-02  0.8244636E-01
       -1   -1    0    0    0  501  0.00000000000E+00  0.00000000000E+00  0.29193616221E+04  0.29193616221E+04  0.50400001928E-02 0. -1.
        1   -1    0    0  501    0  0.00000000000E+00  0.00000000000E+00 -0.76909014996E+03  0.76909014998E+03  0.50400001928E-02 0.  1.
    10030    2    1    2    0    0  0.00000000000E+00  0.00000000000E+00  0.21502714722E+04  0.36884517721E+04  0.29968331737E+04 0.  0.
        1    1    3    3  502    0  0.76645072733E+03 -0.90747837610E+03 -0.49054172956E+02  0.11888524014E+04  0.50400001928E-02 0.  1.
       -1    1    3    3    0  502 -0.76645072733E+03  0.90747837610E+03  0.21993256451E+04  0.24995993707E+04  0.50400001928E-02 0. -1.
</event>
<event>
 5   0  0.1810055E-07  0.2999808E+04  0.7818609E-02  0.8243786E-01
       -2   -1    0    0    0  501  0.00000000000E+00  0.00000000000E+00  0.21344358602E+04  0.21344358602E+04  0.25500000920E-02 0.  1.
        2   -1    0    0  501    0  0.00000000000E+00  0.00000000000E+00 -0.10540074629E+04  0.10540074629E+04  0.25500000920E-02 0. -1.
    10030    2    1    2    0    0  0.00000000000E+00  0.00000000000E+00  0.10804283973E+04  0.31884433231E+04  0.29998075443E+04 0.  0.
        4    1    3    3  502    0  0.79922861054E+03 -0.12208985102E+04  0.90894435704E+03  0.17191686948E+04  0.12699999809E+01 0. -1.
       -4    1    3    3    0  502 -0.79922861054E+03  0.12208985102E+04  0.17148404022E+03  0.14692746282E+04  0.12699999809E+01 0.  1.
</event>
<event>
 5   0  0.1813720E-07  0.3001773E+04  0.7818609E-02  0.8243225E-01
       -2   -1    0    0    0  501  0.00000000000E+00  0.00000000000E+00  0.17706907712E+04  0.17706907712E+04  0.25500000920E-02 0. -1.
        2   -1    0    0  501    0  0.00000000000E+00  0.00000000000E+00 -0.12721929591E+04  0.12721929591E+04  0.25500000920E-02 0.  1.
    10030    2    1    2    0    0  0.00000000000E+00  0.00000000000E+00  0.49849781209E+03  0.30428837303E+04  0.30017730307E+04 0.  0.
        3    1    3    3  502    0  0.12618015264E+04 -0.46442119175E+02  0.10717554151E+04  0.16561882871E+04  0.10100000352E+00 0. -1.
       -3    1    3    3    0  502 -0.12618015264E+04  0.46442119175E+02 -0.57325760297E+03  0.13866954432E+04  0.10100000352E+00 0.  1.
</event>
<event>
 5   0  0.1914439E-07  0.2998852E+04  0.7818609E-02  0.8244059E-01
       -2   -1    0    0    0  501  0.00000000000E+00  0.00000000000E+00  0.15400140388E+04  0.15400140388E+04  0.25500000920E-02 0. -1.
        2   -1    0    0  501    0  0.00000000000E+00  0.00000000000E+00 -0.14599079504E+04  0.14599079504E+04  0.25500000920E-02 0.  1.
    10030    2    1    2    0    0  0.00000000000E+00  0.00000000000E+00  0.80106088423E+02  0.29999219892E+04  0.29988522731E+04 0.  0.
        5    1    3    3  502    0  0.20620815040E+03 -0.13781787360E+04  0.59374683987E+03  0.15147461271E+04  0.46999998093E+01 0. -1.
       -5    1    3    3    0  502 -0.20620815040E+03  0.13781787360E+04 -0.51364075144E+03  0.14851758621E+04  0.46999998093E+01 0.  1.
</event>
<event>
 5   0  0.1813720E-07  0.2998480E+04  0.7818609E-02  0.8244165E-01
        2   -1    0    0  501    0  0.00000000000E+00  0.00000000000E+00  0.16087661663E+04  0.16087661663E+04  0.25500000920E-02 0.  1.
       -2   -1    0    0    0  501  0.00000000000E+00  0.00000000000E+00 -0.13971709088E+04  0.13971709088E+04  0.25500000920E-02 0. -1.
    10030    2    1    2    0    0  0.00000000000E+00  0.00000000000E+00  0.21159525748E+03  0.30059370752E+04  0.29984804730E+04 0.  0.
        3    1    3    3  502    0 -0.56732222060E+03  0.77069885955E+03 -0.10511477245E+04  0.14215283265E+04  0.10100000352E+00 0. -1.
       -3    1    3    3    0  502  0.56732222060E+03 -0.77069885955E+03  0.12627429820E+04  0.15844087487E+04  0.10100000352E+00 0.  1.
</event>
<event>
 5   0  0.6679022E-08  0.2997774E+04  0.7818609E-02  0.8244367E-01
        1   -1    0    0  501    0  0.00000000000E+00  0.00000000000E+00  0.11966250170E+04  0.11966250170E+04  0.50400001928E-02 0. -1.
       -1   -1    0    0    0  501  0.00000000000E+00  0.00000000000E+00 -0.18774986041E+04  0.18774986041E+04  0.50400001928E-02 0.  1.
    10030    2    1    2    0    0  0.00000000000E+00  0.00000000000E+00 -0.68087358710E+03  0.30741236212E+04  0.29977737067E+04 0.  0.
        3    1    3    3  502    0  0.77880741893E+03  0.73769502945E+03  0.73309092606E+03  0.12992910637E+04  0.10100000352E+00 0. -1.
       -3    1    3    3    0  502 -0.77880741893E+03 -0.73769502945E+03 -0.14139645132E+04  0.17748325574E+04  0.10100000352E+00 0.  1.
</event>
<event>
 5   0  0.6679022E-08  0.2995512E+04  0.7818609E-02  0.8245014E-01
        1   -1    0    0  501    0  0.00000000000E+00  0.00000000000E+00  0.20357458111E+04  0.20357458111E+04  0.50400001928E-02 0.  1.
       -1   -1    0    0    0  501  0.00000000000E+00  0.00000000000E+00 -0.11019417616E+04  0.11019417616E+04  0.50400001928E-02 0. -1.
    10030    2    1    2    0    0  0.00000000000E+00  0.00000000000E+00  0.93380404952E+03  0.31376875727E+04  0.29955121934E+04 0.  0.
        3    1    3    3  502    0 -0.54646610798E+03 -0.84870863775E+03  0.16259193729E+04  0.19137777761E+04  0.10100000352E+00 0.  1.
       -3    1    3    3    0  502  0.54646610798E+03  0.84870863775E+03 -0.69211532340E+03  0.12239097965E+04  0.10100000352E+00 0. -1.
</event>
<event>
 5   0  0.1810055E-07  0.2997829E+04  0.7818609E-02  0.8244351E-01
       -2   -1    0    0    0  501  0.00000000000E+00  0.00000000000E+00  0.12759792177E+04  0.12759792177E+04  0.25500000920E-02 0. -1.
        2   -1    0    0  501    0  0.00000000000E+00  0.00000000000E+00 -0.17608004725E+04  0.17608004725E+04  0.25500000920E-02 0.  1.
    10030    2    1    2    0    0  0.00000000000E+00  0.00000000000E+00 -0.48482125479E+03  0.30367796901E+04  0.29978290874E+04 0.  0.
        4    1    3    3  502    0  0.18649340028E+03  0.12687284160E+04 -0.10285686042E+04  0.16438998048E+04  0.12699999809E+01 0. -1.
       -4    1    3    3    0  502 -0.18649340028E+03 -0.12687284160E+04  0.54374734936E+03  0.13928798853E+04  0.12699999809E+01 0.  1.
</event>
<event>
 5   0  0.6464436E-08  0.2984917E+04  0.7818609E-02  0.8248051E-01
       -1   -1    0    0    0  501  0.00000000000E+00  0.00000000000E+00  0.82966188889E+03  0.82966188890E+03  0.50400001928E-02 0.  1.
        1   -1    0    0  501    0  0.00000000000E+00  0.00000000000E+00 -0.26847478142E+04  0.26847478142E+04  0.50400001928E-02 0. -1.
    10030    2    1    2    0    0  0.00000000000E+00  0.00000000000E+00 -0.18550859253E+04  0.35144097031E+04  0.29849173810E+04 0.  0.
        5    1    3    3  502    0 -0.10209689595E+04  0.90756126348E+03 -0.21977061288E+03  0.13836062574E+04  0.46999998093E+01 0.  1.
       -5    1    3    3    0  502  0.10209689595E+04 -0.90756126348E+03 -0.16353153125E+04  0.21308034457E+04  0.46999998093E+01 0. -1.
</event>
<event>
 5   0  0.6017625E-08  0.2996854E+04  0.7818609E-02  0.8244630E-01
        3   -1    0    0  501    0  0.00000000000E+00  0.00000000000E+00  0.21802780173E+04  0.21802780197E+04  0.10100000352E+00 0. -1.
       -3   -1    0    0    0  501  0.00000000000E+00  0.00000000000E+00 -0.10298154558E+04  0.10298154608E+04  0.10100000352E+00 0.  1.
    10030    2    1    2    0    0  0.00000000000E+00  0.00000000000E+00  0.11504625615E+04  0.32100934804E+04  0.29968543588E+04 0.  0.
        5    1    3    3  502    0  0.60283157945E+02  0.10195965341E+04  0.17496242634E+04  0.20259364019E+04  0.46999998093E+01 0.  1.
       -5    1    3    3    0  502 -0.60283157945E+02 -0.10195965341E+04 -0.59916170190E+03  0.11841570785E+04  0.46999998093E+01 0. -1.
</event>
<event>
 5   0  0.6679022E-08  0.2987674E+04  0.7818609E-02  0.8247259E-01
       -1   -1    0    0    0  501  0.00000000000E+00  0.00000000000E+00  0.14502512775E+04  0.14502512775E+04  0.50400001928E-02 0. -1.
        1   -1    0    0  501    0  0.00000000000E+00  0.00000000000E+00 -0.15387330618E+04  0.15387330618E+04  0.50400001928E-02 0.  1.
    10030    2    1    2    0    0  0.00000000000E+00  0.00000000000E+00 -0.88481784265E+02  0.29889843393E+04  0.29876744057E+04 0.  0.
        3    1    3    3  502    0 -0.21399841686E+03 -0.55433092148E+03 -0.14154152293E+04  0.15350825301E+04  0.10100000352E+00 0.  1.
       -3    1    3    3    0  502  0.21399841686E+03  0.55433092148E+03  0.13269334450E+04  0.14539018091E+04  0.10100000352E+00 0. -1.
</event>
<event>
 5   0  0.6017625E-08  0.2997169E+04  0.7818609E-02  0.8244540E-01
        3   -1    0    0  501    0  0.00000000000E+00  0.00000000000E+00  0.16410683612E+04  0.16410683643E+04  0.10100000352E+00 0.  1.
       -3   -1    0    0    0  501  0.00000000000E+00  0.00000000000E+00 -0.13684719812E+04  0.13684719849E+04  0.10100000352E+00 0. -1.
    10030    2    1    2    0    0  0.00000000000E+00  0.00000000000E+00  0.27259638001E+03  0.30095403492E+04  0.29971693858E+04 0.  0.
        4    1    3    3  502    0  0.80938415947E+03 -0.63058850972E+03 -0.96046004272E+03  0.14054286509E+04  0.12699999809E+01 0. -1.
       -4    1    3    3    0  502 -0.80938415947E+03  0.63058850972E+03  0.12330564227E+04  0.16041116983E+04  0.12699999809E+01 0.  1.
</event>
<event>
 5   0  0.6679022E-08  0.3000911E+04  0.7818609E-02  0.8243471E-01
        1   -1    0    0  501    0  0.00000000000E+00  0.00000000000E+00  0.20206362635E+04  0.20206362635E+04  0.50400001928E-02 0. -1.
       -1   -1    0    0    0  501  0.00000000000E+00  0.00000000000E+00 -0.11141873263E+04  0.11141873263E+04  0.50400001928E-02 0.  1.
    10030    2    1    2    0    0  0.00000000000E+00  0.00000000000E+00  0.90644893713E+03  0.31348235898E+04  0.30009114055E+04 0.  0.
        3    1    3    3  502    0 -0.14957270959E+04 -0.11556227902E+03  0.48301218656E+03  0.15760250532E+04  0.10100000352E+00 0. -1.
       -3    1    3    3    0  502  0.14957270959E+04  0.11556227902E+03  0.42343675058E+03  0.15587985366E+04  0.10100000352E+00 0.  1.
</event>
<event>
 5   0  0.1817566E-07  0.3002967E+04  0.7818609E-02  0.8242884E-01
       -2   -1    0    0    0  501  0.00000000000E+00  0.00000000000E+00  0.90214447684E+03  0.90214447685E+03  0.25500000920E-02 0.  1.
        2   -1    0    0  501    0  0.00000000000E+00  0.00000000000E+00 -0.24989922840E+04  0.24989922840E+04  0.25500000920E-02 0. -1.
    10030    2    1    2    0    0  0.00000000000E+00  0.00000000000E+00 -0.15968478072E+04  0.34011367609E+04  0.30029665910E+04 0.  0.
        1    1    3    3  502    0 -0.94625851551E+02 -0.14973571657E+04 -0.86465444000E+03  0.17316638918E+04  0.50400001928E-02 0.  1.
       -1    1    3    3    0  502  0.94625851551E+02  0.14973571657E+04 -0.73219336717E+03  0.16694728691E+04  0.50400001928E-02 0. -1.
</event>
<event>
 5   0  0.6636007E-08  0.2998253E+04  0.7818609E-02  0.8244230E-01
        1   -1    0    0  501    0  0.00000000000E+00  0.00000000000E+00  0.27988071332E+04  0.27988071332E+04  0.50400001928E-02 0. -1.
       -1   -1    0    0    0  501  0.00000000000E+00  0.00000000000E+00 -0.80297781691E+03  0.80297781693E+03  0.50400001928E-02 0.  1.
    10030    2    1    2    0    0  0.00000000000E+00  0.00000000000E+00  0.19958293163E+04  0.36017849501E+04  0.29982528524E+04 0.  0.
        2    1    3    3  502    0  0.56565010359E+03 -0.13659282736E+04  0.69961612330E+03  0.16355986085E+04  0.25500000920E-02 0.  1.
       -2    1    3    3    0  502 -0.56565010359E+03  0.13659282736E+04  0.12962131930E+04  0.19661863416E+04  0.25500000920E-02 0. -1.
</event>
<event>
 5   0  0.6679022E-08  0.2977544E+04  0.7818609E-02  0.8250173E-01
       -1   -1    0    0    0  501  0.00000000000E+00  0.00000000000E+00  0.12572456818E+04  0.12572456818E+04  0.50400001928E-02 0. -1.
        1   -1    0    0  501    0  0.00000000000E+00  0.00000000000E+00 -0.17629348262E+04  0.17629348262E+04  0.50400001928E-02 0.  1.
    10030    2    1    2    0    0  0.00000000000E+00  0.00000000000E+00 -0.50568914438E+03  0.30201805081E+04  0.29775440871E+04 0.  0.
        3    1    3    3  502    0  0.15998153155E+03 -0.21626073193E+03 -0.17380794223E+04  0.17587731187E+04  0.10100000352E+00 0.  1.
       -3    1    3    3    0  502 -0.15998153155E+03  0.21626073193E+03  0.12323902779E+04  0.12614073894E+04  0.10100000352E+00 0. -1.
</event>
<event>
 5   0  0.6636007E-08  0.2999422E+04  0.7818609E-02  0.8243896E-01
        1   -1    0    0  501    0  0.00000000000E+00  0.00000000000E+00  0.23770251353E+04  0.23770251353E+04  0.50400001928E-02 0.  1.
       -1   -1    0    0    0  501  0.00000000000E+00  0.00000000000E+00 -0.94619670343E+03  0.94619670345E+03  0.50400001928E-02 0. -1.
    10030    2    1    2    0    0  0.00000000000E+00  0.00000000000E+00  0.14308284319E+04  0.33232218388E+04  0.29994221757E+04 0.  0.
        2    1    3    3  502    0  0.26321778244E+02  0.89801603084E+03  0.20458855683E+04  0.22344514733E+04  0.25500000920E-02 0.  1.
       -2    1    3    3    0  502 -0.26321778244E+02 -0.89801603084E+03 -0.61505713646E+03  0.10887703655E+04  0.25500000920E-02 0. -1.
</event>
<event>
 5   0  0.6679022E-08  0.3002477E+04  0.7818609E-02  0.8243024E-01
        1   -1    0    0  501    0  0.00000000000E+00  0.00000000000E+00  0.18854885798E+04  0.18854885798E+04  0.50400001928E-02 0. -1.
       -1   -1    0    0    0  501  0.00000000000E+00  0.00000000000E+00 -0.11952960284E+04  0.11952960284E+04  0.50400001928E-02 0.  1.
    10030    2    1    2    0    0  0.00000000000E+00  0.00000000000E+00  0.69019255145E+03  0.30807846082E+04  0.30024769848E+04 0.  0.
        3    1    3    3  502    0 -0.18901601678E+03  0.14713133353E+04  0.58182322834E+03  0.15934265795E+04  0.10100000352E+00 0.  1.
       -3    1    3    3    0  502  0.18901601678E+03 -0.14713133353E+04  0.10836932311E+03  0.14873580287E+04  0.10100000352E+00 0. -1.
</event>
<event>
 5   0  0.1914439E-07  0.2999074E+04  0.7818609E-02  0.8243995E-01
       -2   -1    0    0    0  501  0.00000000000E+00  0.00000000000E+00  0.19030928633E+04  0.19030928633E+04  0.25500000920E-02 0. -1.
        2   -1    0    0  501    0  0.00000000000E+00  0.00000000000E+00 -0.11815562146E+04  0.11815562146E+04  0.25500000920E-02 0.  1.
    10030    2    1    2    0    0  0.00000000000E+00  0.00000000000E+00  0.72153664873E+03  0.30846490779E+04  0.29990739902E+04 0.  0.
        5    1    3    3  502    0  0.91247977352E+03 -0.10875170979E+04  0.85753668180E+03  0.16585246534E+04  0.46999998093E+01 0.  1.
       -5    1    3    3    0  502 -0.91247977352E+03  0.10875170979E+04 -0.13600003308E+03  0.14261244245E+04  0.46999998093E+01 0. -1.
</event>
<event>
 5   0  0.1817566E-07  0.2999552E+04  0.7818609E-02  0.8243859E-01
        2   -1    0    0  501    0  0.00000000000E+00  0.00000000000E+00  0.17191213357E+04  0.17191213357E+04  0.25500000920E-02 0.  1.
       -2   -1    0    0    0  501  0.00000000000E+00  0.00000000000E+00 -0.13084169779E+04  0.13084169779E+04  0.25500000920E-02 0. -1.
    10030    2    1    2    0    0  0.00000000000E+00  0.00000000000E+00  0.41070435779E+03  0.30275383136E+04  0.29995516616E+04 0.  0.
        1    1    3    3  502    0  0.49837513547E+03 -0.13596926830E+04  0.59910170693E+03  0.15671837234E+04  0.50400001928E-02 0.  1.
       -1    1    3    3    0  502 -0.49837513547E+03  0.13596926830E+04 -0.18839734914E+03  0.14603545901E+04  0.50400001928E-02 0. -1.
</event>
<event>
 5   0  0.6374748E-08  0.3000369E+04  0.7818609E-02  0.8243625E-01
        1   -1    0    0  501    0  0.00000000000E+00  0.00000000000E+00  0.20632181737E+04  0.20632181737E+04  0.50400001928E-02 0.  1.
       -1   -1    0    0    0  501  0.00000000000E+00  0.00000000000E+00 -0.10907977861E+04  0.10907977861E+04  0.50400001928E-02 0. -1.
    10030    2    1    2    0    0  0.00000000000E+00  0.00000000000E+00  0.97242038764E+03  0.31540159598E+04  0.30003691880E+04 0.  0.
        1    1    3    3  502    0  0.12603911724E+04  0.62414563600E+03  0.10348670612E+04  0.17461653749E+04  0.50400001928E-02 0.  1.
       -1    1    3    3    0  502 -0.12603911724E+04 -0.62414563600E+03 -0.62446673568E+02  0.14078505849E+04  0.50400001928E-02 0. -1.
</event>
<event>
 5   0  0.1821305E-07  0.3000149E+04  0.7818609E-02  0.8243688E-01
       -2   -1    0    0    0  501  0.00000000000E+00  0.00000000000E+00  0.13605852060E+04  0.13605852060E+04  0.25500000920E-02 0. -1.
        2   -1    0    0  501    0  0.00000000000E+00  0.00000000000E+00 -0.16538641669E+04  0.16538641669E+04  0.25500000920E-02 0.  1.
    10030    2    1    2    0    0  0.00000000000E+00  0.00000000000E+00 -0.29327896088E+03  0.30144493729E+04  0.30001487418E+04 0.  0.
        2    1    3    3  502    0 -0.58151683379E+03 -0.13601675380E+04 -0.39683557198E+03  0.15315665283E+04  0.25500000920E-02 0. -1.
       -2    1    3    3    0  502  0.58151683379E+03  0.13601675380E+04  0.10355661110E+03  0.14828828447E+04  0.25500000920E-02 0.  1.
</event>
<event>
 5   0  0.1914439E-07  0.3000321E+04  0.7818609E-02  0.8243639E-01
       -2   -1    0    0    0  501  0.00000000000E+00  0.00000000000E+00  0.13690852680E+04  0.13690852680E+04  0.25500000920E-02 0. -1.
        2   -1    0    0  501    0  0.00000000000E+00  0.00000000000E+00 -0.16437842362E+04  0.16437842362E+04  0.25500000920E-02 0.  1.
    10030    2    1    2    0    0  0.00000000000E+00  0.00000000000E+00 -0.27469896812E+03  0.30128695042E+04  0.30003205039E+04 0.  0.
        5    1    3    3  502    0  0.14415231508E+04  0.14817208708E+03  0.25223546766E+03  0.14709142677E+04  0.46999998093E+01 0.  1.
       -5    1    3    3    0  502 -0.14415231508E+04 -0.14817208708E+03 -0.52693443578E+03  0.15419552365E+04  0.46999998093E+01 0. -1.
</event>
<event>
 5   0  0.6636007E-08  0.3000590E+04  0.7818609E-02  0.8243562E-01
        1   -1    0    0  501    0  0.00000000000E+00  0.00000000000E+00  0.22673909802E+04  0.22673909802E+04  0.50400001928E-02 0.  1.
       -1   -1    0    0    0  501  0.00000000000E+00  0.00000000000E+00 -0.99272031369E+03  0.99272031370E+03  0.50400001928E-02 0. -1.
    10030    2    1    2    0    0  0.00000000000E+00  0.00000000000E+00  0.12746706665E+04  0.32601112939E+04  0.30005899987E+04 0.  0.
        2    1    3    3  502    0 -0.15163909581E+02  0.11793842250E+04  0.16447337190E+04  0.20239382651E+04  0.25500000920E-02 0.  1.
       -2    1    3    3    0  502  0.15163909581E+02 -0.11793842250E+04 -0.37006305255E+03  0.12361730288E+04  0.25500000920E-02 0. -1.
</event>
<event>
 5   0  0.1821305E-07  0.2999600E+04  0.7818609E-02  0.8243845E-01
       -2   -1    0    0    0  501  0.00000000000E+00  0.00000000000E+00  0.11854103995E+04  0.11854103995E+04  0.25500000920E-02 0. -1.
        2   -1    0    0  501    0  0.00000000000E+00  0.00000000000E+00 -0.18975705959E+04  0.18975705959E+04  0.25500000920E-02 0.  1.
    10030    2    1    2    0    0  0.00000000000E+00  0.00000000000E+00 -0.71216019640E+03  0.30829809955E+04  0.29995999188E+04 0.  0.
        2    1    3    3  502    0 -0.29189429000E+03 -0.14122303030E+04 -0.77960647835E+03  0.16393239357E+04  0.25500000920E-02 0.  1.
       -2    1    3    3    0  502  0.29189429000E+03  0.14122303030E+04  0.67446281943E+02  0.14436570597E+04  0.25500000920E-02 0. -1.
</event>
<event>
 5   0  0.1813720E-07  0.2991414E+04  0.7818609E-02  0.8246187E-01
        2   -1    0    0  501    0  0.00000000000E+00  0.00000000000E+00  0.18508963666E+04  0.18508963666E+04  0.25500000920E-02 0.  1.
       -2   -1    0    0    0  501  0.00000000000E+00  0.00000000000E+00 -0.12086787778E+04  0.12086787778E+04  0.25500000920E-02 0. -1.
    10030    2    1    2    0    0  0.00000000000E+00  0.00000000000E+00  0.64221758883E+03  0.30595751444E+04  0.29914138184E+04 0.  0.
        3    1    3    3  502    0  0.11419350312E+04 -0.80478852579E+03 -0.22532966051E+03  0.14150878605E+04  0.10100000352E+00 0. -1.
       -3    1    3    3    0  502 -0.11419350312E+04  0.80478852579E+03  0.86754724933E+03  0.16444872839E+04  0.10100000352E+00 0.  1.
</event>
<event>
 5   0  0.6017625E-08  0.3000070E+04  0.7818609E-02  0.8243711E-01
        3   -1    0    0  501    0  0.00000000000E+00  0.00000000000E+00  0.21606330836E+04  0.21606330859E+04  0.10100000352E+00 0.  1.
       -3   -1    0    0    0  501  0.00000000000E+00  0.00000000000E+00 -0.10414098920E+04  0.10414098969E+04  0.10100000352E+00 0. -1.
    10030    2    1    2    0    0  0.00000000000E+00  0.00000000000E+00  0.11192231916E+04  0.32020429828E+04  0.30000697844E+04 0.  0.
        2    1    3    3  502    0 -0.73182104882E+03  0.58870436107E+02  0.19557567228E+04  0.20890218129E+04  0.25500000920E-02 0.  1.
       -2    1    3    3    0  502  0.73182104882E+03 -0.58870436107E+02 -0.83653353129E+03  0.11130211699E+04  0.25500000920E-02 0. -1.
</event>
<event>
 5   0  0.6464436E-08  0.2998249E+04  0.7818609E-02  0.8244231E-01
       -1   -1    0    0    0  501  0.00000000000E+00  0.00000000000E+00  0.14972179745E+04  0.14972179745E+04  0.50400001928E-02 0. -1.
        1   -1    0    0  501    0  0.00000000000E+00  0.00000000000E+00 -0.15010329603E+04  0.15010329603E+04  0.50400001928E-02 0.  1.
    10030    2    1    2    0    0  0.00000000000E+00  0.00000000000E+00 -0.38149857552E+01  0.29982509348E+04  0.29982485077E+04 0.  0.
        5    1    3    3  502    0 -0.47691831840E+03 -0.12495444030E+04 -0.67906322348E+03  0.14999870829E+04  0.46999998093E+01 0.  1.
       -5    1    3    3    0  502  0.47691831840E+03  0.12495444030E+04  0.67524823772E+03  0.14982638519E+04  0.46999998093E+01 0. -1.
</event>
<event>
 5   0  0.1817566E-07  0.3000069E+04  0.7818609E-02  0.8243711E-01
        2   -1    0    0  501    0  0.00000000000E+00  0.00000000000E+00  0.12994943722E+04  0.12994943722E+04  0.25500000920E-02 0.  1.
       -2   -1    0    0    0  501  0.00000000000E+00  0.00000000000E+00 -0.17315221360E+04  0.17315221360E+04  0.25500000920E-02 0. -1.
    10030    2    1    2    0    0  0.00000000000E+00  0.00000000000E+00 -0.43202776376E+03  0.30310165082E+04  0.30000688466E+04 0.  0.
        1    1    3    3  502    0 -0.86800175698E+03  0.11592177214E+04 -0.61105956847E+03  0.15718163290E+04  0.50400001928E-02 0.  1.
       -1    1    3    3    0  502  0.86800175698E+03 -0.11592177214E+04  0.17903180472E+03  0.14592001792E+04  0.50400001928E-02 0. -1.
</event>
<event>
 5   0  0.6525507E-08  0.3001517E+04  0.7818609E-02  0.8243298E-01
        1   -1    0    0  501    0  0.00000000000E+00  0.00000000000E+00  0.15060091769E+04  0.15060091769E+04  0.50400001928E-02 0.  1.
       -1   -1    0    0    0  501  0.00000000000E+00  0.00000000000E+00 -0.14955262690E+04  0.14955262690E+04  0.50400001928E-02 0. -1.
    10030    2    1    2    0    0  0.00000000000E+00  0.00000000000E+00  0.10482907917E+02  0.30015354459E+04  0.30015171400E+04 0.  0.
        4    1    3    3  502    0 -0.50802017111E+03 -0.11292031654E+04  0.85323860062E+03  0.15037293658E+04  0.12699999809E+01 0.  1.
       -4    1    3    3    0  502  0.50802017111E+03  0.11292031654E+04 -0.84275569270E+03  0.14978060801E+04  0.12699999809E+01 0. -1.
</event>
<event>
 5   0  0.6636007E-08  0.2985987E+04  0.7818609E-02  0.8247744E-01
       -1   -1    0    0    0  501  0.00000000000E+00  0.00000000000E+00  0.92235012873E+03  0.92235012874E+03  0.50400001928E-02 0. -1.
        1   -1    0    0  501    0  0.00000000000E+00  0.00000000000E+00 -0.24166841148E+04  0.24166841148E+04  0.50400001928E-02 0.  1.
    10030    2    1    2    0    0  0.00000000000E+00  0.00000000000E+00 -0.14943339861E+04  0.33390342436E+04  0.29859865401E+04 0.  0.
        2    1    3    3  502    0 -0.15136923203E+03 -0.13892951093E+04 -0.15972068183E+03  0.14066144608E+04  0.25500000920E-02 0. -1.
       -2    1    3    3    0  502  0.15136923203E+03  0.13892951093E+04 -0.13346133043E+04  0.19324197828E+04  0.25500000920E-02 0.  1.
</event>
<event>
 5   0  0.1810055E-07  0.3001973E+04  0.7818609E-02  0.8243168E-01
        2   -1    0    0  501    0  0.00000000000E+00  0.00000000000E+00  0.19799842168E+04  0.19799842168E+04  0.25500000920E-02 0. -1.
       -2   -1    0    0    0  501  0.00000000000E+00  0.00000000000E+00 -0.11378680216E+04  0.11378680216E+04  0.25500000920E-02 0.  1.
    10030    2    1    2    0    0  0.00000000000E+00  0.00000000000E+00  0.84211619521E+03  0.31178522385E+04  0.30019731669E+04 0.  0.
        4    1    3    3  502    0  0.11547332302E+04  0.64054289159E+03  0.11622256686E+04  0.17591117493E+04  0.12699999809E+01 0. -1.
       -4    1    3    3    0  502 -0.11547332302E+04 -0.64054289159E+03 -0.32010947337E+03  0.13587404891E+04  0.12699999809E+01 0.  1.
</event>
<event>
 5   0  0.1821305E-07  0.3000001E+04  0.7818609E-02  0.8243731E-01
       -2   -1    0    0    0  501  0.00000000000E+00  0.00000000000E+00  0.11197992671E+04  0.11197992671E+04  0.25500000920E-02 0. -1.
        2   -1    0    0  501    0  0.00000000000E+00  0.00000000000E+00 -0.20092900858E+04  0.20092900858E+04  0.25500000920E-02 0.  1.
    10030    2    1    2    0    0  0.00000000000E+00  0.00000000000E+00 -0.88949081876E+03  0.31290893529E+04  0.30000010436E+04 0.  0.
        2    1    3    3  502    0 -0.14960937885E+04 -0.10317121633E+03 -0.47871426188E+03  0.15742008348E+04  0.25500000920E-02 0. -1.
       -2    1    3    3    0  502  0.14960937885E+04  0.10317121633E+03 -0.41077655687E+03  0.15548885180E+04  0.25500000920E-02 0.  1.
</event>
<event>
 5   0  0.1813720E-07  0.2999454E+04  0.7818609E-02  0.8243887E-01
       -2   -1    0    0    0  501  0.00000000000E+00  0.00000000000E+00  0.11953648271E+04  0.11953648271E+04  0.25500000920E-02 0.  1.
        2   -1    0    0  501    0  0.00000000000E+00  0.00000000000E+00 -0.18815858134E+04  0.18815858134E+04  0.25500000920E-02 0. -1.
    10030    2    1    2    0    0  0.00000000000E+00  0.00000000000E+00 -0.68622098630E+03  0.30769506404E+04  0.29994542840E+04 0.  0.
        3    1    3    3  502    0  0.22885417044E+03  0.45644015270E+03  0.11034538817E+04  0.12158627898E+04  0.10100000352E+00 0.  1.
       -3    1    3    3    0  502 -0.22885417044E+03 -0.45644015270E+03 -0.17896748680E+04  0.18610878506E+04  0.10100000352E+00 0. -1.
</event>
<event>
 5   0  0.6636007E-08  0.3009958E+04  0.7818609E-02  0.8240893E-01
       -1   -1    0    0    0  501  0.00000000000E+00  0.00000000000E+00  0.11564543239E+04  0.11564543239E+04  0.50400001928E-02 0. -1.
        1   -1    0    0  501    0  0.00000000000E+00  0.00000000000E+00 -0.19585395510E+04  0.19585395510E+04  0.50400001928E-02 0.  1.
    10030    2    1    2    0    0  0.00000000000E+00  0.00000000000E+00 -0.80208522712E+03  0.31149938749E+04  0.30099578285E+04 0.  0.
        2    1    3    3  502    0 -0.10167558784E+03  0.68135538791E+03 -0.17857857019E+04  0.19140568599E+04  0.25500000920E-02 0.  1.
       -2    1    3    3    0  502  0.10167558784E+03 -0.68135538791E+03  0.98370047481E+03  0.12009370150E+04  0.25500000920E-02 0. -1.
</event>
<event>
 5   0  0.1810055E-07  0.3000092E+04  0.7818609E-02  0.8243705E-01
        2   -1    0    0  501    0  0.00000000000E+00  0.00000000000E+00  0.17966445938E+04  0.17966445938E+04  0.25500000920E-02 0. -1.
       -2   -1    0    0    0  501  0.00000000000E+00  0.00000000000E+00 -0.12524111994E+04  0.12524111994E+04  0.25500000920E-02 0.  1.
    10030    2    1    2    0    0  0.00000000000E+00  0.00000000000E+00  0.54423339442E+03  0.30490557932E+04  0.30000918724E+04 0.  0.
        4    1    3    3  502    0 -0.12248758877E+04  0.72776230927E+03 -0.20477204114E+03  0.14394068643E+04  0.12699999809E+01 0.  1.
       -4    1    3    3    0  502  0.12248758877E+04 -0.72776230927E+03  0.74900543556E+03  0.16096489290E+04  0.12699999809E+01 0. -1.
</event>
<event>
 5   0  0.1813720E-07  0.2999761E+04  0.7818609E-02  0.8243799E-01
       -2   -1    0    0    0  501  0.00000000000E+00  0.00000000000E+00  0.90056265562E+03  0.90056265562E+03  0.25500000920E-02 0. -1.
        2   -1    0    0  501    0  0.00000000000E+00  0.00000000000E+00 -0.24980403334E+04  0.24980403334E+04  0.25500000920E-02 0.  1.
    10030    2    1    2    0    0  0.00000000000E+00  0.00000000000E+00 -0.15974776778E+04  0.33986029891E+04  0.29997612148E+04 0.  0.
        3    1    3    3  502    0  0.15213608668E+03  0.42086890762E+03  0.82315898675E+03  0.93694543808E+03  0.10100000352E+00 0. -1.
       -3    1    3    3    0  502 -0.15213608668E+03 -0.42086890762E+03 -0.24206366646E+04  0.24616575510E+04  0.10100000352E+00 0.  1.
</event>
<event>
 5   0  0.6679022E-08  0.3000874E+04  0.7818609E-02  0.8243481E-01
        1   -1    0    0  501    0  0.00000000000E+00  0.00000000000E+00  0.89390051316E+03  0.89390051318E+03  0.50400001928E-02 0.  1.
       -1   -1    0    0    0  501  0.00000000000E+00  0.00000000000E+00 -0.25185255325E+04  0.25185255325E+04  0.50400001928E-02 0. -1.
    10030    2    1    2    0    0  0.00000000000E+00  0.00000000000E+00 -0.16246250194E+04  0.34124260457E+04  0.30008740500E+04 0.  0.
        3    1    3    3  502    0  0.55135810695E+03 -0.13942156939E+04 -0.74524903525E+03  0.16742847123E+04  0.10100000352E+00 0. -1.
       -3    1    3    3    0  502 -0.55135810695E+03  0.13942156939E+04 -0.87937598411E+03  0.17381413334E+04  0.10100000352E+00 0.  1.
</event>
<event>
 5   0  0.1813720E-07  0.3004528E+04  0.7818609E-02  0.8242439E-01
        2   -1    0    0  501    0  0.00000000000E+00  0.00000000000E+00  0.16300747799E+04  0.16300747799E+04  0.25500000920E-02 0.  1.
       -2   -1    0    0    0  501  0.00000000000E+00  0.00000000000E+00 -0.13844749644E+04  0.13844749644E+04  0.25500000920E-02 0. -1.
    10030    2    1    2    0    0  0.00000000000E+00  0.00000000000E+00  0.24559981546E+03  0.30145497442E+04  0.30045283975E+04 0.  0.
        3    1    3    3  502    0  0.46332961941E+03 -0.14227933231E+01  0.15565944229E+04  0.16240882268E+04  0.10100000352E+00 0.  1.
       -3    1    3    3    0  502 -0.46332961941E+03  0.14227933231E+01 -0.13109946075E+04  0.13904615175E+04  0.10100000352E+00 0. -1.
</event>
<event>
 5   0  0.6636007E-08  0.2999763E+04  0.7818609E-02  0.8243799E-01
        1   -1    0    0  501    0  0.00000000000E+00  0.00000000000E+00  0.14990241377E+04  0.14990241377E+04  0.50400001928E-02 0. -1.
       -1   -1    0    0    0  501  0.00000000000E+00  0.00000000000E+00 -0.15007395734E+04  0.15007395734E+04  0.50400001928E-02 0.  1.
    10030    2    1    2    0    0  0.00000000000E+00  0.00000000000E+00 -0.17154357000E+01  0.29997637110E+04  0.29997632206E+04 0.  0.
        2    1    3    3  502    0  0.13888774034E+04 -0.52802365266E+02  0.56294758303E+03  0.14995594395E+04  0.25500000920E-02 0.  1.
       -2    1    3    3    0  502 -0.13888774034E+04  0.52802365266E+02 -0.56466301873E+03  0.15002042715E+04  0.25500000920E-02 0. -1.
</event>
<event>
 5   0  0.6374748E-08  0.2998546E+04  0.7818609E-02  0.8244146E-01
       -1   -1    0    0    0  501  0.00000000000E+00  0.00000000000E+00  0.99670150225E+03  0.99670150226E+03  0.50400001928E-02 0.  1.
        1   -1    0    0  501    0  0.00000000000E+00  0.00000000000E+00 -0.22552584545E+04  0.22552584545E+04  0.50400001928E-02 0. -1.
    10030    2    1    2    0    0  0.00000000000E+00  0.00000000000E+00 -0.12585569522E+04  0.32519599567E+04  0.29985459740E+04 0.  0.
        1    1    3    3  502    0 -0.58013992097E+03 -0.12281832633E+04 -0.13176004358E+04  0.18923708317E+04  0.50400001928E-02 0. -1.
       -1    1    3    3    0  502  0.58013992097E+03  0.12281832633E+04  0.59043483577E+02  0.13595891251E+04  0.50400001928E-02 0.  1.
</event>
<event>
 5   0  0.1810055E-07  0.2989295E+04  0.7818609E-02  0.8246794E-01
       -2   -1    0    0    0  501  0.00000000000E+00  0.00000000000E+00  0.98083908767E+03  0.98083908767E+03  0.25500000920E-02 0.  1.
        2   -1    0    0  501    0  0.00000000000E+00  0.00000000000E+00 -0.22776127855E+04  0.22776127855E+04  0.25500000920E-02 0. -1.
    10030    2    1    2    0    0  0.00000000000E+00  0.00000000000E+00 -0.12967736978E+04  0.32584518732E+04  0.29892953327E+04 0.  0.
        4    1    3    3  502    0  0.94963818592E+03 -0.85148611490E+03 -0.14977294049E+04  0.19672407761E+04  0.12699999809E+01 0. -1.
       -4    1    3    3    0  502 -0.94963818592E+03  0.85148611490E+03  0.20095570707E+03  0.12912110970E+04  0.12699999809E+01 0.  1.
</event>
<event>
 5   0  0.1810055E-07  0.2999638E+04  0.7818609E-02  0.8243834E-01
       -2   -1    0    0    0  501  0.00000000000E+00  0.00000000000E+00  0.86254378814E+03  0.86254378815E+03  0.25500000920E-02 0.  1.
        2   -1    0    0  501    0  0.00000000000E+00  0.00000000000E+00 -0.26079338170E+04  0.26079338170E+04  0.25500000920E-02 0. -1.
    10030    2    1    2    0    0  0.00000000000E+00  0.00000000000E+00 -0.17453900289E+04  0.34704776052E+04  0.29996380540E+04 0.  0.
        4    1    3    3  502    0  0.10998371651E+03  0.41704718166E+03  0.78924497887E+03  0.89940759347E+03  0.12699999809E+01 0.  1.
       -4    1    3    3    0  502 -0.10998371651E+03 -0.41704718166E+03 -0.25346350077E+04  0.25710700117E+04  0.12699999809E+01 0. -1.
</event>
<event>
 5   0  0.1810055E-07  0.2999620E+04  0.7818609E-02  0.8243839E-01
        2   -1    0    0  501    0  0.00000000000E+00  0.00000000000E+00  0.13192019210E+04  0.13192019210E+04  0.25500000920E-02 0. -1.
       -2   -1    0    0    0  501  0.00000000000E+00  0.00000000000E+00 -0.17051448153E+04  0.17051448153E+04  0.25500000920E-02 0.  1.
    10030    2    1    2    0    0  0.00000000000E+00  0.00000000000E+00 -0.38594289429E+03  0.30243467362E+04  0.29996201865E+04 0.  0.
        4    1    3    3  502    0 -0.12322157930E+04  0.18189576692E+03  0.64937149337E+03  0.14046803123E+04  0.12699999809E+01 0. -1.
       -4    1    3    3    0  502  0.12322157930E+04 -0.18189576692E+03 -0.10353143877E+04  0.16196664239E+04  0.12699999809E+01 0.  1.
</event>
<event>
 5   0  0.6374748E-08  0.2999232E+04  0.7818609E-02  0.8243950E-01
        1   -1    0    0  501    0  0.00000000000E+00  0.00000000000E+00  0.13279081552E+04  0.13279081552E+04  0.50400001928E-02 0.  1.
       -1   -1    0    0    0  501  0.00000000000E+00  0.00000000000E+00 -0.16935273129E+04  0.16935273130E+04  0.50400001928E-02 0. -1.
    10030    2    1    2    0    0  0.00000000000E+00  0.00000000000E+00 -0.36561915773E+03  0.30214354682E+04  0.29992323884E+04 0.  0.
        1    1    3    3  502    0 -0.12923305278E+04 -0.61465256184E+03  0.26876406472E+03  0.14560735171E+04  0.50400001928E-02 0.  1.
       -1    1    3    3    0  502  0.12923305278E+04  0.61465256184E+03 -0.63438322246E+03  0.15653619510E+04  0.50400001928E-02 0. -1.
</event>
<event>
 5   0  0.1813720E-07  0.3000379E+04  0.7818609E-02  0.8243623E-01
        2   -1    0    0  501    0  0.00000000000E+00  0.00000000000E+00  0.16147359765E+04  0.16147359765E+04  0.25500000920E-02 0.  1.
       -2   -1    0    0    0  501  0.00000000000E+00  0.00000000000E+00 -0.13937685905E+04  0.13937685905E+04  0.25500000920E-02 0. -1.
    10030    2    1    2    0    0  0.00000000000E+00  0.00000000000E+00  0.22096738597E+03  0.30085045671E+04  0.30003788335E+04 0.  0.
        3    1    3    3  502    0 -0.66890105521E+03 -0.50926157673E+03  0.13563430474E+04  0.15957576407E+04  0.10100000352E+00 0.  1.
       -3    1    3    3    0  502  0.66890105521E+03  0.50926157673E+03 -0.11353756615E+04  0.14127469264E+04  0.10100000352E+00 0. -1.
</event>
<event>
 5   0  0.1817566E-07  0.2999617E+04  0.7818609E-02  0.8243840E-01
        2   -1    0    0  501    0  0.00000000000E+00  0.00000000000E+00  0.15558687985E+04  0.15558687985E+04  0.25500000920E-02 0. -1.
       -2   -1    0    0    0  501  0.00000000000E+00  0.00000000000E+00 -0.14457682013E+04  0.14457682013E+04  0.25500000920E-02 0.  1.
    10030    2    1    2    0    0  0.00000000000E+00  0.00000000000E+00  0.11010059719E+03  0.30016369997E+04  0.29996170650E+04 0.  0.
        1    1    3    3  502    0 -0.14686836535E+04  0.12444456186E+02  0.35896371465E+03  0.15119660999E+04  0.50400001928E-02 0.  1.
       -1    1    3    3    0  502  0.14686836535E+04 -0.12444456186E+02 -0.24886311746E+03  0.14896708999E+04  0.50400001928E-02 0. -1.
</event>
<event>
 5   0  0.6636007E-08  0.2999863E+04  0.7818609E-02  0.8243770E-01
        1   -1    0    0  501    0  0.00000000000E+00  0.00000000000E+00  0.17424829871E+04  0.17424829871E+04  0.50400001928E-02 0. -1.
       -1   -1    0    0    0  501  0.00000000000E+00  0.00000000000E+00 -0.12911424565E+04  0.12911424565E+04  0.50400001928E-02 0.  1.
    10030    2    1    2    0    0  0.00000000000E+00  0.00000000000E+00  0.45134053057E+03  0.30336254436E+04  0.29998625064E+04 0.  0.
        2    1    3    3  502    0  0.83028457519E+02 -0.23659516930E+03  0.17211389763E+04  0.17393074411E+04  0.25500000920E-02 0. -1.
       -2    1    3    3    0  502 -0.83028457519E+02  0.23659516930E+03 -0.12697984457E+04  0.12943180025E+04  0.25500000920E-02 0.  1.
</event>
<event>
 5   0  0.6374748E-08  0.2999167E+04  0.7818609E-02  0.8243969E-01
        1   -1    0    0  501    0  0.00000000000E+00  0.00000000000E+00  0.11882938141E+04  0.11882938141E+04  0.50400001928E-02 0. -1.
       -1   -1    0    0    0  501  0.00000000000E+00  0.00000000000E+00 -0.18924201079E+04  0.18924201079E+04  0.50400001928E-02 0.  1.
    10030    2    1    2    0    0  0.00000000000E+00  0.00000000000E+00 -0.70412629386E+03  0.30807139220E+04  0.29991672897E+04 0.  0.
        1    1    3    3  502    0 -0.31307385738E+03  0.14583217135E+04 -0.19282008276E+03  0.15039604531E+04  0.50400001928E-02 0.  1.
       -1    1    3    3    0  502  0.31307385738E+03 -0.14583217135E+04 -0.51130621109E+03  0.15767534689E+04  0.50400001928E-02 0. -1.
</event>
<event>
 5   0  0.6636007E-08  0.2998930E+04  0.7818609E-02  0.8244036E-01
       -1   -1    0    0    0  501  0.00000000000E+00  0.00000000000E+00  0.12534733332E+04  0.12534733332E+04  0.50400001928E-02 0. -1.
        1   -1    0    0  501    0  0.00000000000E+00  0.00000000000E+00 -0.17937324812E+04  0.17937324812E+04  0.50400001928E-02 0.  1.
    10030    2    1    2    0    0  0.00000000000E+00  0.00000000000E+00 -0.54025914803E+03  0.30472058145E+04  0.29989303641E+04 0.  0.
        2    1    3    3  502    0  0.40863124460E+03  0.87884870014E+03 -0.14326807540E+04  0.17297192473E+04  0.25500000920E-02 0.  1.
       -2    1    3    3    0  502 -0.40863124460E+03 -0.87884870014E+03  0.89242160595E+03  0.13174865671E+04  0.25500000920E-02 0. -1.
</event>
<event>
 5   0  0.1813720E-07  0.2999818E+04  0.7818609E-02  0.8243783E-01
        2   -1    0    0  501    0  0.00000000000E+00  0.00000000000E+00  0.11723698894E+04  0.11723698894E+04  0.25500000920E-02 0.  1.
       -2   -1    0    0    0  501  0.00000000000E+00  0.00000000000E+00 -0.19189567925E+04  0.19189567925E+04  0.25500000920E-02 0. -1.
    10030    2    1    2    0    0  0.00000000000E+00  0.00000000000E+00 -0.74658690302E+03  0.30913266819E+04  0.29998181029E+04 0.  0.
        3    1    3    3  502    0  0.82712254336E+03  0.28183836252E+03 -0.16295638973E+04  0.18490654586E+04  0.10100000352E+00 0. -1.
       -3    1    3    3    0  502 -0.82712254336E+03 -0.28183836252E+03  0.88297699433E+03  0.12422612234E+04  0.10100000352E+00 0.  1.
</event>
<event>
 5   0  0.6636007E-08  0.3000074E+04  0.7818609E-02  0.8243710E-01
        1   -1    0    0  501    0  0.00000000000E+00  0.00000000000E+00  0.22623397666E+04  0.22623397666E+04  0.50400001928E-02 0.  1.
       -1   -1    0    0    0  501  0.00000000000E+00  0.00000000000E+00 -0.99459496469E+03  0.99459496470E+03  0.50400001928E-02 0. -1.
    10030    2    1    2    0    0  0.00000000000E+00  0.00000000000E+00  0.12677448019E+04  0.32569347313E+04  0.30000744926E+04 0.  0.
        2    1    3    3  502    0 -0.11732418364E+04 -0.90998497336E+03  0.40219358886E+03  0.15382876003E+04  0.25500000920E-02 0.  1.
       -2    1    3    3    0  502  0.11732418364E+04  0.90998497336E+03  0.86555121305E+03  0.17186471310E+04  0.25500000920E-02 0. -1.
</event>
<event>
 5   0  0.1821305E-07  0.2999798E+04  0.7818609E-02  0.8243788E-01
       -2   -1    0    0    0  501  0.00000000000E+00  0.00000000000E+00  0.87809961256E+03  0.87809961256E+03  0.25500000920E-02 0. -1.
        2   -1    0    0  501    0  0.00000000000E+00  0.00000000000E+00 -0.25620070261E+04  0.25620070261E+04  0.25500000920E-02 0.  1.
    10030    2    1    2    0    0  0.00000000000E+00  0.00000000000E+00 -0.16839074135E+04  0.34401066386E+04  0.29997982445E+04 0.  0.
        2    1    3    3  502    0  0.45972639282E+01 -0.69778761954E+03  0.68061718048E+03  0.97476584019E+03  0.25500000920E-02 0. -1.
       -2    1    3    3    0  502 -0.45972639282E+01  0.69778761954E+03 -0.23645245940E+04  0.24653407984E+04  0.25500000920E-02 0.  1.
</event>
<event>
 5   0  0.6679022E-08  0.2999463E+04  0.7818609E-02  0.8243884E-01
        1   -1    0    0  501    0  0.00000000000E+00  0.00000000000E+00  0.18513227918E+04  0.18513227918E+04  0.50400001928E-02 0.  1.
       -1   -1    0    0    0  501  0.00000000000E+00  0.00000000000E+00 -0.12149121936E+04  0.12149121936E+04  0.50400001928E-02 0. -1.
    10030    2    1    2    0    0  0.00000000000E+00  0.00000000000E+00  0.63641059824E+03  0.30662349854E+04  0.29994630413E+04 0.  0.
        3    1    3    3  502    0 -0.58655886396E+03  0.36100583609E+03 -0.10436747109E+04  0.12504532886E+04  0.10100000352E+00 0. -1.
       -3    1    3    3    0  502  0.58655886396E+03 -0.36100583609E+03  0.16800853091E+04  0.18157816969E+04  0.10100000352E+00 0.  1.
</event>
<event>
 5   0  0.6374748E-08  0.2999439E+04  0.7818609E-02  0.8243891E-01
       -1   -1    0    0    0  501  0.00000000000E+00  0.00000000000E+00  0.23659308696E+04  0.23659308696E+04  0.50400001928E-02 0. -1.
        1   -1    0    0  501    0  0.00000000000E+00  0.00000000000E+00 -0.95064454483E+03  0.95064454485E+03  0.50400001928E-02 0.  1.
    10030    2    1    2    0    0  0.00000000000E+00  0.00000000000E+00  0.14152863248E+04  0.33165754144E+04  0.29994394641E+04 0.  0.
        1    1    3    3  502    0  0.14027355528E+04 -0.23736445241E+03  0.18297332388E+03  0.14343946987E+04  0.50400001928E-02 0.  1.
       -1    1    3    3    0  502 -0.14027355528E+04  0.23736445241E+03  0.12323130009E+04  0.18821807157E+04  0.50400001928E-02 0. -1.
</event>
<event>
 5   0  0.1810055E-07  0.3001038E+04  0.7818609E-02  0.8243435E-01
        2   -1    0    0  501    0  0.00000000000E+00  0.00000000000E+00  0.16276589546E+04  0.16276589546E+04  0.25500000920E-02 0.  1.
       -2   -1    0    0    0  501  0.00000000000E+00  0.00000000000E+00 -0.13833099102E+04  0.13833099102E+04  0.25500000920E-02 0. -1.
    10030    2    1    2    0    0  0.00000000000E+00  0.00000000000E+00  0.24434904445E+03  0.30109688648E+04  0.30010376621E+04 0.  0.
        4    1    3    3  502    0 -0.56225227909E+02  0.79242376403E+03  0.13993594039E+04  0.16091317697E+04  0.12699999809E+01 0.  1.
       -4    1    3    3    0  502  0.56225227909E+02 -0.79242376403E+03 -0.11550103594E+04  0.14018370952E+04  0.12699999809E+01 0. -1.
</event>
<event>
 5   0  0.1914439E-07  0.3000211E+04  0.7818609E-02  0.8243671E-01
        2   -1    0    0  501    0  0.00000000000E+00  0.00000000000E+00  0.20707430450E+04  0.20707430450E+04  0.25500000920E-02 0. -1.
       -2   -1    0    0    0  501  0.00000000000E+00  0.00000000000E+00 -0.10867189803E+04  0.10867189803E+04  0.25500000920E-02 0.  1.
    10030    2    1    2    0    0  0.00000000000E+00  0.00000000000E+00  0.98402406467E+03  0.31574620253E+04  0.30002105062E+04 0.  0.
        5    1    3    3  502    0  0.10406054599E+04  0.10765692598E+04  0.39536983408E+03  0.15486124402E+04  0.46999998093E+01 0. -1.
       -5    1    3    3    0  502 -0.10406054599E+04 -0.10765692598E+04  0.58865423059E+03  0.16088495851E+04  0.46999998093E+01 0.  1.
</event>
<event>
 5   0  0.6636007E-08  0.2998841E+04  0.7818609E-02  0.8244062E-01
       -1   -1    0    0    0  501  0.00000000000E+00  0.00000000000E+00  0.18406286366E+04  0.18406286366E+04  0.50400001928E-02 0.  1.
        1   -1    0    0  501    0  0.00000000000E+00  0.00000000000E+00 -0.12214644405E+04  0.12214644405E+04  0.50400001928E-02 0. -1.
    10030    2    1    2    0    0  0.00000000000E+00  0.00000000000E+00  0.61916419608E+03  0.30620930771E+04  0.29988413948E+04 0.  0.
        2    1    3    3  502    0  0.13872677225E+04  0.63960178414E+02 -0.26772765581E+03  0.14143128141E+04  0.25500000920E-02 0. -1.
       -2    1    3    3    0  502 -0.13872677225E+04 -0.63960178414E+02  0.88689185188E+03  0.16477802630E+04  0.25500000920E-02 0.  1.
</event>
<event>
 5   0  0.6525507E-08  0.3000015E+04  0.7818609E-02  0.8243727E-01
       -1   -1    0    0    0  501  0.00000000000E+00  0.00000000000E+00  0.14121766355E+04  0.14121766355E+04  0.50400001928E-02 0. -1.
        1   -1    0    0  501    0  0.00000000000E+00  0.00000000000E+00 -0.15933010674E+04  0.15933010675E+04  0.50400001928E-02 0.  1.
    10030    2    1    2    0    0  0.00000000000E+00  0.00000000000E+00 -0.18112443195E+03  0.30054777030E+04  0.30000150272E+04 0.  0.
        4    1    3    3  502    0 -0.11000766031E+04 -0.99040172824E+03 -0.33381458342E+03  0.15173984002E+04  0.12699999809E+01 0.  1.
       -4    1    3    3    0  502  0.11000766031E+04  0.99040172824E+03  0.15269015147E+03  0.14880793027E+04  0.12699999809E+01 0. -1.
</event>
<event>
 5   0  0.6374748E-08  0.2998247E+04  0.7818609E-02  0.8244232E-01
        1   -1    0    0  501    0  0.00000000000E+00  0.00000000000E+00  0.19313397744E+04  0.19313397744E+04  0.50400001928E-02 0. -1.
       -1   -1    0    0    0  501  0.00000000000E+00  0.00000000000E+00 -0.11636332542E+04  0.11636332543E+04  0.50400001928E-02 0.  1.
    10030    2    1    2    0    0  0.00000000000E+00  0.00000000000E+00  0.76770652015E+03  0.30949730287E+04  0.29982469456E+04 0.  0.
        1    1    3    3  502    0  0.84460022486E+03  0.29518746411E+03 -0.85781799481E+03  0.12394905772E+04  0.50400001928E-02 0.  1.
       -1    1    3    3    0  502 -0.84460022486E+03 -0.29518746411E+03  0.16255245150E+04  0.18554824514E+04  0.50400001928E-02 0. -1.
</event>
<event>
 5   0  0.6464436E-08  0.3000058E+04  0.7818609E-02  0.8243714E-01
       -1   -1    0    0    0  501  0.00000000000E+00  0.00000000000E+00  0.21583734812E+04  0.21583734812E+04  0.50400001928E-02 0. -1.
        1   -1    0    0  501    0  0.00000000000E+00  0.00000000000E+00 -0.10424920154E+04  0.10424920154E+04  0.50400001928E-02 0.  1.
    10030    2    1    2    0    0  0.00000000000E+00  0.00000000000E+00  0.11158814658E+04  0.32008654966E+04  0.30000580797E+04 0.  0.
        5    1    3    3  502    0 -0.92317389156E+03 -0.63685934902E+02  0.18175377404E+04  0.20395517792E+04  0.46999998093E+01 0. -1.
       -5    1    3    3    0  502  0.92317389156E+03  0.63685934902E+02 -0.70165627463E+03  0.11613137173E+04  0.46999998093E+01 0.  1.
</event>
<event>
 5   0  0.6679022E-08  0.2999951E+04  0.7818609E-02  0.8243745E-01
       -1   -1    0    0    0  501  0.00000000000E+00  0.00000000000E+00  0.13998787324E+04  0.13998787325E+04  0.50400001928E-02 0.  1.
        1   -1    0    0  501    0  0.00000000000E+00  0.00000000000E+00 -0.16072300713E+04  0.16072300713E+04  0.50400001928E-02 0. -1.
    10030    2    1    2    0    0  0.00000000000E+00  0.00000000000E+00 -0.20735133888E+03  0.30071088038E+04  0.29999514630E+04 0.  0.
        3    1    3    3  502    0 -0.73243693281E+03  0.72279763914E+03  0.99026986189E+03  0.14281227879E+04  0.10100000352E+00 0.  1.
       -3    1    3    3    0  502  0.73243693281E+03 -0.72279763914E+03 -0.11976212008E+04  0.15789860159E+04  0.10100000352E+00 0. -1.
</event>
<event>
 5   0  0.1817566E-07  0.3002210E+04  0.7818609E-02  0.8243100E-01
       -2   -1    0    0    0  501  0.00000000000E+00  0.00000000000E+00  0.11263239183E+04  0.11263239183E+04  0.25500000920E-02 0. -1.
        2   -1    0    0  501    0  0.00000000000E+00  0.00000000000E+00 -0.20005930080E+04  0.20005930080E+04  0.25500000920E-02 0.  1.
    10030    2    1    2    0    0  0.00000000000E+00  0.00000000000E+00 -0.87426908965E+03  0.31269169263E+04  0.30022096900E+04 0.  0.
        1    1    3    3  502    0 -0.53419704619E+03 -0.18698115142E+03  0.10109363467E+04  0.11585856603E+04  0.50400001928E-02 0. -1.
       -1    1    3    3    0  502  0.53419704619E+03  0.18698115142E+03 -0.18852054364E+04  0.19683312660E+04  0.50400001928E-02 0.  1.
</event>
<event>
 5   0  0.6464436E-08  0.2998943E+04  0.7818609E-02  0.8244033E-01
       -1   -1    0    0    0  501  0.00000000000E+00  0.00000000000E+00  0.18433168107E+04  0.18433168107E+04  0.50400001928E-02 0. -1.
        1   -1    0    0  501    0  0.00000000000E+00  0.00000000000E+00 -0.12197655822E+04  0.12197655822E+04  0.50400001928E-02 0.  1.
    10030    2    1    2    0    0  0.00000000000E+00  0.00000000000E+00  0.62355122845E+03  0.30630823929E+04  0.29989427489E+04 0.  0.
        5    1    3    3  502    0 -0.17494926103E+03 -0.19009792981E+03 -0.11968546952E+04  0.12244295481E+04  0.46999998093E+01 0.  1.
       -5    1    3    3    0  502  0.17494926103E+03  0.19009792981E+03  0.18204059236E+04  0.18386528448E+04  0.46999998093E+01 0. -1.
</event>
<event>
 5   0  0.6374748E-08  0.3000303E+04  0.7818609E-02  0.8243644E-01
       -1   -1    0    0    0  501  0.00000000000E+00  0.00000000000E+00  0.94018299463E+03  0.94018299464E+03  0.50400001928E-02 0.  1.
        1   -1    0    0  501    0  0.00000000000E+00  0.00000000000E+00 -0.23936344991E+04  0.23936344991E+04  0.50400001928E-02 0. -1.
    10030    2    1    2    0    0  0.00000000000E+00  0.00000000000E+00 -0.14534515045E+04  0.33338174938E+04  0.30003029523E+04 0.  0.
        1    1    3    3  502    0 -0.62107310985E+03  0.67833657042E+03 -0.20436181267E+04  0.22410371167E+04  0.50400001928E-02 0. -1.
       -1    1    3    3    0  502  0.62107310985E+03 -0.67833657042E+03  0.59016662221E+03  0.10927803771E+04  0.50400001928E-02 0.  1.
</event>
<event>
 5   0  0.6374748E-08  0.2998680E+04  0.7818609E-02  0.8244108E-01
        1   -1    0    0  501    0  0.00000000000E+00  0.00000000000E+00  0.14810530707E+04  0.14810530707E+04  0.50400001928E-02 0.  1.
       -1   -1    0    0    0  501  0.00000000000E+00  0.00000000000E+00 -0.15178527128E+04  0.15178527128E+04  0.50400001928E-02 0. -1.
    10030    2    1    2    0    0  0.00000000000E+00  0.00000000000E+00 -0.36799642164E+02  0.29989057835E+04  0.29986799904E+04 0.  0.
        1    1    3    3  502    0 -0.55668956393E+03  0.12022250687E+04  0.68363026839E+03  0.14908382643E+04  0.50400001928E-02 0. -1.
       -1    1    3    3    0  502  0.55668956393E+03 -0.12022250687E+04 -0.72042991056E+03  0.15080675192E+04  0.50400001928E-02 0.  1.
</event>
<event>
 5   0  0.6525507E-08  0.3004671E+04  0.7818609E-02  0.8242398E-01
        1   -1    0    0  501    0  0.00000000000E+00  0.00000000000E+00  0.15931846935E+04  0.15931846935E+04  0.50400001928E-02 0.  1.
       -1   -1    0    0    0  501  0.00000000000E+00  0.00000000000E+00 -0.14166664792E+04  0.14166664792E+04  0.50400001928E-02 0. -1.
    10030    2    1    2    0    0  0.00000000000E+00  0.00000000000E+00  0.17651821431E+03  0.30098511728E+04  0.30046705979E+04 0.  0.
        4    1    3    3  502    0  0.87392602044E+03 -0.11673839439E+04  0.45009898435E+03  0.15261463462E+04  0.12699999809E+01 0.  1.
       -4    1    3    3    0  502 -0.87392602044E+03  0.11673839439E+04 -0.27358077004E+03  0.14837048265E+04  0.12699999809E+01 0. -1.
</event>
<event>
 5   0  0.6679022E-08  0.3001288E+04  0.7818609E-02  0.8243363E-01
        1   -1    0    0  501    0  0.00000000000E+00  0.00000000000E+00  0.18421539373E+04  0.18421539373E+04  0.50400001928E-02 0.  1.
       -1   -1    0    0    0  501  0.00000000000E+00  0.00000000000E+00 -0.12224449073E+04  0.12224449074E+04  0.50400001928E-02 0. -1.
    10030    2    1    2    0    0  0.00000000000E+00  0.00000000000E+00  0.61970902992E+03  0.30645988446E+04  0.30012875232E+04 0.  0.
        3    1    3    3  502    0 -0.10148559969E+04 -0.14452283862E+03  0.14289259484E+04  0.17585928811E+04  0.10100000352E+00 0.  1.
       -3    1    3    3    0  502  0.10148559969E+04  0.14452283862E+03 -0.80921691853E+03  0.13060059635E+04  0.10100000352E+00 0. -1.
</event>
<event>
 5   0  0.1817566E-07  0.3004207E+04  0.7818609E-02  0.8242531E-01
       -2   -1    0    0    0  501  0.00000000000E+00  0.00000000000E+00  0.92630902243E+03  0.92630902243E+03  0.25500000920E-02 0. -1.
        2   -1    0    0  501    0  0.00000000000E+00  0.00000000000E+00 -0.24358122776E+04  0.24358122776E+04  0.25500000920E-02 0.  1.
    10030    2    1    2    0    0  0.00000000000E+00  0.00000000000E+00 -0.15095032552E+04  0.33621213000E+04  0.30042069767E+04 0.  0.
        1    1    3    3  502    0  0.42490231940E+03  0.14201303763E+04 -0.10265952739E+04  0.18031112343E+04  0.50400001928E-02 0.  1.
       -1    1    3    3    0  502 -0.42490231940E+03 -0.14201303763E+04 -0.48290798129E+03  0.15590100658E+04  0.50400001928E-02 0. -1.
</event>
<event>
 5   0  0.1813720E-07  0.3000174E+04  0.7818609E-02  0.8243681E-01
       -2   -1    0    0    0  501  0.00000000000E+00  0.00000000000E+00  0.12234217865E+04  0.12234217865E+04  0.25500000920E-02 0.  1.
        2   -1    0    0  501    0  0.00000000000E+00  0.00000000000E+00 -0.18393177355E+04  0.18393177355E+04  0.25500000920E-02 0. -1.
    10030    2    1    2    0    0  0.00000000000E+00  0.00000000000E+00 -0.61589594907E+03  0.30627395220E+04  0.30001742548E+04 0.  0.
        3    1    3    3  502    0 -0.93753814276E+03 -0.65823445063E+03 -0.12966548466E+04  0.17301919439E+04  0.10100000352E+00 0. -1.
       -3    1    3    3    0  502  0.93753814276E+03  0.65823445063E+03  0.68075889756E+03  0.13325475781E+04  0.10100000352E+00 0.  1.
</event>
<event>
 5   0  0.6679022E-08  0.2998975E+04  0.7818609E-02  0.8244024E-01
        1   -1    0    0  501    0  0.00000000000E+00  0.00000000000E+00  0.24175768378E+04  0.24175768378E+04  0.50400001928E-02 0.  1.
       -1   -1    0    0    0  501  0.00000000000E+00  0.00000000000E+00 -0.93004806885E+03  0.93004806886E+03  0.50400001928E-02 0. -1.
    10030    2    1    2    0    0  0.00000000000E+00  0.00000000000E+00  0.14875287690E+04  0.33476249067E+04  0.29989749378E+04 0.  0.
        3    1    3    3  502    0  0.48106138181E+03 -0.36742285380E+03  0.22751294340E+04  0.23542798386E+04  0.10100000352E+00 0.  1.
       -3    1    3    3    0  502 -0.48106138181E+03  0.36742285380E+03 -0.78760066505E+03  0.99334506811E+03  0.10100000352E+00 0. -1.
</event>
<event>
 5   0  0.6017625E-08  0.2999820E+04  0.7818609E-02  0.8243782E-01
        4   -1    0    0  501    0  0.00000000000E+00  0.00000000000E+00  0.11459750187E+04  0.11459757225E+04  0.12699999809E+01 0.  1.
       -4   -1    0    0    0  501  0.00000000000E+00  0.00000000000E+00 -0.19631559334E+04  0.19631563442E+04  0.12699999809E+01 0. -1.
    10030    2    1    2    0    0  0.00000000000E+00  0.00000000000E+00 -0.81718091468E+03  0.31091320667E+04  0.29998195880E+04 0.  0.
        2    1    3    3  502    0 -0.56689569562E+03  0.43724719061E+03 -0.17746374453E+04  0.19136075611E+04  0.25500000920E-02 0. -1.
       -2    1    3    3    0  502  0.56689569562E+03 -0.43724719061E+03  0.95745653065E+03  0.11955245056E+04  0.25500000920E-02 0.  1.
</event>
<event>
 5   0  0.6525507E-08  0.2995378E+04  0.7818609E-02  0.8245052E-01
       -1   -1    0    0    0  501  0.00000000000E+00  0.00000000000E+00  0.15549403419E+04  0.15549403419E+04  0.50400001928E-02 0. -1.
        1   -1    0    0  501    0  0.00000000000E+00  0.00000000000E+00 -0.14425456176E+04  0.14425456176E+04  0.50400001928E-02 0.  1.
    10030    2    1    2    0    0  0.00000000000E+00  0.00000000000E+00  0.11239472432E+03  0.29974859595E+04  0.29953780234E+04 0.  0.
        4    1    3    3  502    0 -0.16118421345E+03  0.47354544290E+03  0.14688724701E+04  0.15517131125E+04  0.12699999809E+01 0. -1.
       -4    1    3    3    0  502  0.16118421345E+03 -0.47354544290E+03 -0.13564777458E+04  0.14457728469E+04  0.12699999809E+01 0.  1.
</event>
<event>
 5   0  0.6636007E-08  0.2999595E+04  0.7818609E-02  0.8243846E-01
        1   -1    0    0  501    0  0.00000000000E+00  0.00000000000E+00  0.16879472378E+04  0.16879472378E+04  0.50400001928E-02 0.  1.
       -1   -1    0    0    0  501  0.00000000000E+00  0.00000000000E+00 -0.13326203376E+04  0.13326203376E+04  0.50400001928E-02 0. -1.
    10030    2    1    2    0    0  0.00000000000E+00  0.00000000000E+00  0.35532690023E+03  0.30205675754E+04  0.29995951846E+04 0.  0.
        2    1    3    3  502    0 -0.89357363772E+03  0.10751274043E+04 -0.36929163507E+03  0.14459422856E+04  0.25500000920E-02 0. -1.
       -2    1    3    3    0  502  0.89357363772E+03 -0.10751274043E+04  0.72461853530E+03  0.15746252898E+04  0.25500000920E-02 0.  1.
</event>
<event>
 5   0  0.6374748E-08  0.2998220E+04  0.7818609E-02  0.8244239E-01
        1   -1    0    0  501    0  0.00000000000E+00  0.00000000000E+00  0.30701229719E+04  0.30701229719E+04  0.50400001928E-02 0.  1.
       -1   -1    0    0    0  501  0.00000000000E+00  0.00000000000E+00 -0.73200042719E+03  0.73200042721E+03  0.50400001928E-02 0. -1.
    10030    2    1    2    0    0  0.00000000000E+00  0.00000000000E+00  0.23381225447E+04  0.38021233991E+04  0.29982203568E+04 0.  0.
        1    1    3    3  502    0  0.14123626859E+04  0.49040134874E+03  0.13083792219E+04  0.19867355204E+04  0.50400001928E-02 0. -1.
       -1    1    3    3    0  502 -0.14123626859E+04 -0.49040134874E+03  0.10297433228E+04  0.18153878788E+04  0.50400001928E-02 0.  1.
</event>
<event>
 5   0  0.6464436E-08  0.2996131E+04  0.7818609E-02  0.8244837E-01
        1   -1    0    0  501    0  0.00000000000E+00  0.00000000000E+00  0.15046349002E+04  0.15046349002E+04  0.50400001928E-02 0.  1.
       -1   -1    0    0    0  501  0.00000000000E+00  0.00000000000E+00 -0.14915248584E+04  0.14915248584E+04  0.50400001928E-02 0. -1.
    10030    2    1    2    0    0  0.00000000000E+00  0.00000000000E+00  0.13110041843E+02  0.29961597586E+04  0.29961310762E+04 0.  0.
        5    1    3    3  502    0 -0.73998730008E+03 -0.10560643440E+04 -0.75589910473E+03  0.14947436735E+04  0.46999998093E+01 0. -1.
       -5    1    3    3    0  502  0.73998730008E+03  0.10560643440E+04  0.76900914657E+03  0.15014160851E+04  0.46999998093E+01 0.  1.
</event>
<event>
 5   0  0.1914439E-07  0.3002320E+04  0.7818609E-02  0.8243069E-01
        2   -1    0    0  501    0  0.00000000000E+00  0.00000000000E+00  0.18316986320E+04  0.18316986320E+04  0.25500000920E-02 0.  1.
       -2   -1    0    0    0  501  0.00000000000E+00  0.00000000000E+00 -0.12302683836E+04  0.12302683836E+04  0.25500000920E-02 0. -1.
    10030    2    1    2    0    0  0.00000000000E+00  0.00000000000E+00  0.60143024843E+03  0.30619670156E+04  0.30023197133E+04 0.  0.
        5    1    3    3  502    0  0.11841412913E+04 -0.90252713618E+03  0.49612813803E+03  0.15693664482E+04  0.46999998093E+01 0. -1.
       -5    1    3    3    0  502 -0.11841412913E+04  0.90252713618E+03  0.10530211040E+03  0.14926005674E+04  0.46999998093E+01 0.  1.
</event>
<event>
 5   0  0.1810055E-07  0.2997929E+04  0.7818609E-02  0.8244323E-01
        2   -1    0    0  501    0  0.00000000000E+00  0.00000000000E+00  0.18644970781E+04  0.18644970781E+04  0.25500000920E-02 0. -1.
       -2   -1    0    0    0  501  0.00000000000E+00  0.00000000000E+00 -0.12050938572E+04  0.12050938572E+04  0.25500000920E-02 0.  1.
    10030    2    1    2    0    0  0.00000000000E+00  0.00000000000E+00  0.65940322088E+03  0.30695909353E+04  0.29979286020E+04 0.  0.
        4    1    3    3  502    0  0.49536335746E+03  0.14849655925E+03 -0.11108611208E+04  0.12253367401E+04  0.12699999809E+01 0.  1.
       -4    1    3    3    0  502 -0.49536335746E+03 -0.14849655925E+03  0.17702643417E+04  0.18442541952E+04  0.12699999809E+01 0. -1.
</event>
<event>
 5   0  0.6464436E-08  0.2998901E+04  0.7818609E-02  0.8244045E-01
       -1   -1    0    0    0  501  0.00000000000E+00  0.00000000000E+00  0.13793508156E+04  0.13793508156E+04  0.50400001928E-02 0. -1.
        1   -1    0    0  501    0  0.00000000000E+00  0.00000000000E+00 -0.16300076130E+04  0.16300076130E+04  0.50400001928E-02 0.  1.
    10030    2    1    2    0    0  0.00000000000E+00  0.00000000000E+00 -0.25065679739E+03  0.30093584285E+04  0.29989013524E+04 0.  0.
        5    1    3    3  502    0  0.28345669127E+03  0.12166506428E+04  0.70686653196E+03  0.14353636704E+04  0.46999998093E+01 0. -1.
       -5    1    3    3    0  502 -0.28345669127E+03 -0.12166506428E+04 -0.95752332935E+03  0.15739947581E+04  0.46999998093E+01 0.  1.
</event>
<event>
 5   0  0.6017625E-08  0.3000355E+04  0.7818609E-02  0.8243629E-01
       -3   -1    0    0    0  501  0.00000000000E+00  0.00000000000E+00  0.19025481470E+04  0.19025481497E+04  0.10100000352E+00 0.  1.
        3   -1    0    0  501    0  0.00000000000E+00  0.00000000000E+00 -0.11829046220E+04  0.11829046263E+04  0.10100000352E+00 0. -1.
    10030    2    1    2    0    0  0.00000000000E+00  0.00000000000E+00  0.71964352499E+03  0.30854527759E+04  0.30003553172E+04 0.  0.
        4    1    3    3  502    0 -0.69878905209E+03 -0.42440179788E+03 -0.93367196962E+03  0.12410350459E+04  0.12699999809E+01 0. -1.
       -4    1    3    3    0  502  0.69878905209E+03  0.42440179788E+03  0.16533154946E+04  0.18444177301E+04  0.12699999809E+01 0.  1.
</event>
<event>
 5   0  0.1817566E-07  0.2998774E+04  0.7818609E-02  0.8244081E-01
        2   -1    0    0  501    0  0.00000000000E+00  0.00000000000E+00  0.20233804724E+04  0.20233804724E+04  0.25500000920E-02 0. -1.
       -2   -1    0    0    0  501  0.00000000000E+00  0.00000000000E+00 -0.11110920189E+04  0.11110920189E+04  0.25500000920E-02 0.  1.
    10030    2    1    2    0    0  0.00000000000E+00  0.00000000000E+00  0.91228845349E+03  0.31344724914E+04  0.29987743458E+04 0.  0.
        1    1    3    3  502    0 -0.13653136360E+04  0.58125168454E+03  0.68087821562E+03  0.16326450900E+04  0.50400001928E-02 0.  1.
       -1    1    3    3    0  502  0.13653136360E+04 -0.58125168454E+03  0.23141023788E+03  0.15018274014E+04  0.50400001928E-02 0. -1.
</event>
<event>
 5   0  0.1810055E-07  0.3000491E+04  0.7818609E-02  0.8243591E-01
       -2   -1    0    0    0  501  0.00000000000E+00  0.00000000000E+00  0.12669244897E+04  0.12669244897E+04  0.25500000920E-02 0.  1.
        2   -1    0    0  501    0  0.00000000000E+00  0.00000000000E+00 -0.17765354704E+04  0.17765354704E+04  0.25500000920E-02 0. -1.
    10030    2    1    2    0    0  0.00000000000E+00  0.00000000000E+00 -0.50961098074E+03  0.30434599601E+04  0.30004908227E+04 0.  0.
        4    1    3    3  502    0  0.97056314606E+03 -0.10837391397E+04  0.11684490661E+03  0.14594991225E+04  0.12699999809E+01 0.  1.
       -4    1    3    3    0  502 -0.97056314606E+03  0.10837391397E+04 -0.62645588735E+03  0.15839608376E+04  0.12699999809E+01 0. -1.
</event>
<event>
 5   0  0.1810055E-07  0.2993863E+04  0.7818609E-02  0.8245486E-01
       -2   -1    0    0    0  501  0.00000000000E+00  0.00000000000E+00  0.12321440983E+04  0.12321440983E+04  0.25500000920E-02 0.  1.
        2   -1    0    0  501    0  0.00000000000E+00  0.00000000000E+00 -0.18186211110E+04  0.18186211110E+04  0.25500000920E-02 0. -1.
    10030    2    1    2    0    0  0.00000000000E+00  0.00000000000E+00 -0.58647701269E+03  0.30507652093E+04  0.29938625679E+04 0.  0.
        4    1    3    3  502    0 -0.86965944652E+03  0.10597779546E+04  0.31932319723E+03  0.14076241626E+04  0.12699999809E+01 0.  1.
       -4    1    3    3    0  502  0.86965944652E+03 -0.10597779546E+04 -0.90580020992E+03  0.16431410467E+04  0.12699999809E+01 0. -1.
</event>
<event>
 5   0  0.6374748E-08  0.2999545E+04  0.7818609E-02  0.8243861E-01
       -1   -1    0    0    0  501  0.00000000000E+00  0.00000000000E+00  0.12624544526E+04  0.12624544526E+04  0.50400001928E-02 0.  1.
        1   -1    0    0  501    0  0.00000000000E+00  0.00000000000E+00 -0.17817024598E+04  0.17817024598E+04  0.50400001928E-02 0. -1.
    10030    2    1    2    0    0  0.00000000000E+00  0.00000000000E+00 -0.51924800718E+03  0.30441569124E+04  0.29995454347E+04 0.  0.
        1    1    3    3  502    0 -0.90301518877E+03 -0.82329306571E+03  0.62283122212E+03  0.13715562819E+04  0.50400001928E-02 0.  1.
       -1    1    3    3    0  502  0.90301518877E+03  0.82329306571E+03 -0.11420792293E+04  0.16726006305E+04  0.50400001928E-02 0. -1.
</event>
<event>
 5   0  0.6679022E-08  0.2999589E+04  0.7818609E-02  0.8243848E-01
       -1   -1    0    0    0  501  0.00000000000E+00  0.00000000000E+00  0.11176541224E+04  0.11176541224E+04  0.50400001928E-02 0. -1.
        1   -1    0    0  501    0  0.00000000000E+00  0.00000000000E+00 -0.20125935060E+04  0.20125935060E+04  0.50400001928E-02 0.  1.
    10030    2    1    2    0    0  0.00000000000E+00  0.00000000000E+00 -0.89493938362E+03  0.31302476284E+04  0.29995889243E+04 0.  0.
        3    1    3    3  502    0 -0.84764101054E+03  0.95760424659E+03  0.37016533757E+03  0.13313615449E+04  0.10100000352E+00 0. -1.
       -3    1    3    3    0  502  0.84764101054E+03 -0.95760424659E+03 -0.12651047212E+04  0.17988860836E+04  0.10100000352E+00 0.  1.
</event>
<event>
 5   0  0.6679022E-08  0.3000935E+04  0.7818609E-02  0.8243464E-01
       -1   -1    0    0    0  501  0.00000000000E+00  0.00000000000E+00  0.12045870990E+04  0.12045870990E+04  0.50400001928E-02 0.  1.
        1   -1    0    0  501    0  0.00000000000E+00  0.00000000000E+00 -0.18690239719E+04  0.18690239719E+04  0.50400001928E-02 0. -1.
    10030    2    1    2    0    0  0.00000000000E+00  0.00000000000E+00 -0.66443687289E+03  0.30736110710E+04  0.30009346307E+04 0.  0.
        3    1    3    3  502    0  0.60281205892E+03 -0.81647250012E+03  0.79971265454E+03  0.12921107003E+04  0.10100000352E+00 0.  1.
       -3    1    3    3    0  502 -0.60281205892E+03  0.81647250012E+03 -0.14641495274E+04  0.17815003707E+04  0.10100000352E+00 0. -1.
</event>
<event>
 5   0  0.1810055E-07  0.2999691E+04  0.7818609E-02  0.8243819E-01
        2   -1    0    0  501    0  0.00000000000E+00  0.00000000000E+00  0.20815725250E+04  0.20815725250E+04  0.25500000920E-02 0. -1.
       -2   -1    0    0    0  501  0.00000000000E+00  0.00000000000E+00 -0.10806909394E+04  0.10806909394E+04  0.25500000920E-02 0.  1.
    10030    2    1    2    0    0  0.00000000000E+00  0.00000000000E+00  0.10008815856E+04  0.31622634645E+04  0.29996910292E+04 0.  0.
        4    1    3    3  502    0 -0.13043549388E+04  0.51083218172E+03 -0.64556971958E+02  0.14023054374E+04  0.12699999809E+01 0.  1.
       -4    1    3    3    0  502  0.13043549388E+04 -0.51083218172E+03  0.10654385576E+04  0.17599580271E+04  0.12699999809E+01 0. -1.
</event>
<event>
 5   0  0.6525507E-08  0.2993896E+04  0.7818609E-02  0.8245476E-01
        1   -1    0    0  501    0  0.00000000000E+00  0.00000000000E+00  0.25793538079E+04  0.25793538079E+04  0.50400001928E-02 0. -1.
       -1   -1    0    0    0  501  0.00000000000E+00  0.00000000000E+00 -0.86876531548E+03  0.86876531550E+03  0.50400001928E-02 0.  1.
    10030    2    1    2    0    0  0.00000000000E+00  0.00000000000E+00  0.17105884924E+04  0.34481191234E+04  0.29938958731E+04 0.  0.
        4    1    3    3  502    0 -0.59318015799E+03 -0.13230268557E+04  0.12840496041E+04  0.19367621845E+04  0.12699999809E+01 0. -1.
       -4    1    3    3    0  502  0.59318015799E+03  0.13230268557E+04  0.42653888830E+03  0.15113569389E+04  0.12699999809E+01 0.  1.
</event>
<event>
 5   0  0.1817566E-07  0.2998591E+04  0.7818609E-02  0.8244133E-01
        2   -1    0    0  501    0  0.00000000000E+00  0.00000000000E+00  0.12077549480E+04  0.12077549480E+04  0.25500000920E-02 0.  1.
       -2   -1    0    0    0  501  0.00000000000E+00  0.00000000000E+00 -0.18612107228E+04  0.18612107228E+04  0.25500000920E-02 0. -1.
    10030    2    1    2    0    0  0.00000000000E+00  0.00000000000E+00 -0.65345577479E+03  0.30689656709E+04  0.29985906422E+04 0.  0.
        1    1    3    3  502    0 -0.22781377315E+03  0.12537514356E+04  0.48180946906E+03  0.13623260043E+04  0.50400001928E-02 0.  1.
       -1    1    3    3    0  502  0.22781377315E+03 -0.12537514356E+04 -0.11352652439E+04  0.17066396666E+04  0.50400001928E-02 0. -1.
</event>
<event>
 5   0  0.6464436E-08  0.2999136E+04  0.7818609E-02  0.8243978E-01
        1   -1    0    0  501    0  0.00000000000E+00  0.00000000000E+00  0.21835401834E+04  0.21835401834E+04  0.50400001928E-02 0.  1.
       -1   -1    0    0    0  501  0.00000000000E+00  0.00000000000E+00 -0.10298436158E+04  0.10298436158E+04  0.50400001928E-02 0. -1.
    10030    2    1    2    0    0  0.00000000000E+00  0.00000000000E+00  0.11536965676E+04  0.32133837993E+04  0.29991364876E+04 0.  0.
        5    1    3    3  502    0  0.12025166216E+04 -0.89372495710E+03  0.64369340654E+03  0.16306912080E+04  0.46999998093E+01 0.  1.
       -5    1    3    3    0  502 -0.12025166216E+04  0.89372495710E+03  0.51000316103E+03  0.15826925913E+04  0.46999998093E+01 0. -1.
</event>
<event>
 5   0  0.1813720E-07  0.3001162E+04  0.7818609E-02  0.8243399E-01
       -2   -1    0    0    0  501  0.00000000000E+00  0.00000000000E+00  0.18636463743E+04  0.18636463743E+04  0.25500000920E-02 0. -1.
        2   -1    0    0  501    0  0.00000000000E+00  0.00000000000E+00 -0.12082456726E+04  0.12082456726E+04  0.25500000920E-02 0.  1.
    10030    2    1    2    0    0  0.00000000000E+00  0.00000000000E+00  0.65540070170E+03  0.30718920469E+04  0.30011615531E+04 0.  0.
        3    1    3    3  502    0 -0.48429805771E+03  0.13607323661E+04  0.74423767411E+03  0.16248159608E+04  0.10100000352E+00 0. -1.
       -3    1    3    3    0  502  0.48429805771E+03 -0.13607323661E+04 -0.88836972409E+02  0.14470760860E+04  0.10100000352E+00 0.  1.
</event>
<event>
 5   0  0.1817566E-07  0.2999378E+04  0.7818609E-02  0.8243909E-01
       -2   -1    0    0    0  501  0.00000000000E+00  0.00000000000E+00  0.13922028780E+04  0.13922028780E+04  0.25500000920E-02 0.  1.
        2   -1    0    0  501    0  0.00000000000E+00  0.00000000000E+00 -0.16154733117E+04  0.16154733117E+04  0.25500000920E-02 0. -1.
    10030    2    1    2    0    0  0.00000000000E+00  0.00000000000E+00 -0.22327043367E+03  0.30076761897E+04  0.29993776647E+04 0.  0.
        1    1    3    3  502    0  0.48241672919E+03 -0.96422128488E+03  0.93365858083E+03  0.14262422418E+04  0.50400001928E-02 0.  1.
       -1    1    3    3    0  502 -0.48241672919E+03  0.96422128488E+03 -0.11569290145E+04  0.15814339479E+04  0.50400001928E-02 0. -1.
</event>
<event>
 5   0  0.6464436E-08  0.3000110E+04  0.7818609E-02  0.8243699E-01
       -1   -1    0    0    0  501  0.00000000000E+00  0.00000000000E+00  0.12902243552E+04  0.12902243552E+04  0.50400001928E-02 0. -1.
        1   -1    0    0  501    0  0.00000000000E+00  0.00000000000E+00 -0.17440109523E+04  0.17440109524E+04  0.50400001928E-02 0.  1.
    10030    2    1    2    0    0  0.00000000000E+00  0.00000000000E+00 -0.45378659716E+03  0.30342353076E+04  0.30001102689E+04 0.  0.
        5    1    3    3  502    0 -0.73414910715E+03  0.10066123222E+03 -0.15459660743E+04  0.17143922504E+04  0.46999998093E+01 0.  1.
       -5    1    3    3    0  502  0.73414910715E+03 -0.10066123222E+03  0.10921794772E+04  0.13198430572E+04  0.46999998093E+01 0. -1.
</event>
<event>
 5   0  0.6636007E-08  0.2998938E+04  0.7818609E-02  0.8244034E-01
        1   -1    0    0  501    0  0.00000000000E+00  0.00000000000E+00  0.14355753103E+04  0.14355753103E+04  0.50400001928E-02 0.  1.
       -1   -1    0    0    0  501  0.00000000000E+00  0.00000000000E+00 -0.15662060410E+04  0.15662060410E+04  0.50400001928E-02 0. -1.
    10030    2    1    2    0    0  0.00000000000E+00  0.00000000000E+00 -0.13063073073E+03  0.30017813513E+04  0.29989376275E+04 0.  0.
        2    1    3    3  502    0  0.11526513789E+04 -0.78040579716E+03  0.49267922371E+03  0.14766080140E+04  0.25500000920E-02 0.  1.
       -2    1    3    3    0  502 -0.11526513789E+04  0.78040579716E+03 -0.62330995444E+03  0.15251733373E+04  0.25500000920E-02 0. -1.
</event>
<event>
 5   0  0.1821305E-07  0.3000544E+04  0.7818609E-02  0.8243576E-01
       -2   -1    0    0    0  501  0.00000000000E+00  0.00000000000E+00  0.80483114275E+03  0.80483114275E+03  0.25500000920E-02 0. -1.
        2   -1    0    0  501    0  0.00000000000E+00  0.00000000000E+00 -0.27966313031E+04  0.27966313031E+04  0.25500000920E-02 0.  1.
    10030    2    1    2    0    0  0.00000000000E+00  0.00000000000E+00 -0.19918001604E+04  0.36014624459E+04  0.30005439291E+04 0.  0.
        2    1    3    3  502    0 -0.61966509613E+03 -0.98686110821E+03 -0.21300987609E+04  0.24280033792E+04  0.25500000920E-02 0.  1.
       -2    1    3    3    0  502  0.61966509613E+03  0.98686110821E+03  0.13829860051E+03  0.11734590667E+04  0.25500000920E-02 0. -1.
</event>
<event>
 5   0  0.1821305E-07  0.2999347E+04  0.7818609E-02  0.8243917E-01
        2   -1    0    0  501    0  0.00000000000E+00  0.00000000000E+00  0.15142551644E+04  0.15142551644E+04  0.25500000920E-02 0.  1.
       -2   -1    0    0    0  501  0.00000000000E+00  0.00000000000E+00 -0.14852318936E+04  0.14852318936E+04  0.25500000920E-02 0. -1.
    10030    2    1    2    0    0  0.00000000000E+00  0.00000000000E+00  0.29023270823E+02  0.29994870579E+04  0.29993466389E+04 0.  0.
        2    1    3    3  502    0  0.41805527269E+03  0.11868747239E+04 -0.80135634741E+03  0.14918491267E+04  0.25500000920E-02 0. -1.
       -2    1    3    3    0  502 -0.41805527269E+03 -0.11868747239E+04  0.83037961823E+03  0.15076379312E+04  0.25500000920E-02 0.  1.
</event>
<event>
 5   0  0.6679022E-08  0.3000322E+04  0.7818609E-02  0.8243639E-01
       -1   -1    0    0    0  501  0.00000000000E+00  0.00000000000E+00  0.92309671170E+03  0.92309671172E+03  0.50400001928E-02 0.  1.
        1   -1    0    0  501    0  0.00000000000E+00  0.00000000000E+00 -0.24379711233E+04  0.24379711233E+04  0.50400001928E-02 0. -1.
    10030    2    1    2    0    0  0.00000000000E+00  0.00000000000E+00 -0.15148744116E+04  0.33610678350E+04  0.30003220675E+04 0.  0.
        3    1    3    3  502    0  0.20687795344E+03  0.37232450946E+03 -0.23688093372E+04  0.24067990598E+04  0.10100000352E+00 0. -1.
       -3    1    3    3    0  502 -0.20687795344E+03 -0.37232450946E+03  0.85393492562E+03  0.95426877522E+03  0.10100000352E+00 0.  1.
</event>
<event>
 5   0  0.6636007E-08  0.2991513E+04  0.7818609E-02  0.8246159E-01
       -1   -1    0    0    0  501  0.00000000000E+00  0.00000000000E+00  0.16096280461E+04  0.16096280461E+04  0.50400001928E-02 0.  1.
        1   -1    0    0  501    0  0.00000000000E+00  0.00000000000E+00 -0.13899407749E+04  0.13899407749E+04  0.50400001928E-02 0. -1.
    10030    2    1    2    0    0  0.00000000000E+00  0.00000000000E+00  0.21968727116E+03  0.29995688210E+04  0.29915130979E+04 0.  0.
        2    1    3    3  502    0 -0.95882071890E+03 -0.73080908383E+03 -0.77790404538E+03  0.14347661105E+04  0.25500000920E-02 0. -1.
       -2    1    3    3    0  502  0.95882071890E+03  0.73080908383E+03  0.99759131654E+03  0.15648027105E+04  0.25500000920E-02 0.  1.
</event>
<event>
 5   0  0.1817566E-07  0.2999240E+04  0.7818609E-02  0.8243948E-01
        2   -1    0    0  501    0  0.00000000000E+00  0.00000000000E+00  0.21226452915E+04  0.21226452915E+04  0.25500000920E-02 0.  1.
       -2   -1    0    0    0  501  0.00000000000E+00  0.00000000000E+00 -0.10594614089E+04  0.10594614089E+04  0.25500000920E-02 0. -1.
    10030    2    1    2    0    0  0.00000000000E+00  0.00000000000E+00  0.10631838826E+04  0.31821067004E+04  0.29992404179E+04 0.  0.
        1    1    3    3  502    0  0.95729064237E+03  0.89689456080E+03  0.13025576055E+04  0.18486431626E+04  0.50400001928E-02 0.  1.
       -1    1    3    3    0  502 -0.95729064237E+03 -0.89689456080E+03 -0.23937372289E+03  0.13334635377E+04  0.50400001928E-02 0. -1.
</event>
<event>
 5   0  0.6525507E-08  0.2983610E+04  0.7818609E-02  0.8248427E-01
       -1   -1    0    0    0  501  0.00000000000E+00  0.00000000000E+00  0.15998824011E+04  0.15998824011E+04  0.50400001928E-02 0.  1.
        1   -1    0    0  501    0  0.00000000000E+00  0.00000000000E+00 -0.13910283344E+04  0.13910283344E+04  0.50400001928E-02 0. -1.
    10030    2    1    2    0    0  0.00000000000E+00  0.00000000000E+00  0.20885406664E+03  0.29909107355E+04  0.29836097276E+04 0.  0.
        4    1    3    3  502    0  0.13205195409E+04 -0.67865075325E+03 -0.41329717476E+02  0.14852772338E+04  0.12699999809E+01 0.  1.
       -4    1    3    3    0  502 -0.13205195409E+04  0.67865075325E+03  0.25018378412E+03  0.15056335017E+04  0.12699999809E+01 0. -1.
</event>
<event>
 5   0  0.1817566E-07  0.3000322E+04  0.7818609E-02  0.8243639E-01
        2   -1    0    0  501    0  0.00000000000E+00  0.00000000000E+00  0.21763261887E+04  0.21763261887E+04  0.25500000920E-02 0. -1.
       -2   -1    0    0    0  501  0.00000000000E+00  0.00000000000E+00 -0.10340745652E+04  0.10340745652E+04  0.25500000920E-02 0.  1.
    10030    2    1    2    0    0  0.00000000000E+00  0.00000000000E+00  0.11422516236E+04  0.32104007539E+04  0.30003223542E+04 0.  0.
        1    1    3    3  502    0 -0.83130972081E+03  0.88418970952E+03 -0.37244391426E+03  0.12694809032E+04  0.50400001928E-02 0.  1.
       -1    1    3    3    0  502  0.83130972081E+03 -0.88418970952E+03  0.15146955378E+04  0.19409198507E+04  0.50400001928E-02 0. -1.
</event>
<event>
 5   0  0.6374748E-08  0.3002833E+04  0.7818609E-02  0.8242922E-01
        1   -1    0    0  501    0  0.00000000000E+00  0.00000000000E+00  0.18492883617E+04  0.18492883617E+04  0.50400001928E-02 0. -1.
       -1   -1    0    0    0  501  0.00000000000E+00  0.00000000000E+00 -0.12189831691E+04  0.12189831691E+04  0.50400001928E-02 0.  1.
    10030    2    1    2    0    0  0.00000000000E+00  0.00000000000E+00  0.63030519259E+03  0.30682715308E+04  0.30028329209E+04 0.  0.
        1    1    3    3  502    0  0.66635883483E+03  0.90837436886E+02 -0.10564740079E+04  0.12523669056E+04  0.50400001928E-02 0.  1.
       -1    1    3    3    0  502 -0.66635883483E+03 -0.90837436886E+02  0.16867792005E+04  0.18159046253E+04  0.50400001928E-02 0. -1.
</event>
<event>
 5   0  0.1810055E-07  0.3000656E+04  0.7818609E-02  0.8243544E-01
        2   -1    0    0  501    0  0.00000000000E+00  0.00000000000E+00  0.25318038213E+04  0.25318038213E+04  0.25500000920E-02 0. -1.
       -2   -1    0    0    0  501  0.00000000000E+00  0.00000000000E+00 -0.88908322582E+03  0.88908322582E+03  0.25500000920E-02 0.  1.
    10030    2    1    2    0    0  0.00000000000E+00  0.00000000000E+00  0.16427205955E+04  0.34208870471E+04  0.30006561340E+04 0.  0.
        4    1    3    3  502    0  0.14061830269E+04 -0.11254448941E+03  0.23896984936E+03  0.14307778196E+04  0.12699999809E+01 0.  1.
       -4    1    3    3    0  502 -0.14061830269E+04  0.11254448941E+03  0.14037507461E+04  0.19901092275E+04  0.12699999809E+01 0. -1.
</event>
<event>
 5   0  0.6017625E-08  0.2999711E+04  0.7818609E-02  0.8243813E-01
       -3   -1    0    0    0  501  0.00000000000E+00  0.00000000000E+00  0.16609300337E+04  0.16609300367E+04  0.10100000352E+00 0.  1.
        3   -1    0    0  501    0  0.00000000000E+00  0.00000000000E+00 -0.13544015193E+04  0.13544015230E+04  0.10100000352E+00 0. -1.
    10030    2    1    2    0    0  0.00000000000E+00  0.00000000000E+00  0.30652851440E+03  0.30153315598E+04  0.29997107669E+04 0.  0.
        4    1    3    3  502    0  0.96157680586E+03 -0.48523431891E+03 -0.89595384034E+03  0.14010057797E+04  0.12699999809E+01 0. -1.
       -4    1    3    3    0  502 -0.96157680586E+03  0.48523431891E+03  0.12024823547E+04  0.16143257801E+04  0.12699999809E+01 0.  1.
</event>
<event>
 5   0  0.1813720E-07  0.3002998E+04  0.7818609E-02  0.8242875E-01
       -2   -1    0    0    0  501  0.00000000000E+00  0.00000000000E+00  0.10128518963E+04  0.10128518963E+04  0.25500000920E-02 0. -1.
        2   -1    0    0  501    0  0.00000000000E+00  0.00000000000E+00 -0.22258926458E+04  0.22258926458E+04  0.25500000920E-02 0.  1.
    10030    2    1    2    0    0  0.00000000000E+00  0.00000000000E+00 -0.12130407495E+04  0.32387445421E+04  0.30029982266E+04 0.  0.
        3    1    3    3  502    0 -0.77006557686E+03 -0.11093930005E+04  0.10131476906E+03  0.13542593972E+04  0.10100000352E+00 0. -1.
       -3    1    3    3    0  502  0.77006557686E+03  0.11093930005E+04 -0.13143555185E+04  0.18844851449E+04  0.10100000352E+00 0.  1.
</event>
<event>
 5   0  0.1821305E-07  0.3000108E+04  0.7818609E-02  0.8243700E-01
       -2   -1    0    0    0  501  0.00000000000E+00  0.00000000000E+00  0.14471023484E+04  0.14471023484E+04  0.25500000920E-02 0.  1.
        2   -1    0    0  501    0  0.00000000000E+00  0.00000000000E+00 -0.15549435419E+04  0.15549435419E+04  0.25500000920E-02 0. -1.
    10030    2    1    2    0    0  0.00000000000E+00  0.00000000000E+00 -0.10784119347E+03  0.30020458903E+04  0.30001082988E+04 0.  0.
        2    1    3    3  502    0 -0.40609641032E+03 -0.11471575500E+04 -0.93157183414E+03  0.15325504302E+04  0.25500000920E-02 0. -1.
       -2    1    3    3    0  502  0.40609641032E+03  0.11471575500E+04  0.82373064067E+03  0.14694954601E+04  0.25500000920E-02 0.  1.
</event>
<event>
 5   0  0.1817566E-07  0.3002747E+04  0.7818609E-02  0.8242947E-01
       -2   -1    0    0    0  501  0.00000000000E+00  0.00000000000E+00  0.11154433531E+04  0.11154433531E+04  0.25500000920E-02 0. -1.
        2   -1    0    0  501    0  0.00000000000E+00  0.00000000000E+00 -0.20208314776E+04  0.20208314776E+04  0.25500000920E-02 0.  1.
    10030    2    1    2    0    0  0.00000000000E+00  0.00000000000E+00 -0.90538812457E+03  0.31362748307E+04  0.30027474348E+04 0.  0.
        1    1    3    3  502    0 -0.53161873588E+03 -0.13610017836E+04 -0.81326825283E+03  0.16722289277E+04  0.50400001928E-02 0. -1.
       -1    1    3    3    0  502  0.53161873588E+03  0.13610017836E+04 -0.92119871737E+02  0.14640459030E+04  0.50400001928E-02 0.  1.
</event>
<event>
 5   0  0.6525507E-08  0.2999971E+04  0.7818609E-02  0.8243739E-01
       -1   -1    0    0    0  501  0.00000000000E+00  0.00000000000E+00  0.15177075583E+04  0.15177075583E+04  0.50400001928E-02 0. -1.
        1   -1    0    0  501    0  0.00000000000E+00  0.00000000000E+00 -0.14824706774E+04  0.14824706774E+04  0.50400001928E-02 0.  1.
    10030    2    1    2    0    0  0.00000000000E+00  0.00000000000E+00  0.35236880946E+02  0.30001782357E+04  0.29999713012E+04 0.  0.
        4    1    3    3  502    0  0.13911518590E+04 -0.54416607356E+03 -0.11853473021E+03  0.14984900085E+04  0.12699999809E+01 0.  1.
       -4    1    3    3    0  502 -0.13911518590E+04  0.54416607356E+03  0.15377161116E+03  0.15016882272E+04  0.12699999809E+01 0. -1.
</event>
<event>
 5   0  0.1821305E-07  0.3013829E+04  0.7818609E-02  0.8239793E-01
        2   -1    0    0  501    0  0.00000000000E+00  0.00000000000E+00  0.25034738724E+04  0.25034738724E+04  0.25500000920E-02 0.  1.
       -2   -1    0    0    0  501  0.00000000000E+00  0.00000000000E+00 -0.90705641049E+03  0.90705641049E+03  0.25500000920E-02 0. -1.
    10030    2    1    2    0    0  0.00000000000E+00  0.00000000000E+00  0.15964174620E+04  0.34105302829E+04  0.30138294739E+04 0.  0.
        2    1    3    3  502    0  0.13386967919E+04  0.68353032629E+03  0.67701780063E+03  0.16485375064E+04  0.25500000920E-02 0.  1.
       -2    1    3    3    0  502 -0.13386967919E+04 -0.68353032629E+03  0.91939966133E+03  0.17619927766E+04  0.25500000920E-02 0. -1.
</event>
<event>
 5   0  0.6679022E-08  0.2997262E+04  0.7818609E-02  0.8244513E-01
        1   -1    0    0  501    0  0.00000000000E+00  0.00000000000E+00  0.13635650287E+04  0.13635650287E+04  0.50400001928E-02 0. -1.
       -1   -1    0    0    0  501  0.00000000000E+00  0.00000000000E+00 -0.16470756580E+04  0.16470756580E+04  0.50400001928E-02 0.  1.
    10030    2    1    2    0    0  0.00000000000E+00  0.00000000000E+00 -0.28351062929E+03  0.30106406866E+04  0.29972619284E+04 0.  0.
        3    1    3    3  502    0 -0.37691144369E+03 -0.33066949120E+03 -0.15603233951E+04  0.16389062378E+04  0.10100000352E+00 0.  1.
       -3    1    3    3    0  502  0.37691144369E+03  0.33066949120E+03  0.12768127659E+04  0.13717344488E+04  0.10100000352E+00 0. -1.
</event>
<event>
 5   0  0.6525507E-08  0.2999115E+04  0.7818609E-02  0.8243984E-01
       -1   -1    0    0    0  501  0.00000000000E+00  0.00000000000E+00  0.10867121707E+04  0.10867121707E+04  0.50400001928E-02 0.  1.
        1   -1    0    0  501    0  0.00000000000E+00  0.00000000000E+00 -0.20692438256E+04  0.20692438256E+04  0.50400001928E-02 0. -1.
    10030    2    1    2    0    0  0.00000000000E+00  0.00000000000E+00 -0.98253165494E+03  0.31559559963E+04  0.29991148356E+04 0.  0.
        4    1    3    3  502    0 -0.15153318439E+02  0.51059227291E+03  0.99233571777E+03  0.11160940291E+04  0.12699999809E+01 0.  1.
       -4    1    3    3    0  502  0.15153318439E+02 -0.51059227291E+03 -0.19748673727E+04  0.20398619671E+04  0.12699999809E+01 0. -1.
</event>
<event>
 5   0  0.6636007E-08  0.2999779E+04  0.7818609E-02  0.8243794E-01
       -1   -1    0    0    0  501  0.00000000000E+00  0.00000000000E+00  0.27971537794E+04  0.27971537794E+04  0.50400001928E-02 0.  1.
        1   -1    0    0  501    0  0.00000000000E+00  0.00000000000E+00 -0.80427070952E+03  0.80427070954E+03  0.50400001928E-02 0. -1.
    10030    2    1    2    0    0  0.00000000000E+00  0.00000000000E+00  0.19928830699E+04  0.36014244889E+04  0.29997792284E+04 0.  0.
        2    1    3    3  502    0  0.14074637445E+04  0.37680719744E+03  0.14238335935E+04  0.20372137733E+04  0.25500000920E-02 0.  1.
       -2    1    3    3    0  502 -0.14074637445E+04 -0.37680719744E+03  0.56904947636E+03  0.15642107156E+04  0.25500000920E-02 0. -1.
</event>
<event>
 5   0  0.6464436E-08  0.2994782E+04  0.7818609E-02  0.8245222E-01
       -1   -1    0    0    0  501  0.00000000000E+00  0.00000000000E+00  0.10796497834E+04  0.10796497834E+04  0.50400001928E-02 0.  1.
        1   -1    0    0  501    0  0.00000000000E+00  0.00000000000E+00 -0.20767664352E+04  0.20767664353E+04  0.50400001928E-02 0. -1.
    10030    2    1    2    0    0  0.00000000000E+00  0.00000000000E+00 -0.99711665182E+03  0.31564162187E+04  0.29947824175E+04 0.  0.
        5    1    3    3  502    0  0.17349993100E+03 -0.65984303542E+03 -0.19034135001E+04  0.20220039812E+04  0.46999998093E+01 0. -1.
       -5    1    3    3    0  502 -0.17349993100E+03  0.65984303542E+03  0.90629684829E+03  0.11344122375E+04  0.46999998093E+01 0.  1.
</event>
<event>
 5   0  0.1817566E-07  0.2999120E+04  0.7818609E-02  0.8243982E-01
       -2   -1    0    0    0  501  0.00000000000E+00  0.00000000000E+00  0.99692559676E+03  0.99692559676E+03  0.25500000920E-02 0.  1.
        2   -1    0    0  501    0  0.00000000000E+00  0.00000000000E+00 -0.22556142298E+04  0.22556142298E+04  0.25500000920E-02 0. -1.
    10030    2    1    2    0    0  0.00000000000E+00  0.00000000000E+00 -0.12586886330E+04  0.32525398265E+04  0.29991195789E+04 0.  0.
        1    1    3    3  502    0  0.10552749258E+04  0.81904474435E+03  0.10958035395E+03  0.13403161255E+04  0.50400001928E-02 0.  1.
       -1    1    3    3    0  502 -0.10552749258E+04 -0.81904474435E+03 -0.13682689870E+04  0.19122237011E+04  0.50400001928E-02 0. -1.
</event>
<event>
 5   0  0.1810055E-07  0.3002447E+04  0.7818609E-02  0.8243032E-01
       -2   -1    0    0    0  501  0.00000000000E+00  0.00000000000E+00  0.86738574461E+03  0.86738574462E+03  0.25500000920E-02 0. -1.
        2   -1    0    0  501    0  0.00000000000E+00  0.00000000000E+00 -0.25982358223E+04  0.25982358223E+04  0.25500000920E-02 0.  1.
    10030    2    1    2    0    0  0.00000000000E+00  0.00000000000E+00 -0.17308500777E+04  0.34656215669E+04  0.30024474773E+04 0.  0.
        4    1    3    3  502    0  0.15001006405E+04 -0.57097793223E+02 -0.85337355456E+03  0.17267918596E+04  0.12699999809E+01 0.  1.
       -4    1    3    3    0  502 -0.15001006405E+04  0.57097793223E+02 -0.87747652315E+03  0.17388297074E+04  0.12699999809E+01 0. -1.
</event>
<event>
 5   0  0.1813720E-07  0.3001436E+04  0.7818609E-02  0.8243321E-01
        2   -1    0    0  501    0  0.00000000000E+00  0.00000000000E+00  0.17849966158E+04  0.17849966158E+04  0.25500000920E-02 0.  1.
       -2   -1    0    0    0  501  0.00000000000E+00  0.00000000000E+00 -0.12617134025E+04  0.12617134025E+04  0.25500000920E-02 0. -1.
    10030    2    1    2    0    0  0.00000000000E+00  0.00000000000E+00  0.52328321337E+03  0.30467100183E+04  0.30014357588E+04 0.  0.
        3    1    3    3  502    0 -0.12086191436E+04  0.31733366389E+03  0.11052573497E+04  0.16682489945E+04  0.10100000352E+00 0. -1.
       -3    1    3    3    0  502  0.12086191436E+04 -0.31733366389E+03 -0.58197413630E+03  0.13784610238E+04  0.10100000352E+00 0.  1.
</event>
<event>
 5   0  0.6636007E-08  0.2999681E+04  0.7818609E-02  0.8243822E-01
        1   -1    0    0  501    0  0.00000000000E+00  0.00000000000E+00  0.15306872029E+04  0.15306872029E+04  0.50400001928E-02 0.  1.
       -1   -1    0    0    0  501  0.00000000000E+00  0.00000000000E+00 -0.14696158007E+04  0.14696158007E+04  0.50400001928E-02 0. -1.
    10030    2    1    2    0    0  0.00000000000E+00  0.00000000000E+00  0.61071402206E+02  0.30003030036E+04  0.29996813826E+04 0.  0.
        2    1    3    3  502    0  0.14812173969E+04  0.23521266129E+03  0.16671869049E+02  0.14998693024E+04  0.25500000920E-02 0. -1.
       -2    1    3    3    0  502 -0.14812173969E+04 -0.23521266129E+03  0.44399533157E+02  0.15004337012E+04  0.25500000920E-02 0.  1.
</event>
<event>
 5   0  0.6636007E-08  0.3000703E+04  0.7818609E-02  0.8243530E-01
       -1   -1    0    0    0  501  0.00000000000E+00  0.00000000000E+00  0.94940896591E+03  0.94940896592E+03  0.50400001928E-02 0.  1.
        1   -1    0    0  501    0  0.00000000000E+00  0.00000000000E+00 -0.23710058671E+04  0.23710058672E+04  0.50400001928E-02 0. -1.
    10030    2    1    2    0    0  0.00000000000E+00  0.00000000000E+00 -0.14215969012E+04  0.33204148331E+04  0.30007027367E+04 0.  0.
        2    1    3    3  502    0 -0.36628941096E+03 -0.12248248028E+04  0.15816798019E+03  0.12881695696E+04  0.25500000920E-02 0.  1.
       -2    1    3    3    0  502  0.36628941096E+03  0.12248248028E+04 -0.15797648814E+04  0.20322452634E+04  0.25500000920E-02 0. -1.
</event>
<event>
 5   0  0.6017625E-08  0.2999598E+04  0.7818609E-02  0.8243846E-01
        3   -1    0    0  501    0  0.00000000000E+00  0.00000000000E+00  0.15302033087E+04  0.15302033120E+04  0.10100000352E+00 0.  1.
       -3   -1    0    0    0  501  0.00000000000E+00  0.00000000000E+00 -0.14699987882E+04  0.14699987917E+04  0.10100000352E+00 0. -1.
    10030    2    1    2    0    0  0.00000000000E+00  0.00000000000E+00  0.60204520419E+02  0.30002021037E+04  0.29995979862E+04 0.  0.
        3    1    3    3  502    0  0.22566877437E+02  0.13308817856E+04 -0.66115299733E+03  0.14862297559E+04  0.10100000352E+00 0. -1.
       -3    1    3    3    0  502 -0.22566877437E+02 -0.13308817856E+04  0.72135751775E+03  0.15139723478E+04  0.10100000352E+00 0.  1.
</event>
<event>
 5   0  0.6017625E-08  0.2998308E+04  0.7818609E-02  0.8244214E-01
        3   -1    0    0  501    0  0.00000000000E+00  0.00000000000E+00  0.25546456990E+04  0.25546457010E+04  0.10100000352E+00 0.  1.
       -3   -1    0    0    0  501  0.00000000000E+00  0.00000000000E+00 -0.87975520965E+03  0.87975521545E+03  0.10100000352E+00 0. -1.
    10030    2    1    2    0    0  0.00000000000E+00  0.00000000000E+00  0.16748904894E+04  0.34344009165E+04  0.29983081069E+04 0.  0.
        4    1    3    3  502    0 -0.37242527425E+03  0.17119592520E+03 -0.81432351709E+03  0.91166497853E+03  0.12699999809E+01 0. -1.
       -4    1    3    3    0  502  0.37242527425E+03 -0.17119592520E+03  0.24892140065E+04  0.25227359379E+04  0.12699999809E+01 0.  1.
</event>
<event>
 5   0  0.6525507E-08  0.2999876E+04  0.7818609E-02  0.8243766E-01
       -1   -1    0    0    0  501  0.00000000000E+00  0.00000000000E+00  0.12495624555E+04  0.12495624555E+04  0.50400001928E-02 0.  1.
        1   -1    0    0  501    0  0.00000000000E+00  0.00000000000E+00 -0.18004812522E+04  0.18004812522E+04  0.50400001928E-02 0. -1.
    10030    2    1    2    0    0  0.00000000000E+00  0.00000000000E+00 -0.55091879672E+03  0.30500437077E+04  0.29998758472E+04 0.  0.
        4    1    3    3  502    0 -0.12699767654E+04 -0.49308902767E+03 -0.91351657604E+03  0.16402719048E+04  0.12699999809E+01 0. -1.
       -4    1    3    3    0  502  0.12699767654E+04  0.49308902767E+03  0.36259777932E+03  0.14097718030E+04  0.12699999809E+01 0.  1.
</event>
<event>
 5   0  0.6374748E-08  0.3000102E+04  0.7818609E-02  0.8243702E-01
       -1   -1    0    0    0  501  0.00000000000E+00  0.00000000000E+00  0.10787905563E+04  0.10787905563E+04  0.50400001928E-02 0.  1.
        1   -1    0    0  501    0  0.00000000000E+00  0.00000000000E+00 -0.20858110076E+04  0.20858110076E+04  0.50400001928E-02 0. -1.
    10030    2    1    2    0    0  0.00000000000E+00  0.00000000000E+00 -0.10070204513E+04  0.31646015638E+04  0.30001021430E+04 0.  0.
        1    1    3    3  502    0 -0.53775094952E+03  0.38664764834E+03 -0.19232209284E+04  0.20340725717E+04  0.50400001928E-02 0. -1.
       -1    1    3    3    0  502  0.53775094952E+03 -0.38664764834E+03  0.91620047709E+03  0.11305289921E+04  0.50400001928E-02 0.  1.
</event>
<event>
 5   0  0.1810055E-07  0.2999570E+04  0.7818609E-02  0.8243854E-01
        2   -1    0    0  501    0  0.00000000000E+00  0.00000000000E+00  0.12231686436E+04  0.12231686436E+04  0.25500000920E-02 0.  1.
       -2   -1    0    0    0  501  0.00000000000E+00  0.00000000000E+00 -0.18389576561E+04  0.18389576561E+04  0.25500000920E-02 0. -1.
    10030    2    1    2    0    0  0.00000000000E+00  0.00000000000E+00 -0.61578901255E+03  0.30621262997E+04  0.29995701972E+04 0.  0.
        4    1    3    3  502    0 -0.45663895563E+03  0.44621003726E+03 -0.16933009134E+04  0.18096663033E+04  0.12699999809E+01 0. -1.
       -4    1    3    3    0  502  0.45663895563E+03 -0.44621003726E+03  0.10775119009E+04  0.12524599964E+04  0.12699999809E+01 0.  1.
</event>
<event>
 5   0  0.1914439E-07  0.3003941E+04  0.7818609E-02  0.8242607E-01
        2   -1    0    0  501    0  0.00000000000E+00  0.00000000000E+00  0.16255596568E+04  0.16255596568E+04  0.25500000920E-02 0. -1.
       -2   -1    0    0    0  501  0.00000000000E+00  0.00000000000E+00 -0.13877773236E+04  0.13877773236E+04  0.25500000920E-02 0.  1.
    10030    2    1    2    0    0  0.00000000000E+00  0.00000000000E+00  0.23778233318E+03  0.30133369804E+04  0.30039406319E+04 0.  0.
        5    1    3    3  502    0  0.14858493893E+04 -0.21791911592E+03  0.14457577494E+03  0.15086952619E+04  0.46999998093E+01 0. -1.
       -5    1    3    3    0  502 -0.14858493893E+04  0.21791911592E+03  0.93206558239E+02  0.15046417185E+04  0.46999998093E+01 0.  1.
</event>
<event>
 5   0  0.6464436E-08  0.2999658E+04  0.7818609E-02  0.8243829E-01
        1   -1    0    0  501    0  0.00000000000E+00  0.00000000000E+00  0.19903719569E+04  0.19903719569E+04  0.50400001928E-02 0.  1.
       -1   -1    0    0    0  501  0.00000000000E+00  0.00000000000E+00 -0.11301840559E+04  0.11301840559E+04  0.50400001928E-02 0. -1.
    10030    2    1    2    0    0  0.00000000000E+00  0.00000000000E+00  0.86018790106E+03  0.31205560128E+04  0.29996577478E+04 0.  0.
        5    1    3    3  502    0 -0.27685290720E+03  0.13363851941E+03  0.19572367859E+04  0.19812381766E+04  0.46999998093E+01 0.  1.
       -5    1    3    3    0  502  0.27685290720E+03 -0.13363851941E+03 -0.10970488849E+04  0.11393178362E+04  0.46999998093E+01 0. -1.
</event>
<event>
 5   0  0.1817566E-07  0.3000096E+04  0.7818609E-02  0.8243703E-01
       -2   -1    0    0    0  501  0.00000000000E+00  0.00000000000E+00  0.93641522553E+03  0.93641522554E+03  0.25500000920E-02 0.  1.
        2   -1    0    0  501    0  0.00000000000E+00  0.00000000000E+00 -0.24029339664E+04  0.24029339664E+04  0.25500000920E-02 0. -1.
    10030    2    1    2    0    0  0.00000000000E+00  0.00000000000E+00 -0.14665187408E+04  0.33393491919E+04  0.30000959665E+04 0.  0.
        1    1    3    3  502    0 -0.12150036933E+04  0.31424282121E+03  0.18133915974E+03  0.12680167256E+04  0.50400001928E-02 0.  1.
       -1    1    3    3    0  502  0.12150036933E+04 -0.31424282121E+03 -0.16478579006E+04  0.20713324663E+04  0.50400001928E-02 0. -1.
</event>
<event>
 5   0  0.1821305E-07  0.2999333E+04  0.7818609E-02  0.8243921E-01
        2   -1    0    0  501    0  0.00000000000E+00  0.00000000000E+00  0.25960301531E+04  0.25960301531E+04  0.25500000920E-02 0. -1.
       -2   -1    0    0    0  501  0.00000000000E+00  0.00000000000E+00 -0.86632255461E+03  0.86632255462E+03  0.25500000920E-02 0.  1.
    10030    2    1    2    0    0  0.00000000000E+00  0.00000000000E+00  0.17297075985E+04  0.34623527077E+04  0.29993329086E+04 0.  0.
        2    1    3    3  502    0 -0.24964825360E+03  0.84628416917E+03 -0.53497830225E+03  0.10318541221E+04  0.25500000920E-02 0.  1.
       -2    1    3    3    0  502  0.24964825360E+03 -0.84628416917E+03  0.22646859008E+04  0.24304985856E+04  0.25500000920E-02 0. -1.
</event>
<event>
 5   0  0.1821305E-07  0.3000304E+04  0.7818609E-02  0.8243644E-01
       -2   -1    0    0    0  501  0.00000000000E+00  0.00000000000E+00  0.17218772985E+04  0.17218772985E+04  0.25500000920E-02 0.  1.
        2   -1    0    0  501    0  0.00000000000E+00  0.00000000000E+00 -0.13069778537E+04  0.13069778537E+04  0.25500000920E-02 0. -1.
    10030    2    1    2    0    0  0.00000000000E+00  0.00000000000E+00  0.41489944486E+03  0.30288551522E+04  0.30003036486E+04 0.  0.
        2    1    3    3  502    0  0.11434027580E+04 -0.90381896148E+03  0.56607232797E+03  0.15635525136E+04  0.25500000920E-02 0.  1.
       -2    1    3    3    0  502 -0.11434027580E+04  0.90381896148E+03 -0.15117288311E+03  0.14653026386E+04  0.25500000920E-02 0. -1.
</event>
<event>
 5   0  0.6525507E-08  0.2995375E+04  0.7818609E-02  0.8245053E-01
       -1   -1    0    0    0  501  0.00000000000E+00  0.00000000000E+00  0.13066285642E+04  0.13066285642E+04  0.50400001928E-02 0. -1.
        1   -1    0    0  501    0  0.00000000000E+00  0.00000000000E+00 -0.17166840902E+04  0.17166840902E+04  0.50400001928E-02 0.  1.
    10030    2    1    2    0    0  0.00000000000E+00  0.00000000000E+00 -0.41005552605E+03  0.30233126544E+04  0.29953754141E+04 0.  0.
        4    1    3    3  502    0  0.12842088980E+04 -0.28502452598E+03 -0.92769121200E+03  0.16096720386E+04  0.12699999809E+01 0.  1.
       -4    1    3    3    0  502 -0.12842088980E+04  0.28502452598E+03  0.51763568595E+03  0.14136406157E+04  0.12699999809E+01 0. -1.
</event>
<event>
 5   0  0.6374748E-08  0.3000138E+04  0.7818609E-02  0.8243691E-01
       -1   -1    0    0    0  501  0.00000000000E+00  0.00000000000E+00  0.23733630206E+04  0.23733630206E+04  0.50400001928E-02 0. -1.
        1   -1    0    0  501    0  0.00000000000E+00  0.00000000000E+00 -0.94810936901E+03  0.94810936902E+03  0.50400001928E-02 0.  1.
    10030    2    1    2    0    0  0.00000000000E+00  0.00000000000E+00  0.14252536516E+04  0.33214723896E+04  0.30001384741E+04 0.  0.
        1    1    3    3  502    0  0.14451803978E+04  0.37336163054E+03  0.87781372296E+03  0.17316183822E+04  0.50400001928E-02 0.  1.
       -1    1    3    3    0  502 -0.14451803978E+04 -0.37336163054E+03  0.54743992860E+03  0.15898540074E+04  0.50400001928E-02 0. -1.
</event>
<event>
 5   0  0.1914439E-07  0.2994916E+04  0.7818609E-02  0.8245184E-01
       -2   -1    0    0    0  501  0.00000000000E+00  0.00000000000E+00  0.14335686367E+04  0.14335686367E+04  0.25500000920E-02 0. -1.
        2   -1    0    0  501    0  0.00000000000E+00  0.00000000000E+00 -0.15641944835E+04  0.15641944835E+04  0.25500000920E-02 0.  1.
    10030    2    1    2    0    0  0.00000000000E+00  0.00000000000E+00 -0.13062584678E+03  0.29977631203E+04  0.29949157940E+04 0.  0.
        5    1    3    3  502    0  0.28843602191E+03  0.96996021516E+03  0.10395208229E+04  0.14507390492E+04  0.46999998093E+01 0. -1.
       -5    1    3    3    0  502 -0.28843602191E+03 -0.96996021516E+03 -0.11701466697E+04  0.15470240710E+04  0.46999998093E+01 0.  1.
</event>
<event>
 5   0  0.6464436E-08  0.3000846E+04  0.7818609E-02  0.8243489E-01
       -1   -1    0    0    0  501  0.00000000000E+00  0.00000000000E+00  0.11777075113E+04  0.11777075113E+04  0.50400001928E-02 0.  1.
        1   -1    0    0  501    0  0.00000000000E+00  0.00000000000E+00 -0.19115690304E+04  0.19115690304E+04  0.50400001928E-02 0. -1.
    10030    2    1    2    0    0  0.00000000000E+00  0.00000000000E+00 -0.73386151912E+03  0.30892765417E+04  0.30008460177E+04 0.  0.
        5    1    3    3  502    0 -0.10819371600E+03  0.10629250776E+04 -0.14514119786E+04  0.18022581453E+04  0.46999998093E+01 0. -1.
       -5    1    3    3    0  502  0.10819371600E+03 -0.10629250776E+04  0.71755045947E+03  0.12870183964E+04  0.46999998093E+01 0.  1.
</event>
<event>
 5   0  0.1821305E-07  0.3000467E+04  0.7818609E-02  0.8243597E-01
        2   -1    0    0  501    0  0.00000000000E+00  0.00000000000E+00  0.13559160167E+04  0.13559160167E+04  0.25500000920E-02 0. -1.
       -2   -1    0    0    0  501  0.00000000000E+00  0.00000000000E+00 -0.16599118053E+04  0.16599118053E+04  0.25500000920E-02 0.  1.
    10030    2    1    2    0    0  0.00000000000E+00  0.00000000000E+00 -0.30399578859E+03  0.30158278220E+04  0.30004672990E+04 0.  0.
        2    1    3    3  502    0  0.71957278652E+03  0.18517954739E+03  0.11579871664E+04  0.13758672674E+04  0.25500000920E-02 0. -1.
       -2    1    3    3    0  502 -0.71957278652E+03 -0.18517954739E+03 -0.14619829550E+04  0.16399605546E+04  0.25500000920E-02 0.  1.
</event>
<event>
 5   0  0.1810055E-07  0.2998714E+04  0.7818609E-02  0.8244098E-01
        2   -1    0    0  501    0  0.00000000000E+00  0.00000000000E+00  0.18332351422E+04  0.18332351422E+04  0.25500000920E-02 0. -1.
       -2   -1    0    0    0  501  0.00000000000E+00  0.00000000000E+00 -0.12262864066E+04  0.12262864066E+04  0.25500000920E-02 0.  1.
    10030    2    1    2    0    0  0.00000000000E+00  0.00000000000E+00  0.60694873561E+03  0.30595215488E+04  0.29987139477E+04 0.  0.
        4    1    3    3  502    0  0.21498832182E+03 -0.10844202360E+04 -0.72992284643E+03  0.13247551477E+04  0.12699999809E+01 0.  1.
       -4    1    3    3    0  502 -0.21498832182E+03  0.10844202360E+04  0.13368715820E+04  0.17347664011E+04  0.12699999809E+01 0. -1.
</event>
<event>
 5   0  0.6525507E-08  0.3000402E+04  0.7818609E-02  0.8243616E-01
        1   -1    0    0  501    0  0.00000000000E+00  0.00000000000E+00  0.25251669064E+04  0.25251669065E+04  0.50400001928E-02 0. -1.
       -1   -1    0    0    0  501  0.00000000000E+00  0.00000000000E+00 -0.89126929658E+03  0.89126929660E+03  0.50400001928E-02 0.  1.
    10030    2    1    2    0    0  0.00000000000E+00  0.00000000000E+00  0.16338976099E+04  0.34164362030E+04  0.30004024613E+04 0.  0.
        4    1    3    3  502    0 -0.11335998471E+04  0.81710419861E+03  0.19547210429E+03  0.14109992350E+04  0.12699999809E+01 0. -1.
       -4    1    3    3    0  502  0.11335998471E+04 -0.81710419861E+03  0.14384255056E+04  0.20054369680E+04  0.12699999809E+01 0.  1.
</event>
<event>
 5   0  0.1914439E-07  0.3001556E+04  0.7818609E-02  0.8243287E-01
        2   -1    0    0  501    0  0.00000000000E+00  0.00000000000E+00  0.24351244769E+04  0.24351244769E+04  0.25500000920E-02 0. -1.
       -2   -1    0    0    0  501  0.00000000000E+00  0.00000000000E+00 -0.92493590676E+03  0.92493590676E+03  0.25500000920E-02 0.  1.
    10030    2    1    2    0    0  0.00000000000E+00  0.00000000000E+00  0.15101885701E+04  0.33600603836E+04  0.30015556407E+04 0.  0.
        5    1    3    3  502    0  0.11838949400E+04 -0.43370069033E+03  0.16663267233E+04  0.20895861687E+04  0.46999998093E+01 0. -1.
       -5    1    3    3    0  502 -0.11838949400E+04  0.43370069033E+03 -0.15613815317E+03  0.12704742149E+04  0.46999998093E+01 0.  1.
</event>
<event>
 5   0  0.1813720E-07  0.3000271E+04  0.7818609E-02  0.8243654E-01
        2   -1    0    0  501    0  0.00000000000E+00  0.00000000000E+00  0.31937747810E+04  0.31937747810E+04  0.25500000920E-02 0.  1.
       -2   -1    0    0    0  501  0.00000000000E+00  0.00000000000E+00 -0.70462270419E+03  0.70462270420E+03  0.25500000920E-02 0. -1.
    10030    2    1    2    0    0  0.00000000000E+00  0.00000000000E+00  0.24891520768E+04  0.38983974852E+04  0.30002708030E+04 0.  0.
        3    1    3    3  502    0  0.52962964865E+03  0.48179867384E+03  0.29574351649E+04  0.30428704034E+04  0.10100000352E+00 0.  1.
       -3    1    3    3    0  502 -0.52962964865E+03 -0.48179867384E+03 -0.46828308814E+03  0.85552708179E+03  0.10100000352E+00 0. -1.
</event>
<event>
 5   0  0.1810055E-07  0.2997534E+04  0.7818609E-02  0.8244435E-01
        2   -1    0    0  501    0  0.00000000000E+00  0.00000000000E+00  0.22251096230E+04  0.22251096230E+04  0.25500000920E-02 0.  1.
       -2   -1    0    0    0  501  0.00000000000E+00  0.00000000000E+00 -0.10095245862E+04  0.10095245862E+04  0.25500000920E-02 0. -1.
    10030    2    1    2    0    0  0.00000000000E+00  0.00000000000E+00  0.12155850369E+04  0.32346342092E+04  0.29975342343E+04 0.  0.
        4    1    3    3  502    0  0.38632484220E+03 -0.15692496607E+03  0.21612552780E+04  0.22011129726E+04  0.12699999809E+01 0.  1.
       -4    1    3    3    0  502 -0.38632484220E+03  0.15692496607E+03 -0.94567024112E+03  0.10335212366E+04  0.12699999809E+01 0. -1.
</event>
<event>
 5   0  0.6636007E-08  0.3001147E+04  0.7818609E-02  0.8243403E-01
       -1   -1    0    0    0  501  0.00000000000E+00  0.00000000000E+00  0.17799506117E+04  0.17799506117E+04  0.50400001928E-02 0.  1.
        1   -1    0    0  501    0  0.00000000000E+00  0.00000000000E+00 -0.12650471540E+04  0.12650471540E+04  0.50400001928E-02 0. -1.
    10030    2    1    2    0    0  0.00000000000E+00  0.00000000000E+00  0.51490345773E+03  0.30449977657E+04  0.30011474177E+04 0.  0.
        2    1    3    3  502    0  0.10390111212E+03  0.73357898922E+03  0.15814271566E+04  0.17463806648E+04  0.25500000920E-02 0.  1.
       -2    1    3    3    0  502 -0.10390111212E+03 -0.73357898922E+03 -0.10665236989E+04  0.12986171009E+04  0.25500000920E-02 0. -1.
</event>
<event>
 5   0  0.1813720E-07  0.2998229E+04  0.7818609E-02  0.8244237E-01
        2   -1    0    0  501    0  0.00000000000E+00  0.00000000000E+00  0.10304697986E+04  0.10304697986E+04  0.25500000920E-02 0.  1.
       -2   -1    0    0    0  501  0.00000000000E+00  0.00000000000E+00 -0.21808927272E+04  0.21808927272E+04  0.25500000920E-02 0. -1.
    10030    2    1    2    0    0  0.00000000000E+00  0.00000000000E+00 -0.11504229286E+04  0.32113625259E+04  0.29982288702E+04 0.  0.
        3    1    3    3  502    0  0.77094586414E+03 -0.12238115077E+04 -0.15315451686E+03  0.14544856300E+04  0.10100000352E+00 0.  1.
       -3    1    3    3    0  502 -0.77094586414E+03  0.12238115077E+04 -0.99726841174E+03  0.17568768958E+04  0.10100000352E+00 0. -1.
</event>
<event>
 5   0  0.6464436E-08  0.2997572E+04  0.7818609E-02  0.8244425E-01
       -1   -1    0    0    0  501  0.00000000000E+00  0.00000000000E+00  0.73043397412E+03  0.73043397414E+03  0.50400001928E-02 0. -1.
        1   -1    0    0  501    0  0.00000000000E+00  0.00000000000E+00 -0.30753757626E+04  0.30753757626E+04  0.50400001928E-02 0.  1.
    10030    2    1    2    0    0  0.00000000000E+00  0.00000000000E+00 -0.23449417885E+04  0.38058097368E+04  0.29975716440E+04 0.  0.
        5    1    3    3  502    0  0.65891997791E+03 -0.12399203242E+04 -0.50696272996E+03  0.14928533910E+04  0.46999998093E+01 0. -1.
       -5    1    3    3    0  502 -0.65891997791E+03  0.12399203242E+04 -0.18379790585E+04  0.23129563457E+04  0.46999998093E+01 0.  1.
</event>
<event>
 5   0  0.1810055E-07  0.2999739E+04  0.7818609E-02  0.8243806E-01
        2   -1    0    0  501    0  0.00000000000E+00  0.00000000000E+00  0.15108942281E+04  0.15108942281E+04  0.25500000920E-02 0.  1.
       -2   -1    0    0    0  501  0.00000000000E+00  0.00000000000E+00 -0.14889249112E+04  0.14889249112E+04  0.25500000920E-02 0. -1.
    10030    2    1    2    0    0  0.00000000000E+00  0.00000000000E+00  0.21969316883E+02  0.29998191394E+04  0.29997386916E+04 0.  0.
        4    1    3    3  502    0 -0.12078391819E+03  0.13365398255E+04  0.68083766288E+03  0.15048152697E+04  0.12699999809E+01 0.  1.
       -4    1    3    3    0  502  0.12078391819E+03 -0.13365398255E+04 -0.65886834600E+03  0.14950038696E+04  0.12699999809E+01 0. -1.
</event>
<event>
 5   0  0.6374748E-08  0.2999422E+04  0.7818609E-02  0.8243896E-01
       -1   -1    0    0    0  501  0.00000000000E+00  0.00000000000E+00  0.73399439815E+03  0.73399439816E+03  0.50400001928E-02 0. -1.
        1   -1    0    0  501    0  0.00000000000E+00  0.00000000000E+00 -0.30642383232E+04  0.30642383232E+04  0.50400001928E-02 0.  1.
    10030    2    1    2    0    0  0.00000000000E+00  0.00000000000E+00 -0.23302439250E+04  0.37982327214E+04  0.29994224536E+04 0.  0.
        1    1    3    3  502    0 -0.29989358033E+03 -0.10078067406E+04  0.18902692856E+03  0.10683359798E+04  0.50400001928E-02 0. -1.
       -1    1    3    3    0  502  0.29989358033E+03  0.10078067406E+04 -0.25192708536E+04  0.27298967416E+04  0.50400001928E-02 0.  1.
</event>
<event>
 5   0  0.1914439E-07  0.2981337E+04  0.7818609E-02  0.8249080E-01
        2   -1    0    0  501    0  0.00000000000E+00  0.00000000000E+00  0.16698274388E+04  0.16698274388E+04  0.25500000920E-02 0. -1.
       -2   -1    0    0    0  501  0.00000000000E+00  0.00000000000E+00 -0.13307316945E+04  0.13307316945E+04  0.25500000920E-02 0.  1.
    10030    2    1    2    0    0  0.00000000000E+00  0.00000000000E+00  0.33909574426E+03  0.30005591332E+04  0.29813368123E+04 0.  0.
        5    1    3    3  502    0  0.14337479998E+04 -0.29979649798E+03 -0.10892898158E+03  0.14688086601E+04  0.46999998093E+01 0.  1.
       -5    1    3    3    0  502 -0.14337479998E+04  0.29979649798E+03  0.44802472584E+03  0.15317504731E+04  0.46999998093E+01 0. -1.
</event>
<event>
 5   0  0.6464436E-08  0.2999819E+04  0.7818609E-02  0.8243783E-01
        1   -1    0    0  501    0  0.00000000000E+00  0.00000000000E+00  0.18467628669E+04  0.18467628669E+04  0.50400001928E-02 0.  1.
       -1   -1    0    0    0  501  0.00000000000E+00  0.00000000000E+00 -0.12182012656E+04  0.12182012656E+04  0.50400001928E-02 0. -1.
    10030    2    1    2    0    0  0.00000000000E+00  0.00000000000E+00  0.62856160127E+03  0.30649641326E+04  0.29998192358E+04 0.  0.
        5    1    3    3  502    0  0.12998582471E+04  0.27540700224E+03 -0.39669446863E+03  0.13866755464E+04  0.46999998093E+01 0. -1.
       -5    1    3    3    0  502 -0.12998582471E+04 -0.27540700224E+03  0.10252560699E+04  0.16782885862E+04  0.46999998093E+01 0.  1.
</event>
<event>
 5   0  0.6464436E-08  0.2999090E+04  0.7818609E-02  0.8243991E-01
        1   -1    0    0  501    0  0.00000000000E+00  0.00000000000E+00  0.21981677186E+04  0.21981677186E+04  0.50400001928E-02 0. -1.
       -1   -1    0    0    0  501  0.00000000000E+00  0.00000000000E+00 -0.10229586458E+04  0.10229586458E+04  0.50400001928E-02 0.  1.
    10030    2    1    2    0    0  0.00000000000E+00  0.00000000000E+00  0.11752090729E+04  0.32211263644E+04  0.29990896436E+04 0.  0.
        5    1    3    3  502    0  0.13105291055E+04  0.31206888449E+03 -0.11974256970E+03  0.13524917368E+04  0.46999998093E+01 0.  1.
       -5    1    3    3    0  502 -0.13105291055E+04 -0.31206888449E+03  0.12949516426E+04  0.18686346276E+04  0.46999998093E+01 0. -1.
</event>
<event>
 5   0  0.1914439E-07  0.3000317E+04  0.7818609E-02  0.8243640E-01
        2   -1    0    0  501    0  0.00000000000E+00  0.00000000000E+00  0.16845735637E+04  0.16845735637E+04  0.25500000920E-02 0.  1.
       -2   -1    0    0    0  501  0.00000000000E+00  0.00000000000E+00 -0.13359315270E+04  0.13359315271E+04  0.25500000920E-02 0. -1.
    10030    2    1    2    0    0  0.00000000000E+00  0.00000000000E+00  0.34864203669E+03  0.30205050908E+04  0.30003166056E+04 0.  0.
        5    1    3    3  502    0  0.73095141064E+03  0.82108159738E+03 -0.85332565811E+03  0.13916363473E+04  0.46999998093E+01 0. -1.
       -5    1    3    3    0  502 -0.73095141064E+03 -0.82108159738E+03  0.12019676948E+04  0.16288687435E+04  0.46999998093E+01 0.  1.
</event>
<event>
 5   0  0.6525507E-08  0.2998166E+04  0.7818609E-02  0.8244255E-01
       -1   -1    0    0    0  501  0.00000000000E+00  0.00000000000E+00  0.16425901461E+04  0.16425901461E+04  0.50400001928E-02 0. -1.
        1   -1    0    0  501    0  0.00000000000E+00  0.00000000000E+00 -0.13681136948E+04  0.13681136948E+04  0.50400001928E-02 0.  1.
    10030    2    1    2    0    0  0.00000000000E+00  0.00000000000E+00  0.27447645129E+03  0.30107038410E+04  0.29981661555E+04 0.  0.
        4    1    3    3  502    0 -0.11624776297E+03 -0.12293852709E+04  0.99070222815E+03  0.15831595638E+04  0.12699999809E+01 0. -1.
       -4    1    3    3    0  502  0.11624776297E+03  0.12293852709E+04 -0.71622577687E+03  0.14275442771E+04  0.12699999809E+01 0.  1.
</event>
<event>
 5   0  0.6525507E-08  0.2999818E+04  0.7818609E-02  0.8243783E-01
       -1   -1    0    0    0  501  0.00000000000E+00  0.00000000000E+00  0.13634639542E+04  0.13634639542E+04  0.50400001928E-02 0.  1.
        1   -1    0    0  501    0  0.00000000000E+00  0.00000000000E+00 -0.16500084730E+04  0.16500084730E+04  0.50400001928E-02 0. -1.
    10030    2    1    2    0    0  0.00000000000E+00  0.00000000000E+00 -0.28654451882E+03  0.30134724272E+04  0.29998180458E+04 0.  0.
        4    1    3    3  502    0  0.11822460418E+04  0.11135971715E+03  0.77720566892E+03  0.14192099755E+04  0.12699999809E+01 0.  1.
       -4    1    3    3    0  502 -0.11822460418E+04 -0.11135971715E+03 -0.10637501877E+04  0.15942624516E+04  0.12699999809E+01 0. -1.
</event>
<event>
 5   0  0.6464436E-08  0.2999938E+04  0.7818609E-02  0.8243749E-01
        1   -1    0    0  501    0  0.00000000000E+00  0.00000000000E+00  0.18561316406E+04  0.18561316407E+04  0.50400001928E-02 0. -1.
       -1   -1    0    0    0  501  0.00000000000E+00  0.00000000000E+00 -0.12121485609E+04  0.12121485609E+04  0.50400001928E-02 0.  1.
    10030    2    1    2    0    0  0.00000000000E+00  0.00000000000E+00  0.64398307975E+03  0.30682802016E+04  0.29999381974E+04 0.  0.
        5    1    3    3  502    0  0.12303777514E+04  0.85784112015E+03  0.33510583052E+03  0.15368925812E+04  0.46999998093E+01 0. -1.
       -5    1    3    3    0  502 -0.12303777514E+04 -0.85784112015E+03  0.30887724923E+03  0.15313876203E+04  0.46999998093E+01 0.  1.
</event>
<event>
 5   0  0.6525507E-08  0.3000102E+04  0.7818609E-02  0.8243702E-01
       -1   -1    0    0    0  501  0.00000000000E+00  0.00000000000E+00  0.12570550616E+04  0.12570550616E+04  0.50400001928E-02 0. -1.
        1   -1    0    0  501    0  0.00000000000E+00  0.00000000000E+00 -0.17900197776E+04  0.17900197776E+04  0.50400001928E-02 0.  1.
    10030    2    1    2    0    0  0.00000000000E+00  0.00000000000E+00 -0.53296471593E+03  0.30470748392E+04  0.30001022795E+04 0.  0.
        4    1    3    3  502    0 -0.72240100898E+03  0.91545253514E+02  0.10655036897E+04  0.12905593659E+04  0.12699999809E+01 0. -1.
       -4    1    3    3    0  502  0.72240100898E+03 -0.91545253514E+02 -0.15984684056E+04  0.17565154733E+04  0.12699999809E+01 0.  1.
</event>
<event>
 5   0  0.6525507E-08  0.3000132E+04  0.7818609E-02  0.8243693E-01
        1   -1    0    0  501    0  0.00000000000E+00  0.00000000000E+00  0.15666536975E+04  0.15666536975E+04  0.50400001928E-02 0. -1.
       -1   -1    0    0    0  501  0.00000000000E+00  0.00000000000E+00 -0.14363084564E+04  0.14363084564E+04  0.50400001928E-02 0.  1.
    10030    2    1    2    0    0  0.00000000000E+00  0.00000000000E+00  0.13034524104E+03  0.30029621539E+04  0.30001319664E+04 0.  0.
        4    1    3    3  502    0 -0.80475750899E+03 -0.27898175888E+03  0.13011374059E+04  0.15551288153E+04  0.12699999809E+01 0. -1.
       -4    1    3    3    0  502  0.80475750899E+03  0.27898175888E+03 -0.11707921649E+04  0.14478333386E+04  0.12699999809E+01 0.  1.
</event>
<event>
 5   0  0.6525507E-08  0.2999122E+04  0.7818609E-02  0.8243982E-01
       -1   -1    0    0    0  501  0.00000000000E+00  0.00000000000E+00  0.16265018174E+04  0.16265018174E+04  0.50400001928E-02 0. -1.
        1   -1    0    0  501    0  0.00000000000E+00  0.00000000000E+00 -0.13825276139E+04  0.13825276139E+04  0.50400001928E-02 0.  1.
    10030    2    1    2    0    0  0.00000000000E+00  0.00000000000E+00  0.24397420351E+03  0.30090294313E+04  0.29991223227E+04 0.  0.
        4    1    3    3  502    0 -0.75255536709E+03  0.10490669554E+04 -0.64329135955E+03  0.14424654046E+04  0.12699999809E+01 0.  1.
       -4    1    3    3    0  502  0.75255536709E+03 -0.10490669554E+04  0.88726556305E+03  0.15665640267E+04  0.12699999809E+01 0. -1.
</event>
<event>
 5   0  0.6374748E-08  0.3005521E+04  0.7818609E-02  0.8242156E-01
        1   -1    0    0  501    0  0.00000000000E+00  0.00000000000E+00  0.12588237018E+04  0.12588237018E+04  0.50400001928E-02 0.  1.
       -1   -1    0    0    0  501  0.00000000000E+00  0.00000000000E+00 -0.17939677071E+04  0.17939677071E+04  0.50400001928E-02 0. -1.
    10030    2    1    2    0    0  0.00000000000E+00  0.00000000000E+00 -0.53514400525E+03  0.30527914089E+04  0.30055209665E+04 0.  0.
        1    1    3    3  502    0  0.61517163384E+03 -0.15693512785E+03  0.11159165836E+04  0.12838748362E+04  0.50400001928E-02 0.  1.
       -1    1    3    3    0  502 -0.61517163384E+03  0.15693512785E+03 -0.16510605888E+04  0.17689165728E+04  0.50400001928E-02 0. -1.
</event>
<event>
 5   0  0.1821305E-07  0.2998619E+04  0.7818609E-02  0.8244125E-01
       -2   -1    0    0    0  501  0.00000000000E+00  0.00000000000E+00  0.12296491871E+04  0.12296491871E+04  0.25500000920E-02 0. -1.
        2   -1    0    0  501    0  0.00000000000E+00  0.00000000000E+00 -0.18281056031E+04  0.18281056031E+04  0.25500000920E-02 0.  1.
    10030    2    1    2    0    0  0.00000000000E+00  0.00000000000E+00 -0.59845641603E+03  0.30577547902E+04  0.29986187278E+04 0.  0.
        2    1    3    3  502    0 -0.20739654345E+03  0.46613085252E+03  0.11384112101E+04  0.12475060646E+04  0.25500000920E-02 0. -1.
       -2    1    3    3    0  502  0.20739654345E+03 -0.46613085252E+03 -0.17368676261E+04  0.18102487256E+04  0.25500000920E-02 0.  1.
</event>
<event>
 5   0  0.6374748E-08  0.2999894E+04  0.7818609E-02  0.8243761E-01
        1   -1    0    0  501    0  0.00000000000E+00  0.00000000000E+00  0.19757486994E+04  0.19757486994E+04  0.50400001928E-02 0.  1.
       -1   -1    0    0    0  501  0.00000000000E+00  0.00000000000E+00 -0.11387286430E+04  0.11387286430E+04  0.50400001928E-02 0. -1.
    10030    2    1    2    0    0  0.00000000000E+00  0.00000000000E+00  0.83702005640E+03  0.31144773424E+04  0.29998944217E+04 0.  0.
        1    1    3    3  502    0  0.14737659262E+04 -0.29140357698E+02  0.70660973203E+03  0.16346658617E+04  0.50400001928E-02 0. -1.
       -1    1    3    3    0  502 -0.14737659262E+04  0.29140357698E+02  0.13041032437E+03  0.14798114807E+04  0.50400001928E-02 0.  1.
</event>
<event>
 5   0  0.6374748E-08  0.3002012E+04  0.7818609E-02  0.8243156E-01
       -1   -1    0    0    0  501  0.00000000000E+00  0.00000000000E+00  0.12793251054E+04  0.12793251054E+04  0.50400001928E-02 0. -1.
        1   -1    0    0  501    0  0.00000000000E+00  0.00000000000E+00 -0.17611001429E+04  0.17611001429E+04  0.50400001928E-02 0.  1.
    10030    2    1    2    0    0  0.00000000000E+00  0.00000000000E+00 -0.48177503745E+03  0.30404252483E+04  0.30020124090E+04 0.  0.
        1    1    3    3  502    0 -0.87060309071E+03 -0.93221118633E+03  0.56047147656E+03  0.13932321104E+04  0.50400001928E-02 0. -1.
       -1    1    3    3    0  502  0.87060309071E+03  0.93221118633E+03 -0.10422465140E+04  0.16471931379E+04  0.50400001928E-02 0.  1.
</event>
<event>
 5   0  0.1914439E-07  0.2999541E+04  0.7818609E-02  0.8243862E-01
        2   -1    0    0  501    0  0.00000000000E+00  0.00000000000E+00  0.21262811573E+04  0.21262811573E+04  0.25500000920E-02 0.  1.
       -2   -1    0    0    0  501  0.00000000000E+00  0.00000000000E+00 -0.10578618513E+04  0.10578618513E+04  0.25500000920E-02 0. -1.
    10030    2    1    2    0    0  0.00000000000E+00  0.00000000000E+00  0.10684193060E+04  0.31841430085E+04  0.29995411125E+04 0.  0.
        5    1    3    3  502    0  0.62042248968E+03 -0.30824732072E+03  0.19462415831E+04  0.20658700023E+04  0.46999998093E+01 0.  1.
       -5    1    3    3    0  502 -0.62042248968E+03  0.30824732072E+03 -0.87782227708E+03  0.11182730063E+04  0.46999998093E+01 0. -1.
</event>
<event>
 5   0  0.6017625E-08  0.2999726E+04  0.7818609E-02  0.8243809E-01
        4   -1    0    0  501    0  0.00000000000E+00  0.00000000000E+00  0.12622541098E+04  0.12622547487E+04  0.12699999809E+01 0. -1.
       -4   -1    0    0    0  501  0.00000000000E+00  0.00000000000E+00 -0.17821980006E+04  0.17821984531E+04  0.12699999809E+01 0.  1.
    10030    2    1    2    0    0  0.00000000000E+00  0.00000000000E+00 -0.51994389079E+03  0.30444532018E+04  0.29997255955E+04 0.  0.
        3    1    3    3  502    0  0.79794804985E+03  0.11079528116E+04  0.37001524453E+03  0.14146348696E+04  0.10100000352E+00 0. -1.
       -3    1    3    3    0  502 -0.79794804985E+03 -0.11079528116E+04 -0.88995913532E+03  0.16298183321E+04  0.10100000352E+00 0.  1.
</event>
<event>
 5   0  0.6679022E-08  0.3000379E+04  0.7818609E-02  0.8243623E-01
       -1   -1    0    0    0  501  0.00000000000E+00  0.00000000000E+00  0.13294467747E+04  0.13294467747E+04  0.50400001928E-02 0. -1.
        1   -1    0    0  501    0  0.00000000000E+00  0.00000000000E+00 -0.16928604075E+04  0.16928604075E+04  0.50400001928E-02 0.  1.
    10030    2    1    2    0    0  0.00000000000E+00  0.00000000000E+00 -0.36341363274E+03  0.30223071822E+04  0.30003785153E+04 0.  0.
        3    1    3    3  502    0  0.13054783811E+03 -0.50139253478E+03 -0.15998781023E+04  0.16816798639E+04  0.10100000352E+00 0.  1.
       -3    1    3    3    0  502 -0.13054783811E+03  0.50139253478E+03  0.12364644696E+04  0.13406273184E+04  0.10100000352E+00 0. -1.
</event>
<event>
 5   0  0.6525507E-08  0.3000058E+04  0.7818609E-02  0.8243714E-01
        1   -1    0    0  501    0  0.00000000000E+00  0.00000000000E+00  0.16399930292E+04  0.16399930292E+04  0.50400001928E-02 0. -1.
       -1   -1    0    0    0  501  0.00000000000E+00  0.00000000000E+00 -0.13720105513E+04  0.13720105513E+04  0.50400001928E-02 0.  1.
    10030    2    1    2    0    0  0.00000000000E+00  0.00000000000E+00  0.26798247790E+03  0.30120035806E+04  0.30000584929E+04 0.  0.
        4    1    3    3  502    0 -0.43894660707E+03 -0.13641460504E+04  0.57905931002E+03  0.15456001644E+04  0.12699999809E+01 0. -1.
       -4    1    3    3    0  502  0.43894660707E+03  0.13641460504E+04 -0.31107683212E+03  0.14664034162E+04  0.12699999809E+01 0.  1.
</event>
<event>
 5   0  0.6525507E-08  0.3001193E+04  0.7818609E-02  0.8243390E-01
        1   -1    0    0  501    0  0.00000000000E+00  0.00000000000E+00  0.24593019464E+04  0.24593019464E+04  0.50400001928E-02 0.  1.
       -1   -1    0    0    0  501  0.00000000000E+00  0.00000000000E+00 -0.91562172844E+03  0.91562172846E+03  0.50400001928E-02 0. -1.
    10030    2    1    2    0    0  0.00000000000E+00  0.00000000000E+00  0.15436802180E+04  0.33749236749E+04  0.30011932953E+04 0.  0.
        4    1    3    3  502    0 -0.29967157051E+03  0.53021115687E+03 -0.77038733448E+03  0.98205151548E+03  0.12699999809E+01 0. -1.
       -4    1    3    3    0  502  0.29967157051E+03 -0.53021115687E+03  0.23140675525E+04  0.23928721594E+04  0.12699999809E+01 0.  1.
</event>
<event>
 5   0  0.1810055E-07  0.3007154E+04  0.7818609E-02  0.8241691E-01
        2   -1    0    0  501    0  0.00000000000E+00  0.00000000000E+00  0.11625207450E+04  0.11625207450E+04  0.25500000920E-02 0. -1.
       -2   -1    0    0    0  501  0.00000000000E+00  0.00000000000E+00 -0.19446908451E+04  0.19446908451E+04  0.25500000920E-02 0.  1.
    10030    2    1    2    0    0  0.00000000000E+00  0.00000000000E+00 -0.78217010012E+03  0.31072115902E+04  0.30071537707E+04 0.  0.
        4    1    3    3  502    0 -0.43999794532E+03 -0.90761133730E+03 -0.15432590142E+04  0.18436394792E+04  0.12699999809E+01 0.  1.
       -4    1    3    3    0  502  0.43999794532E+03  0.90761133730E+03  0.76108891411E+03  0.12635721109E+04  0.12699999809E+01 0. -1.
</event>
<event>
 5   0  0.6017625E-08  0.2999932E+04  0.7818609E-02  0.8243750E-01
       -3   -1    0    0    0  501  0.00000000000E+00  0.00000000000E+00  0.13899596818E+04  0.13899596855E+04  0.10100000352E+00 0. -1.
        3   -1    0    0  501    0  0.00000000000E+00  0.00000000000E+00 -0.16186785953E+04  0.16186785985E+04  0.10100000352E+00 0.  1.
    10030    2    1    2    0    0  0.00000000000E+00  0.00000000000E+00 -0.22871891354E+03  0.30086382840E+04  0.29999319963E+04 0.  0.
        1    1    3    3  502    0 -0.29347008765E+03 -0.40474205877E+02 -0.15890469098E+04  0.16164259758E+04  0.50400001928E-02 0.  1.
       -1    1    3    3    0  502  0.29347008765E+03  0.40474205877E+02  0.13603279962E+04  0.13922123082E+04  0.50400001928E-02 0. -1.
</event>
<event>
 5   0  0.6679022E-08  0.2997679E+04  0.7818609E-02  0.8244394E-01
        1   -1    0    0  501    0  0.00000000000E+00  0.00000000000E+00  0.15830139729E+04  0.15830139729E+04  0.50400001928E-02 0.  1.
       -1   -1    0    0    0  501  0.00000000000E+00  0.00000000000E+00 -0.14191406314E+04  0.14191406314E+04  0.50400001928E-02 0. -1.
    10030    2    1    2    0    0  0.00000000000E+00  0.00000000000E+00  0.16387334152E+03  0.30021546044E+04  0.29976787347E+04 0.  0.
        3    1    3    3  502    0 -0.11081797494E+04  0.27798762417E+03  0.10535295047E+04  0.15541119341E+04  0.10100000352E+00 0.  1.
       -3    1    3    3    0  502  0.11081797494E+04 -0.27798762417E+03 -0.88965616319E+03  0.14480426703E+04  0.10100000352E+00 0. -1.
</event>
<event>
 5   0  0.1821305E-07  0.3000304E+04  0.7818609E-02  0.8243644E-01
       -2   -1    0    0    0  501  0.00000000000E+00  0.00000000000E+00  0.18418198349E+04  0.18418198349E+04  0.25500000920E-02 0.  1.
        2   -1    0    0  501    0  0.00000000000E+00  0.00000000000E+00 -0.12218650756E+04  0.12218650756E+04  0.25500000920E-02 0. -1.
    10030    2    1    2    0    0  0.00000000000E+00  0.00000000000E+00  0.61995475925E+03  0.30636849105E+04  0.30003035392E+04 0.  0.
        2    1    3    3  502    0  0.14994969217E+04 -0.27201616383E+02  0.27424696486E+03  0.15246121945E+04  0.25500000920E-02 0.  1.
       -2    1    3    3    0  502 -0.14994969217E+04  0.27201616383E+02  0.34570779439E+03  0.15390727160E+04  0.25500000920E-02 0. -1.
</event>
<event>
 5   0  0.1914439E-07  0.3000420E+04  0.7818609E-02  0.8243611E-01
       -2   -1    0    0    0  501  0.00000000000E+00  0.00000000000E+00  0.11246741279E+04  0.11246741279E+04  0.25500000920E-02 0. -1.
        2   -1    0    0  501    0  0.00000000000E+00  0.00000000000E+00 -0.20011400045E+04  0.20011400045E+04  0.25500000920E-02 0.  1.
    10030    2    1    2    0    0  0.00000000000E+00  0.00000000000E+00 -0.87646587660E+03  0.31258141324E+04  0.30004202301E+04 0.  0.
        5    1    3    3  502    0 -0.54628978710E+03  0.59814298497E+03 -0.17536994865E+04  0.19317586653E+04  0.46999998093E+01 0.  1.
       -5    1    3    3    0  502  0.54628978710E+03 -0.59814298497E+03  0.87723360994E+03  0.11940554670E+04  0.46999998093E+01 0. -1.
</event>
<event>
 5   0  0.1813720E-07  0.3000037E+04  0.7818609E-02  0.8243720E-01
        2   -1    0    0  501    0  0.00000000000E+00  0.00000000000E+00  0.19375440179E+04  0.19375440179E+04  0.25500000920E-02 0.  1.
       -2   -1    0    0    0  501  0.00000000000E+00  0.00000000000E+00 -0.11612928506E+04  0.11612928506E+04  0.25500000920E-02 0. -1.
    10030    2    1    2    0    0  0.00000000000E+00  0.00000000000E+00  0.77625116731E+03  0.30988368685E+04  0.30000373436E+04 0.  0.
        3    1    3    3  502    0  0.82772548843E+03  0.31450294235E+03 -0.86253993053E+03  0.12361297371E+04  0.10100000352E+00 0. -1.
       -3    1    3    3    0  502 -0.82772548843E+03 -0.31450294235E+03  0.16387910978E+04  0.18627071314E+04  0.10100000352E+00 0.  1.
</event>
<event>
 5   0  0.6636007E-08  0.2980749E+04  0.7818609E-02  0.8249249E-01
       -1   -1    0    0    0  501  0.00000000000E+00  0.00000000000E+00  0.81453151790E+03  0.81453151792E+03  0.50400001928E-02 0.  1.
        1   -1    0    0  501    0  0.00000000000E+00  0.00000000000E+00 -0.27269868946E+04  0.27269868946E+04  0.50400001928E-02 0. -1.
    10030    2    1    2    0    0  0.00000000000E+00  0.00000000000E+00 -0.19124553767E+04  0.35415184125E+04  0.29807494189E+04 0.  0.
        2    1    3    3  502    0 -0.27012726861E+03 -0.72639046570E+03  0.55629749121E+03  0.95398047603E+03  0.25500000920E-02 0.  1.
       -2    1    3    3    0  502  0.27012726861E+03  0.72639046570E+03 -0.24687528679E+04  0.25875379365E+04  0.25500000920E-02 0. -1.
</event>
<event>
 5   0  0.1813720E-07  0.2999361E+04  0.7818609E-02  0.8243913E-01
       -2   -1    0    0    0  501  0.00000000000E+00  0.00000000000E+00  0.10496228493E+04  0.10496228493E+04  0.25500000920E-02 0. -1.
        2   -1    0    0  501    0  0.00000000000E+00  0.00000000000E+00 -0.21427146623E+04  0.21427146623E+04  0.25500000920E-02 0.  1.
    10030    2    1    2    0    0  0.00000000000E+00  0.00000000000E+00 -0.10930918129E+04  0.31923375116E+04  0.29993614448E+04 0.  0.
        3    1    3    3  502    0 -0.24478938398E+03  0.70309594215E+03 -0.19321406110E+04  0.20706117688E+04  0.10100000352E+00 0.  1.
       -3    1    3    3    0  502  0.24478938398E+03 -0.70309594215E+03  0.83904879803E+03  0.11217257428E+04  0.10100000352E+00 0. -1.
</event>
<event>
 5   0  0.6464436E-08  0.3000605E+04  0.7818609E-02  0.8243558E-01
        1   -1    0    0  501    0  0.00000000000E+00  0.00000000000E+00  0.13462323891E+04  0.13462323891E+04  0.50400001928E-02 0.  1.
       -1   -1    0    0    0  501  0.00000000000E+00  0.00000000000E+00 -0.16720057428E+04  0.16720057428E+04  0.50400001928E-02 0. -1.
    10030    2    1    2    0    0  0.00000000000E+00  0.00000000000E+00 -0.32577335370E+03  0.30182381318E+04  0.30006054627E+04 0.  0.
        5    1    3    3  502    0 -0.12465125160E+04 -0.62899533794E+03  0.38939130647E+03  0.14495089746E+04  0.46999998093E+01 0. -1.
       -5    1    3    3    0  502  0.12465125160E+04  0.62899533794E+03 -0.71516466016E+03  0.15687291573E+04  0.46999998093E+01 0.  1.
</event>
<event>
 5   0  0.6679022E-08  0.2999928E+04  0.7818609E-02  0.8243751E-01
       -1   -1    0    0    0  501  0.00000000000E+00  0.00000000000E+00  0.14907647522E+04  0.14907647522E+04  0.50400001928E-02 0. -1.
        1   -1    0    0  501    0  0.00000000000E+00  0.00000000000E+00 -0.15092203872E+04  0.15092203872E+04  0.50400001928E-02 0.  1.
    10030    2    1    2    0    0  0.00000000000E+00  0.00000000000E+00 -0.18455635023E+02  0.29999851394E+04  0.29999283701E+04 0.  0.
        3    1    3    3  502    0  0.11964314183E+04 -0.62785746522E+03 -0.66057677714E+03  0.15039996091E+04  0.10100000352E+00 0.  1.
       -3    1    3    3    0  502 -0.11964314183E+04  0.62785746522E+03  0.64212114212E+03  0.14959855303E+04  0.10100000352E+00 0. -1.
</event>
<event>
 5   0  0.6525507E-08  0.2998709E+04  0.7818609E-02  0.8244100E-01
        1   -1    0    0  501    0  0.00000000000E+00  0.00000000000E+00  0.75331110261E+03  0.75331110262E+03  0.50400001928E-02 0.  1.
       -1   -1    0    0    0  501  0.00000000000E+00  0.00000000000E+00 -0.29842441237E+04  0.29842441237E+04  0.50400001928E-02 0. -1.
    10030    2    1    2    0    0  0.00000000000E+00  0.00000000000E+00 -0.22309330211E+04  0.37375552263E+04  0.29987092099E+04 0.  0.
        4    1    3    3  502    0  0.11313193363E+04  0.89296808090E+03 -0.16305538842E+04  0.21762313793E+04  0.12699999809E+01 0. -1.
       -4    1    3    3    0  502 -0.11313193363E+04 -0.89296808090E+03 -0.60037913694E+03  0.15613238470E+04  0.12699999809E+01 0.  1.
</event>
<event>
 5   0  0.1810055E-07  0.2999507E+04  0.7818609E-02  0.8243872E-01
       -2   -1    0    0    0  501  0.00000000000E+00  0.00000000000E+00  0.82060272978E+03  0.82060272978E+03  0.25500000920E-02 0.  1.
        2   -1    0    0  501    0  0.00000000000E+00  0.00000000000E+00 -0.27409857192E+04  0.27409857192E+04  0.25500000920E-02 0. -1.
    10030    2    1    2    0    0  0.00000000000E+00  0.00000000000E+00 -0.19203829895E+04  0.35615884490E+04  0.29995068685E+04 0.  0.
        4    1    3    3  502    0  0.74249725746E+03  0.12830054818E+04 -0.68980627936E+03  0.16350044524E+04  0.12699999809E+01 0.  1.
       -4    1    3    3    0  502 -0.74249725746E+03 -0.12830054818E+04 -0.12305767101E+04  0.19265839966E+04  0.12699999809E+01 0. -1.
</event>
<event>
 5   0  0.6525507E-08  0.2997134E+04  0.7818609E-02  0.8244550E-01
        1   -1    0    0  501    0  0.00000000000E+00  0.00000000000E+00  0.24307770721E+04  0.24307770721E+04  0.50400001928E-02 0.  1.
       -1   -1    0    0    0  501  0.00000000000E+00  0.00000000000E+00 -0.92386242485E+03  0.92386242487E+03  0.50400001928E-02 0. -1.
    10030    2    1    2    0    0  0.00000000000E+00  0.00000000000E+00  0.15069146472E+04  0.33546394969E+04  0.29971343648E+04 0.  0.
        4    1    3    3  502    0  0.45116231015E+03  0.81734825810E+03 -0.55858619674E+03  0.10879456591E+04  0.12699999809E+01 0. -1.
       -4    1    3    3    0  502 -0.45116231015E+03 -0.81734825810E+03  0.20655008439E+04  0.22666938378E+04  0.12699999809E+01 0.  1.
</event>
<event>
 5   0  0.1914439E-07  0.3000475E+04  0.7818609E-02  0.8243595E-01
       -2   -1    0    0    0  501  0.00000000000E+00  0.00000000000E+00  0.15275368516E+04  0.15275368516E+04  0.25500000920E-02 0. -1.
        2   -1    0    0  501    0  0.00000000000E+00  0.00000000000E+00 -0.14734257134E+04  0.14734257134E+04  0.25500000920E-02 0.  1.
    10030    2    1    2    0    0  0.00000000000E+00  0.00000000000E+00  0.54111138205E+02  0.30009625649E+04  0.30004746792E+04 0.  0.
        5    1    3    3  502    0  0.57060996872E+03  0.12768331831E+02 -0.13605889343E+04  0.14754603027E+04  0.46999998093E+01 0.  1.
       -5    1    3    3    0  502 -0.57060996872E+03 -0.12768331831E+02  0.14147000725E+04  0.15255022622E+04  0.46999998093E+01 0. -1.
</event>
<event>
 5   0  0.6679022E-08  0.3001102E+04  0.7818609E-02  0.8243416E-01
       -1   -1    0    0    0  501  0.00000000000E+00  0.00000000000E+00  0.28193168354E+04  0.28193168354E+04  0.50400001928E-02 0. -1.
        1   -1    0    0  501    0  0.00000000000E+00  0.00000000000E+00 -0.79865230512E+03  0.79865230514E+03  0.50400001928E-02 0.  1.
    10030    2    1    2    0    0  0.00000000000E+00  0.00000000000E+00  0.20206645302E+04  0.36179691405E+04  0.30011023904E+04 0.  0.
        3    1    3    3  502    0  0.26424171617E+03 -0.14055212836E+04  0.15579479524E+04  0.21148322855E+04  0.10100000352E+00 0. -1.
       -3    1    3    3    0  502 -0.26424171617E+03  0.14055212836E+04  0.46271657785E+03  0.15031368550E+04  0.10100000352E+00 0.  1.
</event>
<event>
 5   0  0.1821305E-07  0.2997988E+04  0.7818609E-02  0.8244306E-01
        2   -1    0    0  501    0  0.00000000000E+00  0.00000000000E+00  0.21903637512E+04  0.21903637512E+04  0.25500000920E-02 0. -1.
       -2   -1    0    0    0  501  0.00000000000E+00  0.00000000000E+00 -0.10258494808E+04  0.10258494808E+04  0.25500000920E-02 0.  1.
    10030    2    1    2    0    0  0.00000000000E+00  0.00000000000E+00  0.11645142704E+04  0.32162132320E+04  0.29979883369E+04 0.  0.
        2    1    3    3  502    0  0.84271371233E+03  0.10104017781E+03 -0.74323959931E+03  0.11281757932E+04  0.25500000920E-02 0.  1.
       -2    1    3    3    0  502 -0.84271371233E+03 -0.10104017781E+03  0.19077538697E+04  0.20880374388E+04  0.25500000920E-02 0. -1.
</event>
<event>
 5   0  0.1810055E-07  0.3000289E+04  0.7818609E-02  0.8243648E-01
        2   -1    0    0  501    0  0.00000000000E+00  0.00000000000E+00  0.22633889812E+04  0.22633889812E+04  0.25500000920E-02 0. -1.
       -2   -1    0    0    0  501  0.00000000000E+00  0.00000000000E+00 -0.99427603539E+03  0.99427603539E+03  0.25500000920E-02 0.  1.
    10030    2    1    2    0    0  0.00000000000E+00  0.00000000000E+00  0.12691129458E+04  0.32576650165E+04  0.30002889346E+04 0.  0.
        4    1    3    3  502    0 -0.89014639918E+03 -0.55210065007E+03  0.18005770601E+04  0.20830878767E+04  0.12699999809E+01 0. -1.
       -4    1    3    3    0  502  0.89014639918E+03  0.55210065007E+03 -0.53146411433E+03  0.11745771399E+04  0.12699999809E+01 0.  1.
</event>
<event>
 5   0  0.1821305E-07  0.2999556E+04  0.7818609E-02  0.8243858E-01
        2   -1    0    0  501    0  0.00000000000E+00  0.00000000000E+00  0.18590506906E+04  0.18590506906E+04  0.25500000920E-02 0.  1.
       -2   -1    0    0    0  501  0.00000000000E+00  0.00000000000E+00 -0.12099365160E+04  0.12099365160E+04  0.25500000920E-02 0. -1.
    10030    2    1    2    0    0  0.00000000000E+00  0.00000000000E+00  0.64911417460E+03  0.30689872067E+04  0.29995555109E+04 0.  0.
        2    1    3    3  502    0  0.14347565167E+03 -0.31873107712E+03 -0.11676809489E+04  0.12188738904E+04  0.25500000920E-02 0. -1.
       -2    1    3    3    0  502 -0.14347565167E+03  0.31873107712E+03  0.18167951235E+04  0.18501133163E+04  0.25500000920E-02 0.  1.
</event>
<event>
 5   0  0.6525507E-08  0.2999108E+04  0.7818609E-02  0.8243986E-01
        1   -1    0    0  501    0  0.00000000000E+00  0.00000000000E+00  0.18444749323E+04  0.18444749323E+04  0.50400001928E-02 0.  1.
       -1   -1    0    0    0  501  0.00000000000E+00  0.00000000000E+00 -0.12191343369E+04  0.12191343369E+04  0.50400001928E-02 0. -1.
    10030    2    1    2    0    0  0.00000000000E+00  0.00000000000E+00  0.62534059536E+03  0.30636092692E+04  0.29991083498E+04 0.  0.
        4    1    3    3  502    0 -0.13777718404E+04  0.44798305879E+03 -0.82584220180E+02  0.14511257119E+04  0.12699999809E+01 0.  1.
       -4    1    3    3    0  502  0.13777718404E+04 -0.44798305879E+03  0.70792481554E+03  0.16124835573E+04  0.12699999809E+01 0. -1.
</event>
<event>
 5   0  0.1914439E-07  0.3000113E+04  0.7818609E-02  0.8243699E-01
        2   -1    0    0  501    0  0.00000000000E+00  0.00000000000E+00  0.11301152206E+04  0.11301152206E+04  0.25500000920E-02 0. -1.
       -2   -1    0    0    0  501  0.00000000000E+00  0.00000000000E+00 -0.19910972255E+04  0.19910972255E+04  0.25500000920E-02 0.  1.
    10030    2    1    2    0    0  0.00000000000E+00  0.00000000000E+00 -0.86098200495E+03  0.31212124461E+04  0.30001128513E+04 0.  0.
        5    1    3    3  502    0  0.34059431329E+03  0.11518549294E+04 -0.13652998833E+04  0.18184719205E+04  0.46999998093E+01 0.  1.
       -5    1    3    3    0  502 -0.34059431329E+03 -0.11518549294E+04  0.50431787833E+03  0.13027405256E+04  0.46999998093E+01 0. -1.
</event>
<event>
 5   0  0.6636007E-08  0.2995610E+04  0.7818609E-02  0.8244986E-01
        1   -1    0    0  501    0  0.00000000000E+00  0.00000000000E+00  0.20772678680E+04  0.20772678680E+04  0.50400001928E-02 0.  1.
       -1   -1    0    0    0  501  0.00000000000E+00  0.00000000000E+00 -0.10799859771E+04  0.10799859772E+04  0.50400001928E-02 0. -1.
    10030    2    1    2    0    0  0.00000000000E+00  0.00000000000E+00  0.99728189084E+03  0.31572538451E+04  0.29956102338E+04 0.  0.
        2    1    3    3  502    0 -0.35607153548E+03  0.14140609374E+04  0.13803113680E+03  0.14647210888E+04  0.25500000920E-02 0. -1.
       -2    1    3    3    0  502  0.35607153548E+03 -0.14140609374E+04  0.85925075404E+03  0.16925327564E+04  0.25500000920E-02 0.  1.
</event>
<event>
 5   0  0.6374748E-08  0.3000436E+04  0.7818609E-02  0.8243606E-01
        1   -1    0    0  501    0  0.00000000000E+00  0.00000000000E+00  0.19018998222E+04  0.19018998222E+04  0.50400001928E-02 0.  1.
       -1   -1    0    0    0  501  0.00000000000E+00  0.00000000000E+00 -0.11833718781E+04  0.11833718781E+04  0.50400001928E-02 0. -1.
    10030    2    1    2    0    0  0.00000000000E+00  0.00000000000E+00  0.71852794405E+03  0.30852717003E+04  0.30004364780E+04 0.  0.
        1    1    3    3  502    0  0.15301569381E+03 -0.89264464675E+03 -0.87055659560E+03  0.12562233297E+04  0.50400001928E-02 0. -1.
       -1    1    3    3    0  502 -0.15301569381E+03  0.89264464675E+03  0.15890845396E+04  0.18290483706E+04  0.50400001928E-02 0.  1.
</event>
<event>
 5   0  0.6464436E-08  0.3000700E+04  0.7818609E-02  0.8243531E-01
        1   -1    0    0  501    0  0.00000000000E+00  0.00000000000E+00  0.15705953646E+04  0.15705953646E+04  0.50400001928E-02 0.  1.
       -1   -1    0    0    0  501  0.00000000000E+00  0.00000000000E+00 -0.14332459705E+04  0.14332459705E+04  0.50400001928E-02 0. -1.
    10030    2    1    2    0    0  0.00000000000E+00  0.00000000000E+00  0.13734939411E+03  0.30038413350E+04  0.30006995701E+04 0.  0.
        5    1    3    3  502    0  0.13614518923E+04  0.27624894328E+03 -0.49863080039E+03  0.14759808599E+04  0.46999998093E+01 0. -1.
       -5    1    3    3    0  502 -0.13614518923E+04 -0.27624894328E+03  0.63598019450E+03  0.15278604751E+04  0.46999998093E+01 0.  1.
</event>
<event>
 5   0  0.6525507E-08  0.3000336E+04  0.7818609E-02  0.8243635E-01
       -1   -1    0    0    0  501  0.00000000000E+00  0.00000000000E+00  0.13417222975E+04  0.13417222976E+04  0.50400001928E-02 0.  1.
        1   -1    0    0  501    0  0.00000000000E+00  0.00000000000E+00 -0.16773245855E+04  0.16773245855E+04  0.50400001928E-02 0. -1.
    10030    2    1    2    0    0  0.00000000000E+00  0.00000000000E+00 -0.33560228794E+03  0.30190468830E+04  0.30003358456E+04 0.  0.
        4    1    3    3  502    0  0.11055856319E+04 -0.25049208693E+03  0.82089263296E+03  0.13996185919E+04  0.12699999809E+01 0.  1.
       -4    1    3    3    0  502 -0.11055856319E+04  0.25049208693E+03 -0.11564949209E+04  0.16194282911E+04  0.12699999809E+01 0. -1.
</event>
<event>
 5   0  0.1817566E-07  0.2999804E+04  0.7818609E-02  0.8243787E-01
        2   -1    0    0  501    0  0.00000000000E+00  0.00000000000E+00  0.15333122532E+04  0.15333122533E+04  0.25500000920E-02 0.  1.
       -2   -1    0    0    0  501  0.00000000000E+00  0.00000000000E+00 -0.14672195444E+04  0.14672195444E+04  0.25500000920E-02 0. -1.
    10030    2    1    2    0    0  0.00000000000E+00  0.00000000000E+00  0.66092708890E+02  0.30005317976E+04  0.29998037973E+04 0.  0.
        1    1    3    3  502    0  0.13715084308E+04 -0.46538778479E+03  0.42312117416E+03  0.15088580762E+04  0.50400001928E-02 0.  1.
       -1    1    3    3    0  502 -0.13715084308E+04  0.46538778479E+03 -0.35702846527E+03  0.14916737214E+04  0.50400001928E-02 0. -1.
</event>
<event>
 5   0  0.6374748E-08  0.3000593E+04  0.7818609E-02  0.8243562E-01
        1   -1    0    0  501    0  0.00000000000E+00  0.00000000000E+00  0.25269433042E+04  0.25269433042E+04  0.50400001928E-02 0. -1.
       -1   -1    0    0    0  501  0.00000000000E+00  0.00000000000E+00 -0.89075583934E+03  0.89075583935E+03  0.50400001928E-02 0.  1.
    10030    2    1    2    0    0  0.00000000000E+00  0.00000000000E+00  0.16361874648E+04  0.34176991435E+04  0.30005929440E+04 0.  0.
        1    1    3    3  502    0  0.21507466506E+03  0.83506822289E+03  0.22164751772E+04  0.23783099587E+04  0.50400001928E-02 0. -1.
       -1    1    3    3    0  502 -0.21507466506E+03 -0.83506822289E+03 -0.58028771236E+03  0.10393891848E+04  0.50400001928E-02 0.  1.
</event>
<event>
 5   0  0.1813720E-07  0.2994484E+04  0.7818609E-02  0.8245308E-01
        2   -1    0    0  501    0  0.00000000000E+00  0.00000000000E+00  0.15670704745E+04  0.15670704745E+04  0.25500000920E-02 0. -1.
       -2   -1    0    0    0  501  0.00000000000E+00  0.00000000000E+00 -0.14305246979E+04  0.14305246979E+04  0.25500000920E-02 0.  1.
    10030    2    1    2    0    0  0.00000000000E+00  0.00000000000E+00  0.13654577659E+03  0.29975951723E+04  0.29944836062E+04 0.  0.
        3    1    3    3  502    0 -0.14664585334E+04 -0.13813197170E+03  0.33716312398E+03  0.15110460133E+04  0.10100000352E+00 0.  1.
       -3    1    3    3    0  502  0.14664585334E+04  0.13813197170E+03 -0.20061734739E+03  0.14865491590E+04  0.10100000352E+00 0. -1.
</event>
<event>
 5   0  0.1817566E-07  0.3001197E+04  0.7818609E-02  0.8243389E-01
       -2   -1    0    0    0  501  0.00000000000E+00  0.00000000000E+00  0.88886883557E+03  0.88886883557E+03  0.25500000920E-02 0. -1.
        2   -1    0    0  501    0  0.00000000000E+00  0.00000000000E+00 -0.25333270907E+04  0.25333270907E+04  0.25500000920E-02 0.  1.
    10030    2    1    2    0    0  0.00000000000E+00  0.00000000000E+00 -0.16444582551E+04  0.34221959262E+04  0.30011967621E+04 0.  0.
        1    1    3    3  502    0 -0.59585708462E+03  0.13640300164E+04 -0.60536068358E+03  0.16068867751E+04  0.50400001928E-02 0. -1.
       -1    1    3    3    0  502  0.59585708462E+03 -0.13640300164E+04 -0.10390975715E+04  0.18153091511E+04  0.50400001928E-02 0.  1.
</event>
<event>
 5   0  0.1817566E-07  0.3000546E+04  0.7818609E-02  0.8243575E-01
       -2   -1    0    0    0  501  0.00000000000E+00  0.00000000000E+00  0.13663088451E+04  0.13663088451E+04  0.25500000920E-02 0.  1.
        2   -1    0    0  501    0  0.00000000000E+00  0.00000000000E+00 -0.16473723390E+04  0.16473723390E+04  0.25500000920E-02 0. -1.
    10030    2    1    2    0    0  0.00000000000E+00  0.00000000000E+00 -0.28106349389E+03  0.30136811842E+04  0.30005462157E+04 0.  0.
        1    1    3    3  502    0 -0.80757428179E+01 -0.59611419624E+03 -0.15232944559E+04  0.16358005233E+04  0.50400001928E-02 0. -1.
       -1    1    3    3    0  502  0.80757428179E+01  0.59611419624E+03  0.12422309620E+04  0.13778806609E+04  0.50400001928E-02 0.  1.
</event>
<event>
 5   0  0.1914439E-07  0.3000337E+04  0.7818609E-02  0.8243635E-01
       -2   -1    0    0    0  501  0.00000000000E+00  0.00000000000E+00  0.18681965072E+04  0.18681965072E+04  0.25500000920E-02 0. -1.
        2   -1    0    0  501    0  0.00000000000E+00  0.00000000000E+00 -0.12046405549E+04  0.12046405549E+04  0.25500000920E-02 0.  1.
    10030    2    1    2    0    0  0.00000000000E+00  0.00000000000E+00  0.66355595228E+03  0.30728370620E+04  0.30003368324E+04 0.  0.
        5    1    3    3  502    0  0.83287232662E+03 -0.56555869917E+03  0.14708354345E+04  0.17823893851E+04  0.46999998093E+01 0. -1.
       -5    1    3    3    0  502 -0.83287232662E+03  0.56555869917E+03 -0.80727948219E+03  0.12904476770E+04  0.46999998093E+01 0.  1.
</event>
<event>
 5   0  0.6464436E-08  0.2999939E+04  0.7818609E-02  0.8243748E-01
       -1   -1    0    0    0  501  0.00000000000E+00  0.00000000000E+00  0.18017107552E+04  0.18017107552E+04  0.50400001928E-02 0. -1.
        1   -1    0    0  501    0  0.00000000000E+00  0.00000000000E+00 -0.12487622600E+04  0.12487622600E+04  0.50400001928E-02 0.  1.
    10030    2    1    2    0    0  0.00000000000E+00  0.00000000000E+00  0.55294849526E+03  0.30504730152E+04  0.29999389290E+04 0.  0.
        5    1    3    3  502    0 -0.15115833594E+03  0.51317847496E+03 -0.11484465325E+04  0.12669461384E+04  0.46999998093E+01 0.  1.
       -5    1    3    3    0  502  0.15115833594E+03 -0.51317847496E+03  0.17013950277E+04  0.17835268768E+04  0.46999998093E+01 0. -1.
</event>
<event>
 5   0  0.1813720E-07  0.2998817E+04  0.7818609E-02  0.8244069E-01
       -2   -1    0    0    0  501  0.00000000000E+00  0.00000000000E+00  0.11211434817E+04  0.11211434817E+04  0.25500000920E-02 0.  1.
        2   -1    0    0  501    0  0.00000000000E+00  0.00000000000E+00 -0.20052966063E+04  0.20052966063E+04  0.25500000920E-02 0. -1.
    10030    2    1    2    0    0  0.00000000000E+00  0.00000000000E+00 -0.88415312459E+03  0.31264400881E+04  0.29988165794E+04 0.  0.
        3    1    3    3  502    0 -0.12206022960E+04  0.74079195579E+03 -0.91936151064E+03  0.16981955966E+04  0.10100000352E+00 0. -1.
       -3    1    3    3    0  502  0.12206022960E+04 -0.74079195579E+03  0.35208386044E+02  0.14282444915E+04  0.10100000352E+00 0.  1.
</event>
<event>
 5   0  0.6636007E-08  0.2998310E+04  0.7818609E-02  0.8244214E-01
        1   -1    0    0  501    0  0.00000000000E+00  0.00000000000E+00  0.15425738207E+04  0.15425738207E+04  0.50400001928E-02 0. -1.
       -1   -1    0    0    0  501  0.00000000000E+00  0.00000000000E+00 -0.14569581036E+04  0.14569581037E+04  0.50400001928E-02 0.  1.
    10030    2    1    2    0    0  0.00000000000E+00  0.00000000000E+00  0.85615717075E+02  0.29995319244E+04  0.29983098096E+04 0.  0.
        2    1    3    3  502    0  0.76248989647E+03 -0.11399530284E+04  0.64851453555E+03  0.15170546635E+04  0.25500000920E-02 0. -1.
       -2    1    3    3    0  502 -0.76248989647E+03  0.11399530284E+04 -0.56289881847E+03  0.14824772609E+04  0.25500000920E-02 0.  1.
</event>
<event>
 5   0  0.6374748E-08  0.3000782E+04  0.7818609E-02  0.8243508E-01
        1   -1    0    0  501    0  0.00000000000E+00  0.00000000000E+00  0.16039252672E+04  0.16039252672E+04  0.50400001928E-02 0.  1.
       -1   -1    0    0    0  501  0.00000000000E+00  0.00000000000E+00 -0.14035395548E+04  0.14035395548E+04  0.50400001928E-02 0. -1.
    10030    2    1    2    0    0  0.00000000000E+00  0.00000000000E+00  0.20038571237E+03  0.30074648220E+04  0.30007816019E+04 0.  0.
        1    1    3    3  502    0  0.43420125624E+03  0.14093941182E+04 -0.17655624374E+03  0.14852927720E+04  0.50400001928E-02 0. -1.
       -1    1    3    3    0  502 -0.43420125624E+03 -0.14093941182E+04  0.37694195612E+03  0.15221720500E+04  0.50400001928E-02 0.  1.
</event>
<event>
 5   0  0.6679022E-08  0.3000193E+04  0.7818609E-02  0.8243676E-01
       -1   -1    0    0    0  501  0.00000000000E+00  0.00000000000E+00  0.11909935174E+04  0.11909935174E+04  0.50400001928E-02 0. -1.
        1   -1    0    0  501    0  0.00000000000E+00  0.00000000000E+00 -0.18894215367E+04  0.18894215367E+04  0.50400001928E-02 0.  1.
    10030    2    1    2    0    0  0.00000000000E+00  0.00000000000E+00 -0.69842801931E+03  0.30804150541E+04  0.30001925284E+04 0.  0.
        3    1    3    3  502    0  0.50846446532E+03 -0.71167323239E+02  0.10979739292E+04  0.12120840151E+04  0.10100000352E+00 0. -1.
       -3    1    3    3    0  502 -0.50846446532E+03  0.71167323239E+02 -0.17964019485E+04  0.18683310390E+04  0.10100000352E+00 0.  1.
</event>
<event>
 5   0  0.6679022E-08  0.2996967E+04  0.7818609E-02  0.8244597E-01
       -1   -1    0    0    0  501  0.00000000000E+00  0.00000000000E+00  0.83902205832E+03  0.83902205834E+03  0.50400001928E-02 0.  1.
        1   -1    0    0  501    0  0.00000000000E+00  0.00000000000E+00 -0.26762739981E+04  0.26762739981E+04  0.50400001928E-02 0. -1.
    10030    2    1    2    0    0  0.00000000000E+00  0.00000000000E+00 -0.18372519398E+04  0.35152960564E+04  0.29969670793E+04 0.  0.
        3    1    3    3  502    0 -0.33949318211E+03 -0.57307296771E+03 -0.24930850478E+04  0.25805312075E+04  0.10100000352E+00 0. -1.
       -3    1    3    3    0  502  0.33949318211E+03  0.57307296771E+03  0.65583310804E+03  0.93476484894E+03  0.10100000352E+00 0.  1.
</event>
<event>
 5   0  0.1821305E-07  0.3000335E+04  0.7818609E-02  0.8243635E-01
        2   -1    0    0  501    0  0.00000000000E+00  0.00000000000E+00  0.24171610562E+04  0.24171610562E+04  0.25500000920E-02 0. -1.
       -2   -1    0    0    0  501  0.00000000000E+00  0.00000000000E+00 -0.93105189445E+03  0.93105189446E+03  0.25500000920E-02 0.  1.
    10030    2    1    2    0    0  0.00000000000E+00  0.00000000000E+00  0.14861091618E+04  0.33482129507E+04  0.30003349017E+04 0.  0.
        2    1    3    3  502    0 -0.12839374839E+03  0.46462742486E+03 -0.84227240362E+03  0.97045679989E+03  0.25500000920E-02 0.  1.
       -2    1    3    3    0  502  0.12839374839E+03 -0.46462742486E+03  0.23283815654E+04  0.23777561508E+04  0.25500000920E-02 0. -1.
</event>
<event>
 5   0  0.6464436E-08  0.2999685E+04  0.7818609E-02  0.8243821E-01
        1   -1    0    0  501    0  0.00000000000E+00  0.00000000000E+00  0.14050618680E+04  0.14050618680E+04  0.50400001928E-02 0.  1.
       -1   -1    0    0    0  501  0.00000000000E+00  0.00000000000E+00 -0.16010170760E+04  0.16010170760E+04  0.50400001928E-02 0. -1.
    10030    2    1    2    0    0  0.00000000000E+00  0.00000000000E+00 -0.19595520805E+03  0.30060789440E+04  0.29996853458E+04 0.  0.
        5    1    3    3  502    0  0.93967675338E+03 -0.59031504892E+02 -0.12679542739E+04  0.15793059394E+04  0.46999998093E+01 0. -1.
       -5    1    3    3    0  502 -0.93967675338E+03  0.59031504892E+02  0.10719990659E+04  0.14267730046E+04  0.46999998093E+01 0.  1.
</event>
<event>
 5   0  0.1914439E-07  0.3005535E+04  0.7818609E-02  0.8242152E-01
       -2   -1    0    0    0  501  0.00000000000E+00  0.00000000000E+00  0.10947151845E+04  0.10947151845E+04  0.25500000920E-02 0. -1.
        2   -1    0    0  501    0  0.00000000000E+00  0.00000000000E+00 -0.20629198762E+04  0.20629198762E+04  0.25500000920E-02 0.  1.
    10030    2    1    2    0    0  0.00000000000E+00  0.00000000000E+00 -0.96820469173E+03  0.31576350607E+04  0.30055347031E+04 0.  0.
        5    1    3    3  502    0  0.14426916641E+04  0.20795596393E+03 -0.86823196604E+03  0.16966006476E+04  0.46999998093E+01 0. -1.
       -5    1    3    3    0  502 -0.14426916641E+04 -0.20795596393E+03 -0.99972725694E+02  0.14610344131E+04  0.46999998093E+01 0.  1.
</event>
<event>
 5   0  0.6636007E-08  0.2996063E+04  0.7818609E-02  0.8244856E-01
        1   -1    0    0  501    0  0.00000000000E+00  0.00000000000E+00  0.16461622416E+04  0.16461622416E+04  0.50400001928E-02 0.  1.
       -1   -1    0    0    0  501  0.00000000000E+00  0.00000000000E+00 -0.13632299618E+04  0.13632299618E+04  0.50400001928E-02 0. -1.
    10030    2    1    2    0    0  0.00000000000E+00  0.00000000000E+00  0.28293227975E+03  0.30093922034E+04  0.29960625426E+04 0.  0.
        2    1    3    3  502    0  0.62131009126E+03  0.12539137119E+04  0.67842084186E+03  0.15551786602E+04  0.25500000920E-02 0.  1.
       -2    1    3    3    0  502 -0.62131009126E+03 -0.12539137119E+04 -0.39548856211E+03  0.14542135432E+04  0.25500000920E-02 0. -1.
</event>
<event>
 5   0  0.6636007E-08  0.2999551E+04  0.7818609E-02  0.8243859E-01
        1   -1    0    0  501    0  0.00000000000E+00  0.00000000000E+00  0.14327577718E+04  0.14327577718E+04  0.50400001928E-02 0. -1.
       -1   -1    0    0    0  501  0.00000000000E+00  0.00000000000E+00 -0.15699275873E+04  0.15699275873E+04  0.50400001928E-02 0.  1.
    10030    2    1    2    0    0  0.00000000000E+00  0.00000000000E+00 -0.13716981550E+03  0.30026853590E+04  0.29995506009E+04 0.  0.
        2    1    3    3  502    0  0.77298168007E+03 -0.46153170959E+03  0.11321742962E+04  0.14464891405E+04  0.25500000920E-02 0. -1.
       -2    1    3    3    0  502 -0.77298168007E+03  0.46153170959E+03 -0.12693441117E+04  0.15561962185E+04  0.25500000920E-02 0.  1.
</event>
<event>
 5   0  0.6374748E-08  0.2999953E+04  0.7818609E-02  0.8243744E-01
       -1   -1    0    0    0  501  0.00000000000E+00  0.00000000000E+00  0.15182152652E+04  0.15182152652E+04  0.50400001928E-02 0. -1.
        1   -1    0    0  501    0  0.00000000000E+00  0.00000000000E+00 -0.14819564242E+04  0.14819564242E+04  0.50400001928E-02 0.  1.
    10030    2    1    2    0    0  0.00000000000E+00  0.00000000000E+00  0.36258841019E+02  0.30001716895E+04  0.29999525768E+04 0.  0.
        1    1    3    3  502    0  0.12489122679E+04 -0.80143779201E+03 -0.20062036259E+03  0.14974421248E+04  0.50400001928E-02 0. -1.
       -1    1    3    3    0  502 -0.12489122679E+04  0.80143779201E+03  0.23687920361E+03  0.15027295646E+04  0.50400001928E-02 0.  1.
</event>
<event>
 5   0  0.6636007E-08  0.3000101E+04  0.7818609E-02  0.8243702E-01
       -1   -1    0    0    0  501  0.00000000000E+00  0.00000000000E+00  0.21834479234E+04  0.21834479234E+04  0.50400001928E-02 0.  1.
        1   -1    0    0  501    0  0.00000000000E+00  0.00000000000E+00 -0.10305493705E+04  0.10305493705E+04  0.50400001928E-02 0. -1.
    10030    2    1    2    0    0  0.00000000000E+00  0.00000000000E+00  0.11528985530E+04  0.32139972939E+04  0.30001005870E+04 0.  0.
        2    1    3    3  502    0 -0.14377248389E+04  0.31019699832E+03  0.26068748221E+03  0.14937311852E+04  0.25500000920E-02 0. -1.
       -2    1    3    3    0  502  0.14377248389E+04 -0.31019699832E+03  0.89221107076E+03  0.17202661088E+04  0.25500000920E-02 0.  1.
</event>
<event>
 5   0  0.1817566E-07  0.2999598E+04  0.7818609E-02  0.8243846E-01
        2   -1    0    0  501    0  0.00000000000E+00  0.00000000000E+00  0.12095881150E+04  0.12095881150E+04  0.25500000920E-02 0. -1.
       -2   -1    0    0    0  501  0.00000000000E+00  0.00000000000E+00 -0.18596382806E+04  0.18596382806E+04  0.25500000920E-02 0.  1.
    10030    2    1    2    0    0  0.00000000000E+00  0.00000000000E+00 -0.65005016555E+03  0.30692263956E+04  0.29995975479E+04 0.  0.
        1    1    3    3  502    0 -0.42484846321E+03  0.14240330355E+04 -0.11776436050E+03  0.14907161861E+04  0.50400001928E-02 0. -1.
       -1    1    3    3    0  502  0.42484846321E+03 -0.14240330355E+04 -0.53228580505E+03  0.15785102094E+04  0.50400001928E-02 0.  1.
</event>
<event>
 5   0  0.1817566E-07  0.2997806E+04  0.7818609E-02  0.8244358E-01
        2   -1    0    0  501    0  0.00000000000E+00  0.00000000000E+00  0.19488872580E+04  0.19488872580E+04  0.25500000920E-02 0.  1.
       -2   -1    0    0    0  501  0.00000000000E+00  0.00000000000E+00 -0.11528168080E+04  0.11528168080E+04  0.25500000920E-02 0. -1.
    10030    2    1    2    0    0  0.00000000000E+00  0.00000000000E+00  0.79607045002E+03  0.31017040660E+04  0.29978058562E+04 0.  0.
        1    1    3    3  502    0  0.25259072254E+03  0.77636481488E+03  0.16986484200E+04  0.18846619998E+04  0.50400001928E-02 0.  1.
       -1    1    3    3    0  502 -0.25259072254E+03 -0.77636481488E+03 -0.90257796994E+03  0.12170420661E+04  0.50400001928E-02 0. -1.
</event>
<event>
 5   0  0.6017625E-08  0.3001295E+04  0.7818609E-02  0.8243361E-01
       -3   -1    0    0    0  501  0.00000000000E+00  0.00000000000E+00  0.80044178548E+03  0.80044179185E+03  0.10100000352E+00 0. -1.
        3   -1    0    0  501    0  0.00000000000E+00  0.00000000000E+00 -0.28133758504E+04  0.28133758522E+04  0.10100000352E+00 0.  1.
    10030    2    1    2    0    0  0.00000000000E+00  0.00000000000E+00 -0.20129340649E+04  0.36138176441E+04  0.30012954561E+04 0.  0.
        3    1    3    3  502    0 -0.13585872714E+04 -0.33782563996E+03 -0.35575014362E+03  0.14444527379E+04  0.10100000352E+00 0. -1.
       -3    1    3    3    0  502  0.13585872714E+04  0.33782563996E+03 -0.16571839213E+04  0.21693649062E+04  0.10100000352E+00 0.  1.
</event>
<event>
 5   0  0.6525507E-08  0.2997423E+04  0.7818609E-02  0.8244467E-01
       -1   -1    0    0    0  501  0.00000000000E+00  0.00000000000E+00  0.15277082999E+04  0.15277082999E+04  0.50400001928E-02 0. -1.
        1   -1    0    0  501    0  0.00000000000E+00  0.00000000000E+00 -0.14702652569E+04  0.14702652569E+04  0.50400001928E-02 0.  1.
    10030    2    1    2    0    0  0.00000000000E+00  0.00000000000E+00  0.57443043028E+02  0.29979735568E+04  0.29974231840E+04 0.  0.
        4    1    3    3  502    0 -0.10608101567E+04 -0.93636888618E+03  0.52280609633E+03  0.15084537470E+04  0.12699999809E+01 0. -1.
       -4    1    3    3    0  502  0.10608101567E+04  0.93636888618E+03 -0.46536305331E+03  0.14895198098E+04  0.12699999809E+01 0.  1.
</event>
<event>
 5   0  0.1914439E-07  0.3000014E+04  0.7818609E-02  0.8243727E-01
       -2   -1    0    0    0  501  0.00000000000E+00  0.00000000000E+00  0.82650635297E+03  0.82650635298E+03  0.25500000920E-02 0. -1.
        2   -1    0    0  501    0  0.00000000000E+00  0.00000000000E+00 -0.27223282259E+04  0.27223282259E+04  0.25500000920E-02 0.  1.
    10030    2    1    2    0    0  0.00000000000E+00  0.00000000000E+00 -0.18958218729E+04  0.35488345789E+04  0.30000143823E+04 0.  0.
        5    1    3    3  502    0 -0.11142887194E+04  0.51870868757E+02 -0.21341987497E+04  0.24081437520E+04  0.46999998093E+01 0.  1.
       -5    1    3    3    0  502  0.11142887194E+04 -0.51870868757E+02  0.23837687675E+03  0.11406908269E+04  0.46999998093E+01 0. -1.
</event>
<event>
 5   0  0.6464436E-08  0.3000213E+04  0.7818609E-02  0.8243670E-01
       -1   -1    0    0    0  501  0.00000000000E+00  0.00000000000E+00  0.17470818623E+04  0.17470818623E+04  0.50400001928E-02 0.  1.
        1   -1    0    0  501    0  0.00000000000E+00  0.00000000000E+00 -0.12880444252E+04  0.12880444253E+04  0.50400001928E-02 0. -1.
    10030    2    1    2    0    0  0.00000000000E+00  0.00000000000E+00  0.45903743707E+03  0.30351262876E+04  0.30002126946E+04 0.  0.
        5    1    3    3  502    0 -0.31443759934E+03 -0.99890370361E+02  0.17099166703E+04  0.17414609382E+04  0.46999998093E+01 0.  1.
       -5    1    3    3    0  502  0.31443759934E+03  0.99890370361E+02 -0.12508792332E+04  0.12936653494E+04  0.46999998093E+01 0. -1.
</event>
<event>
 5   0  0.6636007E-08  0.3005946E+04  0.7818609E-02  0.8242035E-01
        1   -1    0    0  501    0  0.00000000000E+00  0.00000000000E+00  0.19059412255E+04  0.19059412255E+04  0.50400001928E-02 0. -1.
       -1   -1    0    0    0  501  0.00000000000E+00  0.00000000000E+00 -0.11852032440E+04  0.11852032440E+04  0.50400001928E-02 0.  1.
    10030    2    1    2    0    0  0.00000000000E+00  0.00000000000E+00  0.72073798151E+03  0.30911444695E+04  0.30059459233E+04 0.  0.
        2    1    3    3  502    0 -0.32701008298E+03 -0.14255694315E+04  0.71621728145E+03  0.16285425978E+04  0.25500000920E-02 0. -1.
       -2    1    3    3    0  502  0.32701008298E+03  0.14255694315E+04  0.45207000586E+01  0.14626018718E+04  0.25500000920E-02 0.  1.
</event>
<event>
 5   0  0.1914439E-07  0.2999919E+04  0.7818609E-02  0.8243754E-01
       -2   -1    0    0    0  501  0.00000000000E+00  0.00000000000E+00  0.15703207065E+04  0.15703207065E+04  0.25500000920E-02 0. -1.
        2   -1    0    0  501    0  0.00000000000E+00  0.00000000000E+00 -0.14327508933E+04  0.14327508933E+04  0.25500000920E-02 0.  1.
    10030    2    1    2    0    0  0.00000000000E+00  0.00000000000E+00  0.13756981314E+03  0.30030715998E+04  0.29999189289E+04 0.  0.
        5    1    3    3  502    0  0.12179241248E+04 -0.79675668786E+03 -0.29449578453E+03  0.14848940199E+04  0.46999998093E+01 0.  1.
       -5    1    3    3    0  502 -0.12179241248E+04  0.79675668786E+03  0.43206559767E+03  0.15181775799E+04  0.46999998093E+01 0. -1.
</event>
<event>
 5   0  0.1817566E-07  0.2999592E+04  0.7818609E-02  0.8243847E-01
        2   -1    0    0  501    0  0.00000000000E+00  0.00000000000E+00  0.10690988497E+04  0.10690988497E+04  0.25500000920E-02 0. -1.
       -2   -1    0    0    0  501  0.00000000000E+00  0.00000000000E+00 -0.21040033593E+04  0.21040033593E+04  0.25500000920E-02 0.  1.
    10030    2    1    2    0    0  0.00000000000E+00  0.00000000000E+00 -0.10349045096E+04  0.31731022090E+04  0.29995916863E+04 0.  0.
        1    1    3    3  502    0  0.77424475909E+03 -0.12017184500E+04 -0.99735175072E+03  0.17430699053E+04  0.50400001928E-02 0.  1.
       -1    1    3    3    0  502 -0.77424475909E+03  0.12017184500E+04 -0.37552758899E+02  0.14300323037E+04  0.50400001928E-02 0. -1.
</event>
<event>
 5   0  0.6636007E-08  0.2998890E+04  0.7818609E-02  0.8244048E-01
        1   -1    0    0  501    0  0.00000000000E+00  0.00000000000E+00  0.12854674189E+04  0.12854674190E+04  0.50400001928E-02 0. -1.
       -1   -1    0    0    0  501  0.00000000000E+00  0.00000000000E+00 -0.17490415182E+04  0.17490415182E+04  0.50400001928E-02 0.  1.
    10030    2    1    2    0    0  0.00000000000E+00  0.00000000000E+00 -0.46357409922E+03  0.30345089371E+04  0.29988903855E+04 0.  0.
        2    1    3    3  502    0 -0.34912782179E+03 -0.11903939751E+04  0.62048023757E+03  0.13870557945E+04  0.25500000920E-02 0. -1.
       -2    1    3    3    0  502  0.34912782179E+03  0.11903939751E+04 -0.10840543368E+04  0.16474531426E+04  0.25500000920E-02 0.  1.
</event>
<event>
 5   0  0.6464436E-08  0.3000126E+04  0.7818609E-02  0.8243695E-01
        1   -1    0    0  501    0  0.00000000000E+00  0.00000000000E+00  0.19443443238E+04  0.19443443238E+04  0.50400001928E-02 0.  1.
       -1   -1    0    0    0  501  0.00000000000E+00  0.00000000000E+00 -0.11572995142E+04  0.11572995142E+04  0.50400001928E-02 0. -1.
    10030    2    1    2    0    0  0.00000000000E+00  0.00000000000E+00  0.78704480960E+03  0.31016438380E+04  0.30001258249E+04 0.  0.
        5    1    3    3  502    0  0.12179225964E+04 -0.83615990019E+03  0.66245506967E+03  0.16190638156E+04  0.46999998093E+01 0.  1.
       -5    1    3    3    0  502 -0.12179225964E+04  0.83615990019E+03  0.12458973993E+03  0.14825800224E+04  0.46999998093E+01 0. -1.
</event>
<event>
 5   0  0.6679022E-08  0.2998264E+04  0.7818609E-02  0.8244227E-01
        1   -1    0    0  501    0  0.00000000000E+00  0.00000000000E+00  0.20650144591E+04  0.20650144591E+04  0.50400001928E-02 0. -1.
       -1   -1    0    0    0  501  0.00000000000E+00  0.00000000000E+00 -0.10883201951E+04  0.10883201951E+04  0.50400001928E-02 0.  1.
    10030    2    1    2    0    0  0.00000000000E+00  0.00000000000E+00  0.97669426402E+03  0.31533346542E+04  0.29982641238E+04 0.  0.
        3    1    3    3  502    0  0.37644468077E+03  0.51383885281E+03  0.19156115122E+04  0.20187393195E+04  0.10100000352E+00 0. -1.
       -3    1    3    3    0  502 -0.37644468077E+03 -0.51383885281E+03 -0.93891724819E+03  0.11345953347E+04  0.10100000352E+00 0.  1.
</event>
<event>
 5   0  0.6679022E-08  0.3000740E+04  0.7818609E-02  0.8243520E-01
        1   -1    0    0  501    0  0.00000000000E+00  0.00000000000E+00  0.27081685862E+04  0.27081685863E+04  0.50400001928E-02 0.  1.
       -1   -1    0    0    0  501  0.00000000000E+00  0.00000000000E+00 -0.83122979778E+03  0.83122979779E+03  0.50400001928E-02 0. -1.
    10030    2    1    2    0    0  0.00000000000E+00  0.00000000000E+00  0.18769387885E+04  0.35393983840E+04  0.30007401929E+04 0.  0.
        3    1    3    3  502    0 -0.35198516846E+03 -0.66864162083E+03 -0.59040980989E+03  0.95893635333E+03  0.10100000352E+00 0. -1.
       -3    1    3    3    0  502  0.35198516846E+03  0.66864162083E+03  0.24673485984E+04  0.25804620307E+04  0.10100000352E+00 0.  1.
</event>
<event>
 5   0  0.6464436E-08  0.3000822E+04  0.7818609E-02  0.8243496E-01
       -1   -1    0    0    0  501  0.00000000000E+00  0.00000000000E+00  0.14848248930E+04  0.14848248930E+04  0.50400001928E-02 0. -1.
        1   -1    0    0  501    0  0.00000000000E+00  0.00000000000E+00 -0.15161602184E+04  0.15161602184E+04  0.50400001928E-02 0.  1.
    10030    2    1    2    0    0  0.00000000000E+00  0.00000000000E+00 -0.31335325355E+02  0.30009851115E+04  0.30008215103E+04 0.  0.
        5    1    3    3  502    0  0.13546032076E+04 -0.70486040901E+02  0.62568797939E+03  0.14937957255E+04  0.46999998093E+01 0. -1.
       -5    1    3    3    0  502 -0.13546032076E+04  0.70486040901E+02 -0.65702330475E+03  0.15071893859E+04  0.46999998093E+01 0.  1.
</event>
<event>
 5   0  0.6525507E-08  0.2999763E+04  0.7818609E-02  0.8243799E-01
       -1   -1    0    0    0  501  0.00000000000E+00  0.00000000000E+00  0.15932917573E+04  0.15932917573E+04  0.50400001928E-02 0.  1.
        1   -1    0    0  501    0  0.00000000000E+00  0.00000000000E+00 -0.14119473082E+04  0.14119473082E+04  0.50400001928E-02 0. -1.
    10030    2    1    2    0    0  0.00000000000E+00  0.00000000000E+00  0.18134444911E+03  0.30052390656E+04  0.29997626626E+04 0.  0.
        4    1    3    3  502    0 -0.12264878836E+04  0.71662706364E+03  0.57302344640E+03  0.15317259415E+04  0.12699999809E+01 0. -1.
       -4    1    3    3    0  502  0.12264878836E+04 -0.71662706364E+03 -0.39167899729E+03  0.14735131240E+04  0.12699999809E+01 0.  1.
</event>
<event>
 5   0  0.6464436E-08  0.3000251E+04  0.7818609E-02  0.8243659E-01
       -1   -1    0    0    0  501  0.00000000000E+00  0.00000000000E+00  0.76395285098E+03  0.76395285099E+03  0.50400001928E-02 0. -1.
        1   -1    0    0  501    0  0.00000000000E+00  0.00000000000E+00 -0.29457008152E+04  0.29457008152E+04  0.50400001928E-02 0.  1.
    10030    2    1    2    0    0  0.00000000000E+00  0.00000000000E+00 -0.21817479643E+04  0.37096536662E+04  0.30002510135E+04 0.  0.
        5    1    3    3  502    0  0.92507650471E+03  0.10707276814E+04 -0.17067815404E+04  0.22170587777E+04  0.46999998093E+01 0.  1.
       -5    1    3    3    0  502 -0.92507650471E+03 -0.10707276814E+04 -0.47496642389E+03  0.14925948885E+04  0.46999998093E+01 0. -1.
</event>
<event>
 5   0  0.1810055E-07  0.3000059E+04  0.7818609E-02  0.8243714E-01
        2   -1    0    0  501    0  0.00000000000E+00  0.00000000000E+00  0.15818858874E+04  0.15818858874E+04  0.25500000920E-02 0.  1.
       -2   -1    0    0    0  501  0.00000000000E+00  0.00000000000E+00 -0.14224087257E+04  0.14224087257E+04  0.25500000920E-02 0. -1.
    10030    2    1    2    0    0  0.00000000000E+00  0.00000000000E+00  0.15947716175E+03  0.30042946131E+04  0.30000588589E+04 0.  0.
        4    1    3    3  502    0  0.45380289423E+01  0.50600841355E+02  0.15810235574E+04  0.15818401123E+04  0.12699999809E+01 0.  1.
       -4    1    3    3    0  502 -0.45380289423E+01 -0.50600841355E+02 -0.14215463957E+04  0.14224545008E+04  0.12699999809E+01 0. -1.
</event>
<event>
 5   0  0.6464436E-08  0.2998289E+04  0.7818609E-02  0.8244220E-01
        1   -1    0    0  501    0  0.00000000000E+00  0.00000000000E+00  0.20289784903E+04  0.20289784903E+04  0.50400001928E-02 0. -1.
       -1   -1    0    0    0  501  0.00000000000E+00  0.00000000000E+00 -0.11076675405E+04  0.11076675405E+04  0.50400001928E-02 0.  1.
    10030    2    1    2    0    0  0.00000000000E+00  0.00000000000E+00  0.92131094976E+03  0.31366460308E+04  0.29982885879E+04 0.  0.
        5    1    3    3  502    0  0.35832830303E+03  0.10787222268E+04  0.14831901416E+04  0.18686668782E+04  0.46999998093E+01 0. -1.
       -5    1    3    3    0  502 -0.35832830303E+03 -0.10787222268E+04 -0.56187919184E+03  0.12679791527E+04  0.46999998093E+01 0.  1.
</event>
<event>
 5   0  0.1813720E-07  0.2996972E+04  0.7818609E-02  0.8244596E-01
        2   -1    0    0  501    0  0.00000000000E+00  0.00000000000E+00  0.25443123628E+04  0.25443123628E+04  0.25500000920E-02 0. -1.
       -2   -1    0    0    0  501  0.00000000000E+00  0.00000000000E+00 -0.88254089383E+03  0.88254089383E+03  0.25500000920E-02 0.  1.
    10030    2    1    2    0    0  0.00000000000E+00  0.00000000000E+00  0.16617714690E+04  0.34268532566E+04  0.29969716094E+04 0.  0.
        3    1    3    3  502    0 -0.11270256195E+04 -0.98750830896E+03  0.84233665079E+03  0.17189794795E+04  0.10100000352E+00 0.  1.
       -3    1    3    3    0  502  0.11270256195E+04  0.98750830896E+03  0.81943481818E+03  0.17078737772E+04  0.10100000352E+00 0. -1.
</event>
<event>
 5   0  0.1813720E-07  0.2999955E+04  0.7818609E-02  0.8243744E-01
        2   -1    0    0  501    0  0.00000000000E+00  0.00000000000E+00  0.23708219314E+04  0.23708219315E+04  0.25500000920E-02 0. -1.
       -2   -1    0    0    0  501  0.00000000000E+00  0.00000000000E+00 -0.94900932543E+03  0.94900932543E+03  0.25500000920E-02 0.  1.
    10030    2    1    2    0    0  0.00000000000E+00  0.00000000000E+00  0.14218126060E+04  0.33198312569E+04  0.29999547476E+04 0.  0.
        3    1    3    3  502    0 -0.65951152967E+01 -0.35053805651E+03  0.23248420615E+04  0.23511297382E+04  0.10100000352E+00 0. -1.
       -3    1    3    3    0  502  0.65951152967E+01  0.35053805651E+03 -0.90302945550E+03  0.96870151869E+03  0.10100000352E+00 0.  1.
</event>
<event>
 5   0  0.6636007E-08  0.2996862E+04  0.7818609E-02  0.8244628E-01
       -1   -1    0    0    0  501  0.00000000000E+00  0.00000000000E+00  0.17769738065E+04  0.17769738065E+04  0.50400001928E-02 0.  1.
        1   -1    0    0  501    0  0.00000000000E+00  0.00000000000E+00 -0.12635497385E+04  0.12635497386E+04  0.50400001928E-02 0. -1.
    10030    2    1    2    0    0  0.00000000000E+00  0.00000000000E+00  0.51342406791E+03  0.30405235450E+04  0.29968615507E+04 0.  0.
        2    1    3    3  502    0 -0.35828340135E+03 -0.12689393233E+04  0.97892628038E+03  0.16422151699E+04  0.25500000920E-02 0.  1.
       -2    1    3    3    0  502  0.35828340135E+03  0.12689393233E+04 -0.46550221247E+03  0.13983083751E+04  0.25500000920E-02 0. -1.
</event>
<event>
 5   0  0.1914439E-07  0.2997292E+04  0.7818609E-02  0.8244505E-01
       -2   -1    0    0    0  501  0.00000000000E+00  0.00000000000E+00  0.11300733665E+04  0.11300733665E+04  0.25500000920E-02 0.  1.
        2   -1    0    0  501    0  0.00000000000E+00  0.00000000000E+00 -0.19874279130E+04  0.19874279130E+04  0.25500000920E-02 0. -1.
    10030    2    1    2    0    0  0.00000000000E+00  0.00000000000E+00 -0.85735454643E+03  0.31175012795E+04  0.29972916791E+04 0.  0.
        5    1    3    3  502    0  0.12405691315E+04 -0.50034890029E+03 -0.11314661567E+04  0.17520269821E+04  0.46999998093E+01 0. -1.
       -5    1    3    3    0  502 -0.12405691315E+04  0.50034890029E+03  0.27411161028E+03  0.13654742975E+04  0.46999998093E+01 0.  1.
</event>
<event>
 5   0  0.6464436E-08  0.2998297E+04  0.7818609E-02  0.8244217E-01
       -1   -1    0    0    0  501  0.00000000000E+00  0.00000000000E+00  0.10050817030E+04  0.10050817030E+04  0.50400001928E-02 0. -1.
        1   -1    0    0  501    0  0.00000000000E+00  0.00000000000E+00 -0.22360826825E+04  0.22360826825E+04  0.50400001928E-02 0.  1.
    10030    2    1    2    0    0  0.00000000000E+00  0.00000000000E+00 -0.12310009795E+04  0.32411643855E+04  0.29982967102E+04 0.  0.
        5    1    3    3  502    0  0.13234132245E+04 -0.56912934609E+03 -0.16705675757E+03  0.14502623299E+04  0.46999998093E+01 0.  1.
       -5    1    3    3    0  502 -0.13234132245E+04  0.56912934609E+03 -0.10639442220E+04  0.17909020556E+04  0.46999998093E+01 0. -1.
</event>
<event>
 5   0  0.6636007E-08  0.3001036E+04  0.7818609E-02  0.8243435E-01
        1   -1    0    0  501    0  0.00000000000E+00  0.00000000000E+00  0.18052477613E+04  0.18052477613E+04  0.50400001928E-02 0.  1.
       -1   -1    0    0    0  501  0.00000000000E+00  0.00000000000E+00 -0.12472275967E+04  0.12472275967E+04  0.50400001928E-02 0. -1.
    10030    2    1    2    0    0  0.00000000000E+00  0.00000000000E+00  0.55802016464E+03  0.30524753580E+04  0.30010363722E+04 0.  0.
        2    1    3    3  502    0  0.22126065174E+03  0.36542773627E+00  0.17885637894E+04  0.18021977800E+04  0.25500000920E-02 0.  1.
       -2    1    3    3    0  502 -0.22126065174E+03 -0.36542773627E+00 -0.12305436248E+04  0.12502775780E+04  0.25500000920E-02 0. -1.
</event>
<event>
 5   0  0.1914439E-07  0.2999539E+04  0.7818609E-02  0.8243862E-01
        2   -1    0    0  501    0  0.00000000000E+00  0.00000000000E+00  0.13889065160E+04  0.13889065160E+04  0.25500000920E-02 0.  1.
       -2   -1    0    0    0  501  0.00000000000E+00  0.00000000000E+00 -0.16194819453E+04  0.16194819453E+04  0.25500000920E-02 0. -1.
    10030    2    1    2    0    0  0.00000000000E+00  0.00000000000E+00 -0.23057542931E+03  0.30083884613E+04  0.29995393155E+04 0.  0.
        5    1    3    3  502    0  0.10324707468E+04  0.10372222512E+04 -0.44406740820E+03  0.15293932766E+04  0.46999998093E+01 0.  1.
       -5    1    3    3    0  502 -0.10324707468E+04 -0.10372222512E+04  0.21349197889E+03  0.14789951847E+04  0.46999998093E+01 0. -1.
</event>
<event>
 5   0  0.1817566E-07  0.3000183E+04  0.7818609E-02  0.8243679E-01
        2   -1    0    0  501    0  0.00000000000E+00  0.00000000000E+00  0.26096823711E+04  0.26096823711E+04  0.25500000920E-02 0. -1.
       -2   -1    0    0    0  501  0.00000000000E+00  0.00000000000E+00 -0.86227883726E+03  0.86227883727E+03  0.25500000920E-02 0.  1.
    10030    2    1    2    0    0  0.00000000000E+00  0.00000000000E+00  0.17474035339E+04  0.34719612084E+04  0.30001825815E+04 0.  0.
        1    1    3    3  502    0 -0.10729612814E+04 -0.91928372580E+03  0.14568746946E+04  0.20294857368E+04  0.50400001928E-02 0.  1.
       -1    1    3    3    0  502  0.10729612814E+04  0.91928372580E+03  0.29052883924E+03  0.14424754716E+04  0.50400001928E-02 0. -1.
</event>
<event>
 5   0  0.6636007E-08  0.2999632E+04  0.7818609E-02  0.8243836E-01
       -1   -1    0    0    0  501  0.00000000000E+00  0.00000000000E+00  0.95317816397E+03  0.95317816398E+03  0.50400001928E-02 0.  1.
        1   -1    0    0  501    0  0.00000000000E+00  0.00000000000E+00 -0.23599444847E+04  0.23599444847E+04  0.50400001928E-02 0. -1.
    10030    2    1    2    0    0  0.00000000000E+00  0.00000000000E+00 -0.14067663208E+04  0.33131226487E+04  0.29996316781E+04 0.  0.
        2    1    3    3  502    0 -0.10502741631E+04  0.10161222605E+04 -0.33067485991E+03  0.14983077551E+04  0.25500000920E-02 0.  1.
       -2    1    3    3    0  502  0.10502741631E+04 -0.10161222605E+04 -0.10760914608E+04  0.18148148936E+04  0.25500000920E-02 0. -1.
</event>
<event>
 5   0  0.1817566E-07  0.2999121E+04  0.7818609E-02  0.8243982E-01
       -2   -1    0    0    0  501  0.00000000000E+00  0.00000000000E+00  0.21741157789E+04  0.21741157789E+04  0.25500000920E-02 0.  1.
        2   -1    0    0  501    0  0.00000000000E+00  0.00000000000E+00 -0.10342972682E+04  0.10342972682E+04  0.25500000920E-02 0. -1.
    10030    2    1    2    0    0  0.00000000000E+00  0.00000000000E+00  0.11398185107E+04  0.32084130472E+04  0.29991212119E+04 0.  0.
        1    1    3    3  502    0 -0.91491390744E+03  0.96148928133E+03 -0.17676109807E+03  0.13389449511E+04  0.50400001928E-02 0. -1.
       -1    1    3    3    0  502  0.91491390744E+03 -0.96148928133E+03  0.13165796088E+04  0.18694680961E+04  0.50400001928E-02 0.  1.
</event>
<event>
 5   0  0.6525507E-08  0.2999607E+04  0.7818609E-02  0.8243843E-01
        1   -1    0    0  501    0  0.00000000000E+00  0.00000000000E+00  0.12828983982E+04  0.12828983982E+04  0.50400001928E-02 0.  1.
       -1   -1    0    0    0  501  0.00000000000E+00  0.00000000000E+00 -0.17533812803E+04  0.17533812803E+04  0.50400001928E-02 0. -1.
    10030    2    1    2    0    0  0.00000000000E+00  0.00000000000E+00 -0.47048288207E+03  0.30362796785E+04  0.29996066648E+04 0.  0.
        4    1    3    3  502    0  0.13696951220E+04 -0.57402811318E+03 -0.23312603983E+02  0.14853006740E+04  0.12699999809E+01 0.  1.
       -4    1    3    3    0  502 -0.13696951220E+04  0.57402811318E+03 -0.44717027809E+03  0.15509790045E+04  0.12699999809E+01 0. -1.
</event>
<event>
 5   0  0.1813720E-07  0.3000179E+04  0.7818609E-02  0.8243680E-01
       -2   -1    0    0    0  501  0.00000000000E+00  0.00000000000E+00  0.16716495490E+04  0.16716495490E+04  0.25500000920E-02 0.  1.
        2   -1    0    0  501    0  0.00000000000E+00  0.00000000000E+00 -0.13461369204E+04  0.13461369204E+04  0.25500000920E-02 0. -1.
    10030    2    1    2    0    0  0.00000000000E+00  0.00000000000E+00  0.32551262859E+03  0.30177864693E+04  0.30001794451E+04 0.  0.
        3    1    3    3  502    0 -0.74793334099E+03 -0.25780770351E+03  0.14447555775E+04  0.16471756991E+04  0.10100000352E+00 0.  1.
       -3    1    3    3    0  502  0.74793334099E+03  0.25780770351E+03 -0.11192429490E+04  0.13706107703E+04  0.10100000352E+00 0. -1.
</event>
<event>
 5   0  0.6525507E-08  0.2999865E+04  0.7818609E-02  0.8243770E-01
        1   -1    0    0  501    0  0.00000000000E+00  0.00000000000E+00  0.20008144827E+04  0.20008144827E+04  0.50400001928E-02 0.  1.
       -1   -1    0    0    0  501  0.00000000000E+00  0.00000000000E+00 -0.11244405836E+04  0.11244405836E+04  0.50400001928E-02 0. -1.
    10030    2    1    2    0    0  0.00000000000E+00  0.00000000000E+00  0.87637389907E+03  0.31252550663E+04  0.29998646667E+04 0.  0.
        4    1    3    3  502    0  0.12168413957E+04 -0.75071062349E+03  0.91048609255E+03  0.16950681285E+04  0.12699999809E+01 0.  1.
       -4    1    3    3    0  502 -0.12168413957E+04  0.75071062349E+03 -0.34112193486E+02  0.14301869378E+04  0.12699999809E+01 0. -1.
</event>
<event>
 5   0  0.1813720E-07  0.2999815E+04  0.7818609E-02  0.8243784E-01
        2   -1    0    0  501    0  0.00000000000E+00  0.00000000000E+00  0.17851571574E+04  0.17851571574E+04  0.25500000920E-02 0. -1.
       -2   -1    0    0    0  501  0.00000000000E+00  0.00000000000E+00 -0.12602376650E+04  0.12602376650E+04  0.25500000920E-02 0.  1.
    10030    2    1    2    0    0  0.00000000000E+00  0.00000000000E+00  0.52491949243E+03  0.30453948225E+04  0.29998148528E+04 0.  0.
        3    1    3    3  502    0  0.56197215540E+03  0.73001841499E+03  0.14640752919E+04  0.17298138802E+04  0.10100000352E+00 0. -1.
       -3    1    3    3    0  502 -0.56197215540E+03 -0.73001841499E+03 -0.93915579947E+03  0.13155809422E+04  0.10100000352E+00 0.  1.
</event>
<event>
 5   0  0.1810055E-07  0.3001224E+04  0.7818609E-02  0.8243382E-01
       -2   -1    0    0    0  501  0.00000000000E+00  0.00000000000E+00  0.14671026328E+04  0.14671026328E+04  0.25500000920E-02 0.  1.
        2   -1    0    0  501    0  0.00000000000E+00  0.00000000000E+00 -0.15348864015E+04  0.15348864015E+04  0.25500000920E-02 0. -1.
    10030    2    1    2    0    0  0.00000000000E+00  0.00000000000E+00 -0.67783768712E+02  0.30019890344E+04  0.30012236710E+04 0.  0.
        4    1    3    3  502    0  0.56203473015E+03  0.11572317641E+04 -0.80659511591E+03  0.15184418618E+04  0.12699999809E+01 0. -1.
       -4    1    3    3    0  502 -0.56203473015E+03 -0.11572317641E+04  0.73881134719E+03  0.14835471726E+04  0.12699999809E+01 0.  1.
</event>
<event>
 5   0  0.1821305E-07  0.3000072E+04  0.7818609E-02  0.8243710E-01
        2   -1    0    0  501    0  0.00000000000E+00  0.00000000000E+00  0.20247997579E+04  0.20247997579E+04  0.25500000920E-02 0.  1.
       -2   -1    0    0    0  501  0.00000000000E+00  0.00000000000E+00 -0.11112744515E+04  0.11112744515E+04  0.25500000920E-02 0. -1.
    10030    2    1    2    0    0  0.00000000000E+00  0.00000000000E+00  0.91352530639E+03  0.31360742093E+04  0.30000721593E+04 0.  0.
        2    1    3    3  502    0  0.88542212581E+03 -0.88343212781E+02  0.17191212444E+04  0.19357568848E+04  0.25500000920E-02 0.  1.
       -2    1    3    3    0  502 -0.88542212581E+03  0.88343212781E+02 -0.80559593804E+03  0.12003173245E+04  0.25500000920E-02 0. -1.
</event>
<event>
 5   0  0.1821305E-07  0.3000458E+04  0.7818609E-02  0.8243600E-01
        2   -1    0    0  501    0  0.00000000000E+00  0.00000000000E+00  0.21696206263E+04  0.21696206263E+04  0.25500000920E-02 0.  1.
       -2   -1    0    0    0  501  0.00000000000E+00  0.00000000000E+00 -0.10373642625E+04  0.10373642625E+04  0.25500000920E-02 0. -1.
    10030    2    1    2    0    0  0.00000000000E+00  0.00000000000E+00  0.11322563638E+04  0.32069848887E+04  0.30004578989E+04 0.  0.
        2    1    3    3  502    0 -0.12612272454E+04 -0.55859164044E+03 -0.64363123280E+02  0.13808915225E+04  0.25500000920E-02 0. -1.
       -2    1    3    3    0  502  0.12612272454E+04  0.55859164044E+03  0.11966194871E+04  0.18260933662E+04  0.25500000920E-02 0.  1.
</event>
<event>
 5   0  0.6525507E-08  0.2999381E+04  0.7818609E-02  0.8243908E-01
       -1   -1    0    0    0  501  0.00000000000E+00  0.00000000000E+00  0.11972120373E+04  0.11972120373E+04  0.50400001928E-02 0. -1.
        1   -1    0    0  501    0  0.00000000000E+00  0.00000000000E+00 -0.18785904721E+04  0.18785904721E+04  0.50400001928E-02 0.  1.
    10030    2    1    2    0    0  0.00000000000E+00  0.00000000000E+00 -0.68137843482E+03  0.30758025095E+04  0.29993806870E+04 0.  0.
        4    1    3    3  502    0  0.62600471212E+03  0.54961591674E+03 -0.16195032917E+04  0.18211952340E+04  0.12699999809E+01 0.  1.
       -4    1    3    3    0  502 -0.62600471212E+03 -0.54961591674E+03  0.93812485693E+03  0.12546072755E+04  0.12699999809E+01 0. -1.
</event>
<event>
 5   0  0.1821305E-07  0.3003045E+04  0.7818609E-02  0.8242862E-01
        2   -1    0    0  501    0  0.00000000000E+00  0.00000000000E+00  0.16501050697E+04  0.16501050697E+04  0.25500000920E-02 0. -1.
       -2   -1    0    0    0  501  0.00000000000E+00  0.00000000000E+00 -0.13663186669E+04  0.13663186669E+04  0.25500000920E-02 0.  1.
    10030    2    1    2    0    0  0.00000000000E+00  0.00000000000E+00  0.28378640279E+03  0.30164237366E+04  0.30030446944E+04 0.  0.
        2    1    3    3  502    0  0.38444774914E+03  0.11249239458E+04 -0.77942568497E+03  0.14215338033E+04  0.25500000920E-02 0.  1.
       -2    1    3    3    0  502 -0.38444774914E+03 -0.11249239458E+04  0.10632120878E+04  0.15948899333E+04  0.25500000920E-02 0. -1.
</event>
<event>
 5   0  0.1914439E-07  0.2998648E+04  0.7818609E-02  0.8244117E-01
        2   -1    0    0  501    0  0.00000000000E+00  0.00000000000E+00  0.13849647891E+04  0.13849647891E+04  0.25500000920E-02 0.  1.
       -2   -1    0    0    0  501  0.00000000000E+00  0.00000000000E+00 -0.16231260771E+04  0.16231260771E+04  0.25500000920E-02 0. -1.
    10030    2    1    2    0    0  0.00000000000E+00  0.00000000000E+00 -0.23816128804E+03  0.30080908663E+04  0.29986480054E+04 0.  0.
        5    1    3    3  502    0  0.40275111880E+03  0.10202546115E+04 -0.11444650472E+04  0.15852287753E+04  0.46999998093E+01 0. -1.
       -5    1    3    3    0  502 -0.40275111880E+03 -0.10202546115E+04  0.90630375912E+03  0.14228620909E+04  0.46999998093E+01 0.  1.
</event>
<event>
 5   0  0.1914439E-07  0.3000398E+04  0.7818609E-02  0.8243617E-01
        2   -1    0    0  501    0  0.00000000000E+00  0.00000000000E+00  0.24962906736E+04  0.24962906736E+04  0.25500000920E-02 0. -1.
       -2   -1    0    0    0  501  0.00000000000E+00  0.00000000000E+00 -0.90157668985E+03  0.90157668985E+03  0.25500000920E-02 0.  1.
    10030    2    1    2    0    0  0.00000000000E+00  0.00000000000E+00  0.15947139837E+04  0.33978673634E+04  0.30003982951E+04 0.  0.
        5    1    3    3  502    0  0.94098533900E+03  0.49414390844E+03  0.19963576684E+04  0.22616581618E+04  0.46999998093E+01 0.  1.
       -5    1    3    3    0  502 -0.94098533900E+03 -0.49414390844E+03 -0.40164368469E+03  0.11362092017E+04  0.46999998093E+01 0. -1.
</event>
<event>
 5   0  0.1813720E-07  0.3000671E+04  0.7818609E-02  0.8243539E-01
       -2   -1    0    0    0  501  0.00000000000E+00  0.00000000000E+00  0.89575105444E+03  0.89575105444E+03  0.25500000920E-02 0.  1.
        2   -1    0    0  501    0  0.00000000000E+00  0.00000000000E+00 -0.25129831442E+04  0.25129831442E+04  0.25500000920E-02 0. -1.
    10030    2    1    2    0    0  0.00000000000E+00  0.00000000000E+00 -0.16172320897E+04  0.34087341986E+04  0.30006714590E+04 0.  0.
        3    1    3    3  502    0  0.96878254693E+03 -0.42919339822E+03  0.39802868300E+03  0.11318893228E+04  0.10100000352E+00 0.  1.
       -3    1    3    3    0  502 -0.96878254693E+03  0.42919339822E+03 -0.20152607727E+04  0.22768448758E+04  0.10100000352E+00 0. -1.
</event>
<event>
 5   0  0.6464436E-08  0.3001638E+04  0.7818609E-02  0.8243263E-01
       -1   -1    0    0    0  501  0.00000000000E+00  0.00000000000E+00  0.98002564008E+03  0.98002564009E+03  0.50400001928E-02 0.  1.
        1   -1    0    0  501    0  0.00000000000E+00  0.00000000000E+00 -0.22983666860E+04  0.22983666860E+04  0.50400001928E-02 0. -1.
    10030    2    1    2    0    0  0.00000000000E+00  0.00000000000E+00 -0.13183410459E+04  0.32783923261E+04  0.30016384076E+04 0.  0.
        5    1    3    3  502    0 -0.51344178150E+03  0.10727799026E+04 -0.16589711849E+04  0.20412463508E+04  0.46999998093E+01 0. -1.
       -5    1    3    3    0  502  0.51344178150E+03 -0.10727799026E+04  0.34063013906E+03  0.12371459752E+04  0.46999998093E+01 0.  1.
</event>
<event>
 5   0  0.6374748E-08  0.2999568E+04  0.7818609E-02  0.8243854E-01
        1   -1    0    0  501    0  0.00000000000E+00  0.00000000000E+00  0.12188969385E+04  0.12188969385E+04  0.50400001928E-02 0.  1.
       -1   -1    0    0    0  501  0.00000000000E+00  0.00000000000E+00 -0.18453996009E+04  0.18453996009E+04  0.50400001928E-02 0. -1.
    10030    2    1    2    0    0  0.00000000000E+00  0.00000000000E+00 -0.62650266240E+03  0.30642965394E+04  0.29995679181E+04 0.  0.
        1    1    3    3  502    0  0.88777153009E+03 -0.10323707032E+04  0.32914611221E+03  0.14008085957E+04  0.50400001928E-02 0. -1.
       -1    1    3    3    0  502 -0.88777153009E+03  0.10323707032E+04 -0.95564877461E+03  0.16634879437E+04  0.50400001928E-02 0.  1.
</event>
<event>
 5   0  0.1813720E-07  0.3001069E+04  0.7818609E-02  0.8243426E-01
        2   -1    0    0  501    0  0.00000000000E+00  0.00000000000E+00  0.14823018422E+04  0.14823018422E+04  0.25500000920E-02 0.  1.
       -2   -1    0    0    0  501  0.00000000000E+00  0.00000000000E+00 -0.15189919103E+04  0.15189919103E+04  0.25500000920E-02 0. -1.
    10030    2    1    2    0    0  0.00000000000E+00  0.00000000000E+00 -0.36690068108E+02  0.30012937525E+04  0.30010694807E+04 0.  0.
        3    1    3    3  502    0 -0.87019080451E+03  0.80698812865E+03  0.89995156432E+03  0.14894209292E+04  0.10100000352E+00 0.  1.
       -3    1    3    3    0  502  0.87019080451E+03 -0.80698812865E+03 -0.93664163243E+03  0.15118728233E+04  0.10100000352E+00 0. -1.
</event>
<event>
 5   0  0.6636007E-08  0.3003513E+04  0.7818609E-02  0.8242728E-01
       -1   -1    0    0    0  501  0.00000000000E+00  0.00000000000E+00  0.93685584855E+03  0.93685584856E+03  0.50400001928E-02 0. -1.
        1   -1    0    0  501    0  0.00000000000E+00  0.00000000000E+00 -0.24072783995E+04  0.24072783995E+04  0.50400001928E-02 0.  1.
    10030    2    1    2    0    0  0.00000000000E+00  0.00000000000E+00 -0.14704225510E+04  0.33441342481E+04  0.30035131747E+04 0.  0.
        2    1    3    3  502    0  0.12618001983E+04 -0.45185928557E+03 -0.14895038406E+04  0.20037310811E+04  0.25500000920E-02 0.  1.
       -2    1    3    3    0  502 -0.12618001983E+04  0.45185928557E+03  0.19081289618E+02  0.13404031669E+04  0.25500000920E-02 0. -1.
</event>
<event>
 5   0  0.1810055E-07  0.2999952E+04  0.7818609E-02  0.8243744E-01
       -2   -1    0    0    0  501  0.00000000000E+00  0.00000000000E+00  0.27858437267E+04  0.27858437267E+04  0.25500000920E-02 0. -1.
        2   -1    0    0  501    0  0.00000000000E+00  0.00000000000E+00 -0.80762913767E+03  0.80762913767E+03  0.25500000920E-02 0.  1.
    10030    2    1    2    0    0  0.00000000000E+00  0.00000000000E+00  0.19782145890E+04  0.35934728643E+04  0.29999523774E+04 0.  0.
        4    1    3    3  502    0  0.12698614853E+04 -0.48997590843E+03  0.23408358869E+03  0.13810942481E+04  0.12699999809E+01 0.  1.
       -4    1    3    3    0  502 -0.12698614853E+04  0.48997590843E+03  0.17441310003E+04  0.22123786163E+04  0.12699999809E+01 0. -1.
</event>
<event>
 5   0  0.6525507E-08  0.3000368E+04  0.7818609E-02  0.8243626E-01
        1   -1    0    0  501    0  0.00000000000E+00  0.00000000000E+00  0.17644512251E+04  0.17644512251E+04  0.50400001928E-02 0.  1.
       -1   -1    0    0    0  501  0.00000000000E+00  0.00000000000E+00 -0.12754969530E+04  0.12754969530E+04  0.50400001928E-02 0. -1.
    10030    2    1    2    0    0  0.00000000000E+00  0.00000000000E+00  0.48895427204E+03  0.30399481781E+04  0.30003680850E+04 0.  0.
        4    1    3    3  502    0 -0.20284925547E+03  0.12827445524E+04 -0.51640837407E+03  0.13975910092E+04  0.12699999809E+01 0. -1.
       -4    1    3    3    0  502  0.20284925547E+03 -0.12827445524E+04  0.10053626461E+04  0.16423571689E+04  0.12699999809E+01 0.  1.
</event>
<event>
 5   0  0.1810055E-07  0.2999340E+04  0.7818609E-02  0.8243919E-01
       -2   -1    0    0    0  501  0.00000000000E+00  0.00000000000E+00  0.11290472962E+04  0.11290472962E+04  0.25500000920E-02 0.  1.
        2   -1    0    0  501    0  0.00000000000E+00  0.00000000000E+00 -0.19919540005E+04  0.19919540005E+04  0.25500000920E-02 0. -1.
    10030    2    1    2    0    0  0.00000000000E+00  0.00000000000E+00 -0.86290670434E+03  0.31210012967E+04  0.29993401130E+04 0.  0.
        4    1    3    3  502    0  0.10878861381E+04 -0.33990325107E+03  0.58275002412E+03  0.12800897129E+04  0.12699999809E+01 0.  1.
       -4    1    3    3    0  502 -0.10878861381E+04  0.33990325107E+03 -0.14456567285E+04  0.18409115837E+04  0.12699999809E+01 0. -1.
</event>
<event>
 5   0  0.1817566E-07  0.3001563E+04  0.7818609E-02  0.8243285E-01
       -2   -1    0    0    0  501  0.00000000000E+00  0.00000000000E+00  0.12387536933E+04  0.12387536933E+04  0.25500000920E-02 0. -1.
        2   -1    0    0  501    0  0.00000000000E+00  0.00000000000E+00 -0.18182350619E+04  0.18182350619E+04  0.25500000920E-02 0.  1.
    10030    2    1    2    0    0  0.00000000000E+00  0.00000000000E+00 -0.57948136865E+03  0.30569887552E+04  0.30015631915E+04 0.  0.
        1    1    3    3  502    0 -0.43440599362E+03 -0.12998676305E+03  0.11673202615E+04  0.12522945814E+04  0.50400001928E-02 0. -1.
       -1    1    3    3    0  502  0.43440599362E+03  0.12998676305E+03 -0.17468016301E+04  0.18046941738E+04  0.50400001928E-02 0.  1.
</event>
<event>
 5   0  0.1821305E-07  0.2993571E+04  0.7818609E-02  0.8245569E-01
       -2   -1    0    0    0  501  0.00000000000E+00  0.00000000000E+00  0.12205150888E+04  0.12205150888E+04  0.25500000920E-02 0.  1.
        2   -1    0    0  501    0  0.00000000000E+00  0.00000000000E+00 -0.18355907541E+04  0.18355907541E+04  0.25500000920E-02 0. -1.
    10030    2    1    2    0    0  0.00000000000E+00  0.00000000000E+00 -0.61507566525E+03  0.30561058429E+04  0.29935705853E+04 0.  0.
        2    1    3    3  502    0 -0.13721178537E+04 -0.56859663780E+03 -0.11831025580E+03  0.14899687439E+04  0.25500000920E-02 0.  1.
       -2    1    3    3    0  502  0.13721178537E+04  0.56859663780E+03 -0.49676540945E+03  0.15661370991E+04  0.25500000920E-02 0. -1.
</event>
<event>
 5   0  0.6679022E-08  0.3000441E+04  0.7818609E-02  0.8243605E-01
        1   -1    0    0  501    0  0.00000000000E+00  0.00000000000E+00  0.93088209528E+03  0.93088209530E+03  0.50400001928E-02 0.  1.
       -1   -1    0    0    0  501  0.00000000000E+00  0.00000000000E+00 -0.24177736600E+04  0.24177736601E+04  0.50400001928E-02 0. -1.
    10030    2    1    2    0    0  0.00000000000E+00  0.00000000000E+00 -0.14868915648E+04  0.33486557553E+04  0.30004414413E+04 0.  0.
        3    1    3    3  502    0 -0.97626187214E+02 -0.12577485299E+04  0.16269136775E+03  0.12719790597E+04  0.10100000352E+00 0.  1.
       -3    1    3    3    0  502  0.97626187214E+02  0.12577485299E+04 -0.16495829325E+04  0.20766766957E+04  0.10100000352E+00 0. -1.
</event>
<event>
 5   0  0.6374748E-08  0.2999284E+04  0.7818609E-02  0.8243935E-01
        1   -1    0    0  501    0  0.00000000000E+00  0.00000000000E+00  0.21706231052E+04  0.21706231052E+04  0.50400001928E-02 0. -1.
       -1   -1    0    0    0  501  0.00000000000E+00  0.00000000000E+00 -0.10360738227E+04  0.10360738227E+04  0.50400001928E-02 0.  1.
    10030    2    1    2    0    0  0.00000000000E+00  0.00000000000E+00  0.11345492825E+04  0.32066969279E+04  0.29992837666E+04 0.  0.
        1    1    3    3  502    0 -0.30424557931E+03  0.12237681692E+04 -0.30048868231E+03  0.12963284124E+04  0.50400001928E-02 0.  1.
       -1    1    3    3    0  502  0.30424557931E+03 -0.12237681692E+04  0.14350379648E+04  0.19103685155E+04  0.50400001928E-02 0. -1.
</event>
<event>
 5   0  0.6636007E-08  0.2999918E+04  0.7818609E-02  0.8243754E-01
       -1   -1    0    0    0  501  0.00000000000E+00  0.00000000000E+00  0.22272955818E+04  0.22272955818E+04  0.50400001928E-02 0.  1.
        1   -1    0    0  501    0  0.00000000000E+00  0.00000000000E+00 -0.10101386174E+04  0.10101386174E+04  0.50400001928E-02 0. -1.
    10030    2    1    2    0    0  0.00000000000E+00  0.00000000000E+00  0.12171569644E+04  0.32374341992E+04  0.29999181852E+04 0.  0.
        2    1    3    3  502    0 -0.13484817458E+04  0.65605871731E+03  0.57342289954E+03  0.16054998851E+04  0.25500000920E-02 0.  1.
       -2    1    3    3    0  502  0.13484817458E+04 -0.65605871731E+03  0.64373406490E+03  0.16319343141E+04  0.25500000920E-02 0. -1.
</event>
<event>
 5   0  0.1821305E-07  0.2990415E+04  0.7818609E-02  0.8246473E-01
       -2   -1    0    0    0  501  0.00000000000E+00  0.00000000000E+00  0.22245022923E+04  0.22245022923E+04  0.25500000920E-02 0. -1.
        2   -1    0    0  501    0  0.00000000000E+00  0.00000000000E+00 -0.10050091737E+04  0.10050091737E+04  0.25500000920E-02 0.  1.
    10030    2    1    2    0    0  0.00000000000E+00  0.00000000000E+00  0.12194931186E+04  0.32295114661E+04  0.29904148279E+04 0.  0.
        2    1    3    3  502    0  0.11779952776E+04  0.87912540017E+03  0.31377036468E+03  0.15029924102E+04  0.25500000920E-02 0. -1.
       -2    1    3    3    0  502 -0.11779952776E+04 -0.87912540017E+03  0.90572275392E+03  0.17265190559E+04  0.25500000920E-02 0.  1.
</event>
<event>
 5   0  0.1914439E-07  0.3002065E+04  0.7818609E-02  0.8243141E-01
       -2   -1    0    0    0  501  0.00000000000E+00  0.00000000000E+00  0.11855255438E+04  0.11855255438E+04  0.25500000920E-02 0. -1.
        2   -1    0    0  501    0  0.00000000000E+00  0.00000000000E+00 -0.19005063015E+04  0.19005063015E+04  0.25500000920E-02 0.  1.
    10030    2    1    2    0    0  0.00000000000E+00  0.00000000000E+00 -0.71498075770E+03  0.30860318452E+04  0.30020651335E+04 0.  0.
        5    1    3    3  502    0  0.49050796366E+03  0.14156517166E+04 -0.26322589138E+03  0.15211764543E+04  0.46999998093E+01 0.  1.
       -5    1    3    3    0  502 -0.49050796366E+03 -0.14156517166E+04 -0.45175486631E+03  0.15648553909E+04  0.46999998093E+01 0. -1.
</event>
<event>
 5   0  0.6374748E-08  0.3000250E+04  0.7818609E-02  0.8243660E-01
       -1   -1    0    0    0  501  0.00000000000E+00  0.00000000000E+00  0.21731086759E+04  0.21731086759E+04  0.50400001928E-02 0. -1.
        1   -1    0    0  501    0  0.00000000000E+00  0.00000000000E+00 -0.10355553423E+04  0.10355553423E+04  0.50400001928E-02 0.  1.
    10030    2    1    2    0    0  0.00000000000E+00  0.00000000000E+00  0.11375533335E+04  0.32086640182E+04  0.30002495222E+04 0.  0.
        1    1    3    3  502    0 -0.14844590453E+04  0.21278896997E+03  0.52768223448E+03  0.15897629834E+04  0.50400001928E-02 0.  1.
       -1    1    3    3    0  502  0.14844590453E+04 -0.21278896997E+03  0.60987109906E+03  0.16189010348E+04  0.50400001928E-02 0. -1.
</event>
<event>
 5   0  0.1817566E-07  0.2999995E+04  0.7818609E-02  0.8243732E-01
        2   -1    0    0  501    0  0.00000000000E+00  0.00000000000E+00  0.14718926974E+04  0.14718926974E+04  0.25500000920E-02 0. -1.
       -2   -1    0    0    0  501  0.00000000000E+00  0.00000000000E+00 -0.15286386567E+04  0.15286386568E+04  0.25500000920E-02 0.  1.
    10030    2    1    2    0    0  0.00000000000E+00  0.00000000000E+00 -0.56745959391E+02  0.30005313541E+04  0.29999947172E+04 0.  0.
        1    1    3    3  502    0  0.27641161783E+03 -0.12643906858E+04  0.72998747707E+03  0.14859235867E+04  0.50400001928E-02 0.  1.
       -1    1    3    3    0  502 -0.27641161783E+03  0.12643906858E+04 -0.78673343646E+03  0.15146077674E+04  0.50400001928E-02 0. -1.
</event>
<event>
 5   0  0.6374748E-08  0.3000506E+04  0.7818609E-02  0.8243586E-01
       -1   -1    0    0    0  501  0.00000000000E+00  0.00000000000E+00  0.10266191986E+04  0.10266191986E+04  0.50400001928E-02 0. -1.
        1   -1    0    0  501    0  0.00000000000E+00  0.00000000000E+00 -0.21923998815E+04  0.21923998815E+04  0.50400001928E-02 0.  1.
    10030    2    1    2    0    0  0.00000000000E+00  0.00000000000E+00 -0.11657806828E+04  0.32190190801E+04  0.30005064968E+04 0.  0.
        1    1    3    3  502    0 -0.33850935192E+03  0.14018327548E+04 -0.10265734985E+04  0.17701911766E+04  0.50400001928E-02 0.  1.
       -1    1    3    3    0  502  0.33850935192E+03 -0.14018327548E+04 -0.13920718433E+03  0.14488279035E+04  0.50400001928E-02 0. -1.
</event>
<event>
 5   0  0.1914439E-07  0.2998870E+04  0.7818609E-02  0.8244054E-01
       -2   -1    0    0    0  501  0.00000000000E+00  0.00000000000E+00  0.14410723151E+04  0.14410723151E+04  0.25500000920E-02 0.  1.
        2   -1    0    0  501    0  0.00000000000E+00  0.00000000000E+00 -0.15601608820E+04  0.15601608820E+04  0.25500000920E-02 0. -1.
    10030    2    1    2    0    0  0.00000000000E+00  0.00000000000E+00 -0.11908856683E+03  0.30012331971E+04  0.29988695564E+04 0.  0.
        5    1    3    3  502    0  0.57717259838E+03  0.42242236977E+03 -0.13784273156E+04  0.15529497162E+04  0.46999998093E+01 0. -1.
       -5    1    3    3    0  502 -0.57717259838E+03 -0.42242236977E+03  0.12593387488E+04  0.14482834809E+04  0.46999998093E+01 0.  1.
</event>
<event>
 5   0  0.1810055E-07  0.3021025E+04  0.7818609E-02  0.8237753E-01
        2   -1    0    0  501    0  0.00000000000E+00  0.00000000000E+00  0.21281794899E+04  0.21281794899E+04  0.25500000920E-02 0.  1.
       -2   -1    0    0    0  501  0.00000000000E+00  0.00000000000E+00 -0.10721123012E+04  0.10721123012E+04  0.25500000920E-02 0. -1.
    10030    2    1    2    0    0  0.00000000000E+00  0.00000000000E+00  0.10560671887E+04  0.32002917912E+04  0.30210246013E+04 0.  0.
        4    1    3    3  502    0 -0.66633479098E+03 -0.11070643155E+04 -0.30072796487E+03  0.13266621175E+04  0.12699999809E+01 0. -1.
       -4    1    3    3    0  502  0.66633479098E+03  0.11070643155E+04  0.13567951536E+04  0.18736296736E+04  0.12699999809E+01 0.  1.
</event>
<event>
 5   0  0.1914439E-07  0.3002168E+04  0.7818609E-02  0.8243112E-01
       -2   -1    0    0    0  501  0.00000000000E+00  0.00000000000E+00  0.91720052002E+03  0.91720052002E+03  0.25500000920E-02 0.  1.
        2   -1    0    0  501    0  0.00000000000E+00  0.00000000000E+00 -0.24566635638E+04  0.24566635638E+04  0.25500000920E-02 0. -1.
    10030    2    1    2    0    0  0.00000000000E+00  0.00000000000E+00 -0.15394630438E+04  0.33738640839E+04  0.30021679489E+04 0.  0.
        5    1    3    3  502    0  0.84907338113E+03  0.95505154526E+03  0.11528659118E+03  0.12831064448E+04  0.46999998093E+01 0.  1.
       -5    1    3    3    0  502 -0.84907338113E+03 -0.95505154526E+03 -0.16547496350E+04  0.20907576390E+04  0.46999998093E+01 0. -1.
</event>
<event>
 5   0  0.1914439E-07  0.3000490E+04  0.7818609E-02  0.8243591E-01
       -2   -1    0    0    0  501  0.00000000000E+00  0.00000000000E+00  0.11653903504E+04  0.11653903504E+04  0.25500000920E-02 0.  1.
        2   -1    0    0  501    0  0.00000000000E+00  0.00000000000E+00 -0.19313141946E+04  0.19313141946E+04  0.25500000920E-02 0. -1.
    10030    2    1    2    0    0  0.00000000000E+00  0.00000000000E+00 -0.76592384416E+03  0.30967045450E+04  0.30004899106E+04 0.  0.
        5    1    3    3  502    0 -0.13670408945E+04 -0.23154476777E+03  0.20838509883E+03  0.14020913758E+04  0.46999998093E+01 0.  1.
       -5    1    3    3    0  502  0.13670408945E+04  0.23154476777E+03 -0.97430894298E+03  0.16946131692E+04  0.46999998093E+01 0. -1.
</event>
<event>
 5   0  0.6636007E-08  0.2989842E+04  0.7818609E-02  0.8246637E-01
        1   -1    0    0  501    0  0.00000000000E+00  0.00000000000E+00  0.15651827117E+04  0.15651827117E+04  0.50400001928E-02 0.  1.
       -1   -1    0    0    0  501  0.00000000000E+00  0.00000000000E+00 -0.14278137766E+04  0.14278137766E+04  0.50400001928E-02 0. -1.
    10030    2    1    2    0    0  0.00000000000E+00  0.00000000000E+00  0.13736893517E+03  0.29929964883E+04  0.29898424297E+04 0.  0.
        2    1    3    3  502    0  0.81293161377E+02  0.86301217891E+03 -0.11505457082E+04  0.14405394912E+04  0.25500000920E-02 0. -1.
       -2    1    3    3    0  502 -0.81293161377E+02 -0.86301217891E+03  0.12879146434E+04  0.15524569971E+04  0.25500000920E-02 0.  1.
</event>
<event>
 5   0  0.1817566E-07  0.2993201E+04  0.7818609E-02  0.8245675E-01
       -2   -1    0    0    0  501  0.00000000000E+00  0.00000000000E+00  0.28070006566E+04  0.28070006566E+04  0.25500000920E-02 0.  1.
        2   -1    0    0  501    0  0.00000000000E+00  0.00000000000E+00 -0.79793837425E+03  0.79793837425E+03  0.25500000920E-02 0. -1.
    10030    2    1    2    0    0  0.00000000000E+00  0.00000000000E+00  0.20090622823E+04  0.36049390308E+04  0.29932013233E+04 0.  0.
        1    1    3    3  502    0 -0.73916559782E+03 -0.71684913614E+03 -0.30352019605E+03  0.10734817066E+04  0.50400001928E-02 0. -1.
       -1    1    3    3    0  502  0.73916559782E+03  0.71684913614E+03  0.23125824784E+04  0.25314573242E+04  0.50400001928E-02 0.  1.
</event>
<event>
 5   0  0.6636007E-08  0.3000647E+04  0.7818609E-02  0.8243546E-01
        1   -1    0    0  501    0  0.00000000000E+00  0.00000000000E+00  0.16979774010E+04  0.16979774010E+04  0.50400001928E-02 0. -1.
       -1   -1    0    0    0  501  0.00000000000E+00  0.00000000000E+00 -0.13256778604E+04  0.13256778604E+04  0.50400001928E-02 0.  1.
    10030    2    1    2    0    0  0.00000000000E+00  0.00000000000E+00  0.37229954053E+03  0.30236552614E+04  0.30006472955E+04 0.  0.
        2    1    3    3  502    0  0.11009846119E+04  0.62738430195E+03  0.99554772667E+03  0.16114879627E+04  0.25500000920E-02 0. -1.
       -2    1    3    3    0  502 -0.11009846119E+04 -0.62738430195E+03 -0.62324818615E+03  0.14121672987E+04  0.25500000920E-02 0.  1.
</event>
<event>
 5   0  0.1810055E-07  0.3000045E+04  0.7818609E-02  0.8243718E-01
       -2   -1    0    0    0  501  0.00000000000E+00  0.00000000000E+00  0.15334951785E+04  0.15334951785E+04  0.25500000920E-02 0.  1.
        2   -1    0    0  501    0  0.00000000000E+00  0.00000000000E+00 -0.14672801610E+04  0.14672801610E+04  0.25500000920E-02 0. -1.
    10030    2    1    2    0    0  0.00000000000E+00  0.00000000000E+00  0.66215017520E+02  0.30007753395E+04  0.30000447012E+04 0.  0.
        4    1    3    3  502    0 -0.14569964118E+04  0.30105096088E+03  0.22445285475E+03  0.15046098903E+04  0.12699999809E+01 0.  1.
       -4    1    3    3    0  502  0.14569964118E+04 -0.30105096088E+03 -0.15823783723E+03  0.14961654491E+04  0.12699999809E+01 0. -1.
</event>
<event>
 5   0  0.6679022E-08  0.2999877E+04  0.7818609E-02  0.8243766E-01
       -1   -1    0    0    0  501  0.00000000000E+00  0.00000000000E+00  0.10581273463E+04  0.10581273464E+04  0.50400001928E-02 0.  1.
        1   -1    0    0  501    0  0.00000000000E+00  0.00000000000E+00 -0.21262234837E+04  0.21262234837E+04  0.50400001928E-02 0. -1.
    10030    2    1    2    0    0  0.00000000000E+00  0.00000000000E+00 -0.10680961373E+04  0.31843508300E+04  0.29998768058E+04 0.  0.
        3    1    3    3  502    0  0.10798451880E+04 -0.43850906548E+02 -0.16381173613E+04  0.19625027469E+04  0.10100000352E+00 0. -1.
       -3    1    3    3    0  502 -0.10798451880E+04  0.43850906548E+02  0.57002122398E+03  0.12218480831E+04  0.10100000352E+00 0.  1.
</event>
<event>
 5   0  0.1813720E-07  0.2998395E+04  0.7818609E-02  0.8244189E-01
        2   -1    0    0  501    0  0.00000000000E+00  0.00000000000E+00  0.14223462175E+04  0.14223462175E+04  0.25500000920E-02 0.  1.
       -2   -1    0    0    0  501  0.00000000000E+00  0.00000000000E+00 -0.15802013620E+04  0.15802013620E+04  0.25500000920E-02 0. -1.
    10030    2    1    2    0    0  0.00000000000E+00  0.00000000000E+00 -0.15785514442E+03  0.30025475795E+04  0.29983951909E+04 0.  0.
        3    1    3    3  502    0  0.64962302797E+03  0.96361526301E+03  0.86950019226E+03  0.14514113986E+04  0.10100000352E+00 0.  1.
       -3    1    3    3    0  502 -0.64962302797E+03 -0.96361526301E+03 -0.10273553367E+04  0.15511361809E+04  0.10100000352E+00 0. -1.
</event>
<event>
 5   0  0.6525507E-08  0.2999968E+04  0.7818609E-02  0.8243740E-01
       -1   -1    0    0    0  501  0.00000000000E+00  0.00000000000E+00  0.15080216572E+04  0.15080216572E+04  0.50400001928E-02 0. -1.
        1   -1    0    0  501    0  0.00000000000E+00  0.00000000000E+00 -0.14919893758E+04  0.14919893758E+04  0.50400001928E-02 0.  1.
    10030    2    1    2    0    0  0.00000000000E+00  0.00000000000E+00  0.16032281407E+02  0.30000110330E+04  0.29999681938E+04 0.  0.
        4    1    3    3  502    0 -0.22853794231E+03  0.13858237674E+04  0.53453441190E+03  0.15028192692E+04  0.12699999809E+01 0. -1.
       -4    1    3    3    0  502  0.22853794231E+03 -0.13858237674E+04 -0.51850213050E+03  0.14971917638E+04  0.12699999809E+01 0.  1.
</event>
<event>
 5   0  0.1817566E-07  0.2999998E+04  0.7818609E-02  0.8243732E-01
       -2   -1    0    0    0  501  0.00000000000E+00  0.00000000000E+00  0.17958665729E+04  0.17958665730E+04  0.25500000920E-02 0. -1.
        2   -1    0    0  501    0  0.00000000000E+00  0.00000000000E+00 -0.12528752362E+04  0.12528752362E+04  0.25500000920E-02 0.  1.
    10030    2    1    2    0    0  0.00000000000E+00  0.00000000000E+00  0.54299133677E+03  0.30487418091E+04  0.29999978378E+04 0.  0.
        1    1    3    3  502    0 -0.12470190851E+04  0.78381930743E+03  0.55995162898E+03  0.15757458971E+04  0.50400001928E-02 0. -1.
       -1    1    3    3    0  502  0.12470190851E+04 -0.78381930743E+03 -0.16960292214E+02  0.14729959120E+04  0.50400001928E-02 0.  1.
</event>
<event>
 5   0  0.6464436E-08  0.2999029E+04  0.7818609E-02  0.8244008E-01
        1   -1    0    0  501    0  0.00000000000E+00  0.00000000000E+00  0.14276090950E+04  0.14276090950E+04  0.50400001928E-02 0. -1.
       -1   -1    0    0    0  501  0.00000000000E+00  0.00000000000E+00 -0.15750419056E+04  0.15750419056E+04  0.50400001928E-02 0.  1.
    10030    2    1    2    0    0  0.00000000000E+00  0.00000000000E+00 -0.14743281064E+03  0.30026510006E+04  0.29990292759E+04 0.  0.
        5    1    3    3  502    0  0.14347544916E+04 -0.12733772629E+02  0.36251546946E+03  0.14799061308E+04  0.46999998093E+01 0.  1.
       -5    1    3    3    0  502 -0.14347544916E+04  0.12733772629E+02 -0.50994828011E+03  0.15227448698E+04  0.46999998093E+01 0. -1.
</event>
<event>
 5   0  0.6525507E-08  0.2998606E+04  0.7818609E-02  0.8244129E-01
       -1   -1    0    0    0  501  0.00000000000E+00  0.00000000000E+00  0.20775040120E+04  0.20775040120E+04  0.50400001928E-02 0.  1.
        1   -1    0    0  501    0  0.00000000000E+00  0.00000000000E+00 -0.10820239641E+04  0.10820239641E+04  0.50400001928E-02 0. -1.
    10030    2    1    2    0    0  0.00000000000E+00  0.00000000000E+00  0.99548004796E+03  0.31595279761E+04  0.29986057604E+04 0.  0.
        4    1    3    3  502    0 -0.59650997864E+03  0.13188854930E+04  0.86102610331E+02  0.14500684021E+04  0.12699999809E+01 0. -1.
       -4    1    3    3    0  502  0.59650997864E+03 -0.13188854930E+04  0.90937743763E+03  0.17094595740E+04  0.12699999809E+01 0.  1.
</event>
<event>
 5   0  0.1813720E-07  0.2999497E+04  0.7818609E-02  0.8243875E-01
        2   -1    0    0  501    0  0.00000000000E+00  0.00000000000E+00  0.22321693621E+04  0.22321693621E+04  0.25500000920E-02 0. -1.
       -2   -1    0    0    0  501  0.00000000000E+00  0.00000000000E+00 -0.10076498015E+04  0.10076498015E+04  0.25500000920E-02 0.  1.
    10030    2    1    2    0    0  0.00000000000E+00  0.00000000000E+00  0.12245195605E+04  0.32398191636E+04  0.29994966342E+04 0.  0.
        3    1    3    3  502    0  0.32667969730E+03  0.52130054375E+03  0.20896074782E+04  0.21782867821E+04  0.10100000352E+00 0. -1.
       -3    1    3    3    0  502 -0.32667969730E+03 -0.52130054375E+03 -0.86508791769E+03  0.10615323816E+04  0.10100000352E+00 0.  1.
</event>
<event>
 5   0  0.6464436E-08  0.3000211E+04  0.7818609E-02  0.8243671E-01
        1   -1    0    0  501    0  0.00000000000E+00  0.00000000000E+00  0.18701649588E+04  0.18701649588E+04  0.50400001928E-02 0. -1.
       -1   -1    0    0    0  501  0.00000000000E+00  0.00000000000E+00 -0.12032719424E+04  0.12032719424E+04  0.50400001928E-02 0.  1.
    10030    2    1    2    0    0  0.00000000000E+00  0.00000000000E+00  0.66689301640E+03  0.30734369012E+04  0.30002113410E+04 0.  0.
        5    1    3    3  502    0  0.99169925290E+03  0.11080275005E+04  0.13087648694E+03  0.14927635764E+04  0.46999998093E+01 0.  1.
       -5    1    3    3    0  502 -0.99169925290E+03 -0.11080275005E+04  0.53601652946E+03  0.15806733249E+04  0.46999998093E+01 0. -1.
</event>
<event>
 5   0  0.6679022E-08  0.2998612E+04  0.7818609E-02  0.8244127E-01
       -1   -1    0    0    0  501  0.00000000000E+00  0.00000000000E+00  0.10842029949E+04  0.10842029949E+04  0.50400001928E-02 0. -1.
        1   -1    0    0  501    0  0.00000000000E+00  0.00000000000E+00 -0.20733371696E+04  0.20733371696E+04  0.50400001928E-02 0.  1.
    10030    2    1    2    0    0  0.00000000000E+00  0.00000000000E+00 -0.98913417470E+03  0.31575401644E+04  0.29986119246E+04 0.  0.
        3    1    3    3  502    0 -0.98742071473E+03  0.52506246243E+03  0.55697309717E+03  0.12493635574E+04  0.10100000352E+00 0. -1.
       -3    1    3    3    0  502  0.98742071473E+03 -0.52506246243E+03 -0.15461072719E+04  0.19081766071E+04  0.10100000352E+00 0.  1.
</event>
<event>
 5   0  0.6636007E-08  0.2999251E+04  0.7818609E-02  0.8243945E-01
       -1   -1    0    0    0  501  0.00000000000E+00  0.00000000000E+00  0.19196809862E+04  0.19196809862E+04  0.50400001928E-02 0. -1.
        1   -1    0    0  501    0  0.00000000000E+00  0.00000000000E+00 -0.11714848881E+04  0.11714848881E+04  0.50400001928E-02 0.  1.
    10030    2    1    2    0    0  0.00000000000E+00  0.00000000000E+00  0.74819609818E+03  0.30911658743E+04  0.29992514168E+04 0.  0.
        2    1    3    3  502    0  0.53723185415E+03 -0.13530472127E+04  0.31766009060E+01  0.14558038727E+04  0.25500000920E-02 0.  1.
       -2    1    3    3    0  502 -0.53723185415E+03  0.13530472127E+04  0.74501949728E+03  0.16353620016E+04  0.25500000920E-02 0. -1.
</event>
<event>
 5   0  0.1821305E-07  0.2998870E+04  0.7818609E-02  0.8244054E-01
       -2   -1    0    0    0  501  0.00000000000E+00  0.00000000000E+00  0.88678942763E+03  0.88678942763E+03  0.25500000920E-02 0. -1.
        2   -1    0    0  501    0  0.00000000000E+00  0.00000000000E+00 -0.25353313710E+04  0.25353313710E+04  0.25500000920E-02 0.  1.
    10030    2    1    2    0    0  0.00000000000E+00  0.00000000000E+00 -0.16485419433E+04  0.34221207986E+04  0.29988698240E+04 0.  0.
        2    1    3    3  502    0  0.65284789518E+03  0.11735435591E+04 -0.63131684417E+02  0.13443959495E+04  0.25500000920E-02 0. -1.
       -2    1    3    3    0  502 -0.65284789518E+03 -0.11735435591E+04 -0.15854102589E+04  0.20777248491E+04  0.25500000920E-02 0.  1.
</event>
<event>
 5   0  0.6525507E-08  0.2999100E+04  0.7818609E-02  0.8243988E-01
       -1   -1    0    0    0  501  0.00000000000E+00  0.00000000000E+00  0.22498619287E+04  0.22498619287E+04  0.50400001928E-02 0.  1.
        1   -1    0    0  501    0  0.00000000000E+00  0.00000000000E+00 -0.99946131817E+03  0.99946131819E+03  0.50400001928E-02 0. -1.
    10030    2    1    2    0    0  0.00000000000E+00  0.00000000000E+00  0.12504006106E+04  0.32493232469E+04  0.29990998443E+04 0.  0.
        4    1    3    3  502    0 -0.11354791259E+04  0.78584501047E+03 -0.81985949291E+01  0.13809178309E+04  0.12699999809E+01 0. -1.
       -4    1    3    3    0  502  0.11354791259E+04 -0.78584501047E+03  0.12585992055E+04  0.18684054160E+04  0.12699999809E+01 0.  1.
</event>
<event>
 5   0  0.6636007E-08  0.2998099E+04  0.7818609E-02  0.8244274E-01
        1   -1    0    0  501    0  0.00000000000E+00  0.00000000000E+00  0.19762635626E+04  0.19762635626E+04  0.50400001928E-02 0. -1.
       -1   -1    0    0    0  501  0.00000000000E+00  0.00000000000E+00 -0.11370699930E+04  0.11370699930E+04  0.50400001928E-02 0.  1.
    10030    2    1    2    0    0  0.00000000000E+00  0.00000000000E+00  0.83919356955E+03  0.31133335556E+04  0.29980993948E+04 0.  0.
        2    1    3    3  502    0 -0.10767514399E+04 -0.26941534662E+03 -0.62668671787E+03  0.12746429048E+04  0.25500000920E-02 0.  1.
       -2    1    3    3    0  502  0.10767514399E+04  0.26941534662E+03  0.14658802874E+04  0.18386906508E+04  0.25500000920E-02 0. -1.
</event>
<event>
 5   0  0.6679022E-08  0.2999765E+04  0.7818609E-02  0.8243798E-01
        1   -1    0    0  501    0  0.00000000000E+00  0.00000000000E+00  0.15010086242E+04  0.15010086242E+04  0.50400001928E-02 0.  1.
       -1   -1    0    0    0  501  0.00000000000E+00  0.00000000000E+00 -0.14987572454E+04  0.14987572454E+04  0.50400001928E-02 0. -1.
    10030    2    1    2    0    0  0.00000000000E+00  0.00000000000E+00  0.22513788342E+01  0.29997658696E+04  0.29997650247E+04 0.  0.
        3    1    3    3  502    0  0.92561574294E+03 -0.76661540760E+03 -0.89619493749E+03  0.14992094793E+04  0.10100000352E+00 0. -1.
       -3    1    3    3    0  502 -0.92561574294E+03  0.76661540760E+03  0.89844631632E+03  0.15005563902E+04  0.10100000352E+00 0.  1.
</event>
<event>
 5   0  0.1817566E-07  0.2997739E+04  0.7818609E-02  0.8244377E-01
        2   -1    0    0  501    0  0.00000000000E+00  0.00000000000E+00  0.23260841320E+04  0.23260841320E+04  0.25500000920E-02 0.  1.
       -2   -1    0    0    0  501  0.00000000000E+00  0.00000000000E+00 -0.96583350506E+03  0.96583350506E+03  0.25500000920E-02 0. -1.
    10030    2    1    2    0    0  0.00000000000E+00  0.00000000000E+00  0.13602506270E+04  0.32919176371E+04  0.29977391416E+04 0.  0.
        1    1    3    3  502    0  0.13144191311E+04 -0.68937801907E+03  0.90960705370E+03  0.17407827830E+04  0.50400001928E-02 0. -1.
       -1    1    3    3    0  502 -0.13144191311E+04  0.68937801907E+03  0.45064357328E+03  0.15511348541E+04  0.50400001928E-02 0.  1.
</event>
<event>
 5   0  0.1810055E-07  0.3001727E+04  0.7818609E-02  0.8243238E-01
        2   -1    0    0  501    0  0.00000000000E+00  0.00000000000E+00  0.19469603522E+04  0.19469603522E+04  0.25500000920E-02 0. -1.
       -2   -1    0    0    0  501  0.00000000000E+00  0.00000000000E+00 -0.11569785150E+04  0.11569785150E+04  0.25500000920E-02 0.  1.
    10030    2    1    2    0    0  0.00000000000E+00  0.00000000000E+00  0.78998183717E+03  0.31039388673E+04  0.30017270343E+04 0.  0.
        4    1    3    3  502    0  0.12830845960E+04 -0.75762186503E+03  0.58081167827E+03  0.15992625768E+04  0.12699999809E+01 0.  1.
       -4    1    3    3    0  502 -0.12830845960E+04  0.75762186503E+03  0.20917015890E+03  0.15046762905E+04  0.12699999809E+01 0. -1.
</event>
<event>
 5   0  0.6374748E-08  0.3000369E+04  0.7818609E-02  0.8243626E-01
       -1   -1    0    0    0  501  0.00000000000E+00  0.00000000000E+00  0.11785102674E+04  0.11785102674E+04  0.50400001928E-02 0.  1.
        1   -1    0    0  501    0  0.00000000000E+00  0.00000000000E+00 -0.19096592955E+04  0.19096592955E+04  0.50400001928E-02 0. -1.
    10030    2    1    2    0    0  0.00000000000E+00  0.00000000000E+00 -0.73114902810E+03  0.30881695629E+04  0.30003687020E+04 0.  0.
        1    1    3    3  502    0 -0.48081906644E+03  0.13077869151E+04  0.20662509740E+03  0.14086119128E+04  0.50400001928E-02 0. -1.
       -1    1    3    3    0  502  0.48081906644E+03 -0.13077869151E+04 -0.93777412549E+03  0.16795576502E+04  0.50400001928E-02 0.  1.
</event>
<event>
 5   0  0.1817566E-07  0.2996712E+04  0.7818609E-02  0.8244670E-01
       -2   -1    0    0    0  501  0.00000000000E+00  0.00000000000E+00  0.15885376973E+04  0.15885376973E+04  0.25500000920E-02 0.  1.
        2   -1    0    0  501    0  0.00000000000E+00  0.00000000000E+00 -0.14132940393E+04  0.14132940393E+04  0.25500000920E-02 0. -1.
    10030    2    1    2    0    0  0.00000000000E+00  0.00000000000E+00  0.17524365794E+03  0.30018317366E+04  0.29967121041E+04 0.  0.
        1    1    3    3  502    0  0.27012612690E+03 -0.76254318023E+03  0.13509785460E+04  0.15746692535E+04  0.50400001928E-02 0.  1.
       -1    1    3    3    0  502 -0.27012612690E+03  0.76254318023E+03 -0.11757348880E+04  0.14271624831E+04  0.50400001928E-02 0. -1.
</event>
<event>
 5   0  0.1810055E-07  0.2996165E+04  0.7818609E-02  0.8244827E-01
       -2   -1    0    0    0  501  0.00000000000E+00  0.00000000000E+00  0.11579494086E+04  0.11579494086E+04  0.25500000920E-02 0.  1.
        2   -1    0    0  501    0  0.00000000000E+00  0.00000000000E+00 -0.19381257965E+04  0.19381257965E+04  0.25500000920E-02 0. -1.
    10030    2    1    2    0    0  0.00000000000E+00  0.00000000000E+00 -0.78017638792E+03  0.30960752051E+04  0.29961652958E+04 0.  0.
        4    1    3    3  502    0 -0.19882560327E+03  0.13991541651E+04 -0.90374117052E+03  0.16774724184E+04  0.12699999809E+01 0. -1.
       -4    1    3    3    0  502  0.19882560327E+03 -0.13991541651E+04  0.12356478260E+03  0.14186027868E+04  0.12699999809E+01 0.  1.
</event>
<event>
 5   0  0.1914439E-07  0.2999713E+04  0.7818609E-02  0.8243813E-01
       -2   -1    0    0    0  501  0.00000000000E+00  0.00000000000E+00  0.10449114622E+04  0.10449114622E+04  0.25500000920E-02 0.  1.
        2   -1    0    0  501    0  0.00000000000E+00  0.00000000000E+00 -0.21528804186E+04  0.21528804186E+04  0.25500000920E-02 0. -1.
    10030    2    1    2    0    0  0.00000000000E+00  0.00000000000E+00 -0.11079689564E+04  0.31977918808E+04  0.29997129370E+04 0.  0.
        5    1    3    3  502    0 -0.45409746418E+03 -0.13434788069E+04 -0.10744961573E+04  0.17792425056E+04  0.46999998093E+01 0. -1.
       -5    1    3    3    0  502  0.45409746418E+03  0.13434788069E+04 -0.33472799036E+02  0.14185493752E+04  0.46999998093E+01 0.  1.
</event>
<event>
 5   0  0.1817566E-07  0.3000617E+04  0.7818609E-02  0.8243555E-01
       -2   -1    0    0    0  501  0.00000000000E+00  0.00000000000E+00  0.13292305158E+04  0.13292305158E+04  0.25500000920E-02 0. -1.
        2   -1    0    0  501    0  0.00000000000E+00  0.00000000000E+00 -0.16934051677E+04  0.16934051677E+04  0.25500000920E-02 0.  1.
    10030    2    1    2    0    0  0.00000000000E+00  0.00000000000E+00 -0.36417465188E+03  0.30226356835E+04  0.30006171528E+04 0.  0.
        1    1    3    3  502    0  0.12622957630E+04  0.14625538373E+03  0.62135209731E+03  0.14145174652E+04  0.50400001928E-02 0. -1.
       -1    1    3    3    0  502 -0.12622957630E+04 -0.14625538373E+03 -0.98552674920E+03  0.16081182183E+04  0.50400001928E-02 0.  1.
</event>
<event>
 5   0  0.1914439E-07  0.2999798E+04  0.7818609E-02  0.8243789E-01
       -2   -1    0    0    0  501  0.00000000000E+00  0.00000000000E+00  0.13056269507E+04  0.13056269507E+04  0.25500000920E-02 0.  1.
        2   -1    0    0  501    0  0.00000000000E+00  0.00000000000E+00 -0.17230779968E+04  0.17230779968E+04  0.25500000920E-02 0. -1.
    10030    2    1    2    0    0  0.00000000000E+00  0.00000000000E+00 -0.41745104615E+03  0.30287049475E+04  0.29997980404E+04 0.  0.
        5    1    3    3  502    0  0.97797750636E+03 -0.54409661096E+03 -0.12169442198E+04  0.16533168024E+04  0.46999998093E+01 0. -1.
       -5    1    3    3    0  502 -0.97797750636E+03  0.54409661096E+03  0.79949317368E+03  0.13753881451E+04  0.46999998093E+01 0.  1.
</event>
<event>
 5   0  0.1817566E-07  0.3000043E+04  0.7818609E-02  0.8243719E-01
       -2   -1    0    0    0  501  0.00000000000E+00  0.00000000000E+00  0.11208565878E+04  0.11208565878E+04  0.25500000920E-02 0.  1.
        2   -1    0    0  501    0  0.00000000000E+00  0.00000000000E+00 -0.20074502247E+04  0.20074502247E+04  0.25500000920E-02 0. -1.
    10030    2    1    2    0    0  0.00000000000E+00  0.00000000000E+00 -0.88659363691E+03  0.31283068126E+04  0.30000425391E+04 0.  0.
        1    1    3    3  502    0 -0.33585034002E+03 -0.67451794369E+03  0.90918944515E+03  0.11808451865E+04  0.50400001928E-02 0.  1.
       -1    1    3    3    0  502  0.33585034002E+03  0.67451794369E+03 -0.17957830821E+04  0.19474616261E+04  0.50400001928E-02 0. -1.
</event>
<event>
 5   0  0.6525507E-08  0.3001036E+04  0.7818609E-02  0.8243435E-01
        1   -1    0    0  501    0  0.00000000000E+00  0.00000000000E+00  0.11423662608E+04  0.11423662608E+04  0.50400001928E-02 0. -1.
       -1   -1    0    0    0  501  0.00000000000E+00  0.00000000000E+00 -0.19709563919E+04  0.19709563919E+04  0.50400001928E-02 0.  1.
    10030    2    1    2    0    0  0.00000000000E+00  0.00000000000E+00 -0.82859013110E+03  0.31133226526E+04  0.30010358768E+04 0.  0.
        4    1    3    3  502    0  0.55977308365E+03  0.18019138831E+03  0.10178417160E+04  0.11755076407E+04  0.12699999809E+01 0. -1.
       -4    1    3    3    0  502 -0.55977308365E+03 -0.18019138831E+03 -0.18464318471E+04  0.19378150119E+04  0.12699999809E+01 0.  1.
</event>
<event>
 5   0  0.6679022E-08  0.3007180E+04  0.7818609E-02  0.8241684E-01
        1   -1    0    0  501    0  0.00000000000E+00  0.00000000000E+00  0.20620498054E+04  0.20620498054E+04  0.50400001928E-02 0. -1.
       -1   -1    0    0    0  501  0.00000000000E+00  0.00000000000E+00 -0.10963763927E+04  0.10963763927E+04  0.50400001928E-02 0.  1.
    10030    2    1    2    0    0  0.00000000000E+00  0.00000000000E+00  0.96567341272E+03  0.31584261981E+04  0.30071798930E+04 0.  0.
        3    1    3    3  502    0  0.83870419561E+03  0.20560319005E+03  0.17756323180E+04  0.19744790549E+04  0.10100000352E+00 0. -1.
       -3    1    3    3    0  502 -0.83870419561E+03 -0.20560319005E+03 -0.80995890524E+03  0.11839471432E+04  0.10100000352E+00 0.  1.
</event>
<event>
 5   0  0.1817566E-07  0.3000774E+04  0.7818609E-02  0.8243510E-01
        2   -1    0    0  501    0  0.00000000000E+00  0.00000000000E+00  0.15695265236E+04  0.15695265236E+04  0.25500000920E-02 0. -1.
       -2   -1    0    0    0  501  0.00000000000E+00  0.00000000000E+00 -0.14342933621E+04  0.14342933621E+04  0.25500000920E-02 0.  1.
    10030    2    1    2    0    0  0.00000000000E+00  0.00000000000E+00  0.13523316149E+03  0.30038198856E+04  0.30007742163E+04 0.  0.
        1    1    3    3  502    0  0.57440905710E+03  0.95138165540E+03  0.10766519037E+04  0.15473371129E+04  0.50400001928E-02 0. -1.
       -1    1    3    3    0  502 -0.57440905710E+03 -0.95138165540E+03 -0.94141874223E+03  0.14564827728E+04  0.50400001928E-02 0.  1.
</event>
<event>
 5   0  0.6636007E-08  0.3000114E+04  0.7818609E-02  0.8243698E-01
        1   -1    0    0  501    0  0.00000000000E+00  0.00000000000E+00  0.11515480099E+04  0.11515480099E+04  0.50400001928E-02 0.  1.
       -1   -1    0    0    0  501  0.00000000000E+00  0.00000000000E+00 -0.19540404590E+04  0.19540404590E+04  0.50400001928E-02 0. -1.
    10030    2    1    2    0    0  0.00000000000E+00  0.00000000000E+00 -0.80249244914E+03  0.31055884690E+04  0.30001142658E+04 0.  0.
        2    1    3    3  502    0 -0.30787867341E+02 -0.14504290340E+04 -0.79607286805E+03  0.16548185056E+04  0.25500000920E-02 0.  1.
       -2    1    3    3    0  502  0.30787867341E+02  0.14504290340E+04 -0.64195810927E+01  0.14507699633E+04  0.25500000920E-02 0. -1.
</event>
<event>
 5   0  0.1821305E-07  0.3000254E+04  0.7818609E-02  0.8243658E-01
        2   -1    0    0  501    0  0.00000000000E+00  0.00000000000E+00  0.22220613790E+04  0.22220613790E+04  0.25500000920E-02 0. -1.
       -2   -1    0    0    0  501  0.00000000000E+00  0.00000000000E+00 -0.10127449173E+04  0.10127449173E+04  0.25500000920E-02 0.  1.
    10030    2    1    2    0    0  0.00000000000E+00  0.00000000000E+00  0.12093164617E+04  0.32348062963E+04  0.30002542343E+04 0.  0.
        2    1    3    3  502    0  0.10769357544E+04  0.10375552086E+04  0.47676831297E+03  0.15695921299E+04  0.25500000920E-02 0.  1.
       -2    1    3    3    0  502 -0.10769357544E+04 -0.10375552086E+04  0.73254814871E+03  0.16652141664E+04  0.25500000920E-02 0. -1.
</event>
<event>
 5   0  0.6525507E-08  0.3000070E+04  0.7818609E-02  0.8243711E-01
       -1   -1    0    0    0  501  0.00000000000E+00  0.00000000000E+00  0.13815606673E+04  0.13815606673E+04  0.50400001928E-02 0. -1.
        1   -1    0    0  501    0  0.00000000000E+00  0.00000000000E+00 -0.16286691111E+04  0.16286691111E+04  0.50400001928E-02 0.  1.
    10030    2    1    2    0    0  0.00000000000E+00  0.00000000000E+00 -0.24710844377E+03  0.30102297784E+04  0.30000701218E+04 0.  0.
        4    1    3    3  502    0 -0.29050596635E+02 -0.61643170971E+03  0.12482888792E+04  0.13925008900E+04  0.12699999809E+01 0. -1.
       -4    1    3    3    0  502  0.29050596635E+02  0.61643170971E+03 -0.14953973230E+04  0.16177288884E+04  0.12699999809E+01 0.  1.
</event>
<event>
 5   0  0.1914439E-07  0.3002864E+04  0.7818609E-02  0.8242914E-01
       -2   -1    0    0    0  501  0.00000000000E+00  0.00000000000E+00  0.77224287047E+03  0.77224287047E+03  0.25500000920E-02 0.  1.
        2   -1    0    0  501    0  0.00000000000E+00  0.00000000000E+00 -0.29191560092E+04  0.29191560092E+04  0.25500000920E-02 0. -1.
    10030    2    1    2    0    0  0.00000000000E+00  0.00000000000E+00 -0.21469131387E+04  0.36913988797E+04  0.30028635773E+04 0.  0.
        5    1    3    3  502    0  0.29787888758E+03  0.14707807862E+04 -0.10138977010E+04  0.18110600738E+04  0.46999998093E+01 0. -1.
       -5    1    3    3    0  502 -0.29787888758E+03 -0.14707807862E+04 -0.11330154377E+04  0.18803388059E+04  0.46999998093E+01 0.  1.
</event>
<event>
 5   0  0.6374748E-08  0.2997697E+04  0.7818609E-02  0.8244389E-01
        1   -1    0    0  501    0  0.00000000000E+00  0.00000000000E+00  0.11041963425E+04  0.11041963425E+04  0.50400001928E-02 0.  1.
       -1   -1    0    0    0  501  0.00000000000E+00  0.00000000000E+00 -0.20345532975E+04  0.20345532975E+04  0.50400001928E-02 0. -1.
    10030    2    1    2    0    0  0.00000000000E+00  0.00000000000E+00 -0.93035695505E+03  0.31387496400E+04  0.29976966556E+04 0.  0.
        1    1    3    3  502    0 -0.11267744027E+04 -0.62398738200E+03  0.33741779248E+03  0.13314772150E+04  0.50400001928E-02 0.  1.
       -1    1    3    3    0  502  0.11267744027E+04  0.62398738200E+03 -0.12677747475E+04  0.18072724249E+04  0.50400001928E-02 0. -1.
</event>
<event>
 5   0  0.1817566E-07  0.3000184E+04  0.7818609E-02  0.8243678E-01
        2   -1    0    0  501    0  0.00000000000E+00  0.00000000000E+00  0.16332837370E+04  0.16332837370E+04  0.25500000920E-02 0.  1.
       -2   -1    0    0    0  501  0.00000000000E+00  0.00000000000E+00 -0.13777615624E+04  0.13777615624E+04  0.25500000920E-02 0. -1.
    10030    2    1    2    0    0  0.00000000000E+00  0.00000000000E+00  0.25552217459E+03  0.30110452994E+04  0.30001836966E+04 0.  0.
        1    1    3    3  502    0  0.97456070805E+03  0.10934982930E+04  0.45261247672E+03  0.15330900641E+04  0.50400001928E-02 0.  1.
       -1    1    3    3    0  502 -0.97456070805E+03 -0.10934982930E+04 -0.19709030213E+03  0.14779552353E+04  0.50400001928E-02 0. -1.
</event>
<event>
 5   0  0.6636007E-08  0.2999762E+04  0.7818609E-02  0.8243799E-01
        1   -1    0    0  501    0  0.00000000000E+00  0.00000000000E+00  0.10861120285E+04  0.10861120285E+04  0.50400001928E-02 0.  1.
       -1   -1    0    0    0  501  0.00000000000E+00  0.00000000000E+00 -0.20712803839E+04  0.20712803839E+04  0.50400001928E-02 0. -1.
    10030    2    1    2    0    0  0.00000000000E+00  0.00000000000E+00 -0.98516835541E+03  0.31573924124E+04  0.29997616834E+04 0.  0.
        2    1    3    3  502    0  0.51393214005E+03  0.12592118742E+04  0.17302371048E+03  0.13710134912E+04  0.25500000920E-02 0.  1.
       -2    1    3    3    0  502 -0.51393214005E+03 -0.12592118742E+04 -0.11581920659E+04  0.17863789212E+04  0.25500000920E-02 0. -1.
</event>
<event>
 5   0  0.6636007E-08  0.2999042E+04  0.7818609E-02  0.8244005E-01
       -1   -1    0    0    0  501  0.00000000000E+00  0.00000000000E+00  0.13902513826E+04  0.13902513826E+04  0.50400001928E-02 0.  1.
        1   -1    0    0  501    0  0.00000000000E+00  0.00000000000E+00 -0.16173785216E+04  0.16173785216E+04  0.50400001928E-02 0. -1.
    10030    2    1    2    0    0  0.00000000000E+00  0.00000000000E+00 -0.22712713904E+03  0.30076299042E+04  0.29990416642E+04 0.  0.
        2    1    3    3  502    0  0.40808683723E+03  0.97814196605E+03 -0.11773869307E+04  0.15841516838E+04  0.25500000920E-02 0. -1.
       -2    1    3    3    0  502 -0.40808683723E+03 -0.97814196605E+03  0.95025979169E+03  0.14234782205E+04  0.25500000920E-02 0.  1.
</event>
<event>
 5   0  0.6679022E-08  0.2997624E+04  0.7818609E-02  0.8244410E-01
        1   -1    0    0  501    0  0.00000000000E+00  0.00000000000E+00  0.15864312240E+04  0.15864312240E+04  0.50400001928E-02 0.  1.
       -1   -1    0    0    0  501  0.00000000000E+00  0.00000000000E+00 -0.14160317455E+04  0.14160317455E+04  0.50400001928E-02 0. -1.
    10030    2    1    2    0    0  0.00000000000E+00  0.00000000000E+00  0.17039947853E+03  0.30024629695E+04  0.29976237090E+04 0.  0.
        3    1    3    3  502    0 -0.27108069169E+03  0.25258767932E+02 -0.13910569113E+04  0.14174491480E+04  0.10100000352E+00 0. -1.
       -3    1    3    3    0  502  0.27108069169E+03 -0.25258767932E+02  0.15614563898E+04  0.15850138214E+04  0.10100000352E+00 0.  1.
</event>
<event>
 5   0  0.6464436E-08  0.3001358E+04  0.7818609E-02  0.8243343E-01
       -1   -1    0    0    0  501  0.00000000000E+00  0.00000000000E+00  0.12208418714E+04  0.12208418714E+04  0.50400001928E-02 0.  1.
        1   -1    0    0  501    0  0.00000000000E+00  0.00000000000E+00 -0.18446589385E+04  0.18446589385E+04  0.50400001928E-02 0. -1.
    10030    2    1    2    0    0  0.00000000000E+00  0.00000000000E+00 -0.62381706708E+03  0.30655008098E+04  0.30013576065E+04 0.  0.
        5    1    3    3  502    0 -0.41284419507E+03  0.49355718594E+03 -0.16966018004E+04  0.18145299072E+04  0.46999998093E+01 0. -1.
       -5    1    3    3    0  502  0.41284419507E+03 -0.49355718594E+03  0.10727847333E+04  0.12509709026E+04  0.46999998093E+01 0.  1.
</event>
<event>
 5   0  0.6525507E-08  0.2997539E+04  0.7818609E-02  0.8244434E-01
        1   -1    0    0  501    0  0.00000000000E+00  0.00000000000E+00  0.79442481187E+03  0.79442481188E+03  0.50400001928E-02 0.  1.
       -1   -1    0    0    0  501  0.00000000000E+00  0.00000000000E+00 -0.28275922223E+04  0.28275922223E+04  0.50400001928E-02 0. -1.
    10030    2    1    2    0    0  0.00000000000E+00  0.00000000000E+00 -0.20331674104E+04  0.36220170342E+04  0.29975386031E+04 0.  0.
        4    1    3    3  502    0 -0.71237194124E+03 -0.12228452732E+04 -0.16128227841E+04  0.21456987885E+04  0.12699999809E+01 0. -1.
       -4    1    3    3    0  502  0.71237194124E+03  0.12228452732E+04 -0.42034462631E+03  0.14763182457E+04  0.12699999809E+01 0.  1.
</event>
<event>
 5   0  0.1810055E-07  0.2998878E+04  0.7818609E-02  0.8244051E-01
       -2   -1    0    0    0  501  0.00000000000E+00  0.00000000000E+00  0.15378663508E+04  0.15378663508E+04  0.25500000920E-02 0. -1.
        2   -1    0    0  501    0  0.00000000000E+00  0.00000000000E+00 -0.14619717993E+04  0.14619717993E+04  0.25500000920E-02 0.  1.
    10030    2    1    2    0    0  0.00000000000E+00  0.00000000000E+00  0.75894551509E+02  0.29998381502E+04  0.29988779476E+04 0.  0.
        4    1    3    3  502    0 -0.67589598928E+03  0.48297612181E+03 -0.12107369522E+04  0.14683279276E+04  0.12699999809E+01 0.  1.
       -4    1    3    3    0  502  0.67589598928E+03 -0.48297612181E+03  0.12866315037E+04  0.15315102226E+04  0.12699999809E+01 0. -1.
</event>
<event>
 5   0  0.1817566E-07  0.2999247E+04  0.7818609E-02  0.8243946E-01
       -2   -1    0    0    0  501  0.00000000000E+00  0.00000000000E+00  0.17740113336E+04  0.17740113336E+04  0.25500000920E-02 0.  1.
        2   -1    0    0  501    0  0.00000000000E+00  0.00000000000E+00 -0.12676756287E+04  0.12676756287E+04  0.25500000920E-02 0. -1.
    10030    2    1    2    0    0  0.00000000000E+00  0.00000000000E+00  0.50633570494E+03  0.30416869623E+04  0.29992471939E+04 0.  0.
        1    1    3    3  502    0  0.19242010509E+03  0.32580076243E+03 -0.12184682426E+04  0.12758669570E+04  0.50400001928E-02 0. -1.
       -1    1    3    3    0  502 -0.19242010509E+03 -0.32580076243E+03  0.17248039475E+04  0.17658200053E+04  0.50400001928E-02 0.  1.
</event>
<event>
 5   0  0.1914439E-07  0.2998975E+04  0.7818609E-02  0.8244024E-01
       -2   -1    0    0    0  501  0.00000000000E+00  0.00000000000E+00  0.13046705248E+04  0.13046705248E+04  0.25500000920E-02 0.  1.
        2   -1    0    0  501    0  0.00000000000E+00  0.00000000000E+00 -0.17233948287E+04  0.17233948287E+04  0.25500000920E-02 0. -1.
    10030    2    1    2    0    0  0.00000000000E+00  0.00000000000E+00 -0.41872430388E+03  0.30280653534E+04  0.29989747818E+04 0.  0.
        5    1    3    3  502    0  0.11084911414E+04 -0.78116237732E+03 -0.85547013253E+03  0.16033772195E+04  0.46999998093E+01 0.  1.
       -5    1    3    3    0  502 -0.11084911414E+04  0.78116237732E+03  0.43674582865E+03  0.14246881340E+04  0.46999998093E+01 0. -1.
</event>
<event>
 5   0  0.1821305E-07  0.3000803E+04  0.7818609E-02  0.8243502E-01
        2   -1    0    0  501    0  0.00000000000E+00  0.00000000000E+00  0.16250372023E+04  0.16250372023E+04  0.25500000920E-02 0.  1.
       -2   -1    0    0    0  501  0.00000000000E+00  0.00000000000E+00 -0.13853252925E+04  0.13853252926E+04  0.25500000920E-02 0. -1.
    10030    2    1    2    0    0  0.00000000000E+00  0.00000000000E+00  0.23971190972E+03  0.30103624948E+04  0.30008033175E+04 0.  0.
        2    1    3    3  502    0 -0.10652888612E+04  0.51851809078E+03 -0.80367633089E+03  0.14316413703E+04  0.25500000920E-02 0. -1.
       -2    1    3    3    0  502  0.10652888612E+04 -0.51851809078E+03  0.10433882406E+04  0.15787211245E+04  0.25500000920E-02 0.  1.
</event>
<event>
 5   0  0.6636007E-08  0.3001938E+04  0.7818609E-02  0.8243178E-01
       -1   -1    0    0    0  501  0.00000000000E+00  0.00000000000E+00  0.13216027156E+04  0.13216027157E+04  0.50400001928E-02 0.  1.
        1   -1    0    0  501    0  0.00000000000E+00  0.00000000000E+00 -0.17046782574E+04  0.17046782575E+04  0.50400001928E-02 0. -1.
    10030    2    1    2    0    0  0.00000000000E+00  0.00000000000E+00 -0.38307554180E+03  0.30262809731E+04  0.30019376505E+04 0.  0.
        2    1    3    3  502    0 -0.26504926302E+03  0.26244717419E+02  0.12975891673E+04  0.13246424212E+04  0.25500000920E-02 0.  1.
       -2    1    3    3    0  502  0.26504926302E+03 -0.26244717419E+02 -0.16806647091E+04  0.17016385519E+04  0.25500000920E-02 0. -1.
</event>
<event>
 5   0  0.6374748E-08  0.3000741E+04  0.7818609E-02  0.8243519E-01
        1   -1    0    0  501    0  0.00000000000E+00  0.00000000000E+00  0.11601288734E+04  0.11601288734E+04  0.50400001928E-02 0. -1.
       -1   -1    0    0    0  501  0.00000000000E+00  0.00000000000E+00 -0.19403977416E+04  0.19403977416E+04  0.50400001928E-02 0.  1.
    10030    2    1    2    0    0  0.00000000000E+00  0.00000000000E+00 -0.78026886823E+03  0.31005266150E+04  0.30007408724E+04 0.  0.
        1    1    3    3  502    0  0.89368480427E+03 -0.36917957698E+03 -0.15755179890E+04  0.18485732398E+04  0.50400001928E-02 0.  1.
       -1    1    3    3    0  502 -0.89368480427E+03  0.36917957698E+03  0.79524912072E+03  0.12519533751E+04  0.50400001928E-02 0. -1.
</event>
<event>
 5   0  0.1914439E-07  0.3000150E+04  0.7818609E-02  0.8243688E-01
        2   -1    0    0  501    0  0.00000000000E+00  0.00000000000E+00  0.16975780930E+04  0.16975780930E+04  0.25500000920E-02 0.  1.
       -2   -1    0    0    0  501  0.00000000000E+00  0.00000000000E+00 -0.13255498947E+04  0.13255498947E+04  0.25500000920E-02 0. -1.
    10030    2    1    2    0    0  0.00000000000E+00  0.00000000000E+00  0.37202819831E+03  0.30231279877E+04  0.30001496379E+04 0.  0.
        5    1    3    3  502    0  0.66349780761E+03 -0.63062671230E+01 -0.11696275347E+04  0.13447378070E+04  0.46999998093E+01 0. -1.
       -5    1    3    3    0  502 -0.66349780761E+03  0.63062671230E+01  0.15416557330E+04  0.16783901807E+04  0.46999998093E+01 0.  1.
</event>
<event>
 5   0  0.1817566E-07  0.2997836E+04  0.7818609E-02  0.8244349E-01
       -2   -1    0    0    0  501  0.00000000000E+00  0.00000000000E+00  0.11441360730E+04  0.11441360730E+04  0.25500000920E-02 0. -1.
        2   -1    0    0  501    0  0.00000000000E+00  0.00000000000E+00 -0.19637129411E+04  0.19637129411E+04  0.25500000920E-02 0.  1.
    10030    2    1    2    0    0  0.00000000000E+00  0.00000000000E+00 -0.81957686817E+03  0.31078490141E+04  0.29978357613E+04 0.  0.
        1    1    3    3  502    0  0.10141998658E+04  0.34003708330E+03 -0.14983348050E+04  0.18409871737E+04  0.50400001928E-02 0.  1.
       -1    1    3    3    0  502 -0.10141998658E+04 -0.34003708330E+03  0.67875793683E+03  0.12668618404E+04  0.50400001928E-02 0. -1.
</event>
<event>
 5   0  0.6464436E-08  0.3002453E+04  0.7818609E-02  0.8243031E-01
        1   -1    0    0  501    0  0.00000000000E+00  0.00000000000E+00  0.15353491275E+04  0.15353491275E+04  0.50400001928E-02 0.  1.
       -1   -1    0    0    0  501  0.00000000000E+00  0.00000000000E+00 -0.14678618985E+04  0.14678618985E+04  0.50400001928E-02 0. -1.
    10030    2    1    2    0    0  0.00000000000E+00  0.00000000000E+00  0.67487229027E+02  0.30032110260E+04  0.30024526541E+04 0.  0.
        5    1    3    3  502    0  0.15200281908E+03 -0.38305797752E+03 -0.14101652942E+04  0.14691584387E+04  0.46999998093E+01 0. -1.
       -5    1    3    3    0  502 -0.15200281908E+03  0.38305797752E+03  0.14776525232E+04  0.15340525873E+04  0.46999998093E+01 0.  1.
</event>
<event>
 5   0  0.6679022E-08  0.2998437E+04  0.7818609E-02  0.8244177E-01
        1   -1    0    0  501    0  0.00000000000E+00  0.00000000000E+00  0.12898163188E+04  0.12898163188E+04  0.50400001928E-02 0.  1.
       -1   -1    0    0    0  501  0.00000000000E+00  0.00000000000E+00 -0.17426173258E+04  0.17426173259E+04  0.50400001928E-02 0. -1.
    10030    2    1    2    0    0  0.00000000000E+00  0.00000000000E+00 -0.45280100701E+03  0.30324336447E+04  0.29984371025E+04 0.  0.
        3    1    3    3  502    0  0.98415450641E+02 -0.10640017659E+04 -0.12899276444E+04  0.16750219989E+04  0.10100000352E+00 0. -1.
       -3    1    3    3    0  502 -0.98415450641E+02  0.10640017659E+04  0.83712663741E+03  0.13574116458E+04  0.10100000352E+00 0.  1.
</event>
<event>
 5   0  0.1914439E-07  0.3000319E+04  0.7818609E-02  0.8243640E-01
       -2   -1    0    0    0  501  0.00000000000E+00  0.00000000000E+00  0.16632348851E+04  0.16632348851E+04  0.25500000920E-02 0. -1.
        2   -1    0    0  501    0  0.00000000000E+00  0.00000000000E+00 -0.13530730911E+04  0.13530730911E+04  0.25500000920E-02 0.  1.
    10030    2    1    2    0    0  0.00000000000E+00  0.00000000000E+00  0.31016179400E+03  0.30163079762E+04  0.30003188945E+04 0.  0.
        5    1    3    3  502    0 -0.10668021197E+04 -0.71378987941E+03 -0.62551915251E+03  0.14278862191E+04  0.46999998093E+01 0.  1.
       -5    1    3    3    0  502  0.10668021197E+04  0.71378987941E+03  0.93568094650E+03  0.15884217570E+04  0.46999998093E+01 0. -1.
</event>
<event>
 5   0  0.6679022E-08  0.2999297E+04  0.7818609E-02  0.8243932E-01
        1   -1    0    0  501    0  0.00000000000E+00  0.00000000000E+00  0.18536939575E+04  0.18536939575E+04  0.50400001928E-02 0. -1.
       -1   -1    0    0    0  501  0.00000000000E+00  0.00000000000E+00 -0.12132239010E+04  0.12132239010E+04  0.50400001928E-02 0.  1.
    10030    2    1    2    0    0  0.00000000000E+00  0.00000000000E+00  0.64047005645E+03  0.30669178585E+04  0.29992971272E+04 0.  0.
        3    1    3    3  502    0 -0.12662736477E+04 -0.80097527563E+03  0.25608741946E+03  0.15200628670E+04  0.10100000352E+00 0.  1.
       -3    1    3    3    0  502  0.12662736477E+04  0.80097527563E+03  0.38438263699E+03  0.15468549915E+04  0.10100000352E+00 0. -1.
</event>
<event>
 5   0  0.1813720E-07  0.3000777E+04  0.7818609E-02  0.8243509E-01
       -2   -1    0    0    0  501  0.00000000000E+00  0.00000000000E+00  0.10862458441E+04  0.10862458441E+04  0.25500000920E-02 0. -1.
        2   -1    0    0  501    0  0.00000000000E+00  0.00000000000E+00 -0.20724272256E+04  0.20724272256E+04  0.25500000920E-02 0.  1.
    10030    2    1    2    0    0  0.00000000000E+00  0.00000000000E+00 -0.98618138158E+03  0.31586730697E+04  0.30007768734E+04 0.  0.
        3    1    3    3  502    0 -0.91447381416E+03 -0.13447925928E+03  0.75096823287E+03  0.11909241474E+04  0.10100000352E+00 0. -1.
       -3    1    3    3    0  502  0.91447381416E+03  0.13447925928E+03 -0.17371496144E+04  0.19677489223E+04  0.10100000352E+00 0.  1.
</event>
<event>
 5   0  0.6636007E-08  0.2981308E+04  0.7818609E-02  0.8249089E-01
        1   -1    0    0  501    0  0.00000000000E+00  0.00000000000E+00  0.19997098556E+04  0.19997098556E+04  0.50400001928E-02 0.  1.
       -1   -1    0    0    0  501  0.00000000000E+00  0.00000000000E+00 -0.11111856589E+04  0.11111856589E+04  0.50400001928E-02 0. -1.
    10030    2    1    2    0    0  0.00000000000E+00  0.00000000000E+00  0.88852419666E+03  0.31108955145E+04  0.29813077087E+04 0.  0.
        2    1    3    3  502    0  0.16308929484E+03 -0.14754182342E+04  0.58654073219E+03  0.15960849333E+04  0.25500000920E-02 0. -1.
       -2    1    3    3    0  502 -0.16308929484E+03  0.14754182342E+04  0.30198346447E+03  0.15148105811E+04  0.25500000920E-02 0.  1.
</event>
<event>
 5   0  0.1817566E-07  0.3001920E+04  0.7818609E-02  0.8243183E-01
       -2   -1    0    0    0  501  0.00000000000E+00  0.00000000000E+00  0.19707616520E+04  0.19707616520E+04  0.25500000920E-02 0.  1.
        2   -1    0    0  501    0  0.00000000000E+00  0.00000000000E+00 -0.11431524887E+04  0.11431524887E+04  0.25500000920E-02 0. -1.
    10030    2    1    2    0    0  0.00000000000E+00  0.00000000000E+00  0.82760916337E+03  0.31139141407E+04  0.30019201103E+04 0.  0.
        1    1    3    3  502    0 -0.13667392101E+04  0.49132048552E+03  0.80676370294E+03  0.16613968702E+04  0.50400001928E-02 0.  1.
       -1    1    3    3    0  502  0.13667392101E+04 -0.49132048552E+03  0.20845460436E+02  0.14525172705E+04  0.50400001928E-02 0. -1.
</event>
<event>
 5   0  0.6636007E-08  0.3001618E+04  0.7818609E-02  0.8243269E-01
       -1   -1    0    0    0  501  0.00000000000E+00  0.00000000000E+00  0.11536020215E+04  0.11536020215E+04  0.50400001928E-02 0.  1.
        1   -1    0    0  501    0  0.00000000000E+00  0.00000000000E+00 -0.19525169356E+04  0.19525169356E+04  0.50400001928E-02 0. -1.
    10030    2    1    2    0    0  0.00000000000E+00  0.00000000000E+00 -0.79891491417E+03  0.31061189571E+04  0.30016178863E+04 0.  0.
        2    1    3    3  502    0  0.21378147847E+03  0.95367010149E+02  0.11345941735E+04  0.11584909692E+04  0.25500000920E-02 0.  1.
       -2    1    3    3    0  502 -0.21378147847E+03 -0.95367010149E+02 -0.19335090877E+04  0.19476279879E+04  0.25500000920E-02 0. -1.
</event>
<event>
 5   0  0.1810055E-07  0.2999099E+04  0.7818609E-02  0.8243988E-01
       -2   -1    0    0    0  501  0.00000000000E+00  0.00000000000E+00  0.99452925831E+03  0.99452925831E+03  0.25500000920E-02 0.  1.
        2   -1    0    0  501    0  0.00000000000E+00  0.00000000000E+00 -0.22610187950E+04  0.22610187950E+04  0.25500000920E-02 0. -1.
    10030    2    1    2    0    0  0.00000000000E+00  0.00000000000E+00 -0.12664895367E+04  0.32555480533E+04  0.29990994283E+04 0.  0.
        4    1    3    3  502    0  0.31760793918E+03 -0.67356286105E+03  0.77962122785E+03  0.10781338519E+04  0.12699999809E+01 0.  1.
       -4    1    3    3    0  502 -0.31760793918E+03  0.67356286105E+03 -0.20461107645E+04  0.21774142014E+04  0.12699999809E+01 0. -1.
</event>
<event>
 5   0  0.6525507E-08  0.3000797E+04  0.7818609E-02  0.8243503E-01
       -1   -1    0    0    0  501  0.00000000000E+00  0.00000000000E+00  0.12882356008E+04  0.12882356008E+04  0.50400001928E-02 0. -1.
        1   -1    0    0  501    0  0.00000000000E+00  0.00000000000E+00 -0.17475029500E+04  0.17475029500E+04  0.50400001928E-02 0.  1.
    10030    2    1    2    0    0  0.00000000000E+00  0.00000000000E+00 -0.45926734915E+03  0.30357385508E+04  0.30007969026E+04 0.  0.
        4    1    3    3  502    0  0.78091522358E+03 -0.10512179274E+04  0.51122294317E+03  0.14057874050E+04  0.12699999809E+01 0. -1.
       -4    1    3    3    0  502 -0.78091522358E+03  0.10512179274E+04 -0.97049029232E+03  0.16299511458E+04  0.12699999809E+01 0.  1.
</event>
<event>
 5   0  0.6636007E-08  0.3001109E+04  0.7818609E-02  0.8243414E-01
       -1   -1    0    0    0  501  0.00000000000E+00  0.00000000000E+00  0.12466657538E+04  0.12466657538E+04  0.50400001928E-02 0.  1.
        1   -1    0    0  501    0  0.00000000000E+00  0.00000000000E+00 -0.18061482716E+04  0.18061482716E+04  0.50400001928E-02 0. -1.
    10030    2    1    2    0    0  0.00000000000E+00  0.00000000000E+00 -0.55948251773E+03  0.30528140254E+04  0.30011085928E+04 0.  0.
        2    1    3    3  502    0  0.98147488716E+02 -0.13699909967E+04  0.33495026666E+03  0.14137538476E+04  0.25500000920E-02 0.  1.
       -2    1    3    3    0  502 -0.98147488716E+02  0.13699909967E+04 -0.89443278439E+03  0.16390601778E+04  0.25500000920E-02 0. -1.
</event>
<event>
 5   0  0.6464436E-08  0.3004258E+04  0.7818609E-02  0.8242516E-01
        1   -1    0    0  501    0  0.00000000000E+00  0.00000000000E+00  0.27389489276E+04  0.27389489276E+04  0.50400001928E-02 0. -1.
       -1   -1    0    0    0  501  0.00000000000E+00  0.00000000000E+00 -0.82381669283E+03  0.82381669285E+03  0.50400001928E-02 0.  1.
    10030    2    1    2    0    0  0.00000000000E+00  0.00000000000E+00  0.19151322347E+04  0.35627656204E+04  0.30042582095E+04 0.  0.
        5    1    3    3  502    0  0.14756332059E+04  0.15372263571E+03  0.67882602860E+03  0.16315486123E+04  0.46999998093E+01 0. -1.
       -5    1    3    3    0  502 -0.14756332059E+04 -0.15372263571E+03  0.12363062061E+04  0.19312170081E+04  0.46999998093E+01 0.  1.
</event>
<event>
 5   0  0.6636007E-08  0.2992056E+04  0.7818609E-02  0.8246003E-01
       -1   -1    0    0    0  501  0.00000000000E+00  0.00000000000E+00  0.97791121975E+03  0.97791121976E+03  0.50400001928E-02 0.  1.
        1   -1    0    0  501    0  0.00000000000E+00  0.00000000000E+00 -0.22886532922E+04  0.22886532923E+04  0.50400001928E-02 0. -1.
    10030    2    1    2    0    0  0.00000000000E+00  0.00000000000E+00 -0.13107420725E+04  0.32665645120E+04  0.29920559705E+04 0.  0.
        2    1    3    3  502    0 -0.10103977238E+03 -0.85503135406E+03 -0.19910594725E+04  0.21692407600E+04  0.25500000920E-02 0. -1.
       -2    1    3    3    0  502  0.10103977238E+03  0.85503135406E+03  0.68031739996E+03  0.10973237520E+04  0.25500000920E-02 0.  1.
</event>
<event>
 5   0  0.6679022E-08  0.3000688E+04  0.7818609E-02  0.8243535E-01
       -1   -1    0    0    0  501  0.00000000000E+00  0.00000000000E+00  0.12806276793E+04  0.12806276793E+04  0.50400001928E-02 0. -1.
        1   -1    0    0  501    0  0.00000000000E+00  0.00000000000E+00 -0.17577565881E+04  0.17577565881E+04  0.50400001928E-02 0.  1.
    10030    2    1    2    0    0  0.00000000000E+00  0.00000000000E+00 -0.47712890878E+03  0.30383842675E+04  0.30006877480E+04 0.  0.
        3    1    3    3  502    0 -0.13283010241E+03  0.46453030876E+03  0.11997020718E+04  0.12933357318E+04  0.10100000352E+00 0. -1.
       -3    1    3    3    0  502  0.13283010241E+03 -0.46453030876E+03 -0.16768309806E+04  0.17450485356E+04  0.10100000352E+00 0.  1.
</event>
<event>
 5   0  0.6464436E-08  0.3000473E+04  0.7818609E-02  0.8243596E-01
       -1   -1    0    0    0  501  0.00000000000E+00  0.00000000000E+00  0.97168423653E+03  0.97168423654E+03  0.50400001928E-02 0. -1.
        1   -1    0    0  501    0  0.00000000000E+00  0.00000000000E+00 -0.23162967993E+04  0.23162967993E+04  0.50400001928E-02 0.  1.
    10030    2    1    2    0    0  0.00000000000E+00  0.00000000000E+00 -0.13446125628E+04  0.32879810359E+04  0.30004726875E+04 0.  0.
        5    1    3    3  502    0  0.86545640449E+03  0.72903552854E+03  0.40705206012E+03  0.12025893146E+04  0.46999998093E+01 0. -1.
       -5    1    3    3    0  502 -0.86545640449E+03 -0.72903552854E+03 -0.17516646229E+04  0.20853917213E+04  0.46999998093E+01 0.  1.
</event>
<event>
 5   0  0.6464436E-08  0.3000660E+04  0.7818609E-02  0.8243542E-01
       -1   -1    0    0    0  501  0.00000000000E+00  0.00000000000E+00  0.20621565479E+04  0.20621565479E+04  0.50400001928E-02 0. -1.
        1   -1    0    0  501    0  0.00000000000E+00  0.00000000000E+00 -0.10915709954E+04  0.10915709954E+04  0.50400001928E-02 0.  1.
    10030    2    1    2    0    0  0.00000000000E+00  0.00000000000E+00  0.97058555250E+03  0.31537275434E+04  0.30006601112E+04 0.  0.
        5    1    3    3  502    0 -0.10842530249E+04  0.96558889715E+03  0.88273854993E+03  0.16991809727E+04  0.46999998093E+01 0.  1.
       -5    1    3    3    0  502  0.10842530249E+04 -0.96558889715E+03  0.87847002577E+02  0.14545465707E+04  0.46999998093E+01 0. -1.
</event>
<event>
 5   0  0.6464436E-08  0.3001110E+04  0.7818609E-02  0.8243414E-01
        1   -1    0    0  501    0  0.00000000000E+00  0.00000000000E+00  0.10851301918E+04  0.10851301918E+04  0.50400001928E-02 0. -1.
       -1   -1    0    0    0  501  0.00000000000E+00  0.00000000000E+00 -0.20750192582E+04  0.20750192582E+04  0.50400001928E-02 0.  1.
    10030    2    1    2    0    0  0.00000000000E+00  0.00000000000E+00 -0.98988906638E+03  0.31601494500E+04  0.30011104916E+04 0.  0.
        5    1    3    3  502    0 -0.69615574587E+03  0.37825575096E+03  0.84692343697E+03  0.11597463661E+04  0.46999998093E+01 0. -1.
       -5    1    3    3    0  502  0.69615574587E+03 -0.37825575096E+03 -0.18368125034E+04  0.20004030839E+04  0.46999998093E+01 0.  1.
</event>
<event>
 5   0  0.1810055E-07  0.3003160E+04  0.7818609E-02  0.8242829E-01
        2   -1    0    0  501    0  0.00000000000E+00  0.00000000000E+00  0.30829346220E+04  0.30829346220E+04  0.25500000920E-02 0. -1.
       -2   -1    0    0    0  501  0.00000000000E+00  0.00000000000E+00 -0.73136257668E+03  0.73136257669E+03  0.25500000920E-02 0.  1.
    10030    2    1    2    0    0  0.00000000000E+00  0.00000000000E+00  0.23515720453E+04  0.38142971987E+04  0.30031603413E+04 0.  0.
        4    1    3    3  502    0  0.10115535920E+04  0.65665477776E+03  0.23120097027E+04  0.26076477225E+04  0.12699999809E+01 0. -1.
       -4    1    3    3    0  502 -0.10115535920E+04 -0.65665477776E+03  0.39562342660E+02  0.12066494762E+04  0.12699999809E+01 0.  1.
</event>
<event>
 5   0  0.6525507E-08  0.2999909E+04  0.7818609E-02  0.8243757E-01
       -1   -1    0    0    0  501  0.00000000000E+00  0.00000000000E+00  0.13754130819E+04  0.13754130819E+04  0.50400001928E-02 0.  1.
        1   -1    0    0  501    0  0.00000000000E+00  0.00000000000E+00 -0.16357727143E+04  0.16357727143E+04  0.50400001928E-02 0. -1.
    10030    2    1    2    0    0  0.00000000000E+00  0.00000000000E+00 -0.26035963233E+03  0.30111857962E+04  0.29999087921E+04 0.  0.
        4    1    3    3  502    0 -0.35665349310E+03  0.13801358334E+04 -0.59871597580E+03  0.15461044807E+04  0.12699999809E+01 0. -1.
       -4    1    3    3    0  502  0.35665349310E+03 -0.13801358334E+04  0.33835634347E+03  0.14650813154E+04  0.12699999809E+01 0.  1.
</event>
<event>
 5   0  0.1813720E-07  0.2997437E+04  0.7818609E-02  0.8244463E-01
       -2   -1    0    0    0  501  0.00000000000E+00  0.00000000000E+00  0.21885069044E+04  0.21885069044E+04  0.25500000920E-02 0. -1.
        2   -1    0    0  501    0  0.00000000000E+00  0.00000000000E+00 -0.10263421135E+04  0.10263421135E+04  0.25500000920E-02 0.  1.
    10030    2    1    2    0    0  0.00000000000E+00  0.00000000000E+00  0.11621647909E+04  0.32148490179E+04  0.29974367728E+04 0.  0.
        3    1    3    3  502    0 -0.14251176577E+04 -0.39311640011E+03  0.31693444088E+03  0.15119352805E+04  0.10100000352E+00 0.  1.
       -3    1    3    3    0  502  0.14251176577E+04  0.39311640011E+03  0.84523035002E+03  0.17029137374E+04  0.10100000352E+00 0. -1.
</event>
<event>
 5   0  0.1817566E-07  0.2998381E+04  0.7818609E-02  0.8244193E-01
        2   -1    0    0  501    0  0.00000000000E+00  0.00000000000E+00  0.27182587428E+04  0.27182587428E+04  0.25500000920E-02 0. -1.
       -2   -1    0    0    0  501  0.00000000000E+00  0.00000000000E+00 -0.82684267675E+03  0.82684267675E+03  0.25500000920E-02 0.  1.
    10030    2    1    2    0    0  0.00000000000E+00  0.00000000000E+00  0.18914160660E+04  0.35451014195E+04  0.29983811199E+04 0.  0.
        1    1    3    3  502    0  0.29851873555E+03 -0.14656298468E+04  0.10662140916E+04  0.18368442428E+04  0.50400001928E-02 0. -1.
       -1    1    3    3    0  502 -0.29851873555E+03  0.14656298468E+04  0.82520197445E+03  0.17082571767E+04  0.50400001928E-02 0.  1.
</event>
<event>
 5   0  0.6525507E-08  0.3004831E+04  0.7818609E-02  0.8242353E-01
        1   -1    0    0  501    0  0.00000000000E+00  0.00000000000E+00  0.19851679525E+04  0.19851679525E+04  0.50400001928E-02 0. -1.
       -1   -1    0    0    0  501  0.00000000000E+00  0.00000000000E+00 -0.11370582453E+04  0.11370582453E+04  0.50400001928E-02 0.  1.
    10030    2    1    2    0    0  0.00000000000E+00  0.00000000000E+00  0.84810970724E+03  0.31222261978E+04  0.30048305035E+04 0.  0.
        4    1    3    3  502    0  0.14727688342E+04  0.25985175459E+03  0.27463470063E+03  0.15205251741E+04  0.12699999809E+01 0.  1.
       -4    1    3    3    0  502 -0.14727688342E+04 -0.25985175459E+03  0.57347500661E+03  0.16017010237E+04  0.12699999809E+01 0. -1.
</event>
<event>
 5   0  0.1817566E-07  0.2989361E+04  0.7818609E-02  0.8246775E-01
        2   -1    0    0  501    0  0.00000000000E+00  0.00000000000E+00  0.21630762918E+04  0.21630762919E+04  0.25500000920E-02 0.  1.
       -2   -1    0    0    0  501  0.00000000000E+00  0.00000000000E+00 -0.10328205288E+04  0.10328205288E+04  0.25500000920E-02 0. -1.
    10030    2    1    2    0    0  0.00000000000E+00  0.00000000000E+00  0.11302557631E+04  0.31958968206E+04  0.29893608678E+04 0.  0.
        1    1    3    3  502    0  0.12323938998E+04 -0.69936746597E+03  0.10735475278E+04  0.17777552900E+04  0.50400001928E-02 0.  1.
       -1    1    3    3    0  502 -0.12323938998E+04  0.69936746597E+03  0.56708235325E+02  0.14181415306E+04  0.50400001928E-02 0. -1.
</event>
<event>
 5   0  0.1813720E-07  0.2999219E+04  0.7818609E-02  0.8243954E-01
        2   -1    0    0  501    0  0.00000000000E+00  0.00000000000E+00  0.14835307002E+04  0.14835307002E+04  0.25500000920E-02 0.  1.
       -2   -1    0    0    0  501  0.00000000000E+00  0.00000000000E+00 -0.15158623854E+04  0.15158623854E+04  0.25500000920E-02 0. -1.
    10030    2    1    2    0    0  0.00000000000E+00  0.00000000000E+00 -0.32331685185E+02  0.29993930857E+04  0.29992188224E+04 0.  0.
        3    1    3    3  502    0 -0.62227381519E+03  0.13643749153E+04 -0.25373191559E+02  0.14997957926E+04  0.10100000352E+00 0.  1.
       -3    1    3    3    0  502  0.62227381519E+03 -0.13643749153E+04 -0.69584936265E+01  0.14995972930E+04  0.10100000352E+00 0. -1.
</event>
<event>
 5   0  0.6636007E-08  0.3000338E+04  0.7818609E-02  0.8243634E-01
       -1   -1    0    0    0  501  0.00000000000E+00  0.00000000000E+00  0.15476473090E+04  0.15476473090E+04  0.50400001928E-02 0.  1.
        1   -1    0    0  501    0  0.00000000000E+00  0.00000000000E+00 -0.14541467915E+04  0.14541467916E+04  0.50400001928E-02 0. -1.
    10030    2    1    2    0    0  0.00000000000E+00  0.00000000000E+00  0.93500517406E+02  0.30017941005E+04  0.30003375602E+04 0.  0.
        2    1    3    3  502    0 -0.13744538497E+04  0.89287134077E+02  0.64152249029E+03  0.15194231415E+04  0.25500000920E-02 0.  1.
       -2    1    3    3    0  502  0.13744538497E+04 -0.89287134077E+02 -0.54802197288E+03  0.14823709590E+04  0.25500000920E-02 0. -1.
</event>
<event>
 5   0  0.1817566E-07  0.2999625E+04  0.7818609E-02  0.8243838E-01
        2   -1    0    0  501    0  0.00000000000E+00  0.00000000000E+00  0.14573691072E+04  0.14573691072E+04  0.25500000920E-02 0.  1.
       -2   -1    0    0    0  501  0.00000000000E+00  0.00000000000E+00 -0.15434923883E+04  0.15434923883E+04  0.25500000920E-02 0. -1.
    10030    2    1    2    0    0  0.00000000000E+00  0.00000000000E+00 -0.86123281111E+02  0.30008614955E+04  0.29996253926E+04 0.  0.
        1    1    3    3  502    0  0.13919944784E+04 -0.16431506345E+03 -0.57693879880E+03  0.15157527653E+04  0.50400001928E-02 0. -1.
       -1    1    3    3    0  502 -0.13919944784E+04  0.16431506345E+03  0.49081551769E+03  0.14851087302E+04  0.50400001928E-02 0.  1.
</event>
<event>
 5   0  0.6525507E-08  0.2999031E+04  0.7818609E-02  0.8244008E-01
        1   -1    0    0  501    0  0.00000000000E+00  0.00000000000E+00  0.18552400540E+04  0.18552400540E+04  0.50400001928E-02 0. -1.
       -1   -1    0    0    0  501  0.00000000000E+00  0.00000000000E+00 -0.12119977139E+04  0.12119977139E+04  0.50400001928E-02 0.  1.
    10030    2    1    2    0    0  0.00000000000E+00  0.00000000000E+00  0.64324234008E+03  0.30672377679E+04  0.29990309797E+04 0.  0.
        4    1    3    3  502    0 -0.14843006475E+04 -0.18390187154E+03  0.21157868282E+03  0.15105414468E+04  0.12699999809E+01 0. -1.
       -4    1    3    3    0  502  0.14843006475E+04  0.18390187154E+03  0.43166365726E+03  0.15566963212E+04  0.12699999809E+01 0.  1.
</event>
<event>
 5   0  0.6636007E-08  0.3000809E+04  0.7818609E-02  0.8243500E-01
        1   -1    0    0  501    0  0.00000000000E+00  0.00000000000E+00  0.14290875231E+04  0.14290875231E+04  0.50400001928E-02 0.  1.
       -1   -1    0    0    0  501  0.00000000000E+00  0.00000000000E+00 -0.15752809535E+04  0.15752809535E+04  0.50400001928E-02 0. -1.
    10030    2    1    2    0    0  0.00000000000E+00  0.00000000000E+00 -0.14619343036E+03  0.30043684767E+04  0.30008094615E+04 0.  0.
        2    1    3    3  502    0 -0.13792840185E+04 -0.21415468452E+03  0.47794475803E+03  0.14753704025E+04  0.25500000920E-02 0.  1.
       -2    1    3    3    0  502  0.13792840185E+04  0.21415468452E+03 -0.62413818839E+03  0.15289980742E+04  0.25500000920E-02 0. -1.
</event>
<event>
 5   0  0.6374748E-08  0.2999993E+04  0.7818609E-02  0.8243733E-01
       -1   -1    0    0    0  501  0.00000000000E+00  0.00000000000E+00  0.11072640994E+04  0.11072640994E+04  0.50400001928E-02 0. -1.
        1   -1    0    0  501    0  0.00000000000E+00  0.00000000000E+00 -0.20320264844E+04  0.20320264844E+04  0.50400001928E-02 0.  1.
    10030    2    1    2    0    0  0.00000000000E+00  0.00000000000E+00 -0.92476238503E+03  0.31392905839E+04  0.29999933169E+04 0.  0.
        1    1    3    3  502    0 -0.10027993792E+04  0.73823440044E+03 -0.13375099989E+04  0.18274379940E+04  0.50400001928E-02 0.  1.
       -1    1    3    3    0  502  0.10027993792E+04 -0.73823440044E+03  0.41274761383E+03  0.13118525899E+04  0.50400001928E-02 0. -1.
</event>
<event>
 5   0  0.1817566E-07  0.2998941E+04  0.7818609E-02  0.8244033E-01
       -2   -1    0    0    0  501  0.00000000000E+00  0.00000000000E+00  0.22573905064E+04  0.22573905064E+04  0.25500000920E-02 0.  1.
        2   -1    0    0  501    0  0.00000000000E+00  0.00000000000E+00 -0.99602271806E+03  0.99602271806E+03  0.25500000920E-02 0. -1.
    10030    2    1    2    0    0  0.00000000000E+00  0.00000000000E+00  0.12613677883E+04  0.32534132244E+04  0.29989412984E+04 0.  0.
        1    1    3    3  502    0  0.11143635160E+04  0.14717559446E+03  0.17073408951E+04  0.20441329784E+04  0.50400001928E-02 0.  1.
       -1    1    3    3    0  502 -0.11143635160E+04 -0.14717559446E+03 -0.44597310679E+03  0.12092802460E+04  0.50400001928E-02 0. -1.
</event>
<event>
 5   0  0.6374748E-08  0.3006217E+04  0.7818609E-02  0.8241958E-01
        1   -1    0    0  501    0  0.00000000000E+00  0.00000000000E+00  0.19315015541E+04  0.19315015541E+04  0.50400001928E-02 0. -1.
       -1   -1    0    0    0  501  0.00000000000E+00  0.00000000000E+00 -0.11697300116E+04  0.11697300116E+04  0.50400001928E-02 0.  1.
    10030    2    1    2    0    0  0.00000000000E+00  0.00000000000E+00  0.76177154252E+03  0.31012315657E+04  0.30062171148E+04 0.  0.
        1    1    3    3  502    0 -0.20462031840E+03 -0.89843390284E+03 -0.84420112097E+03  0.12496913560E+04  0.50400001928E-02 0.  1.
       -1    1    3    3    0  502  0.20462031840E+03  0.89843390284E+03  0.16059726635E+04  0.18515402098E+04  0.50400001928E-02 0. -1.
</event>
<event>
 5   0  0.6525507E-08  0.3001316E+04  0.7818609E-02  0.8243355E-01
        1   -1    0    0  501    0  0.00000000000E+00  0.00000000000E+00  0.11163943718E+04  0.11163943718E+04  0.50400001928E-02 0.  1.
       -1   -1    0    0    0  501  0.00000000000E+00  0.00000000000E+00 -0.20171857757E+04  0.20171857757E+04  0.50400001928E-02 0. -1.
    10030    2    1    2    0    0  0.00000000000E+00  0.00000000000E+00 -0.90079140391E+03  0.31335801475E+04  0.30013162758E+04 0.  0.
        4    1    3    3  502    0 -0.32940629914E+02  0.10289837707E+02  0.11159794542E+04  0.11165136456E+04  0.12699999809E+01 0.  1.
       -4    1    3    3    0  502  0.32940629914E+02 -0.10289837707E+02 -0.20167708581E+04  0.20170665018E+04  0.12699999809E+01 0. -1.
</event>
<event>
 5   0  0.1821305E-07  0.3000232E+04  0.7818609E-02  0.8243665E-01
        2   -1    0    0  501    0  0.00000000000E+00  0.00000000000E+00  0.15401275789E+04  0.15401275789E+04  0.25500000920E-02 0.  1.
       -2   -1    0    0    0  501  0.00000000000E+00  0.00000000000E+00 -0.14611442982E+04  0.14611442982E+04  0.25500000920E-02 0. -1.
    10030    2    1    2    0    0  0.00000000000E+00  0.00000000000E+00  0.78983280715E+02  0.30012718771E+04  0.30002324113E+04 0.  0.
        2    1    3    3  502    0 -0.99532436376E+03  0.93303219803E+03 -0.58452650212E+03  0.14842139008E+04  0.25500000920E-02 0. -1.
       -2    1    3    3    0  502  0.99532436376E+03 -0.93303219803E+03  0.66350978284E+03  0.15170579763E+04  0.25500000920E-02 0.  1.
</event>
<event>
 5   0  0.1821305E-07  0.3000592E+04  0.7818609E-02  0.8243562E-01
        2   -1    0    0  501    0  0.00000000000E+00  0.00000000000E+00  0.14312983409E+04  0.14312983409E+04  0.25500000920E-02 0.  1.
       -2   -1    0    0    0  501  0.00000000000E+00  0.00000000000E+00 -0.15726202876E+04  0.15726202876E+04  0.25500000920E-02 0. -1.
    10030    2    1    2    0    0  0.00000000000E+00  0.00000000000E+00 -0.14132194671E+03  0.30039186286E+04  0.30005924806E+04 0.  0.
        2    1    3    3  502    0  0.19904665290E+03  0.14630136337E+04 -0.33715211833E+03  0.15144966204E+04  0.25500000920E-02 0. -1.
       -2    1    3    3    0  502 -0.19904665290E+03 -0.14630136337E+04  0.19583017162E+03  0.14894220082E+04  0.25500000920E-02 0.  1.
</event>
<event>
 5   0  0.1914439E-07  0.2998855E+04  0.7818609E-02  0.8244058E-01
       -2   -1    0    0    0  501  0.00000000000E+00  0.00000000000E+00  0.10441810125E+04  0.10441810125E+04  0.25500000920E-02 0. -1.
        2   -1    0    0  501    0  0.00000000000E+00  0.00000000000E+00 -0.21531543120E+04  0.21531543120E+04  0.25500000920E-02 0.  1.
    10030    2    1    2    0    0  0.00000000000E+00  0.00000000000E+00 -0.11089732996E+04  0.31973353245E+04  0.29988550145E+04 0.  0.
        5    1    3    3  502    0  0.30416505694E+03 -0.24032039442E+03 -0.20987966138E+04  0.21343007262E+04  0.46999998093E+01 0.  1.
       -5    1    3    3    0  502 -0.30416505694E+03  0.24032039442E+03  0.98982331420E+03  0.10630345983E+04  0.46999998093E+01 0. -1.
</event>
<event>
 5   0  0.1817566E-07  0.3002344E+04  0.7818609E-02  0.8243062E-01
        2   -1    0    0  501    0  0.00000000000E+00  0.00000000000E+00  0.99721181651E+03  0.99721181652E+03  0.25500000920E-02 0. -1.
       -2   -1    0    0    0  501  0.00000000000E+00  0.00000000000E+00 -0.22598184293E+04  0.22598184293E+04  0.25500000920E-02 0.  1.
    10030    2    1    2    0    0  0.00000000000E+00  0.00000000000E+00 -0.12626066128E+04  0.32570302458E+04  0.30023441780E+04 0.  0.
        1    1    3    3  502    0  0.13835067943E+04  0.24804721982E+03 -0.59423267700E+02  0.14068225183E+04  0.50400001928E-02 0. -1.
       -1    1    3    3    0  502 -0.13835067943E+04 -0.24804721982E+03 -0.12031833451E+04  0.18502077275E+04  0.50400001928E-02 0.  1.
</event>
<event>
 5   0  0.6679022E-08  0.3000489E+04  0.7818609E-02  0.8243591E-01
       -1   -1    0    0    0  501  0.00000000000E+00  0.00000000000E+00  0.88363582839E+03  0.88363582841E+03  0.50400001928E-02 0. -1.
        1   -1    0    0  501    0  0.00000000000E+00  0.00000000000E+00 -0.25471276596E+04  0.25471276597E+04  0.50400001928E-02 0.  1.
    10030    2    1    2    0    0  0.00000000000E+00  0.00000000000E+00 -0.16634918313E+04  0.34307634881E+04  0.30004887999E+04 0.  0.
        3    1    3    3  502    0 -0.12991923595E+04 -0.69779210092E+03 -0.11467912102E+04  0.18681393666E+04  0.10100000352E+00 0.  1.
       -3    1    3    3    0  502  0.12991923595E+04  0.69779210092E+03 -0.51670062107E+03  0.15626241215E+04  0.10100000352E+00 0. -1.
</event>
<event>
 5   0  0.1810055E-07  0.3001930E+04  0.7818609E-02  0.8243180E-01
       -2   -1    0    0    0  501  0.00000000000E+00  0.00000000000E+00  0.12697587594E+04  0.12697587594E+04  0.25500000920E-02 0.  1.
        2   -1    0    0  501    0  0.00000000000E+00  0.00000000000E+00 -0.17742713769E+04  0.17742713769E+04  0.25500000920E-02 0. -1.
    10030    2    1    2    0    0  0.00000000000E+00  0.00000000000E+00 -0.50451261751E+03  0.30440301362E+04  0.30019304604E+04 0.  0.
        4    1    3    3  502    0  0.13402998427E+04 -0.60379609356E+03  0.55181411555E+02  0.14710608390E+04  0.12699999809E+01 0.  1.
       -4    1    3    3    0  502 -0.13402998427E+04  0.60379609356E+03 -0.55969402907E+03  0.15729692972E+04  0.12699999809E+01 0. -1.
</event>
<event>
 5   0  0.1914439E-07  0.2999487E+04  0.7818609E-02  0.8243877E-01
        2   -1    0    0  501    0  0.00000000000E+00  0.00000000000E+00  0.21718763277E+04  0.21718763277E+04  0.25500000920E-02 0. -1.
       -2   -1    0    0    0  501  0.00000000000E+00  0.00000000000E+00 -0.10356164768E+04  0.10356164768E+04  0.25500000920E-02 0.  1.
    10030    2    1    2    0    0  0.00000000000E+00  0.00000000000E+00  0.11362598509E+04  0.32074928045E+04  0.29994872299E+04 0.  0.
        5    1    3    3  502    0 -0.39930930250E+03  0.10223826565E+04 -0.52474830238E+03  0.12165924076E+04  0.46999998093E+01 0. -1.
       -5    1    3    3    0  502  0.39930930250E+03 -0.10223826565E+04  0.16610081532E+04  0.19909003969E+04  0.46999998093E+01 0.  1.
</event>
<event>
 5   0  0.1817566E-07  0.2999009E+04  0.7818609E-02  0.8244014E-01
        2   -1    0    0  501    0  0.00000000000E+00  0.00000000000E+00  0.21539323028E+04  0.21539323028E+04  0.25500000920E-02 0.  1.
       -2   -1    0    0    0  501  0.00000000000E+00  0.00000000000E+00 -0.10439108486E+04  0.10439108486E+04  0.25500000920E-02 0. -1.
    10030    2    1    2    0    0  0.00000000000E+00  0.00000000000E+00  0.11100214542E+04  0.31978431514E+04  0.29990087016E+04 0.  0.
        1    1    3    3  502    0 -0.33117782234E+03  0.13335311015E+04 -0.85239505665E+02  0.13766806900E+04  0.50400001928E-02 0. -1.
       -1    1    3    3    0  502  0.33117782234E+03 -0.13335311015E+04  0.11952609599E+04  0.18211624615E+04  0.50400001928E-02 0.  1.
</event>
<event>
 5   0  0.6374748E-08  0.3000771E+04  0.7818609E-02  0.8243511E-01
       -1   -1    0    0    0  501  0.00000000000E+00  0.00000000000E+00  0.14150100822E+04  0.14150100822E+04  0.50400001928E-02 0. -1.
        1   -1    0    0  501    0  0.00000000000E+00  0.00000000000E+00 -0.15909119313E+04  0.15909119313E+04  0.50400001928E-02 0.  1.
    10030    2    1    2    0    0  0.00000000000E+00  0.00000000000E+00 -0.17590184907E+03  0.30059220135E+04  0.30007708494E+04 0.  0.
        1    1    3    3  502    0  0.21248065742E+03 -0.70499801578E+02  0.13981854491E+04  0.14159946334E+04  0.50400001928E-02 0. -1.
       -1    1    3    3    0  502 -0.21248065742E+03  0.70499801578E+02 -0.15740872981E+04  0.15899273801E+04  0.50400001928E-02 0.  1.
</event>
<event>
 5   0  0.6636007E-08  0.3000680E+04  0.7818609E-02  0.8243537E-01
        1   -1    0    0  501    0  0.00000000000E+00  0.00000000000E+00  0.21440923706E+04  0.21440923706E+04  0.50400001928E-02 0. -1.
       -1   -1    0    0    0  501  0.00000000000E+00  0.00000000000E+00 -0.10498710579E+04  0.10498710579E+04  0.50400001928E-02 0.  1.
    10030    2    1    2    0    0  0.00000000000E+00  0.00000000000E+00  0.10942213127E+04  0.31939634286E+04  0.30006802732E+04 0.  0.
        2    1    3    3  502    0  0.94404076916E+03 -0.10652569011E+04  0.10520457166E+04  0.17699676350E+04  0.25500000920E-02 0.  1.
       -2    1    3    3    0  502 -0.94404076916E+03  0.10652569011E+04  0.42175596115E+02  0.14239957936E+04  0.25500000920E-02 0. -1.
</event>
<event>
 5   0  0.6636007E-08  0.2999439E+04  0.7818609E-02  0.8243891E-01
        1   -1    0    0  501    0  0.00000000000E+00  0.00000000000E+00  0.26109861085E+04  0.26109861085E+04  0.50400001928E-02 0.  1.
       -1   -1    0    0    0  501  0.00000000000E+00  0.00000000000E+00 -0.86142099724E+03  0.86142099726E+03  0.50400001928E-02 0. -1.
    10030    2    1    2    0    0  0.00000000000E+00  0.00000000000E+00  0.17495651113E+04  0.34724071058E+04  0.29994387858E+04 0.  0.
        2    1    3    3  502    0 -0.96596236584E+03 -0.59130467667E+03  0.20128727356E+04  0.23096279273E+04  0.25500000920E-02 0.  1.
       -2    1    3    3    0  502  0.96596236584E+03  0.59130467667E+03 -0.26330762432E+03  0.11627791785E+04  0.25500000920E-02 0. -1.
</event>
<event>
 5   0  0.1821305E-07  0.3000202E+04  0.7818609E-02  0.8243673E-01
       -2   -1    0    0    0  501  0.00000000000E+00  0.00000000000E+00  0.11011061019E+04  0.11011061019E+04  0.25500000920E-02 0.  1.
        2   -1    0    0  501    0  0.00000000000E+00  0.00000000000E+00 -0.20436749509E+04  0.20436749509E+04  0.25500000920E-02 0. -1.
    10030    2    1    2    0    0  0.00000000000E+00  0.00000000000E+00 -0.94256884901E+03  0.31447810528E+04  0.30002019657E+04 0.  0.
        2    1    3    3  502    0 -0.74548848807E+03  0.87509459975E+03 -0.14814475567E+04  0.18751614617E+04  0.25500000920E-02 0. -1.
       -2    1    3    3    0  502  0.74548848807E+03 -0.87509459975E+03  0.53887870768E+03  0.12696195910E+04  0.25500000920E-02 0.  1.
</event>
<event>
 5   0  0.1810055E-07  0.2997747E+04  0.7818609E-02  0.8244375E-01
       -2   -1    0    0    0  501  0.00000000000E+00  0.00000000000E+00  0.14937608557E+04  0.14937608557E+04  0.25500000920E-02 0.  1.
        2   -1    0    0  501    0  0.00000000000E+00  0.00000000000E+00 -0.15040032461E+04  0.15040032461E+04  0.25500000920E-02 0. -1.
    10030    2    1    2    0    0  0.00000000000E+00  0.00000000000E+00 -0.10242390342E+02  0.29977641018E+04  0.29977466043E+04 0.  0.
        4    1    3    3  502    0  0.47700066406E+03 -0.13941135582E+04 -0.27996332818E+03  0.14998210976E+04  0.12699999809E+01 0. -1.
       -4    1    3    3    0  502 -0.47700066406E+03  0.13941135582E+04  0.26972093784E+03  0.14979430042E+04  0.12699999809E+01 0.  1.
</event>
<event>
 5   0  0.1914439E-07  0.2999549E+04  0.7818609E-02  0.8243860E-01
        2   -1    0    0  501    0  0.00000000000E+00  0.00000000000E+00  0.31113810717E+04  0.31113810717E+04  0.25500000920E-02 0. -1.
       -2   -1    0    0    0  501  0.00000000000E+00  0.00000000000E+00 -0.72293427153E+03  0.72293427154E+03  0.25500000920E-02 0.  1.
    10030    2    1    2    0    0  0.00000000000E+00  0.00000000000E+00  0.23884468002E+04  0.38343153432E+04  0.29995493052E+04 0.  0.
        5    1    3    3  502    0 -0.84626042769E+03 -0.69919685399E+03  0.25005086058E+04  0.27308603644E+04  0.46999998093E+01 0. -1.
       -5    1    3    3    0  502  0.84626042769E+03  0.69919685399E+03 -0.11206180562E+03  0.11034549789E+04  0.46999998093E+01 0.  1.
</event>
<event>
 5   0  0.6374748E-08  0.2991949E+04  0.7818609E-02  0.8246034E-01
        1   -1    0    0  501    0  0.00000000000E+00  0.00000000000E+00  0.18979246994E+04  0.18979246994E+04  0.50400001928E-02 0.  1.
       -1   -1    0    0    0  501  0.00000000000E+00  0.00000000000E+00 -0.11791510401E+04  0.11791510401E+04  0.50400001928E-02 0. -1.
    10030    2    1    2    0    0  0.00000000000E+00  0.00000000000E+00  0.71877365928E+03  0.30770757395E+04  0.29919491195E+04 0.  0.
        1    1    3    3  502    0  0.14004109492E+04  0.31225889739E+02 -0.18073550504E+03  0.14123707748E+04  0.50400001928E-02 0. -1.
       -1    1    3    3    0  502 -0.14004109492E+04 -0.31225889739E+02  0.89950916432E+03  0.16647049647E+04  0.50400001928E-02 0.  1.
</event>
<event>
 5   0  0.6525507E-08  0.2999855E+04  0.7818609E-02  0.8243772E-01
        1   -1    0    0  501    0  0.00000000000E+00  0.00000000000E+00  0.19299978877E+04  0.19299978877E+04  0.50400001928E-02 0.  1.
       -1   -1    0    0    0  501  0.00000000000E+00  0.00000000000E+00 -0.11656920324E+04  0.11656920324E+04  0.50400001928E-02 0. -1.
    10030    2    1    2    0    0  0.00000000000E+00  0.00000000000E+00  0.76430585524E+03  0.30956899201E+04  0.29998554367E+04 0.  0.
        4    1    3    3  502    0  0.63451752797E+03 -0.10163311636E+04  0.13133323039E+04  0.17777471363E+04  0.12699999809E+01 0.  1.
       -4    1    3    3    0  502 -0.63451752797E+03  0.10163311636E+04 -0.54902644862E+03  0.13179427838E+04  0.12699999809E+01 0. -1.
</event>
<event>
 5   0  0.1821305E-07  0.2998541E+04  0.7818609E-02  0.8244148E-01
        2   -1    0    0  501    0  0.00000000000E+00  0.00000000000E+00  0.17012590435E+04  0.17012590435E+04  0.25500000920E-02 0.  1.
       -2   -1    0    0    0  501  0.00000000000E+00  0.00000000000E+00 -0.13212641776E+04  0.13212641776E+04  0.25500000920E-02 0. -1.
    10030    2    1    2    0    0  0.00000000000E+00  0.00000000000E+00  0.37999486597E+03  0.30225232211E+04  0.29985413994E+04 0.  0.
        2    1    3    3  502    0 -0.23108676517E+03  0.76229784323E+03  0.14703187771E+04  0.16722249852E+04  0.25500000920E-02 0.  1.
       -2    1    3    3    0  502  0.23108676517E+03 -0.76229784323E+03 -0.10903239111E+04  0.13502982359E+04  0.25500000920E-02 0. -1.
</event>
<event>
 5   0  0.1817566E-07  0.3021478E+04  0.7818609E-02  0.8237624E-01
       -2   -1    0    0    0  501  0.00000000000E+00  0.00000000000E+00  0.18309218473E+04  0.18309218473E+04  0.25500000920E-02 0.  1.
        2   -1    0    0  501    0  0.00000000000E+00  0.00000000000E+00 -0.12465483923E+04  0.12465483923E+04  0.25500000920E-02 0. -1.
    10030    2    1    2    0    0  0.00000000000E+00  0.00000000000E+00  0.58437345504E+03  0.30774702396E+04  0.30214782376E+04 0.  0.
        1    1    3    3  502    0 -0.83502619286E+03  0.33063168231E+03  0.15295017669E+04  0.17736859100E+04  0.50400001928E-02 0.  1.
       -1    1    3    3    0  502  0.83502619286E+03 -0.33063168231E+03 -0.94512831189E+03  0.13037843296E+04  0.50400001928E-02 0. -1.
</event>
<event>
 5   0  0.1817566E-07  0.3006895E+04  0.7818609E-02  0.8241765E-01
       -2   -1    0    0    0  501  0.00000000000E+00  0.00000000000E+00  0.15029707322E+04  0.15029707322E+04  0.25500000920E-02 0.  1.
        2   -1    0    0  501    0  0.00000000000E+00  0.00000000000E+00 -0.15039241389E+04  0.15039241389E+04  0.25500000920E-02 0. -1.
    10030    2    1    2    0    0  0.00000000000E+00  0.00000000000E+00 -0.95340663301E+00  0.30068948711E+04  0.30068947199E+04 0.  0.
        1    1    3    3  502    0 -0.41728963246E+03 -0.20662273029E+03 -0.14299978048E+04  0.15039006988E+04  0.50400001928E-02 0. -1.
       -1    1    3    3    0  502  0.41728963246E+03  0.20662273029E+03  0.14290443982E+04  0.15029941723E+04  0.50400001928E-02 0.  1.
</event>
<event>
 5   0  0.6636007E-08  0.2998270E+04  0.7818609E-02  0.8244225E-01
        1   -1    0    0  501    0  0.00000000000E+00  0.00000000000E+00  0.17851972985E+04  0.17851972985E+04  0.50400001928E-02 0. -1.
       -1   -1    0    0    0  501  0.00000000000E+00  0.00000000000E+00 -0.12589114922E+04  0.12589114922E+04  0.50400001928E-02 0.  1.
    10030    2    1    2    0    0  0.00000000000E+00  0.00000000000E+00  0.52628580626E+03  0.30441087907E+04  0.29982697644E+04 0.  0.
        2    1    3    3  502    0  0.46861257320E+03  0.27798402529E+03  0.16811097055E+04  0.17672019420E+04  0.25500000920E-02 0. -1.
       -2    1    3    3    0  502 -0.46861257320E+03 -0.27798402529E+03 -0.11548238992E+04  0.12769068487E+04  0.25500000920E-02 0.  1.
</event>
<event>
 5   0  0.1914439E-07  0.3000404E+04  0.7818609E-02  0.8243616E-01
        2   -1    0    0  501    0  0.00000000000E+00  0.00000000000E+00  0.24442069613E+04  0.24442069613E+04  0.25500000920E-02 0.  1.
       -2   -1    0    0    0  501  0.00000000000E+00  0.00000000000E+00 -0.92079169234E+03  0.92079169234E+03  0.25500000920E-02 0. -1.
    10030    2    1    2    0    0  0.00000000000E+00  0.00000000000E+00  0.15234152690E+04  0.33649986537E+04  0.30004036157E+04 0.  0.
        5    1    3    3  502    0 -0.34220127847E+03  0.50949148552E+03  0.22969552452E+04  0.23775425921E+04  0.46999998093E+01 0.  1.
       -5    1    3    3    0  502  0.34220127847E+03 -0.50949148552E+03 -0.77353997619E+03  0.98745606159E+03  0.46999998093E+01 0. -1.
</event>
<event>
 5   0  0.6525507E-08  0.2999074E+04  0.7818609E-02  0.8243995E-01
       -1   -1    0    0    0  501  0.00000000000E+00  0.00000000000E+00  0.14864284805E+04  0.14864284805E+04  0.50400001928E-02 0. -1.
        1   -1    0    0  501    0  0.00000000000E+00  0.00000000000E+00 -0.15127613104E+04  0.15127613104E+04  0.50400001928E-02 0.  1.
    10030    2    1    2    0    0  0.00000000000E+00  0.00000000000E+00 -0.26332829905E+02  0.29991897908E+04  0.29990741877E+04 0.  0.
        4    1    3    3  502    0 -0.87107528194E+03 -0.11956059664E+04 -0.25886697059E+03  0.15017521417E+04  0.12699999809E+01 0.  1.
       -4    1    3    3    0  502  0.87107528194E+03  0.11956059664E+04  0.23253414069E+03  0.14974376492E+04  0.12699999809E+01 0. -1.
</event>
<event>
 5   0  0.6374748E-08  0.2999170E+04  0.7818609E-02  0.8243968E-01
       -1   -1    0    0    0  501  0.00000000000E+00  0.00000000000E+00  0.12643168757E+04  0.12643168757E+04  0.50400001928E-02 0.  1.
        1   -1    0    0  501    0  0.00000000000E+00  0.00000000000E+00 -0.17786321263E+04  0.17786321263E+04  0.50400001928E-02 0. -1.
    10030    2    1    2    0    0  0.00000000000E+00  0.00000000000E+00 -0.51431525061E+03  0.30429490020E+04  0.29991696271E+04 0.  0.
        1    1    3    3  502    0  0.34264359588E+03 -0.14491787691E+04 -0.77855384824E+02  0.14911690714E+04  0.50400001928E-02 0.  1.
       -1    1    3    3    0  502 -0.34264359588E+03  0.14491787691E+04 -0.43645986578E+03  0.15517799306E+04  0.50400001928E-02 0. -1.
</event>
<event>
 5   0  0.6374748E-08  0.3003715E+04  0.7818609E-02  0.8242671E-01
        1   -1    0    0  501    0  0.00000000000E+00  0.00000000000E+00  0.23113348781E+04  0.23113348781E+04  0.50400001928E-02 0. -1.
       -1   -1    0    0    0  501  0.00000000000E+00  0.00000000000E+00 -0.97587599616E+03  0.97587599617E+03  0.50400001928E-02 0.  1.
    10030    2    1    2    0    0  0.00000000000E+00  0.00000000000E+00  0.13354588820E+04  0.32872108743E+04  0.30037151840E+04 0.  0.
        1    1    3    3  502    0 -0.13739882118E+04  0.55705198996E+03  0.40547553374E+03  0.15370624367E+04  0.50400001928E-02 0.  1.
       -1    1    3    3    0  502  0.13739882118E+04 -0.55705198996E+03  0.92998334825E+03  0.17501484376E+04  0.50400001928E-02 0. -1.
</event>
<event>
 5   0  0.6636007E-08  0.2998817E+04  0.7818609E-02  0.8244069E-01
       -1   -1    0    0    0  501  0.00000000000E+00  0.00000000000E+00  0.21133638866E+04  0.21133638866E+04  0.50400001928E-02 0.  1.
        1   -1    0    0  501    0  0.00000000000E+00  0.00000000000E+00 -0.10638135981E+04  0.10638135981E+04  0.50400001928E-02 0. -1.
    10030    2    1    2    0    0  0.00000000000E+00  0.00000000000E+00  0.10495502885E+04  0.31771774847E+04  0.29988165935E+04 0.  0.
        2    1    3    3  502    0  0.34700075771E+03 -0.99164479487E+03  0.16581959510E+04  0.19630034990E+04  0.25500000920E-02 0.  1.
       -2    1    3    3    0  502 -0.34700075771E+03  0.99164479487E+03 -0.60864566254E+03  0.12141739857E+04  0.25500000920E-02 0. -1.
</event>
<event>
 5   0  0.6679022E-08  0.2999042E+04  0.7818609E-02  0.8244005E-01
       -1   -1    0    0    0  501  0.00000000000E+00  0.00000000000E+00  0.27013049568E+04  0.27013049568E+04  0.50400001928E-02 0. -1.
        1   -1    0    0  501    0  0.00000000000E+00  0.00000000000E+00 -0.83239885672E+03  0.83239885674E+03  0.50400001928E-02 0.  1.
    10030    2    1    2    0    0  0.00000000000E+00  0.00000000000E+00  0.18689061001E+04  0.35337038135E+04  0.29990419522E+04 0.  0.
        3    1    3    3  502    0 -0.70455858016E+03  0.12689955225E+04  0.13781660295E+04  0.20015229312E+04  0.10100000352E+00 0. -1.
       -3    1    3    3    0  502  0.70455858016E+03 -0.12689955225E+04  0.49074007055E+03  0.15321808823E+04  0.10100000352E+00 0.  1.
</event>
<event>
 5   0  0.1813720E-07  0.3000169E+04  0.7818609E-02  0.8243683E-01
       -2   -1    0    0    0  501  0.00000000000E+00  0.00000000000E+00  0.15175744203E+04  0.15175744203E+04  0.25500000920E-02 0.  1.
        2   -1    0    0  501    0  0.00000000000E+00  0.00000000000E+00 -0.14827963216E+04  0.14827963216E+04  0.25500000920E-02 0. -1.
    10030    2    1    2    0    0  0.00000000000E+00  0.00000000000E+00  0.34778098660E+02  0.30003707419E+04  0.30001691740E+04 0.  0.
        3    1    3    3  502    0  0.19655190486E+03  0.36441418392E+03  0.14592984612E+04  0.15168989281E+04  0.10100000352E+00 0.  1.
       -3    1    3    3    0  502 -0.19655190486E+03 -0.36441418392E+03 -0.14245203626E+04  0.14834718138E+04  0.10100000352E+00 0. -1.
</event>
<event>
 5   0  0.6679022E-08  0.3001288E+04  0.7818609E-02  0.8243363E-01
        1   -1    0    0  501    0  0.00000000000E+00  0.00000000000E+00  0.19694523210E+04  0.19694523210E+04  0.50400001928E-02 0. -1.
       -1   -1    0    0    0  501  0.00000000000E+00  0.00000000000E+00 -0.11434307501E+04  0.11434307501E+04  0.50400001928E-02 0.  1.
    10030    2    1    2    0    0  0.00000000000E+00  0.00000000000E+00  0.82602157085E+03  0.31128830711E+04  0.30012879533E+04 0.  0.
        3    1    3    3  502    0 -0.11810206440E+04  0.92429766638E+03  0.35816357400E+03  0.15418875100E+04  0.10100000352E+00 0. -1.
       -3    1    3    3    0  502  0.11810206440E+04 -0.92429766638E+03  0.46785799684E+03  0.15709955611E+04  0.10100000352E+00 0.  1.
</event>
<event>
 5   0  0.1810055E-07  0.2988366E+04  0.7818609E-02  0.8247061E-01
        2   -1    0    0  501    0  0.00000000000E+00  0.00000000000E+00  0.18303944644E+04  0.18303944644E+04  0.25500000920E-02 0.  1.
       -2   -1    0    0    0  501  0.00000000000E+00  0.00000000000E+00 -0.12197275415E+04  0.12197275415E+04  0.25500000920E-02 0. -1.
    10030    2    1    2    0    0  0.00000000000E+00  0.00000000000E+00  0.61066692299E+03  0.30501220059E+04  0.29883658009E+04 0.  0.
        4    1    3    3  502    0  0.13000119418E+04 -0.73476583840E+03  0.25260305994E+03  0.15145038147E+04  0.12699999809E+01 0. -1.
       -4    1    3    3    0  502 -0.13000119418E+04  0.73476583840E+03  0.35806386305E+03  0.15356181912E+04  0.12699999809E+01 0.  1.
</event>
<event>
 5   0  0.1813720E-07  0.3001456E+04  0.7818609E-02  0.8243315E-01
        2   -1    0    0  501    0  0.00000000000E+00  0.00000000000E+00  0.22484495385E+04  0.22484495385E+04  0.25500000920E-02 0. -1.
       -2   -1    0    0    0  501  0.00000000000E+00  0.00000000000E+00 -0.10016614363E+04  0.10016614363E+04  0.25500000920E-02 0.  1.
    10030    2    1    2    0    0  0.00000000000E+00  0.00000000000E+00  0.12467881023E+04  0.32501109748E+04  0.30014564426E+04 0.  0.
        3    1    3    3  502    0  0.85164712196E+03 -0.26264926730E+02  0.19611312535E+04  0.21382302192E+04  0.10100000352E+00 0. -1.
       -3    1    3    3    0  502 -0.85164712196E+03  0.26264926730E+02 -0.71434315122E+03  0.11118807556E+04  0.10100000352E+00 0.  1.
</event>
<event>
 5   0  0.1821305E-07  0.3002782E+04  0.7818609E-02  0.8242937E-01
       -2   -1    0    0    0  501  0.00000000000E+00  0.00000000000E+00  0.10634089318E+04  0.10634089318E+04  0.25500000920E-02 0. -1.
        2   -1    0    0  501    0  0.00000000000E+00  0.00000000000E+00 -0.21197634728E+04  0.21197634728E+04  0.25500000920E-02 0.  1.
    10030    2    1    2    0    0  0.00000000000E+00  0.00000000000E+00 -0.10563545410E+04  0.31831724045E+04  0.30027823166E+04 0.  0.
        2    1    3    3  502    0 -0.14602940123E+03 -0.14879550088E+04 -0.38266989384E+03  0.15432987209E+04  0.25500000920E-02 0. -1.
       -2    1    3    3    0  502  0.14602940123E+03  0.14879550088E+04 -0.67368464718E+03  0.16398736836E+04  0.25500000920E-02 0.  1.
</event>
<event>
 5   0  0.6464436E-08  0.3001540E+04  0.7818609E-02  0.8243291E-01
       -1   -1    0    0    0  501  0.00000000000E+00  0.00000000000E+00  0.86378798091E+03  0.86378798093E+03  0.50400001928E-02 0.  1.
        1   -1    0    0  501    0  0.00000000000E+00  0.00000000000E+00 -0.26074803819E+04  0.26074803819E+04  0.50400001928E-02 0. -1.
    10030    2    1    2    0    0  0.00000000000E+00  0.00000000000E+00 -0.17436924010E+04  0.34712683629E+04  0.30015397478E+04 0.  0.
        5    1    3    3  502    0  0.11866391094E+04  0.35977084215E+03 -0.18495748581E+04  0.22267682144E+04  0.46999998093E+01 0. -1.
       -5    1    3    3    0  502 -0.11866391094E+04 -0.35977084215E+03  0.10588245714E+03  0.12445001485E+04  0.46999998093E+01 0.  1.
</event>
<event>
 5   0  0.6374748E-08  0.2999937E+04  0.7818609E-02  0.8243749E-01
        1   -1    0    0  501    0  0.00000000000E+00  0.00000000000E+00  0.19125314527E+04  0.19125314527E+04  0.50400001928E-02 0.  1.
       -1   -1    0    0    0  501  0.00000000000E+00  0.00000000000E+00 -0.11764021998E+04  0.11764021998E+04  0.50400001928E-02 0. -1.
    10030    2    1    2    0    0  0.00000000000E+00  0.00000000000E+00  0.73612925289E+03  0.30889336525E+04  0.29999374714E+04 0.  0.
        1    1    3    3  502    0 -0.12942957635E+04 -0.28162144415E+03  0.10927871671E+04  0.17171767392E+04  0.50400001928E-02 0.  1.
       -1    1    3    3    0  502  0.12942957635E+04  0.28162144415E+03 -0.35665791420E+03  0.13717569132E+04  0.50400001928E-02 0. -1.
</event>
<event>
 5   0  0.1810055E-07  0.2998222E+04  0.7818609E-02  0.8244239E-01
        2   -1    0    0  501    0  0.00000000000E+00  0.00000000000E+00  0.26899822271E+04  0.26899822271E+04  0.25500000920E-02 0. -1.
       -2   -1    0    0    0  501  0.00000000000E+00  0.00000000000E+00 -0.83544581665E+03  0.83544581665E+03  0.25500000920E-02 0.  1.
    10030    2    1    2    0    0  0.00000000000E+00  0.00000000000E+00  0.18545364105E+04  0.35254280438E+04  0.29982224057E+04 0.  0.
        4    1    3    3  502    0  0.34287026652E+03  0.75868259496E+03 -0.53860955997E+03  0.99159526549E+03  0.12699999809E+01 0.  1.
       -4    1    3    3    0  502 -0.34287026652E+03 -0.75868259496E+03  0.23931459704E+04  0.25338327783E+04  0.12699999809E+01 0. -1.
</event>
<event>
 5   0  0.1810055E-07  0.3001513E+04  0.7818609E-02  0.8243299E-01
       -2   -1    0    0    0  501  0.00000000000E+00  0.00000000000E+00  0.13137160459E+04  0.13137160459E+04  0.25500000920E-02 0.  1.
        2   -1    0    0  501    0  0.00000000000E+00  0.00000000000E+00 -0.17144273959E+04  0.17144273959E+04  0.25500000920E-02 0. -1.
    10030    2    1    2    0    0  0.00000000000E+00  0.00000000000E+00 -0.40071135002E+03  0.30281434418E+04  0.30015134712E+04 0.  0.
        4    1    3    3  502    0 -0.11217517667E+04 -0.64075339809E+03  0.57021216813E+03  0.14121032090E+04  0.12699999809E+01 0.  1.
       -4    1    3    3    0  502  0.11217517667E+04  0.64075339809E+03 -0.97092351815E+03  0.16160402328E+04  0.12699999809E+01 0. -1.
</event>
<event>
 5   0  0.1914439E-07  0.3000668E+04  0.7818609E-02  0.8243540E-01
        2   -1    0    0  501    0  0.00000000000E+00  0.00000000000E+00  0.14190709533E+04  0.14190709533E+04  0.25500000920E-02 0. -1.
       -2   -1    0    0    0  501  0.00000000000E+00  0.00000000000E+00 -0.15862501326E+04  0.15862501326E+04  0.25500000920E-02 0.  1.
    10030    2    1    2    0    0  0.00000000000E+00  0.00000000000E+00 -0.16717917938E+03  0.30053210859E+04  0.30006675843E+04 0.  0.
        5    1    3    3  502    0  0.88433029620E+03 -0.11497867291E+04  0.30031909735E+03  0.14813045755E+04  0.46999998093E+01 0. -1.
       -5    1    3    3    0  502 -0.88433029620E+03  0.11497867291E+04 -0.46749827673E+03  0.15240165104E+04  0.46999998093E+01 0.  1.
</event>
<event>
 5   0  0.1813720E-07  0.3000344E+04  0.7818609E-02  0.8243633E-01
       -2   -1    0    0    0  501  0.00000000000E+00  0.00000000000E+00  0.11144177336E+04  0.11144177336E+04  0.25500000920E-02 0. -1.
        2   -1    0    0  501    0  0.00000000000E+00  0.00000000000E+00 -0.20194552070E+04  0.20194552070E+04  0.25500000920E-02 0.  1.
    10030    2    1    2    0    0  0.00000000000E+00  0.00000000000E+00 -0.90503747345E+03  0.31338729406E+04  0.30003444435E+04 0.  0.
        3    1    3    3  502    0  0.84176179118E+02 -0.25822713564E+03  0.10885234439E+04  0.11218957976E+04  0.10100000352E+00 0. -1.
       -3    1    3    3    0  502 -0.84176179118E+02  0.25822713564E+03 -0.19935609173E+04  0.20119771430E+04  0.10100000352E+00 0.  1.
</event>
<event>
 5   0  0.1810055E-07  0.3000313E+04  0.7818609E-02  0.8243642E-01
        2   -1    0    0  501    0  0.00000000000E+00  0.00000000000E+00  0.15406689628E+04  0.15406689628E+04  0.25500000920E-02 0.  1.
       -2   -1    0    0    0  501  0.00000000000E+00  0.00000000000E+00 -0.14607089203E+04  0.14607089203E+04  0.25500000920E-02 0. -1.
    10030    2    1    2    0    0  0.00000000000E+00  0.00000000000E+00  0.79960042543E+02  0.30013778831E+04  0.30003125818E+04 0.  0.
        4    1    3    3  502    0  0.92129946150E+03  0.11296213689E+04  0.39454930723E+03  0.15101350614E+04  0.12699999809E+01 0.  1.
       -4    1    3    3    0  502 -0.92129946150E+03 -0.11296213689E+04 -0.31458926469E+03  0.14912428217E+04  0.12699999809E+01 0. -1.
</event>
<event>
 5   0  0.6464436E-08  0.2998925E+04  0.7818609E-02  0.8244038E-01
       -1   -1    0    0    0  501  0.00000000000E+00  0.00000000000E+00  0.13746013660E+04  0.13746013660E+04  0.50400001928E-02 0.  1.
        1   -1    0    0  501    0  0.00000000000E+00  0.00000000000E+00 -0.16356656442E+04  0.16356656442E+04  0.50400001928E-02 0. -1.
    10030    2    1    2    0    0  0.00000000000E+00  0.00000000000E+00 -0.26106427814E+03  0.30102670102E+04  0.29989252934E+04 0.  0.
        5    1    3    3  502    0 -0.22393049135E+03  0.30598884651E+03  0.13256756172E+04  0.13788444333E+04  0.46999998093E+01 0.  1.
       -5    1    3    3    0  502  0.22393049135E+03 -0.30598884651E+03 -0.15867398953E+04  0.16314225769E+04  0.46999998093E+01 0. -1.
</event>
<event>
 5   0  0.6636007E-08  0.3001701E+04  0.7818609E-02  0.8243245E-01
        1   -1    0    0  501    0  0.00000000000E+00  0.00000000000E+00  0.22243158706E+04  0.22243158706E+04  0.50400001928E-02 0.  1.
       -1   -1    0    0    0  501  0.00000000000E+00  0.00000000000E+00 -0.10126941626E+04  0.10126941626E+04  0.50400001928E-02 0. -1.
    10030    2    1    2    0    0  0.00000000000E+00  0.00000000000E+00  0.12116217080E+04  0.32370100332E+04  0.30017006499E+04 0.  0.
        2    1    3    3  502    0  0.72056095305E+03  0.59542331888E+03 -0.66046876219E+03  0.11445330933E+04  0.25500000920E-02 0. -1.
       -2    1    3    3    0  502 -0.72056095305E+03 -0.59542331888E+03  0.18720904702E+04  0.20924769400E+04  0.25500000920E-02 0.  1.
</event>
<event>
 5   0  0.1810055E-07  0.3000147E+04  0.7818609E-02  0.8243689E-01
       -2   -1    0    0    0  501  0.00000000000E+00  0.00000000000E+00  0.87551920784E+03  0.87551920784E+03  0.25500000920E-02 0. -1.
        2   -1    0    0  501    0  0.00000000000E+00  0.00000000000E+00 -0.25701553517E+04  0.25701553517E+04  0.25500000920E-02 0.  1.
    10030    2    1    2    0    0  0.00000000000E+00  0.00000000000E+00 -0.16946361438E+04  0.34456745595E+04  0.30001469147E+04 0.  0.
        4    1    3    3  502    0 -0.33744296028E+03 -0.13923379807E+04 -0.33659492113E+03  0.14716557198E+04  0.12699999809E+01 0. -1.
       -4    1    3    3    0  502  0.33744296028E+03  0.13923379807E+04 -0.13580412227E+04  0.19740188397E+04  0.12699999809E+01 0.  1.
</event>
<event>
 5   0  0.1813720E-07  0.3000429E+04  0.7818609E-02  0.8243608E-01
       -2   -1    0    0    0  501  0.00000000000E+00  0.00000000000E+00  0.83672451580E+03  0.83672451580E+03  0.25500000920E-02 0. -1.
        2   -1    0    0  501    0  0.00000000000E+00  0.00000000000E+00 -0.26898267272E+04  0.26898267272E+04  0.25500000920E-02 0.  1.
    10030    2    1    2    0    0  0.00000000000E+00  0.00000000000E+00 -0.18531022114E+04  0.35265512430E+04  0.30004292799E+04 0.  0.
        3    1    3    3  502    0 -0.11683523968E+04  0.84191432469E+03 -0.43237747943E+03  0.15036014592E+04  0.10100000352E+00 0. -1.
       -3    1    3    3    0  502  0.11683523968E+04 -0.84191432469E+03 -0.14207247319E+04  0.20229497837E+04  0.10100000352E+00 0.  1.
</event>
<event>
 5   0  0.6017625E-08  0.3000023E+04  0.7818609E-02  0.8243724E-01
       -3   -1    0    0    0  501  0.00000000000E+00  0.00000000000E+00  0.10698045523E+04  0.10698045571E+04  0.10100000352E+00 0.  1.
        3   -1    0    0  501    0  0.00000000000E+00  0.00000000000E+00 -0.21032201984E+04  0.21032202008E+04  0.10100000352E+00 0. -1.
    10030    2    1    2    0    0  0.00000000000E+00  0.00000000000E+00 -0.10334156461E+04  0.31730247580E+04  0.30000230361E+04 0.  0.
        4    1    3    3  502    0 -0.98869264620E+03 -0.50220025980E+02 -0.17086367110E+04  0.19747091489E+04  0.12699999809E+01 0. -1.
       -4    1    3    3    0  502  0.98869264620E+03  0.50220025980E+02  0.67522106488E+03  0.11983156091E+04  0.12699999809E+01 0.  1.
</event>
<event>
 5   0  0.1821305E-07  0.3000745E+04  0.7818609E-02  0.8243518E-01
       -2   -1    0    0    0  501  0.00000000000E+00  0.00000000000E+00  0.11932405173E+04  0.11932405173E+04  0.25500000920E-02 0. -1.
        2   -1    0    0  501    0  0.00000000000E+00  0.00000000000E+00 -0.18865577478E+04  0.18865577478E+04  0.25500000920E-02 0.  1.
    10030    2    1    2    0    0  0.00000000000E+00  0.00000000000E+00 -0.69331723054E+03  0.30797982651E+04  0.30007446695E+04 0.  0.
        2    1    3    3  502    0  0.28175391155E+03  0.14240961772E+04 -0.73569868995E+03  0.16274789556E+04  0.25500000920E-02 0.  1.
       -2    1    3    3    0  502 -0.28175391155E+03 -0.14240961772E+04  0.42381459407E+02  0.14523193095E+04  0.25500000920E-02 0. -1.
</event>
<event>
 5   0  0.1810055E-07  0.2998535E+04  0.7818609E-02  0.8244149E-01
       -2   -1    0    0    0  501  0.00000000000E+00  0.00000000000E+00  0.11655736980E+04  0.11655736980E+04  0.25500000920E-02 0.  1.
        2   -1    0    0  501    0  0.00000000000E+00  0.00000000000E+00 -0.19284949229E+04  0.19284949229E+04  0.25500000920E-02 0. -1.
    10030    2    1    2    0    0  0.00000000000E+00  0.00000000000E+00 -0.76292122488E+03  0.30940686210E+04  0.29985349482E+04 0.  0.
        4    1    3    3  502    0 -0.46483031725E+02  0.43381868142E+03  0.10986174775E+04  0.11820834553E+04  0.12699999809E+01 0.  1.
       -4    1    3    3    0  502  0.46483031725E+02 -0.43381868142E+03 -0.18615387023E+04  0.19119851657E+04  0.12699999809E+01 0. -1.
</event>
<event>
 5   0  0.6374748E-08  0.3001288E+04  0.7818609E-02  0.8243363E-01
       -1   -1    0    0    0  501  0.00000000000E+00  0.00000000000E+00  0.11310501806E+04  0.11310501806E+04  0.50400001928E-02 0. -1.
        1   -1    0    0  501    0  0.00000000000E+00  0.00000000000E+00 -0.19910106822E+04  0.19910106822E+04  0.50400001928E-02 0.  1.
    10030    2    1    2    0    0  0.00000000000E+00  0.00000000000E+00 -0.85996050153E+03  0.31220608628E+04  0.30012883845E+04 0.  0.
        1    1    3    3  502    0  0.54803670034E+03  0.27819103299E+03 -0.18540833531E+04  0.19532945390E+04  0.50400001928E-02 0.  1.
       -1    1    3    3    0  502 -0.54803670034E+03 -0.27819103299E+03  0.99412285154E+03  0.11687663238E+04  0.50400001928E-02 0. -1.
</event>
<event>
 5   0  0.1821305E-07  0.3001483E+04  0.7818609E-02  0.8243308E-01
        2   -1    0    0  501    0  0.00000000000E+00  0.00000000000E+00  0.12913490828E+04  0.12913490828E+04  0.25500000920E-02 0. -1.
       -2   -1    0    0    0  501  0.00000000000E+00  0.00000000000E+00 -0.17440866213E+04  0.17440866213E+04  0.25500000920E-02 0.  1.
    10030    2    1    2    0    0  0.00000000000E+00  0.00000000000E+00 -0.45273753850E+03  0.30354357042E+04  0.30014827395E+04 0.  0.
        2    1    3    3  502    0 -0.15154302627E+03  0.63256529940E+03  0.11413800483E+04  0.13137170781E+04  0.25500000920E-02 0. -1.
       -2    1    3    3    0  502  0.15154302627E+03 -0.63256529940E+03 -0.15941175868E+04  0.17217186260E+04  0.25500000920E-02 0.  1.
</event>
<event>
 5   0  0.6464436E-08  0.3001926E+04  0.7818609E-02  0.8243181E-01
        1   -1    0    0  501    0  0.00000000000E+00  0.00000000000E+00  0.11980013802E+04  0.11980013802E+04  0.50400001928E-02 0. -1.
       -1   -1    0    0    0  501  0.00000000000E+00  0.00000000000E+00 -0.18805398586E+04  0.18805398586E+04  0.50400001928E-02 0.  1.
    10030    2    1    2    0    0  0.00000000000E+00  0.00000000000E+00 -0.68253847842E+03  0.30785412388E+04  0.30019256128E+04 0.  0.
        5    1    3    3  502    0 -0.19186143012E+02  0.15001366748E+04 -0.29439597558E+03  0.15288784227E+04  0.46999998093E+01 0. -1.
       -5    1    3    3    0  502  0.19186143012E+02 -0.15001366748E+04 -0.38814250285E+03  0.15496628161E+04  0.46999998093E+01 0.  1.
</event>
<event>
 5   0  0.6679022E-08  0.2998992E+04  0.7818609E-02  0.8244019E-01
        1   -1    0    0  501    0  0.00000000000E+00  0.00000000000E+00  0.16766589069E+04  0.16766589069E+04  0.50400001928E-02 0.  1.
       -1   -1    0    0    0  501  0.00000000000E+00  0.00000000000E+00 -0.13410528662E+04  0.13410528662E+04  0.50400001928E-02 0. -1.
    10030    2    1    2    0    0  0.00000000000E+00  0.00000000000E+00  0.33560604072E+03  0.30177117731E+04  0.29989919858E+04 0.  0.
        3    1    3    3  502    0 -0.50529045380E+03  0.52780437309E+03 -0.11497948661E+04  0.13623230686E+04  0.10100000352E+00 0. -1.
       -3    1    3    3    0  502  0.50529045380E+03 -0.52780437309E+03  0.14854009068E+04  0.16553887045E+04  0.10100000352E+00 0.  1.
</event>
<event>
 5   0  0.1914439E-07  0.3002792E+04  0.7818609E-02  0.8242934E-01
       -2   -1    0    0    0  501  0.00000000000E+00  0.00000000000E+00  0.15056470609E+04  0.15056470609E+04  0.25500000920E-02 0.  1.
        2   -1    0    0  501    0  0.00000000000E+00  0.00000000000E+00 -0.14971566527E+04  0.14971566527E+04  0.25500000920E-02 0. -1.
    10030    2    1    2    0    0  0.00000000000E+00  0.00000000000E+00  0.84904081342E+01  0.30028037136E+04  0.30027917103E+04 0.  0.
        5    1    3    3  502    0 -0.57384213664E+03  0.85485407737E+03 -0.10885066795E+04  0.14983121079E+04  0.46999998093E+01 0. -1.
       -5    1    3    3    0  502  0.57384213664E+03 -0.85485407737E+03  0.10969970876E+04  0.15044916057E+04  0.46999998093E+01 0.  1.
</event>
<event>
 5   0  0.6464436E-08  0.2999670E+04  0.7818609E-02  0.8243825E-01
        1   -1    0    0  501    0  0.00000000000E+00  0.00000000000E+00  0.17818144210E+04  0.17818144210E+04  0.50400001928E-02 0. -1.
       -1   -1    0    0    0  501  0.00000000000E+00  0.00000000000E+00 -0.12624799482E+04  0.12624799483E+04  0.50400001928E-02 0.  1.
    10030    2    1    2    0    0  0.00000000000E+00  0.00000000000E+00  0.51933447271E+03  0.30442943692E+04  0.29996699672E+04 0.  0.
        5    1    3    3  502    0  0.33813257228E+02 -0.88119094449E+03  0.14909102402E+04  0.17321882840E+04  0.46999998093E+01 0. -1.
       -5    1    3    3    0  502 -0.33813257228E+02  0.88119094449E+03 -0.97157576744E+03  0.13121060852E+04  0.46999998093E+01 0.  1.
</event>
<event>
 5   0  0.1813720E-07  0.3000592E+04  0.7818609E-02  0.8243562E-01
       -2   -1    0    0    0  501  0.00000000000E+00  0.00000000000E+00  0.94441413020E+03  0.94441413020E+03  0.25500000920E-02 0.  1.
        2   -1    0    0  501    0  0.00000000000E+00  0.00000000000E+00 -0.23833690875E+04  0.23833690875E+04  0.25500000920E-02 0. -1.
    10030    2    1    2    0    0  0.00000000000E+00  0.00000000000E+00 -0.14389549573E+04  0.33277832177E+04  0.30005915708E+04 0.  0.
        3    1    3    3  502    0 -0.10597189755E+04 -0.77615216394E+03 -0.15234153655E+04  0.20115195437E+04  0.10100000352E+00 0. -1.
       -3    1    3    3    0  502  0.10597189755E+04  0.77615216394E+03  0.84460408268E+02  0.13162636739E+04  0.10100000352E+00 0.  1.
</event>
<event>
 5   0  0.6374748E-08  0.3000499E+04  0.7818609E-02  0.8243588E-01
       -1   -1    0    0    0  501  0.00000000000E+00  0.00000000000E+00  0.17396332263E+04  0.17396332263E+04  0.50400001928E-02 0.  1.
        1   -1    0    0  501    0  0.00000000000E+00  0.00000000000E+00 -0.12938067922E+04  0.12938067922E+04  0.50400001928E-02 0. -1.
    10030    2    1    2    0    0  0.00000000000E+00  0.00000000000E+00  0.44582643411E+03  0.30334400185E+04  0.30004994811E+04 0.  0.
        1    1    3    3  502    0  0.78053645067E+03 -0.12676515104E+04  0.34937073566E+02  0.14890930467E+04  0.50400001928E-02 0. -1.
       -1    1    3    3    0  502 -0.78053645067E+03  0.12676515104E+04  0.41088936055E+03  0.15443469718E+04  0.50400001928E-02 0.  1.
</event>
<event>
 5   0  0.6464436E-08  0.2998127E+04  0.7818609E-02  0.8244266E-01
       -1   -1    0    0    0  501  0.00000000000E+00  0.00000000000E+00  0.94118333228E+03  0.94118333230E+03  0.50400001928E-02 0. -1.
        1   -1    0    0  501    0  0.00000000000E+00  0.00000000000E+00 -0.23876242218E+04  0.23876242218E+04  0.50400001928E-02 0.  1.
    10030    2    1    2    0    0  0.00000000000E+00  0.00000000000E+00 -0.14464408895E+04  0.33288075541E+04  0.29981274965E+04 0.  0.
        5    1    3    3  502    0  0.58425430316E+03 -0.61617228492E+03  0.64840966518E+03  0.10683999997E+04  0.46999998093E+01 0. -1.
       -5    1    3    3    0  502 -0.58425430316E+03  0.61617228492E+03 -0.20948505547E+04  0.22604075544E+04  0.46999998093E+01 0.  1.
</event>
<event>
 5   0  0.1813720E-07  0.3000330E+04  0.7818609E-02  0.8243637E-01
        2   -1    0    0  501    0  0.00000000000E+00  0.00000000000E+00  0.14688488829E+04  0.14688488829E+04  0.25500000920E-02 0.  1.
       -2   -1    0    0    0  501  0.00000000000E+00  0.00000000000E+00 -0.15321483631E+04  0.15321483631E+04  0.25500000920E-02 0. -1.
    10030    2    1    2    0    0  0.00000000000E+00  0.00000000000E+00 -0.63299480257E+02  0.30009972460E+04  0.30003295896E+04 0.  0.
        3    1    3    3  502    0 -0.32156465812E+02 -0.91713857745E+03  0.11553397467E+04  0.14754616731E+04  0.10100000352E+00 0.  1.
       -3    1    3    3    0  502  0.32156465812E+02  0.91713857745E+03 -0.12186392269E+04  0.15255355729E+04  0.10100000352E+00 0. -1.
</event>
<event>
 5   0  0.1914439E-07  0.2999348E+04  0.7818609E-02  0.8243917E-01
        2   -1    0    0  501    0  0.00000000000E+00  0.00000000000E+00  0.19131931663E+04  0.19131931663E+04  0.25500000920E-02 0. -1.
       -2   -1    0    0    0  501  0.00000000000E+00  0.00000000000E+00 -0.11755331649E+04  0.11755331649E+04  0.25500000920E-02 0.  1.
    10030    2    1    2    0    0  0.00000000000E+00  0.00000000000E+00  0.73766000141E+03  0.30887263313E+04  0.29993479411E+04 0.  0.
        5    1    3    3  502    0 -0.11023132448E+04 -0.79145883829E+03 -0.28854851443E+03  0.13873658197E+04  0.46999998093E+01 0.  1.
       -5    1    3    3    0  502  0.11023132448E+04  0.79145883829E+03  0.10262085158E+04  0.17013605116E+04  0.46999998093E+01 0. -1.
</event>
<event>
 5   0  0.1914439E-07  0.2999446E+04  0.7818609E-02  0.8243889E-01
        2   -1    0    0  501    0  0.00000000000E+00  0.00000000000E+00  0.10944821483E+04  0.10944821483E+04  0.25500000920E-02 0.  1.
       -2   -1    0    0    0  501  0.00000000000E+00  0.00000000000E+00 -0.20550074206E+04  0.20550074206E+04  0.25500000920E-02 0. -1.
    10030    2    1    2    0    0  0.00000000000E+00  0.00000000000E+00 -0.96052527230E+03  0.31494895688E+04  0.29994459064E+04 0.  0.
        5    1    3    3  502    0  0.43969518771E+03  0.41759308780E+03  0.96000528613E+03  0.11354946431E+04  0.46999998093E+01 0.  1.
       -5    1    3    3    0  502 -0.43969518771E+03 -0.41759308780E+03 -0.19205305584E+04  0.20139949257E+04  0.46999998093E+01 0. -1.
</event>
<event>
 5   0  0.6525507E-08  0.2999792E+04  0.7818609E-02  0.8243790E-01
        1   -1    0    0  501    0  0.00000000000E+00  0.00000000000E+00  0.83127422360E+03  0.83127422361E+03  0.50400001928E-02 0.  1.
       -1   -1    0    0    0  501  0.00000000000E+00  0.00000000000E+00 -0.27063123476E+04  0.27063123476E+04  0.50400001928E-02 0. -1.
    10030    2    1    2    0    0  0.00000000000E+00  0.00000000000E+00 -0.18750381240E+04  0.35375865712E+04  0.29997917899E+04 0.  0.
        4    1    3    3  502    0 -0.58579865188E+03 -0.10891715077E+04 -0.19383299120E+04  0.22992562046E+04  0.12699999809E+01 0. -1.
       -4    1    3    3    0  502  0.58579865188E+03  0.10891715077E+04  0.63291787953E+02  0.12383303667E+04  0.12699999809E+01 0.  1.
</event>
<event>
 5   0  0.6464436E-08  0.3002177E+04  0.7818609E-02  0.8243109E-01
        1   -1    0    0  501    0  0.00000000000E+00  0.00000000000E+00  0.11071896225E+04  0.11071896225E+04  0.50400001928E-02 0. -1.
       -1   -1    0    0    0  501  0.00000000000E+00  0.00000000000E+00 -0.20351232323E+04  0.20351232323E+04  0.50400001928E-02 0.  1.
    10030    2    1    2    0    0  0.00000000000E+00  0.00000000000E+00 -0.92793360981E+03  0.31423128548E+04  0.30021774253E+04 0.  0.
        5    1    3    3  502    0 -0.47570065734E+02 -0.14799000589E+04 -0.20571477330E+03  0.14948938937E+04  0.46999998093E+01 0.  1.
       -5    1    3    3    0  502  0.47570065734E+02  0.14799000589E+04 -0.72221883651E+03  0.16474189611E+04  0.46999998093E+01 0. -1.
</event>
<event>
 5   0  0.6525507E-08  0.2998560E+04  0.7818609E-02  0.8244142E-01
       -1   -1    0    0    0  501  0.00000000000E+00  0.00000000000E+00  0.20803807500E+04  0.20803807500E+04  0.50400001928E-02 0. -1.
        1   -1    0    0  501    0  0.00000000000E+00  0.00000000000E+00 -0.10804948998E+04  0.10804948998E+04  0.50400001928E-02 0.  1.
    10030    2    1    2    0    0  0.00000000000E+00  0.00000000000E+00  0.99988585013E+03  0.31608756498E+04  0.29985601812E+04 0.  0.
        4    1    3    3  502    0 -0.57159651831E+03  0.12633252211E+04  0.11010065975E+04  0.17705734480E+04  0.12699999809E+01 0. -1.
       -4    1    3    3    0  502  0.57159651831E+03 -0.12633252211E+04 -0.10112074733E+03  0.13903022019E+04  0.12699999809E+01 0.  1.
</event>
<event>
 5   0  0.6679022E-08  0.3001654E+04  0.7818609E-02  0.8243259E-01
        1   -1    0    0  501    0  0.00000000000E+00  0.00000000000E+00  0.15211087472E+04  0.15211087472E+04  0.50400001928E-02 0.  1.
       -1   -1    0    0    0  501  0.00000000000E+00  0.00000000000E+00 -0.14808156220E+04  0.14808156220E+04  0.50400001928E-02 0. -1.
    10030    2    1    2    0    0  0.00000000000E+00  0.00000000000E+00  0.40293125172E+02  0.30019243692E+04  0.30016539412E+04 0.  0.
        3    1    3    3  502    0  0.94100169841E+03  0.45403873284E+03 -0.10573762427E+04  0.14864992082E+04  0.10100000352E+00 0. -1.
       -3    1    3    3    0  502 -0.94100169841E+03 -0.45403873284E+03  0.10976693678E+04  0.15154251610E+04  0.10100000352E+00 0.  1.
</event>
<event>
 5   0  0.6374748E-08  0.2999890E+04  0.7818609E-02  0.8243762E-01
       -1   -1    0    0    0  501  0.00000000000E+00  0.00000000000E+00  0.10551338202E+04  0.10551338203E+04  0.50400001928E-02 0. -1.
        1   -1    0    0  501    0  0.00000000000E+00  0.00000000000E+00 -0.21322740342E+04  0.21322740342E+04  0.50400001928E-02 0.  1.
    10030    2    1    2    0    0  0.00000000000E+00  0.00000000000E+00 -0.10771402139E+04  0.31874078544E+04  0.29998896296E+04 0.  0.
        1    1    3    3  502    0 -0.14701832907E+04 -0.13431305079E+03 -0.82039640973E+03  0.16889432119E+04  0.50400001928E-02 0.  1.
       -1    1    3    3    0  502  0.14701832907E+04  0.13431305079E+03 -0.25674380418E+03  0.14984646425E+04  0.50400001928E-02 0. -1.
</event>
<event>
 5   0  0.1813720E-07  0.2999958E+04  0.7818609E-02  0.8243743E-01
       -2   -1    0    0    0  501  0.00000000000E+00  0.00000000000E+00  0.89669874383E+03  0.89669874383E+03  0.25500000920E-02 0.  1.
        2   -1    0    0  501    0  0.00000000000E+00  0.00000000000E+00 -0.25091339523E+04  0.25091339523E+04  0.25500000920E-02 0. -1.
    10030    2    1    2    0    0  0.00000000000E+00  0.00000000000E+00 -0.16124352084E+04  0.34058326961E+04  0.29999581751E+04 0.  0.
        3    1    3    3  502    0  0.17390518726E+00 -0.70271408305E+03  0.69826253462E+03  0.99064508792E+03  0.10100000352E+00 0.  1.
       -3    1    3    3    0  502 -0.17390518726E+00  0.70271408305E+03 -0.23106977430E+04  0.24151876082E+04  0.10100000352E+00 0. -1.
</event>
<event>
 5   0  0.1914439E-07  0.3001019E+04  0.7818609E-02  0.8243440E-01
       -2   -1    0    0    0  501  0.00000000000E+00  0.00000000000E+00  0.10851107481E+04  0.10851107481E+04  0.25500000920E-02 0. -1.
        2   -1    0    0  501    0  0.00000000000E+00  0.00000000000E+00 -0.20749305701E+04  0.20749305701E+04  0.25500000920E-02 0.  1.
    10030    2    1    2    0    0  0.00000000000E+00  0.00000000000E+00 -0.98981982192E+03  0.31600413182E+04  0.30010194689E+04 0.  0.
        5    1    3    3  502    0  0.10077738548E+04 -0.14046482389E+03 -0.16561469735E+04  0.19437549735E+04  0.46999998093E+01 0.  1.
       -5    1    3    3    0  502 -0.10077738548E+04  0.14046482389E+03  0.66632715161E+03  0.12162863447E+04  0.46999998093E+01 0. -1.
</event>
<event>
 5   0  0.1914439E-07  0.2999429E+04  0.7818609E-02  0.8243894E-01
       -2   -1    0    0    0  501  0.00000000000E+00  0.00000000000E+00  0.12223817266E+04  0.12223817266E+04  0.25500000920E-02 0.  1.
        2   -1    0    0  501    0  0.00000000000E+00  0.00000000000E+00 -0.18399685073E+04  0.18399685073E+04  0.25500000920E-02 0. -1.
    10030    2    1    2    0    0  0.00000000000E+00  0.00000000000E+00 -0.61758678069E+03  0.30623502340E+04  0.29994291997E+04 0.  0.
        5    1    3    3  502    0  0.72910083713E+03 -0.12825981099E+04 -0.33932532178E+02  0.14757436936E+04  0.46999998093E+01 0. -1.
       -5    1    3    3    0  502 -0.72910083713E+03  0.12825981099E+04 -0.58365424851E+03  0.15866065404E+04  0.46999998093E+01 0.  1.
</event>
<event>
 5   0  0.6374748E-08  0.3003094E+04  0.7818609E-02  0.8242848E-01
        1   -1    0    0  501    0  0.00000000000E+00  0.00000000000E+00  0.14741144461E+04  0.14741144461E+04  0.50400001928E-02 0.  1.
       -1   -1    0    0    0  501  0.00000000000E+00  0.00000000000E+00 -0.15294903512E+04  0.15294903513E+04  0.50400001928E-02 0. -1.
    10030    2    1    2    0    0  0.00000000000E+00  0.00000000000E+00 -0.55375905169E+02  0.30036047973E+04  0.30030942855E+04 0.  0.
        1    1    3    3  502    0  0.10051491836E+04  0.78564044464E+03 -0.81971147143E+03  0.15164045259E+04  0.50400001928E-02 0.  1.
       -1    1    3    3    0  502 -0.10051491836E+04 -0.78564044464E+03  0.76433556626E+03  0.14872002715E+04  0.50400001928E-02 0. -1.
</event>
<event>
 5   0  0.1817566E-07  0.2998592E+04  0.7818609E-02  0.8244133E-01
        2   -1    0    0  501    0  0.00000000000E+00  0.00000000000E+00  0.81128274748E+03  0.81128274748E+03  0.25500000920E-02 0. -1.
       -2   -1    0    0    0  501  0.00000000000E+00  0.00000000000E+00 -0.27707828699E+04  0.27707828699E+04  0.25500000920E-02 0.  1.
    10030    2    1    2    0    0  0.00000000000E+00  0.00000000000E+00 -0.19595001224E+04  0.35820656174E+04  0.29985918958E+04 0.  0.
        1    1    3    3  502    0  0.80109356246E+03 -0.12648727748E+04 -0.10740714684E+04  0.18426295210E+04  0.50400001928E-02 0. -1.
       -1    1    3    3    0  502 -0.80109356246E+03  0.12648727748E+04 -0.88542865397E+03  0.17394360964E+04  0.50400001928E-02 0.  1.
</event>
<event>
 5   0  0.1817566E-07  0.2999094E+04  0.7818609E-02  0.8243990E-01
        2   -1    0    0  501    0  0.00000000000E+00  0.00000000000E+00  0.12177891964E+04  0.12177891964E+04  0.25500000920E-02 0. -1.
       -2   -1    0    0    0  501  0.00000000000E+00  0.00000000000E+00 -0.18464949737E+04  0.18464949737E+04  0.25500000920E-02 0.  1.
    10030    2    1    2    0    0  0.00000000000E+00  0.00000000000E+00 -0.62870577734E+03  0.30642841702E+04  0.29990942835E+04 0.  0.
        1    1    3    3  502    0  0.25644999442E+03  0.14454614664E+04 -0.62680416079E+03  0.15962483850E+04  0.50400001928E-02 0.  1.
       -1    1    3    3    0  502 -0.25644999442E+03 -0.14454614664E+04 -0.19016165402E+01  0.14680357852E+04  0.50400001928E-02 0. -1.
</event>
<event>
 5   0  0.6679022E-08  0.3000145E+04  0.7818609E-02  0.8243689E-01
        1   -1    0    0  501    0  0.00000000000E+00  0.00000000000E+00  0.23875911023E+04  0.23875911023E+04  0.50400001928E-02 0. -1.
       -1   -1    0    0    0  501  0.00000000000E+00  0.00000000000E+00 -0.94246364205E+03  0.94246364206E+03  0.50400001928E-02 0.  1.
    10030    2    1    2    0    0  0.00000000000E+00  0.00000000000E+00  0.14451274602E+04  0.33300547443E+04  0.30001452005E+04 0.  0.
        3    1    3    3  502    0 -0.12978175688E+04 -0.40939898628E+03  0.14230558471E+04  0.19690164870E+04  0.10100000352E+00 0. -1.
       -3    1    3    3    0  502  0.12978175688E+04  0.40939898628E+03  0.22071613147E+02  0.13610382574E+04  0.10100000352E+00 0.  1.
</event>
<event>
 5   0  0.1810055E-07  0.3001346E+04  0.7818609E-02  0.8243347E-01
       -2   -1    0    0    0  501  0.00000000000E+00  0.00000000000E+00  0.16095409907E+04  0.16095409907E+04  0.25500000920E-02 0. -1.
        2   -1    0    0  501    0  0.00000000000E+00  0.00000000000E+00 -0.13991683824E+04  0.13991683824E+04  0.25500000920E-02 0.  1.
    10030    2    1    2    0    0  0.00000000000E+00  0.00000000000E+00  0.21037260831E+03  0.30087093731E+04  0.30013456077E+04 0.  0.
        4    1    3    3  502    0  0.20904404776E+03 -0.46437139818E+03 -0.13098992252E+04  0.14054101901E+04  0.12699999809E+01 0.  1.
       -4    1    3    3    0  502 -0.20904404776E+03  0.46437139818E+03  0.15202718335E+04  0.16032991829E+04  0.12699999809E+01 0. -1.
</event>
<event>
 5   0  0.6636007E-08  0.3000233E+04  0.7818609E-02  0.8243664E-01
       -1   -1    0    0    0  501  0.00000000000E+00  0.00000000000E+00  0.93568604065E+03  0.93568604067E+03  0.50400001928E-02 0. -1.
        1   -1    0    0  501    0  0.00000000000E+00  0.00000000000E+00 -0.24050258495E+04  0.24050258495E+04  0.50400001928E-02 0.  1.
    10030    2    1    2    0    0  0.00000000000E+00  0.00000000000E+00 -0.14693398088E+04  0.33407118902E+04  0.30002327342E+04 0.  0.
        2    1    3    3  502    0  0.42764338013E+03 -0.13946188199E+04 -0.11244030732E+04  0.18417716428E+04  0.25500000920E-02 0.  1.
       -2    1    3    3    0  502 -0.42764338013E+03  0.13946188199E+04 -0.34493673568E+03  0.14989402473E+04  0.25500000920E-02 0. -1.
</event>
<event>
 5   0  0.1821305E-07  0.3000440E+04  0.7818609E-02  0.8243605E-01
       -2   -1    0    0    0  501  0.00000000000E+00  0.00000000000E+00  0.13076168342E+04  0.13076168342E+04  0.25500000920E-02 0.  1.
        2   -1    0    0  501    0  0.00000000000E+00  0.00000000000E+00 -0.17211924520E+04  0.17211924520E+04  0.25500000920E-02 0. -1.
    10030    2    1    2    0    0  0.00000000000E+00  0.00000000000E+00 -0.41357561776E+03  0.30288092862E+04  0.30004401178E+04 0.  0.
        2    1    3    3  502    0 -0.58524220079E+03  0.84773116048E+03 -0.13077435434E+04  0.16647371352E+04  0.25500000920E-02 0. -1.
       -2    1    3    3    0  502  0.58524220079E+03 -0.84773116048E+03  0.89416792561E+03  0.13640721510E+04  0.25500000920E-02 0.  1.
</event>
<event>
 5   0  0.6374748E-08  0.3000942E+04  0.7818609E-02  0.8243462E-01
        1   -1    0    0  501    0  0.00000000000E+00  0.00000000000E+00  0.16647534075E+04  0.16647534075E+04  0.50400001928E-02 0.  1.
       -1   -1    0    0    0  501  0.00000000000E+00  0.00000000000E+00 -0.13524005682E+04  0.13524005682E+04  0.50400001928E-02 0. -1.
    10030    2    1    2    0    0  0.00000000000E+00  0.00000000000E+00  0.31235283926E+03  0.30171539757E+04  0.30009421549E+04 0.  0.
        1    1    3    3  502    0 -0.14419741010E+04 -0.20085181875E+03 -0.20880355736E+03  0.14707921970E+04  0.50400001928E-02 0. -1.
       -1    1    3    3    0  502  0.14419741010E+04  0.20085181875E+03  0.52115639662E+03  0.15463617788E+04  0.50400001928E-02 0.  1.
</event>
<event>
 5   0  0.1821305E-07  0.2998854E+04  0.7818609E-02  0.8244058E-01
        2   -1    0    0  501    0  0.00000000000E+00  0.00000000000E+00  0.16368601355E+04  0.16368601355E+04  0.25500000920E-02 0.  1.
       -2   -1    0    0    0  501  0.00000000000E+00  0.00000000000E+00 -0.13735331110E+04  0.13735331110E+04  0.25500000920E-02 0. -1.
    10030    2    1    2    0    0  0.00000000000E+00  0.00000000000E+00  0.26332702451E+03  0.30103932465E+04  0.29988541773E+04 0.  0.
        2    1    3    3  502    0  0.29583371350E+03 -0.14174068473E+04 -0.25935014759E+03  0.14709936288E+04  0.25500000920E-02 0. -1.
       -2    1    3    3    0  502 -0.29583371350E+03  0.14174068473E+04  0.52267717210E+03  0.15393996177E+04  0.25500000920E-02 0.  1.
</event>
<event>
 5   0  0.1914439E-07  0.3000003E+04  0.7818609E-02  0.8243730E-01
       -2   -1    0    0    0  501  0.00000000000E+00  0.00000000000E+00  0.12290671199E+04  0.12290671199E+04  0.25500000920E-02 0. -1.
        2   -1    0    0  501    0  0.00000000000E+00  0.00000000000E+00 -0.18306604470E+04  0.18306604470E+04  0.25500000920E-02 0.  1.
    10030    2    1    2    0    0  0.00000000000E+00  0.00000000000E+00 -0.60159332714E+03  0.30597275669E+04  0.30000030420E+04 0.  0.
        5    1    3    3  502    0 -0.35684979504E+03 -0.10002031247E+04 -0.13812421360E+04  0.17422973326E+04  0.46999998093E+01 0.  1.
       -5    1    3    3    0  502  0.35684979504E+03  0.10002031247E+04  0.77964880890E+03  0.13174302343E+04  0.46999998093E+01 0. -1.
</event>
<event>
 5   0  0.1914439E-07  0.3000934E+04  0.7818609E-02  0.8243464E-01
       -2   -1    0    0    0  501  0.00000000000E+00  0.00000000000E+00  0.14174881253E+04  0.14174881253E+04  0.25500000920E-02 0. -1.
        2   -1    0    0  501    0  0.00000000000E+00  0.00000000000E+00 -0.15883031490E+04  0.15883031490E+04  0.25500000920E-02 0.  1.
    10030    2    1    2    0    0  0.00000000000E+00  0.00000000000E+00 -0.17081502378E+03  0.30057912743E+04  0.30009337567E+04 0.  0.
        5    1    3    3  502    0 -0.13320350093E+03 -0.19598595075E+03 -0.15694349825E+04  0.15872308968E+04  0.46999998093E+01 0.  1.
       -5    1    3    3    0  502  0.13320350093E+03  0.19598595075E+03  0.13986199587E+04  0.14185603775E+04  0.46999998093E+01 0. -1.
</event>
<event>
 5   0  0.1914439E-07  0.2996564E+04  0.7818609E-02  0.8244713E-01
        2   -1    0    0  501    0  0.00000000000E+00  0.00000000000E+00  0.14324997760E+04  0.14324997760E+04  0.25500000920E-02 0. -1.
       -2   -1    0    0    0  501  0.00000000000E+00  0.00000000000E+00 -0.15670845882E+04  0.15670845882E+04  0.25500000920E-02 0.  1.
    10030    2    1    2    0    0  0.00000000000E+00  0.00000000000E+00 -0.13458481221E+03  0.29995843643E+04  0.29965635796E+04 0.  0.
        5    1    3    3  502    0 -0.38211081753E+02 -0.13672395658E+04 -0.67948239731E+03  0.15272598127E+04  0.46999998093E+01 0. -1.
       -5    1    3    3    0  502  0.38211081753E+02  0.13672395658E+04  0.54489758509E+03  0.14723245516E+04  0.46999998093E+01 0.  1.
</event>
<event>
 5   0  0.6374748E-08  0.2991825E+04  0.7818609E-02  0.8246069E-01
        1   -1    0    0  501    0  0.00000000000E+00  0.00000000000E+00  0.21872577247E+04  0.21872577247E+04  0.50400001928E-02 0. -1.
       -1   -1    0    0    0  501  0.00000000000E+00  0.00000000000E+00 -0.10230864129E+04  0.10230864129E+04  0.50400001928E-02 0.  1.
    10030    2    1    2    0    0  0.00000000000E+00  0.00000000000E+00  0.11641713118E+04  0.32103441376E+04  0.29918246337E+04 0.  0.
        1    1    3    3  502    0  0.90514287680E+03 -0.21531341832E+03  0.18390123415E+04  0.20609730439E+04  0.50400001928E-02 0. -1.
       -1    1    3    3    0  502 -0.90514287680E+03  0.21531341832E+03 -0.67484102972E+03  0.11493710937E+04  0.50400001928E-02 0.  1.
</event>
<event>
 5   0  0.6679022E-08  0.2992780E+04  0.7818609E-02  0.8245796E-01
        1   -1    0    0  501    0  0.00000000000E+00  0.00000000000E+00  0.20722807633E+04  0.20722807633E+04  0.50400001928E-02 0.  1.
       -1   -1    0    0    0  501  0.00000000000E+00  0.00000000000E+00 -0.10805401418E+04  0.10805401418E+04  0.50400001928E-02 0. -1.
    10030    2    1    2    0    0  0.00000000000E+00  0.00000000000E+00  0.99174062147E+03  0.31528209051E+04  0.29927796777E+04 0.  0.
        3    1    3    3  502    0  0.73524538638E+03 -0.12774213234E+04  0.76813118284E+03  0.16620519065E+04  0.10100000352E+00 0. -1.
       -3    1    3    3    0  502 -0.73524538638E+03  0.12774213234E+04  0.22360943863E+03  0.14907689985E+04  0.10100000352E+00 0.  1.
</event>
<event>
 5   0  0.6679022E-08  0.2994962E+04  0.7818609E-02  0.8245171E-01
        1   -1    0    0  501    0  0.00000000000E+00  0.00000000000E+00  0.23420312260E+04  0.23420312261E+04  0.50400001928E-02 0.  1.
       -1   -1    0    0    0  501  0.00000000000E+00  0.00000000000E+00 -0.95748047308E+03  0.95748047309E+03  0.50400001928E-02 0. -1.
    10030    2    1    2    0    0  0.00000000000E+00  0.00000000000E+00  0.13845507530E+04  0.32995116991E+04  0.29949618804E+04 0.  0.
        3    1    3    3  502    0  0.19915024103E+03  0.75615251988E+02 -0.94070282288E+03  0.96452075976E+03  0.10100000352E+00 0. -1.
       -3    1    3    3    0  502 -0.19915024103E+03 -0.75615251988E+02  0.23252535758E+04  0.23349909394E+04  0.10100000352E+00 0.  1.
</event>
<event>
 5   0  0.1817566E-07  0.3000118E+04  0.7818609E-02  0.8243697E-01
        2   -1    0    0  501    0  0.00000000000E+00  0.00000000000E+00  0.18893300402E+04  0.18893300402E+04  0.25500000920E-02 0.  1.
       -2   -1    0    0    0  501  0.00000000000E+00  0.00000000000E+00 -0.11909921006E+04  0.11909921006E+04  0.25500000920E-02 0. -1.
    10030    2    1    2    0    0  0.00000000000E+00  0.00000000000E+00  0.69833793952E+03  0.30803221408E+04  0.30001180999E+04 0.  0.
        1    1    3    3  502    0  0.65245208659E+03 -0.96139424629E+03  0.13233246870E+04  0.17610113144E+04  0.50400001928E-02 0.  1.
       -1    1    3    3    0  502 -0.65245208659E+03  0.96139424629E+03 -0.62498674750E+03  0.13193108264E+04  0.50400001928E-02 0. -1.
</event>
<event>
 5   0  0.6464436E-08  0.2998784E+04  0.7818609E-02  0.8244078E-01
        1   -1    0    0  501    0  0.00000000000E+00  0.00000000000E+00  0.26437247575E+04  0.26437247575E+04  0.50400001928E-02 0.  1.
       -1   -1    0    0    0  501  0.00000000000E+00  0.00000000000E+00 -0.85038210100E+03  0.85038210101E+03  0.50400001928E-02 0. -1.
    10030    2    1    2    0    0  0.00000000000E+00  0.00000000000E+00  0.17933426565E+04  0.34941068585E+04  0.29987838961E+04 0.  0.
        5    1    3    3  502    0 -0.89399790158E+02  0.94783767151E+03  0.22463467251E+04  0.24397713568E+04  0.46999998093E+01 0.  1.
       -5    1    3    3    0  502  0.89399790158E+02 -0.94783767151E+03 -0.45300406861E+03  0.10543355017E+04  0.46999998093E+01 0. -1.
</event>
<event>
 5   0  0.1817566E-07  0.3003051E+04  0.7818609E-02  0.8242860E-01
        2   -1    0    0  501    0  0.00000000000E+00  0.00000000000E+00  0.16089643835E+04  0.16089643835E+04  0.25500000920E-02 0. -1.
       -2   -1    0    0    0  501  0.00000000000E+00  0.00000000000E+00 -0.14012609357E+04  0.14012609357E+04  0.25500000920E-02 0.  1.
    10030    2    1    2    0    0  0.00000000000E+00  0.00000000000E+00  0.20770344776E+03  0.30102253192E+04  0.30030510735E+04 0.  0.
        1    1    3    3  502    0 -0.67165740179E+03 -0.10378775984E+04  0.95809968714E+03  0.15640551733E+04  0.50400001928E-02 0. -1.
       -1    1    3    3    0  502  0.67165740179E+03  0.10378775984E+04 -0.75039623938E+03  0.14461701459E+04  0.50400001928E-02 0.  1.
</event>
<event>
 5   0  0.1813720E-07  0.2994204E+04  0.7818609E-02  0.8245388E-01
       -2   -1    0    0    0  501  0.00000000000E+00  0.00000000000E+00  0.26035076186E+04  0.26035076186E+04  0.25500000920E-02 0. -1.
        2   -1    0    0  501    0  0.00000000000E+00  0.00000000000E+00 -0.86088251861E+03  0.86088251861E+03  0.25500000920E-02 0.  1.
    10030    2    1    2    0    0  0.00000000000E+00  0.00000000000E+00  0.17426251000E+04  0.34643901372E+04  0.29942038647E+04 0.  0.
        3    1    3    3  502    0 -0.11858584283E+04 -0.28416587019E+03 -0.13357752103E+03  0.12267246709E+04  0.10100000352E+00 0.  1.
       -3    1    3    3    0  502  0.11858584283E+04  0.28416587019E+03  0.18762026210E+04  0.22376654663E+04  0.10100000352E+00 0. -1.
</event>
<event>
 5   0  0.1821305E-07  0.3000254E+04  0.7818609E-02  0.8243658E-01
       -2   -1    0    0    0  501  0.00000000000E+00  0.00000000000E+00  0.11847985198E+04  0.11847985198E+04  0.25500000920E-02 0. -1.
        2   -1    0    0  501    0  0.00000000000E+00  0.00000000000E+00 -0.18993789285E+04  0.18993789286E+04  0.25500000920E-02 0.  1.
    10030    2    1    2    0    0  0.00000000000E+00  0.00000000000E+00 -0.71458040876E+03  0.30841774483E+04  0.30002542179E+04 0.  0.
        2    1    3    3  502    0  0.60364203562E+03  0.15100127415E+03  0.10458808046E+04  0.12169846956E+04  0.25500000920E-02 0. -1.
       -2    1    3    3    0  502 -0.60364203562E+03 -0.15100127415E+03 -0.17604612134E+04  0.18671927527E+04  0.25500000920E-02 0.  1.
</event>
<event>
 5   0  0.6636007E-08  0.2996981E+04  0.7818609E-02  0.8244594E-01
       -1   -1    0    0    0  501  0.00000000000E+00  0.00000000000E+00  0.96944314860E+03  0.96944314861E+03  0.50400001928E-02 0. -1.
        1   -1    0    0  501    0  0.00000000000E+00  0.00000000000E+00 -0.23162504857E+04  0.23162504857E+04  0.50400001928E-02 0.  1.
    10030    2    1    2    0    0  0.00000000000E+00  0.00000000000E+00 -0.13468073371E+04  0.32856936343E+04  0.29969805898E+04 0.  0.
        2    1    3    3  502    0 -0.13065004471E+04  0.54887302025E+03 -0.13937710383E+03  0.14239490818E+04  0.25500000920E-02 0. -1.
       -2    1    3    3    0  502  0.13065004471E+04 -0.54887302025E+03 -0.12074302333E+04  0.18617445525E+04  0.25500000920E-02 0.  1.
</event>
<event>
 5   0  0.1914439E-07  0.3000398E+04  0.7818609E-02  0.8243617E-01
        2   -1    0    0  501    0  0.00000000000E+00  0.00000000000E+00  0.12432373755E+04  0.12432373755E+04  0.25500000920E-02 0.  1.
       -2   -1    0    0    0  501  0.00000000000E+00  0.00000000000E+00 -0.18102714466E+04  0.18102714466E+04  0.25500000920E-02 0. -1.
    10030    2    1    2    0    0  0.00000000000E+00  0.00000000000E+00 -0.56703407117E+03  0.30535088221E+04  0.30003980550E+04 0.  0.
        5    1    3    3  502    0  0.59949301226E+03 -0.10292630655E+04 -0.12116922034E+04  0.16991157746E+04  0.46999998093E+01 0. -1.
       -5    1    3    3    0  502 -0.59949301226E+03  0.10292630655E+04  0.64465813220E+03  0.13543930475E+04  0.46999998093E+01 0.  1.
</event>
<event>
 5   0  0.6017625E-08  0.2999898E+04  0.7818609E-02  0.8243760E-01
       -3   -1    0    0    0  501  0.00000000000E+00  0.00000000000E+00  0.17451567580E+04  0.17451567609E+04  0.10100000352E+00 0. -1.
        3   -1    0    0  501    0  0.00000000000E+00  0.00000000000E+00 -0.12891950242E+04  0.12891950282E+04  0.10100000352E+00 0.  1.
    10030    2    1    2    0    0  0.00000000000E+00  0.00000000000E+00  0.45596173378E+03  0.30343517891E+04  0.29998982779E+04 0.  0.
        3    1    3    3  502    0  0.30913988872E+03 -0.82828174458E+02  0.17102185159E+04  0.17399067100E+04  0.10100000352E+00 0. -1.
       -3    1    3    3    0  502 -0.30913988872E+03  0.82828174458E+02 -0.12542567821E+04  0.12944450791E+04  0.10100000352E+00 0.  1.
</event>
<event>
 5   0  0.1914439E-07  0.2997551E+04  0.7818609E-02  0.8244431E-01
       -2   -1    0    0    0  501  0.00000000000E+00  0.00000000000E+00  0.82713222755E+03  0.82713222755E+03  0.25500000920E-02 0.  1.
        2   -1    0    0  501    0  0.00000000000E+00  0.00000000000E+00 -0.27158018879E+04  0.27158018879E+04  0.25500000920E-02 0. -1.
    10030    2    1    2    0    0  0.00000000000E+00  0.00000000000E+00 -0.18886696603E+04  0.35429341154E+04  0.29975505101E+04 0.  0.
        5    1    3    3  502    0 -0.63009527122E+03 -0.45868526975E+03 -0.24574495618E+04  0.25780792591E+04  0.46999998093E+01 0. -1.
       -5    1    3    3    0  502  0.63009527122E+03  0.45868526975E+03  0.56877990145E+03  0.96485485634E+03  0.46999998093E+01 0.  1.
</event>
<event>
 5   0  0.1817566E-07  0.3000381E+04  0.7818609E-02  0.8243622E-01
       -2   -1    0    0    0  501  0.00000000000E+00  0.00000000000E+00  0.14389903512E+04  0.14389903512E+04  0.25500000920E-02 0.  1.
        2   -1    0    0  501    0  0.00000000000E+00  0.00000000000E+00 -0.15639931242E+04  0.15639931242E+04  0.25500000920E-02 0. -1.
    10030    2    1    2    0    0  0.00000000000E+00  0.00000000000E+00 -0.12500277302E+03  0.30029834754E+04  0.30003806526E+04 0.  0.
        1    1    3    3  502    0 -0.36053061807E+02  0.12431775846E+04 -0.90214551988E+03  0.15364429274E+04  0.50400001928E-02 0. -1.
       -1    1    3    3    0  502  0.36053061807E+02 -0.12431775846E+04  0.77714274686E+03  0.14665405480E+04  0.50400001928E-02 0.  1.
</event>
<event>
 5   0  0.1810055E-07  0.2998610E+04  0.7818609E-02  0.8244128E-01
       -2   -1    0    0    0  501  0.00000000000E+00  0.00000000000E+00  0.18966673819E+04  0.18966673819E+04  0.25500000920E-02 0. -1.
        2   -1    0    0  501    0  0.00000000000E+00  0.00000000000E+00 -0.11851924633E+04  0.11851924633E+04  0.25500000920E-02 0.  1.
    10030    2    1    2    0    0  0.00000000000E+00  0.00000000000E+00  0.71147491856E+03  0.30818598452E+04  0.29986102691E+04 0.  0.
        4    1    3    3  502    0 -0.29644437602E+03  0.14599333560E+03  0.18587753266E+04  0.18879196619E+04  0.12699999809E+01 0. -1.
       -4    1    3    3    0  502  0.29644437602E+03 -0.14599333560E+03 -0.11473004081E+04  0.11939401833E+04  0.12699999809E+01 0.  1.
</event>
<event>
 5   0  0.6636007E-08  0.3010974E+04  0.7818609E-02  0.8240604E-01
       -1   -1    0    0    0  501  0.00000000000E+00  0.00000000000E+00  0.11823272189E+04  0.11823272189E+04  0.50400001928E-02 0.  1.
        1   -1    0    0  501    0  0.00000000000E+00  0.00000000000E+00 -0.19169739493E+04  0.19169739493E+04  0.50400001928E-02 0. -1.
    10030    2    1    2    0    0  0.00000000000E+00  0.00000000000E+00 -0.73464673036E+03  0.30993011682E+04  0.30109735822E+04 0.  0.
        2    1    3    3  502    0  0.10712687072E+04 -0.37633272029E+03  0.65023451780E+03  0.13084524781E+04  0.25500000920E-02 0.  1.
       -2    1    3    3    0  502 -0.10712687072E+04  0.37633272029E+03 -0.13848812482E+04  0.17908486901E+04  0.25500000920E-02 0. -1.
</event>
<event>
 5   0  0.6636007E-08  0.3021559E+04  0.7818609E-02  0.8237601E-01
       -1   -1    0    0    0  501  0.00000000000E+00  0.00000000000E+00  0.93157645436E+03  0.93157645438E+03  0.50400001928E-02 0. -1.
        1   -1    0    0  501    0  0.00000000000E+00  0.00000000000E+00 -0.24500995395E+04  0.24500995395E+04  0.50400001928E-02 0.  1.
    10030    2    1    2    0    0  0.00000000000E+00  0.00000000000E+00 -0.15185230852E+04  0.33816759939E+04  0.30215592279E+04 0.  0.
        2    1    3    3  502    0  0.84432484960E+03  0.35643985659E+03 -0.21034556523E+04  0.22944410004E+04  0.25500000920E-02 0.  1.
       -2    1    3    3    0  502 -0.84432484960E+03 -0.35643985659E+03  0.58493256715E+03  0.10872349935E+04  0.25500000920E-02 0. -1.
</event>
<event>
 5   0  0.1914439E-07  0.2998774E+04  0.7818609E-02  0.8244081E-01
       -2   -1    0    0    0  501  0.00000000000E+00  0.00000000000E+00  0.15647179158E+04  0.15647179158E+04  0.25500000920E-02 0.  1.
        2   -1    0    0  501    0  0.00000000000E+00  0.00000000000E+00 -0.14367834801E+04  0.14367834801E+04  0.25500000920E-02 0. -1.
    10030    2    1    2    0    0  0.00000000000E+00  0.00000000000E+00  0.12793443570E+03  0.30015013960E+04  0.29987736510E+04 0.  0.
        5    1    3    3  502    0 -0.11963525506E+04 -0.62458284985E+03 -0.58990766414E+03  0.14728802748E+04  0.46999998093E+01 0. -1.
       -5    1    3    3    0  502  0.11963525506E+04  0.62458284985E+03  0.71784209984E+03  0.15286211212E+04  0.46999998093E+01 0.  1.
</event>
<event>
 5   0  0.1813720E-07  0.2999982E+04  0.7818609E-02  0.8243736E-01
       -2   -1    0    0    0  501  0.00000000000E+00  0.00000000000E+00  0.17011194265E+04  0.17011194265E+04  0.25500000920E-02 0. -1.
        2   -1    0    0  501    0  0.00000000000E+00  0.00000000000E+00 -0.13226422091E+04  0.13226422091E+04  0.25500000920E-02 0.  1.
    10030    2    1    2    0    0  0.00000000000E+00  0.00000000000E+00  0.37847721741E+03  0.30237616356E+04  0.29999815708E+04 0.  0.
        3    1    3    3  502    0 -0.89457743893E+03  0.11198242984E+04  0.63512185309E+03  0.15676909874E+04  0.10100000352E+00 0. -1.
       -3    1    3    3    0  502  0.89457743893E+03 -0.11198242984E+04 -0.25664463568E+03  0.14560706482E+04  0.10100000352E+00 0.  1.
</event>
<event>
 5   0  0.6636007E-08  0.2998134E+04  0.7818609E-02  0.8244264E-01
       -1   -1    0    0    0  501  0.00000000000E+00  0.00000000000E+00  0.11626278056E+04  0.11626278056E+04  0.50400001928E-02 0.  1.
        1   -1    0    0  501    0  0.00000000000E+00  0.00000000000E+00 -0.19328638120E+04  0.19328638120E+04  0.50400001928E-02 0. -1.
    10030    2    1    2    0    0  0.00000000000E+00  0.00000000000E+00 -0.77023600641E+03  0.30954916176E+04  0.29981335609E+04 0.  0.
        2    1    3    3  502    0  0.45584853294E+03 -0.11957052806E+04 -0.11913016404E+04  0.17483445317E+04  0.25500000920E-02 0. -1.
       -2    1    3    3    0  502 -0.45584853294E+03  0.11957052806E+04  0.42106563400E+03  0.13471470859E+04  0.25500000920E-02 0.  1.
</event>
<event>
 5   0  0.1810055E-07  0.3001986E+04  0.7818609E-02  0.8243164E-01
        2   -1    0    0  501    0  0.00000000000E+00  0.00000000000E+00  0.14013167237E+04  0.14013167237E+04  0.25500000920E-02 0. -1.
       -2   -1    0    0    0  501  0.00000000000E+00  0.00000000000E+00 -0.16077596161E+04  0.16077596161E+04  0.25500000920E-02 0.  1.
    10030    2    1    2    0    0  0.00000000000E+00  0.00000000000E+00 -0.20644289239E+03  0.30090763399E+04  0.30019863010E+04 0.  0.
        4    1    3    3  502    0 -0.14778571364E+04 -0.26244913458E+03 -0.97078263835E+02  0.15041167063E+04  0.12699999809E+01 0. -1.
       -4    1    3    3    0  502  0.14778571364E+04  0.26244913458E+03 -0.10936462855E+03  0.15049596336E+04  0.12699999809E+01 0.  1.
</event>
<event>
 5   0  0.6525507E-08  0.2999692E+04  0.7818609E-02  0.8243819E-01
       -1   -1    0    0    0  501  0.00000000000E+00  0.00000000000E+00  0.12242358146E+04  0.12242358147E+04  0.50400001928E-02 0. -1.
        1   -1    0    0  501    0  0.00000000000E+00  0.00000000000E+00 -0.18375035608E+04  0.18375035609E+04  0.50400001928E-02 0.  1.
    10030    2    1    2    0    0  0.00000000000E+00  0.00000000000E+00 -0.61326774620E+03  0.30617393755E+04  0.29996917633E+04 0.  0.
        4    1    3    3  502    0 -0.10955442299E+04 -0.51346309164E+03  0.59808350309E+03  0.13496543986E+04  0.12699999809E+01 0. -1.
       -4    1    3    3    0  502  0.10955442299E+04  0.51346309164E+03 -0.12113512493E+04  0.17120849769E+04  0.12699999809E+01 0.  1.
</event>
<event>
 5   0  0.6679022E-08  0.3000893E+04  0.7818609E-02  0.8243476E-01
       -1   -1    0    0    0  501  0.00000000000E+00  0.00000000000E+00  0.13216531569E+04  0.13216531569E+04  0.50400001928E-02 0. -1.
        1   -1    0    0  501    0  0.00000000000E+00  0.00000000000E+00 -0.17034271120E+04  0.17034271120E+04  0.50400001928E-02 0.  1.
    10030    2    1    2    0    0  0.00000000000E+00  0.00000000000E+00 -0.38177395509E+03  0.30250802689E+04  0.30008930805E+04 0.  0.
        3    1    3    3  502    0  0.32351359840E+03 -0.23224522376E+03  0.12674037477E+04  0.13284995906E+04  0.10100000352E+00 0. -1.
       -3    1    3    3    0  502 -0.32351359840E+03  0.23224522376E+03 -0.16491777028E+04  0.16965806783E+04  0.10100000352E+00 0.  1.
</event>
<event>
 5   0  0.1817566E-07  0.3001139E+04  0.7818609E-02  0.8243406E-01
        2   -1    0    0  501    0  0.00000000000E+00  0.00000000000E+00  0.18021596798E+04  0.18021596798E+04  0.25500000920E-02 0. -1.
       -2   -1    0    0    0  501  0.00000000000E+00  0.00000000000E+00 -0.12494501865E+04  0.12494501865E+04  0.25500000920E-02 0.  1.
    10030    2    1    2    0    0  0.00000000000E+00  0.00000000000E+00  0.55270949330E+03  0.30516098663E+04  0.30011389492E+04 0.  0.
        1    1    3    3  502    0  0.12959915834E+04 -0.46958480477E+03  0.87928937519E+03  0.16350088313E+04  0.50400001928E-02 0. -1.
       -1    1    3    3    0  502 -0.12959915834E+04  0.46958480477E+03 -0.32657988189E+03  0.14166010350E+04  0.50400001928E-02 0.  1.
</event>
<event>
 5   0  0.6636007E-08  0.2999649E+04  0.7818609E-02  0.8243831E-01
       -1   -1    0    0    0  501  0.00000000000E+00  0.00000000000E+00  0.94219207026E+03  0.94219207028E+03  0.50400001928E-02 0. -1.
        1   -1    0    0  501    0  0.00000000000E+00  0.00000000000E+00 -0.23874894077E+04  0.23874894077E+04  0.50400001928E-02 0.  1.
    10030    2    1    2    0    0  0.00000000000E+00  0.00000000000E+00 -0.14452973375E+04  0.33296814780E+04  0.29996490380E+04 0.  0.
        2    1    3    3  502    0  0.12889448884E+04  0.63658876593E+03 -0.24799261748E+03  0.14588092818E+04  0.25500000920E-02 0. -1.
       -2    1    3    3    0  502 -0.12889448884E+04 -0.63658876593E+03 -0.11973047200E+04  0.18708721963E+04  0.25500000920E-02 0.  1.
</event>
<event>
 5   0  0.1817566E-07  0.3000472E+04  0.7818609E-02  0.8243596E-01
       -2   -1    0    0    0  501  0.00000000000E+00  0.00000000000E+00  0.12779646652E+04  0.12779646652E+04  0.25500000920E-02 0. -1.
        2   -1    0    0  501    0  0.00000000000E+00  0.00000000000E+00 -0.17611658520E+04  0.17611658520E+04  0.25500000920E-02 0.  1.
    10030    2    1    2    0    0  0.00000000000E+00  0.00000000000E+00 -0.48320118687E+03  0.30391305172E+04  0.30004717818E+04 0.  0.
        1    1    3    3  502    0  0.67750270449E+03 -0.75952885723E+03 -0.13579872844E+04  0.16970631880E+04  0.50400001928E-02 0.  1.
       -1    1    3    3    0  502 -0.67750270449E+03  0.75952885723E+03  0.87478609753E+03  0.13420673292E+04  0.50400001928E-02 0. -1.
</event>
<event>
 5   0  0.1813720E-07  0.3003995E+04  0.7818609E-02  0.8242591E-01
        2   -1    0    0  501    0  0.00000000000E+00  0.00000000000E+00  0.97696098865E+03  0.97696098866E+03  0.25500000920E-02 0. -1.
       -2   -1    0    0    0  501  0.00000000000E+00  0.00000000000E+00 -0.23091974928E+04  0.23091974928E+04  0.25500000920E-02 0.  1.
    10030    2    1    2    0    0  0.00000000000E+00  0.00000000000E+00 -0.13322365041E+04  0.32861584814E+04  0.30039945843E+04 0.  0.
        3    1    3    3  502    0  0.13979593331E+03 -0.10916336145E+04  0.45204098423E+03  0.11897680080E+04  0.10100000352E+00 0. -1.
       -3    1    3    3    0  502 -0.13979593331E+03  0.10916336145E+04 -0.17842774884E+04  0.20963904734E+04  0.10100000352E+00 0.  1.
</event>
<event>
 5   0  0.6374748E-08  0.3001469E+04  0.7818609E-02  0.8243312E-01
        1   -1    0    0  501    0  0.00000000000E+00  0.00000000000E+00  0.85054697330E+03  0.85054697331E+03  0.50400001928E-02 0.  1.
       -1   -1    0    0    0  501  0.00000000000E+00  0.00000000000E+00 -0.26479480191E+04  0.26479480191E+04  0.50400001928E-02 0. -1.
    10030    2    1    2    0    0  0.00000000000E+00  0.00000000000E+00 -0.17974010458E+04  0.34984949924E+04  0.30014690891E+04 0.  0.
        1    1    3    3  502    0  0.72354957703E+03 -0.13147001306E+04 -0.88050271345E+03  0.17398981155E+04  0.50400001928E-02 0. -1.
       -1    1    3    3    0  502 -0.72354957703E+03  0.13147001306E+04 -0.91689833238E+03  0.17585968770E+04  0.50400001928E-02 0.  1.
</event>
<event>
 5   0  0.6374748E-08  0.3000421E+04  0.7818609E-02  0.8243611E-01
        1   -1    0    0  501    0  0.00000000000E+00  0.00000000000E+00  0.20320007690E+04  0.20320007690E+04  0.50400001928E-02 0. -1.
       -1   -1    0    0    0  501  0.00000000000E+00  0.00000000000E+00 -0.11075941111E+04  0.11075941111E+04  0.50400001928E-02 0.  1.
    10030    2    1    2    0    0  0.00000000000E+00  0.00000000000E+00  0.92440665789E+03  0.31395948801E+04  0.30004213607E+04 0.  0.
        1    1    3    3  502    0 -0.63065360002E+03 -0.13527421462E+04  0.62088440775E+03  0.16165187055E+04  0.50400001928E-02 0. -1.
       -1    1    3    3    0  502  0.63065360002E+03  0.13527421462E+04  0.30352225014E+03  0.15230761746E+04  0.50400001928E-02 0.  1.
</event>
<event>
 5   0  0.1817566E-07  0.2999743E+04  0.7818609E-02  0.8243804E-01
       -2   -1    0    0    0  501  0.00000000000E+00  0.00000000000E+00  0.10500117554E+04  0.10500117554E+04  0.25500000920E-02 0. -1.
        2   -1    0    0  501    0  0.00000000000E+00  0.00000000000E+00 -0.21424666453E+04  0.21424666453E+04  0.25500000920E-02 0.  1.
    10030    2    1    2    0    0  0.00000000000E+00  0.00000000000E+00 -0.10924548899E+04  0.31924784007E+04  0.29997434311E+04 0.  0.
        1    1    3    3  502    0  0.12122500546E+03  0.14949165862E+04 -0.53345371168E+03  0.15918680737E+04  0.50400001928E-02 0. -1.
       -1    1    3    3    0  502 -0.12122500546E+03 -0.14949165862E+04 -0.55900117820E+03  0.16006103270E+04  0.50400001928E-02 0.  1.
</event>
<event>
 5   0  0.6636007E-08  0.3000045E+04  0.7818609E-02  0.8243718E-01
       -1   -1    0    0    0  501  0.00000000000E+00  0.00000000000E+00  0.17084598809E+04  0.17084598810E+04  0.50400001928E-02 0. -1.
        1   -1    0    0  501    0  0.00000000000E+00  0.00000000000E+00 -0.13170152823E+04  0.13170152823E+04  0.50400001928E-02 0.  1.
    10030    2    1    2    0    0  0.00000000000E+00  0.00000000000E+00  0.39144459862E+03  0.30254751633E+04  0.30000451813E+04 0.  0.
        2    1    3    3  502    0 -0.57201450241E+03 -0.11270932030E+04 -0.61891708740E+03  0.14073372162E+04  0.25500000920E-02 0.  1.
       -2    1    3    3    0  502  0.57201450241E+03  0.11270932030E+04  0.10103616860E+04  0.16181379471E+04  0.25500000920E-02 0. -1.
</event>
<event>
 5   0  0.6374748E-08  0.3005768E+04  0.7818609E-02  0.8242086E-01
       -1   -1    0    0    0  501  0.00000000000E+00  0.00000000000E+00  0.98435526604E+03  0.98435526605E+03  0.50400001928E-02 0.  1.
        1   -1    0    0  501    0  0.00000000000E+00  0.00000000000E+00 -0.22945585527E+04  0.22945585527E+04  0.50400001928E-02 0. -1.
    10030    2    1    2    0    0  0.00000000000E+00  0.00000000000E+00 -0.13102032866E+04  0.32789138187E+04  0.30057683175E+04 0.  0.
        1    1    3    3  502    0 -0.24507117263E+03 -0.10731977819E+04  0.46103199303E+03  0.11934671580E+04  0.50400001928E-02 0.  1.
       -1    1    3    3    0  502  0.24507117263E+03  0.10731977819E+04 -0.17712352796E+04  0.20854466607E+04  0.50400001928E-02 0. -1.
</event>
<event>
 5   0  0.1813720E-07  0.3000666E+04  0.7818609E-02  0.8243541E-01
        2   -1    0    0  501    0  0.00000000000E+00  0.00000000000E+00  0.27090938003E+04  0.27090938003E+04  0.25500000920E-02 0. -1.
       -2   -1    0    0    0  501  0.00000000000E+00  0.00000000000E+00 -0.83090473474E+03  0.83090473475E+03  0.25500000920E-02 0.  1.
    10030    2    1    2    0    0  0.00000000000E+00  0.00000000000E+00  0.18781890655E+04  0.35399985350E+04  0.30006658365E+04 0.  0.
        3    1    3    3  502    0 -0.11671113669E+04  0.67994568024E+03  0.16862215126E+03  0.13612158209E+04  0.10100000352E+00 0.  1.
       -3    1    3    3    0  502  0.11671113669E+04 -0.67994568024E+03  0.17095669143E+04  0.21787827141E+04  0.10100000352E+00 0. -1.
</event>
<event>
 5   0  0.6525507E-08  0.2999581E+04  0.7818609E-02  0.8243851E-01
       -1   -1    0    0    0  501  0.00000000000E+00  0.00000000000E+00  0.15411125361E+04  0.15411125361E+04  0.50400001928E-02 0.  1.
        1   -1    0    0  501    0  0.00000000000E+00  0.00000000000E+00 -0.14595764748E+04  0.14595764748E+04  0.50400001928E-02 0. -1.
    10030    2    1    2    0    0  0.00000000000E+00  0.00000000000E+00  0.81536061288E+02  0.30006890110E+04  0.29995810393E+04 0.  0.
        4    1    3    3  502    0  0.54064249519E+03  0.13398473029E+04 -0.36172979775E+03  0.14894076548E+04  0.12699999809E+01 0.  1.
       -4    1    3    3    0  502 -0.54064249519E+03 -0.13398473029E+04  0.44326585904E+03  0.15112813562E+04  0.12699999809E+01 0. -1.
</event>
<event>
 5   0  0.6374748E-08  0.2996246E+04  0.7818609E-02  0.8244804E-01
        1   -1    0    0  501    0  0.00000000000E+00  0.00000000000E+00  0.14790342869E+04  0.14790342870E+04  0.50400001928E-02 0. -1.
       -1   -1    0    0    0  501  0.00000000000E+00  0.00000000000E+00 -0.15174583942E+04  0.15174583942E+04  0.50400001928E-02 0.  1.
    10030    2    1    2    0    0  0.00000000000E+00  0.00000000000E+00 -0.38424107217E+02  0.29964926811E+04  0.29962463143E+04 0.  0.
        1    1    3    3  502    0  0.68263531273E+03  0.91636065809E+03 -0.98813905716E+03  0.15106709179E+04  0.50400001928E-02 0.  1.
       -1    1    3    3    0  502 -0.68263531273E+03 -0.91636065809E+03  0.94971494994E+03  0.14858217632E+04  0.50400001928E-02 0. -1.
</event>
<event>
 5   0  0.6374748E-08  0.3004462E+04  0.7818609E-02  0.8242458E-01
       -1   -1    0    0    0  501  0.00000000000E+00  0.00000000000E+00  0.25425364507E+04  0.25425364507E+04  0.50400001928E-02 0. -1.
        1   -1    0    0  501    0  0.00000000000E+00  0.00000000000E+00 -0.88757752060E+03  0.88757752061E+03  0.50400001928E-02 0.  1.
    10030    2    1    2    0    0  0.00000000000E+00  0.00000000000E+00  0.16549589301E+04  0.34301139713E+04  0.30044621475E+04 0.  0.
        1    1    3    3  502    0 -0.63919169308E+03  0.10517956243E+04  0.18108161641E+04  0.21894965713E+04  0.50400001928E-02 0. -1.
       -1    1    3    3    0  502  0.63919169308E+03 -0.10517956243E+04 -0.15585723398E+03  0.12406174000E+04  0.50400001928E-02 0.  1.
</event>
<event>
 5   0  0.1821305E-07  0.3002044E+04  0.7818609E-02  0.8243148E-01
        2   -1    0    0  501    0  0.00000000000E+00  0.00000000000E+00  0.13457724581E+04  0.13457724581E+04  0.25500000920E-02 0. -1.
       -2   -1    0    0    0  501  0.00000000000E+00  0.00000000000E+00 -0.16741809918E+04  0.16741809918E+04  0.25500000920E-02 0.  1.
    10030    2    1    2    0    0  0.00000000000E+00  0.00000000000E+00 -0.32840853368E+03  0.30199534499E+04  0.30020437496E+04 0.  0.
        2    1    3    3  502    0 -0.35496558917E+03 -0.11565134255E+04 -0.10580674901E+04  0.16071809750E+04  0.25500000920E-02 0.  1.
       -2    1    3    3    0  502  0.35496558917E+03  0.11565134255E+04  0.72965895646E+03  0.14127724748E+04  0.25500000920E-02 0. -1.
</event>
<event>
 5   0  0.1810055E-07  0.2999797E+04  0.7818609E-02  0.8243789E-01
       -2   -1    0    0    0  501  0.00000000000E+00  0.00000000000E+00  0.19384421802E+04  0.19384421802E+04  0.25500000920E-02 0. -1.
        2   -1    0    0  501    0  0.00000000000E+00  0.00000000000E+00 -0.11605686177E+04  0.11605686177E+04  0.25500000920E-02 0.  1.
    10030    2    1    2    0    0  0.00000000000E+00  0.00000000000E+00  0.77787356251E+03  0.30990107979E+04  0.29997967675E+04 0.  0.
        4    1    3    3  502    0 -0.18429661119E+03  0.66155086000E+03  0.17664848258E+04  0.18952796717E+04  0.12699999809E+01 0. -1.
       -4    1    3    3    0  502  0.18429661119E+03 -0.66155086000E+03 -0.98861126334E+03  0.12037311262E+04  0.12699999809E+01 0.  1.
</event>
<event>
 5   0  0.1813720E-07  0.3000333E+04  0.7818609E-02  0.8243636E-01
        2   -1    0    0  501    0  0.00000000000E+00  0.00000000000E+00  0.11454739150E+04  0.11454739150E+04  0.25500000920E-02 0. -1.
       -2   -1    0    0    0  501  0.00000000000E+00  0.00000000000E+00 -0.19646886718E+04  0.19646886718E+04  0.25500000920E-02 0.  1.
    10030    2    1    2    0    0  0.00000000000E+00  0.00000000000E+00 -0.81921475687E+03  0.31101625868E+04  0.30003330646E+04 0.  0.
        3    1    3    3  502    0  0.66330206244E+03 -0.87758794501E+03 -0.14669297149E+04  0.18335792936E+04  0.10100000352E+00 0.  1.
       -3    1    3    3    0  502 -0.66330206244E+03  0.87758794501E+03  0.64771495807E+03  0.12765832932E+04  0.10100000352E+00 0. -1.
</event>
<event>
 5   0  0.6679022E-08  0.3000924E+04  0.7818609E-02  0.8243467E-01
        1   -1    0    0  501    0  0.00000000000E+00  0.00000000000E+00  0.20341520299E+04  0.20341520299E+04  0.50400001928E-02 0.  1.
       -1   -1    0    0    0  501  0.00000000000E+00  0.00000000000E+00 -0.11067932770E+04  0.11067932770E+04  0.50400001928E-02 0. -1.
    10030    2    1    2    0    0  0.00000000000E+00  0.00000000000E+00  0.92735875293E+03  0.31409453069E+04  0.30009237185E+04 0.  0.
        3    1    3    3  502    0  0.49477650316E+03 -0.10431228689E+04  0.14667684123E+04  0.18666329830E+04  0.10100000352E+00 0.  1.
       -3    1    3    3    0  502 -0.49477650316E+03  0.10431228689E+04 -0.53940965939E+03  0.12743123238E+04  0.10100000352E+00 0. -1.
</event>
<event>
 5   0  0.1813720E-07  0.3000552E+04  0.7818609E-02  0.8243573E-01
        2   -1    0    0  501    0  0.00000000000E+00  0.00000000000E+00  0.74242804210E+03  0.74242804210E+03  0.25500000920E-02 0.  1.
       -2   -1    0    0    0  501  0.00000000000E+00  0.00000000000E+00 -0.30317130183E+04  0.30317130183E+04  0.25500000920E-02 0. -1.
    10030    2    1    2    0    0  0.00000000000E+00  0.00000000000E+00 -0.22892849762E+04  0.37741410604E+04  0.30005524561E+04 0.  0.
        3    1    3    3  502    0 -0.40385857704E+03  0.14279042415E+04 -0.86673508148E+03  0.17184999229E+04  0.10100000352E+00 0. -1.
       -3    1    3    3    0  502  0.40385857704E+03 -0.14279042415E+04 -0.14225498947E+04  0.20556411375E+04  0.10100000352E+00 0.  1.
</event>
<event>
 5   0  0.1821305E-07  0.3000479E+04  0.7818609E-02  0.8243594E-01
       -2   -1    0    0    0  501  0.00000000000E+00  0.00000000000E+00  0.17628263890E+04  0.17628263890E+04  0.25500000920E-02 0.  1.
        2   -1    0    0  501    0  0.00000000000E+00  0.00000000000E+00 -0.12767669240E+04  0.12767669240E+04  0.25500000920E-02 0. -1.
    10030    2    1    2    0    0  0.00000000000E+00  0.00000000000E+00  0.48605946495E+03  0.30395933130E+04  0.30004789126E+04 0.  0.
        2    1    3    3  502    0 -0.51807246174E+03  0.11346302921E+04 -0.60146415426E+03  0.13847541674E+04  0.25500000920E-02 0. -1.
       -2    1    3    3    0  502  0.51807246174E+03 -0.11346302921E+04  0.10875236192E+04  0.16548391456E+04  0.25500000920E-02 0.  1.
</event>
<event>
 5   0  0.6679022E-08  0.3003653E+04  0.7818609E-02  0.8242688E-01
       -1   -1    0    0    0  501  0.00000000000E+00  0.00000000000E+00  0.15273603508E+04  0.15273603508E+04  0.50400001928E-02 0.  1.
        1   -1    0    0  501    0  0.00000000000E+00  0.00000000000E+00 -0.14767198459E+04  0.14767198459E+04  0.50400001928E-02 0. -1.
    10030    2    1    2    0    0  0.00000000000E+00  0.00000000000E+00  0.50640504880E+02  0.30040801967E+04  0.30036533367E+04 0.  0.
        3    1    3    3  502    0 -0.12061402483E+04  0.22929004209E+03  0.89039121204E+03  0.15166228083E+04  0.10100000352E+00 0. -1.
       -3    1    3    3    0  502  0.12061402483E+04 -0.22929004209E+03 -0.83975070716E+03  0.14874573884E+04  0.10100000352E+00 0.  1.
</event>
<event>
 5   0  0.1914439E-07  0.3000174E+04  0.7818609E-02  0.8243681E-01
        2   -1    0    0  501    0  0.00000000000E+00  0.00000000000E+00  0.14209931650E+04  0.14209931650E+04  0.25500000920E-02 0.  1.
       -2   -1    0    0    0  501  0.00000000000E+00  0.00000000000E+00 -0.15835828107E+04  0.15835828107E+04  0.25500000920E-02 0. -1.
    10030    2    1    2    0    0  0.00000000000E+00  0.00000000000E+00 -0.16258964574E+03  0.30045759757E+04  0.30001735618E+04 0.  0.
        5    1    3    3  502    0  0.67504930228E+03  0.11199958596E+04  0.65473667939E+03  0.14624583739E+04  0.46999998093E+01 0.  1.
       -5    1    3    3    0  502 -0.67504930228E+03 -0.11199958596E+04 -0.81732632513E+03  0.15421176018E+04  0.46999998093E+01 0. -1.
</event>
<event>
 5   0  0.6017625E-08  0.2998673E+04  0.7818609E-02  0.8244110E-01
       -3   -1    0    0    0  501  0.00000000000E+00  0.00000000000E+00  0.18894901046E+04  0.18894901073E+04  0.10100000352E+00 0.  1.
        3   -1    0    0  501    0  0.00000000000E+00  0.00000000000E+00 -0.11897445040E+04  0.11897445083E+04  0.10100000352E+00 0. -1.
    10030    2    1    2    0    0  0.00000000000E+00  0.00000000000E+00  0.69974560054E+03  0.30792346156E+04  0.29986733588E+04 0.  0.
        2    1    3    3  502    0 -0.12359662344E+04  0.67720742444E+03 -0.17552533611E+03  0.14202223671E+04  0.25500000920E-02 0. -1.
       -2    1    3    3    0  502  0.12359662344E+04 -0.67720742444E+03  0.87527093665E+03  0.16590122486E+04  0.25500000920E-02 0.  1.
</event>
<event>
 5   0  0.1914439E-07  0.3001157E+04  0.7818609E-02  0.8243401E-01
        2   -1    0    0  501    0  0.00000000000E+00  0.00000000000E+00  0.14464605598E+04  0.14464605598E+04  0.25500000920E-02 0.  1.
       -2   -1    0    0    0  501  0.00000000000E+00  0.00000000000E+00 -0.15567207054E+04  0.15567207054E+04  0.25500000920E-02 0. -1.
    10030    2    1    2    0    0  0.00000000000E+00  0.00000000000E+00 -0.11026014563E+03  0.30031812653E+04  0.30011565125E+04 0.  0.
        5    1    3    3  502    0  0.14887493181E+04 -0.18087665111E+03 -0.10637124180E+03  0.15034719239E+04  0.46999998093E+01 0. -1.
       -5    1    3    3    0  502 -0.14887493181E+04  0.18087665111E+03 -0.38889038305E+01  0.14997093413E+04  0.46999998093E+01 0.  1.
</event>
<event>
 5   0  0.1817566E-07  0.3002401E+04  0.7818609E-02  0.8243046E-01
        2   -1    0    0  501    0  0.00000000000E+00  0.00000000000E+00  0.22065577755E+04  0.22065577755E+04  0.25500000920E-02 0.  1.
       -2   -1    0    0    0  501  0.00000000000E+00  0.00000000000E+00 -0.10213207991E+04  0.10213207991E+04  0.25500000920E-02 0. -1.
    10030    2    1    2    0    0  0.00000000000E+00  0.00000000000E+00  0.11852369764E+04  0.32278785747E+04  0.30024012727E+04 0.  0.
        1    1    3    3  502    0  0.58037055543E+02  0.97946176141E+03 -0.62888025075E+03  0.11654201009E+04  0.50400001928E-02 0. -1.
       -1    1    3    3    0  502 -0.58037055543E+02 -0.97946176141E+03  0.18141172272E+04  0.20624584737E+04  0.50400001928E-02 0.  1.
</event>
<event>
 5   0  0.1810055E-07  0.2999381E+04  0.7818609E-02  0.8243908E-01
        2   -1    0    0  501    0  0.00000000000E+00  0.00000000000E+00  0.18136496106E+04  0.18136496106E+04  0.25500000920E-02 0. -1.
       -2   -1    0    0    0  501  0.00000000000E+00  0.00000000000E+00 -0.12400806633E+04  0.12400806633E+04  0.25500000920E-02 0.  1.
    10030    2    1    2    0    0  0.00000000000E+00  0.00000000000E+00  0.57356894728E+03  0.30537302739E+04  0.29993811442E+04 0.  0.
        4    1    3    3  502    0  0.12118768474E+04  0.70306379300E+03  0.83138453518E+03  0.16291550106E+04  0.12699999809E+01 0. -1.
       -4    1    3    3    0  502 -0.12118768474E+04 -0.70306379300E+03 -0.25781558789E+03  0.14245752632E+04  0.12699999809E+01 0.  1.
</event>
<event>
 5   0  0.6679022E-08  0.3001332E+04  0.7818609E-02  0.8243351E-01
       -1   -1    0    0    0  501  0.00000000000E+00  0.00000000000E+00  0.12232110312E+04  0.12232110312E+04  0.50400001928E-02 0. -1.
        1   -1    0    0  501    0  0.00000000000E+00  0.00000000000E+00 -0.18410551653E+04  0.18410551653E+04  0.50400001928E-02 0.  1.
    10030    2    1    2    0    0  0.00000000000E+00  0.00000000000E+00 -0.61784413418E+03  0.30642661965E+04  0.30013323623E+04 0.  0.
        3    1    3    3  502    0 -0.61935780045E+02 -0.10817540404E+04  0.75110258293E+03  0.13184016630E+04  0.10100000352E+00 0. -1.
       -3    1    3    3    0  502  0.61935780045E+02  0.10817540404E+04 -0.13689467171E+04  0.17458645335E+04  0.10100000352E+00 0.  1.
</event>
<event>
 5   0  0.6525507E-08  0.2995819E+04  0.7818609E-02  0.8244926E-01
       -1   -1    0    0    0  501  0.00000000000E+00  0.00000000000E+00  0.98239820247E+03  0.98239820249E+03  0.50400001928E-02 0. -1.
        1   -1    0    0  501    0  0.00000000000E+00  0.00000000000E+00 -0.22839339260E+04  0.22839339260E+04  0.50400001928E-02 0.  1.
    10030    2    1    2    0    0  0.00000000000E+00  0.00000000000E+00 -0.13015357236E+04  0.32663321285E+04  0.29958188086E+04 0.  0.
        4    1    3    3  502    0  0.49153062325E+02  0.15790992339E+03 -0.22739484956E+04  0.22799550305E+04  0.12699999809E+01 0.  1.
       -4    1    3    3    0  502 -0.49153062325E+02 -0.15790992339E+03  0.97241277204E+03  0.98637709805E+03  0.12699999809E+01 0. -1.
</event>
<event>
 5   0  0.1817566E-07  0.3000080E+04  0.7818609E-02  0.8243708E-01
        2   -1    0    0  501    0  0.00000000000E+00  0.00000000000E+00  0.29030566050E+04  0.29030566050E+04  0.25500000920E-02 0. -1.
       -2   -1    0    0    0  501  0.00000000000E+00  0.00000000000E+00 -0.77508659815E+03  0.77508659815E+03  0.25500000920E-02 0.  1.
    10030    2    1    2    0    0  0.00000000000E+00  0.00000000000E+00  0.21279700068E+04  0.36781432031E+04  0.30000801777E+04 0.  0.
        1    1    3    3  502    0  0.11995245535E+04 -0.87594971038E+03  0.80689221180E+03  0.16903319470E+04  0.50400001928E-02 0.  1.
       -1    1    3    3    0  502 -0.11995245535E+04  0.87594971038E+03  0.13210777950E+04  0.19878112561E+04  0.50400001928E-02 0. -1.
</event>
<event>
 5   0  0.6374748E-08  0.2999357E+04  0.7818609E-02  0.8243915E-01
        1   -1    0    0  501    0  0.00000000000E+00  0.00000000000E+00  0.21588761944E+04  0.21588761944E+04  0.50400001928E-02 0. -1.
       -1   -1    0    0    0  501  0.00000000000E+00  0.00000000000E+00 -0.10417619325E+04  0.10417619325E+04  0.50400001928E-02 0.  1.
    10030    2    1    2    0    0  0.00000000000E+00  0.00000000000E+00  0.11171142618E+04  0.32006381269E+04  0.29993566219E+04 0.  0.
        1    1    3    3  502    0  0.36257527893E+03 -0.63213638655E+03 -0.84011924935E+03  0.11121409970E+04  0.50400001928E-02 0.  1.
       -1    1    3    3    0  502 -0.36257527893E+03  0.63213638655E+03  0.19572335112E+04  0.20884971299E+04  0.50400001928E-02 0. -1.
</event>
<event>
 5   0  0.1810055E-07  0.2997152E+04  0.7818609E-02  0.8244545E-01
       -2   -1    0    0    0  501  0.00000000000E+00  0.00000000000E+00  0.16985392924E+04  0.16985392924E+04  0.25500000920E-02 0. -1.
        2   -1    0    0  501    0  0.00000000000E+00  0.00000000000E+00 -0.13221534183E+04  0.13221534183E+04  0.25500000920E-02 0.  1.
    10030    2    1    2    0    0  0.00000000000E+00  0.00000000000E+00  0.37638587411E+03  0.30206927107E+04  0.29971516688E+04 0.  0.
        4    1    3    3  502    0  0.13503404178E+04  0.21032339584E+03  0.80789866652E+03  0.15875632407E+04  0.12699999809E+01 0.  1.
       -4    1    3    3    0  502 -0.13503404178E+04 -0.21032339584E+03 -0.43151279241E+03  0.14331294700E+04  0.12699999809E+01 0. -1.
</event>
<event>
 5   0  0.1914439E-07  0.2997797E+04  0.7818609E-02  0.8244360E-01
       -2   -1    0    0    0  501  0.00000000000E+00  0.00000000000E+00  0.10029032923E+04  0.10029032923E+04  0.25500000920E-02 0. -1.
        2   -1    0    0  501    0  0.00000000000E+00  0.00000000000E+00 -0.22401927330E+04  0.22401927330E+04  0.25500000920E-02 0.  1.
    10030    2    1    2    0    0  0.00000000000E+00  0.00000000000E+00 -0.12372894407E+04  0.32430960253E+04  0.29977969694E+04 0.  0.
        5    1    3    3  502    0  0.95435630984E+02  0.67538271842E+03  0.82526931837E+03  0.10706732993E+04  0.46999998093E+01 0. -1.
       -5    1    3    3    0  502 -0.95435630984E+02 -0.67538271842E+03 -0.20625587591E+04  0.21724227260E+04  0.46999998093E+01 0.  1.
</event>
<event>
 5   0  0.1914439E-07  0.3001258E+04  0.7818609E-02  0.8243372E-01
        2   -1    0    0  501    0  0.00000000000E+00  0.00000000000E+00  0.21014317851E+04  0.21014317851E+04  0.25500000920E-02 0.  1.
       -2   -1    0    0    0  501  0.00000000000E+00  0.00000000000E+00 -0.10715965399E+04  0.10715965399E+04  0.25500000920E-02 0. -1.
    10030    2    1    2    0    0  0.00000000000E+00  0.00000000000E+00  0.10298352451E+04  0.31730283250E+04  0.30012577562E+04 0.  0.
        5    1    3    3  502    0  0.12493032574E+04 -0.35316100436E+03 -0.28073957246E+03  0.13282763724E+04  0.46999998093E+01 0. -1.
       -5    1    3    3    0  502 -0.12493032574E+04  0.35316100436E+03  0.13105748176E+04  0.18447519526E+04  0.46999998093E+01 0.  1.
</event>
<event>
 5   0  0.6525507E-08  0.3000782E+04  0.7818609E-02  0.8243508E-01
        1   -1    0    0  501    0  0.00000000000E+00  0.00000000000E+00  0.20822097982E+04  0.20822097982E+04  0.50400001928E-02 0. -1.
       -1   -1    0    0    0  501  0.00000000000E+00  0.00000000000E+00 -0.10811459180E+04  0.10811459180E+04  0.50400001928E-02 0.  1.
    10030    2    1    2    0    0  0.00000000000E+00  0.00000000000E+00  0.10010638801E+04  0.31633557162E+04  0.30007816474E+04 0.  0.
        4    1    3    3  502    0  0.13943559949E+04 -0.36884437596E+03  0.64739357243E+02  0.14437685450E+04  0.12699999809E+01 0. -1.
       -4    1    3    3    0  502 -0.13943559949E+04  0.36884437596E+03  0.93632452288E+03  0.17195871712E+04  0.12699999809E+01 0.  1.
</event>
<event>
 5   0  0.6525507E-08  0.2998752E+04  0.7818609E-02  0.8244087E-01
       -1   -1    0    0    0  501  0.00000000000E+00  0.00000000000E+00  0.11817075405E+04  0.11817075405E+04  0.50400001928E-02 0. -1.
        1   -1    0    0  501    0  0.00000000000E+00  0.00000000000E+00 -0.19024408678E+04  0.19024408678E+04  0.50400001928E-02 0.  1.
    10030    2    1    2    0    0  0.00000000000E+00  0.00000000000E+00 -0.72073332723E+03  0.30841484083E+04  0.29987522197E+04 0.  0.
        4    1    3    3  502    0  0.69493365329E+02  0.89048060346E+03 -0.15989633345E+04  0.18315213323E+04  0.12699999809E+01 0.  1.
       -4    1    3    3    0  502 -0.69493365329E+02 -0.89048060346E+03  0.87823000722E+03  0.12526270760E+04  0.12699999809E+01 0. -1.
</event>
<event>
 5   0  0.6374748E-08  0.3000545E+04  0.7818609E-02  0.8243575E-01
       -1   -1    0    0    0  501  0.00000000000E+00  0.00000000000E+00  0.14813626362E+04  0.14813626362E+04  0.50400001928E-02 0. -1.
        1   -1    0    0  501    0  0.00000000000E+00  0.00000000000E+00 -0.15194233380E+04  0.15194233380E+04  0.50400001928E-02 0.  1.
    10030    2    1    2    0    0  0.00000000000E+00  0.00000000000E+00 -0.38060701794E+02  0.30007859742E+04  0.30005445915E+04 0.  0.
        1    1    3    3  502    0 -0.13207872093E+04 -0.11154123425E+03 -0.72186470536E+03  0.15093074412E+04  0.50400001928E-02 0.  1.
       -1    1    3    3    0  502  0.13207872093E+04  0.11154123425E+03  0.68380400357E+03  0.14914785330E+04  0.50400001928E-02 0. -1.
</event>
<event>
 5   0  0.1914439E-07  0.3001196E+04  0.7818609E-02  0.8243390E-01
        2   -1    0    0  501    0  0.00000000000E+00  0.00000000000E+00  0.16766452094E+04  0.16766452094E+04  0.25500000920E-02 0.  1.
       -2   -1    0    0    0  501  0.00000000000E+00  0.00000000000E+00 -0.13430354741E+04  0.13430354741E+04  0.25500000920E-02 0. -1.
    10030    2    1    2    0    0  0.00000000000E+00  0.00000000000E+00  0.33360973538E+03  0.30196806835E+04  0.30011957575E+04 0.  0.
        5    1    3    3  502    0  0.53110703246E+03 -0.10813341282E+04  0.10669736779E+04  0.16092896247E+04  0.46999998093E+01 0.  1.
       -5    1    3    3    0  502 -0.53110703246E+03  0.10813341282E+04 -0.73336394253E+03  0.14103910589E+04  0.46999998093E+01 0. -1.
</event>
<event>
 5   0  0.1810055E-07  0.2999463E+04  0.7818609E-02  0.8243884E-01
       -2   -1    0    0    0  501  0.00000000000E+00  0.00000000000E+00  0.10563713091E+04  0.10563713091E+04  0.25500000920E-02 0. -1.
        2   -1    0    0  501    0  0.00000000000E+00  0.00000000000E+00 -0.21291699682E+04  0.21291699682E+04  0.25500000920E-02 0.  1.
    10030    2    1    2    0    0  0.00000000000E+00  0.00000000000E+00 -0.10727986592E+04  0.31855412773E+04  0.29994626629E+04 0.  0.
        4    1    3    3  502    0 -0.71896712342E+03 -0.97386252333E+03 -0.14766895973E+04  0.19094333502E+04  0.12699999809E+01 0.  1.
       -4    1    3    3    0  502  0.71896712342E+03  0.97386252333E+03  0.40389093816E+03  0.12761079271E+04  0.12699999809E+01 0. -1.
</event>
<event>
 5   0  0.1817566E-07  0.2999378E+04  0.7818609E-02  0.8243908E-01
        2   -1    0    0  501    0  0.00000000000E+00  0.00000000000E+00  0.18311172688E+04  0.18311172688E+04  0.25500000920E-02 0.  1.
       -2   -1    0    0    0  501  0.00000000000E+00  0.00000000000E+00 -0.12282488766E+04  0.12282488766E+04  0.25500000920E-02 0. -1.
    10030    2    1    2    0    0  0.00000000000E+00  0.00000000000E+00  0.60286839214E+03  0.30593661454E+04  0.29993784212E+04 0.  0.
        1    1    3    3  502    0 -0.14118558413E+04  0.50452453658E+03  0.26630998297E+03  0.15227616135E+04  0.50400001928E-02 0.  1.
       -1    1    3    3    0  502  0.14118558413E+04 -0.50452453658E+03  0.33655840918E+03  0.15366045319E+04  0.50400001928E-02 0. -1.
</event>
<event>
 5   0  0.1817566E-07  0.2999980E+04  0.7818609E-02  0.8243737E-01
       -2   -1    0    0    0  501  0.00000000000E+00  0.00000000000E+00  0.93593075391E+03  0.93593075391E+03  0.25500000920E-02 0.  1.
        2   -1    0    0  501    0  0.00000000000E+00  0.00000000000E+00 -0.24039913973E+04  0.24039913973E+04  0.25500000920E-02 0. -1.
    10030    2    1    2    0    0  0.00000000000E+00  0.00000000000E+00 -0.14680606434E+04  0.33399221513E+04  0.29999796539E+04 0.  0.
        1    1    3    3  502    0 -0.45666012883E+03 -0.93823823022E+02  0.85322575056E+03  0.97228368518E+03  0.50400001928E-02 0.  1.
       -1    1    3    3    0  502  0.45666012883E+03  0.93823823022E+02 -0.23212863940E+04  0.23676384661E+04  0.50400001928E-02 0. -1.
</event>
<event>
 5   0  0.6636007E-08  0.3001265E+04  0.7818609E-02  0.8243370E-01
       -1   -1    0    0    0  501  0.00000000000E+00  0.00000000000E+00  0.13038527777E+04  0.13038527777E+04  0.50400001928E-02 0. -1.
        1   -1    0    0  501    0  0.00000000000E+00  0.00000000000E+00 -0.17271105345E+04  0.17271105345E+04  0.50400001928E-02 0.  1.
    10030    2    1    2    0    0  0.00000000000E+00  0.00000000000E+00 -0.42325775676E+03  0.30309633122E+04  0.30012649785E+04 0.  0.
        2    1    3    3  502    0 -0.13870100363E+04  0.39729086050E+03 -0.62833888356E+03  0.15736729715E+04  0.25500000920E-02 0. -1.
       -2    1    3    3    0  502  0.13870100363E+04 -0.39729086050E+03  0.20508112679E+03  0.14572903407E+04  0.25500000920E-02 0.  1.
</event>
<event>
 5   0  0.6464436E-08  0.3000063E+04  0.7818609E-02  0.8243713E-01
       -1   -1    0    0    0  501  0.00000000000E+00  0.00000000000E+00  0.11002280497E+04  0.11002280497E+04  0.50400001928E-02 0. -1.
        1   -1    0    0  501    0  0.00000000000E+00  0.00000000000E+00 -0.20451158237E+04  0.20451158237E+04  0.50400001928E-02 0.  1.
    10030    2    1    2    0    0  0.00000000000E+00  0.00000000000E+00 -0.94488777395E+03  0.31453438734E+04  0.30000625288E+04 0.  0.
        5    1    3    3  502    0 -0.80364934833E+03  0.82594415477E+03  0.53428305280E+03  0.12702426904E+04  0.46999998093E+01 0. -1.
       -5    1    3    3    0  502  0.80364934833E+03 -0.82594415477E+03 -0.14791708268E+04  0.18751011830E+04  0.46999998093E+01 0.  1.
</event>
<event>
 5   0  0.1914439E-07  0.3000159E+04  0.7818609E-02  0.8243686E-01
        2   -1    0    0  501    0  0.00000000000E+00  0.00000000000E+00  0.22246075455E+04  0.22246075455E+04  0.25500000920E-02 0.  1.
       -2   -1    0    0    0  501  0.00000000000E+00  0.00000000000E+00 -0.10115213320E+04  0.10115213320E+04  0.25500000920E-02 0. -1.
    10030    2    1    2    0    0  0.00000000000E+00  0.00000000000E+00  0.12130862135E+04  0.32361288775E+04  0.30001586542E+04 0.  0.
        5    1    3    3  502    0 -0.62289390732E+03 -0.10017204735E+04  0.16061317815E+04  0.19927674516E+04  0.46999998093E+01 0.  1.
       -5    1    3    3    0  502  0.62289390732E+03  0.10017204735E+04 -0.39304556796E+03  0.12433614258E+04  0.46999998093E+01 0. -1.
</event>
<event>
 5   0  0.6525507E-08  0.3000544E+04  0.7818609E-02  0.8243576E-01
        1   -1    0    0  501    0  0.00000000000E+00  0.00000000000E+00  0.13233626588E+04  0.13233626588E+04  0.50400001928E-02 0. -1.
       -1   -1    0    0    0  501  0.00000000000E+00  0.00000000000E+00 -0.17008308361E+04  0.17008308361E+04  0.50400001928E-02 0.  1.
    10030    2    1    2    0    0  0.00000000000E+00  0.00000000000E+00 -0.37746817728E+03  0.30241934949E+04  0.30005439623E+04 0.  0.
        4    1    3    3  502    0  0.35636909586E+03  0.64870923084E+03 -0.15040069520E+04  0.16762640374E+04  0.12699999809E+01 0.  1.
       -4    1    3    3    0  502 -0.35636909586E+03 -0.64870923084E+03  0.11265387747E+04  0.13479294575E+04  0.12699999809E+01 0. -1.
</event>
<event>
 5   0  0.1821305E-07  0.3000866E+04  0.7818609E-02  0.8243484E-01
        2   -1    0    0  501    0  0.00000000000E+00  0.00000000000E+00  0.27472883121E+04  0.27472883122E+04  0.25500000920E-02 0.  1.
       -2   -1    0    0    0  501  0.00000000000E+00  0.00000000000E+00 -0.81946216254E+03  0.81946216254E+03  0.25500000920E-02 0. -1.
    10030    2    1    2    0    0  0.00000000000E+00  0.00000000000E+00  0.19278261496E+04  0.35667504747E+04  0.30008657560E+04 0.  0.
        2    1    3    3  502    0 -0.48981758043E+03 -0.92506011058E+03 -0.31381282088E+03  0.10927652798E+04  0.25500000920E-02 0. -1.
       -2    1    3    3    0  502  0.48981758043E+03  0.92506011058E+03  0.22416389705E+04  0.24739851948E+04  0.25500000920E-02 0.  1.
</event>
<event>
 5   0  0.6374748E-08  0.2997002E+04  0.7818609E-02  0.8244588E-01
        1   -1    0    0  501    0  0.00000000000E+00  0.00000000000E+00  0.14256318640E+04  0.14256318640E+04  0.50400001928E-02 0. -1.
       -1   -1    0    0    0  501  0.00000000000E+00  0.00000000000E+00 -0.15750945573E+04  0.15750945573E+04  0.50400001928E-02 0.  1.
    10030    2    1    2    0    0  0.00000000000E+00  0.00000000000E+00 -0.14946269334E+03  0.30007264213E+04  0.29970018283E+04 0.  0.
        1    1    3    3  502    0 -0.24568772552E+03 -0.12921394690E+04 -0.79361956055E+03  0.15361701965E+04  0.50400001928E-02 0.  1.
       -1    1    3    3    0  502  0.24568772552E+03  0.12921394690E+04  0.64415686721E+03  0.14645562247E+04  0.50400001928E-02 0. -1.
</event>
<event>
 5   0  0.1813720E-07  0.2999688E+04  0.7818609E-02  0.8243820E-01
        2   -1    0    0  501    0  0.00000000000E+00  0.00000000000E+00  0.68090728385E+03  0.68090728386E+03  0.25500000920E-02 0. -1.
       -2   -1    0    0    0  501  0.00000000000E+00  0.00000000000E+00 -0.33037267427E+04  0.33037267427E+04  0.25500000920E-02 0.  1.
    10030    2    1    2    0    0  0.00000000000E+00  0.00000000000E+00 -0.26228194589E+04  0.39846340266E+04  0.29996877191E+04 0.  0.
        3    1    3    3  502    0 -0.25027416960E+03  0.14782566732E+04 -0.12574250871E+04  0.19567825152E+04  0.10100000352E+00 0.  1.
       -3    1    3    3    0  502  0.25027416960E+03 -0.14782566732E+04 -0.13653943718E+04  0.20278515114E+04  0.10100000352E+00 0. -1.
</event>
<event>
 5   0  0.1914439E-07  0.2999009E+04  0.7818609E-02  0.8244014E-01
        2   -1    0    0  501    0  0.00000000000E+00  0.00000000000E+00  0.21698072307E+04  0.21698072307E+04  0.25500000920E-02 0.  1.
       -2   -1    0    0    0  501  0.00000000000E+00  0.00000000000E+00 -0.10362733122E+04  0.10362733122E+04  0.25500000920E-02 0. -1.
    10030    2    1    2    0    0  0.00000000000E+00  0.00000000000E+00  0.11335339186E+04  0.32060805429E+04  0.29990087201E+04 0.  0.
        5    1    3    3  502    0  0.80331432917E+03 -0.10078167692E+04  0.13861637056E+04  0.18927441614E+04  0.46999998093E+01 0.  1.
       -5    1    3    3    0  502 -0.80331432917E+03  0.10078167692E+04 -0.25262978706E+03  0.13133363815E+04  0.46999998093E+01 0. -1.
</event>
<event>
 5   0  0.6374748E-08  0.2999332E+04  0.7818609E-02  0.8243922E-01
        1   -1    0    0  501    0  0.00000000000E+00  0.00000000000E+00  0.12207013962E+04  0.12207013962E+04  0.50400001928E-02 0.  1.
       -1   -1    0    0    0  501  0.00000000000E+00  0.00000000000E+00 -0.18423813321E+04  0.18423813321E+04  0.50400001928E-02 0. -1.
    10030    2    1    2    0    0  0.00000000000E+00  0.00000000000E+00 -0.62167993596E+03  0.30630827283E+04  0.29993315685E+04 0.  0.
        1    1    3    3  502    0 -0.45492191359E+03 -0.68775487187E+03 -0.15900763612E+04  0.17911737899E+04  0.50400001928E-02 0. -1.
       -1    1    3    3    0  502  0.45492191359E+03  0.68775487187E+03  0.96839642520E+03  0.12719089384E+04  0.50400001928E-02 0.  1.
</event>
<event>
 5   0  0.6525507E-08  0.3000226E+04  0.7818609E-02  0.8243666E-01
        1   -1    0    0  501    0  0.00000000000E+00  0.00000000000E+00  0.14339840165E+04  0.14339840165E+04  0.50400001928E-02 0.  1.
       -1   -1    0    0    0  501  0.00000000000E+00  0.00000000000E+00 -0.15692912709E+04  0.15692912709E+04  0.50400001928E-02 0. -1.
    10030    2    1    2    0    0  0.00000000000E+00  0.00000000000E+00 -0.13530725441E+03  0.30032752874E+04  0.30002257247E+04 0.  0.
        4    1    3    3  502    0 -0.37696594209E+03 -0.12727269484E+04  0.63191277229E+03  0.14701199173E+04  0.12699999809E+01 0.  1.
       -4    1    3    3    0  502  0.37696594209E+03  0.12727269484E+04 -0.76722002670E+03  0.15331553701E+04  0.12699999809E+01 0. -1.
</event>
<event>
 5   0  0.6464436E-08  0.3000028E+04  0.7818609E-02  0.8243723E-01
        1   -1    0    0  501    0  0.00000000000E+00  0.00000000000E+00  0.18400868265E+04  0.18400868265E+04  0.50400001928E-02 0. -1.
       -1   -1    0    0    0  501  0.00000000000E+00  0.00000000000E+00 -0.12227915796E+04  0.12227915797E+04  0.50400001928E-02 0.  1.
    10030    2    1    2    0    0  0.00000000000E+00  0.00000000000E+00  0.61729524681E+03  0.30628784061E+04  0.30000284514E+04 0.  0.
        5    1    3    3  502    0  0.25912518325E+03  0.48411533491E+03 -0.11164853071E+04  0.12442166407E+04  0.46999998093E+01 0.  1.
       -5    1    3    3    0  502 -0.25912518325E+03 -0.48411533491E+03  0.17337805539E+04  0.18186617654E+04  0.46999998093E+01 0. -1.
</event>
<event>
 5   0  0.6464436E-08  0.2996091E+04  0.7818609E-02  0.8244848E-01
       -1   -1    0    0    0  501  0.00000000000E+00  0.00000000000E+00  0.98999130755E+03  0.98999130756E+03  0.50400001928E-02 0. -1.
        1   -1    0    0  501    0  0.00000000000E+00  0.00000000000E+00 -0.22668289022E+04  0.22668289022E+04  0.50400001928E-02 0.  1.
    10030    2    1    2    0    0  0.00000000000E+00  0.00000000000E+00 -0.12768375946E+04  0.32568202097E+04  0.29960913930E+04 0.  0.
        5    1    3    3  502    0 -0.74143038437E+03  0.10526441267E+04 -0.14707832848E+04  0.19547389169E+04  0.46999998093E+01 0.  1.
       -5    1    3    3    0  502  0.74143038437E+03 -0.10526441267E+04  0.19394569023E+03  0.13020812928E+04  0.46999998093E+01 0. -1.
</event>
<event>
 5   0  0.1914439E-07  0.3000290E+04  0.7818609E-02  0.8243648E-01
       -2   -1    0    0    0  501  0.00000000000E+00  0.00000000000E+00  0.14388147557E+04  0.14388147557E+04  0.25500000920E-02 0.  1.
        2   -1    0    0  501    0  0.00000000000E+00  0.00000000000E+00 -0.15640893431E+04  0.15640893431E+04  0.25500000920E-02 0. -1.
    10030    2    1    2    0    0  0.00000000000E+00  0.00000000000E+00 -0.12527458733E+03  0.30029040988E+04  0.30002898700E+04 0.  0.
        5    1    3    3  502    0 -0.13204010697E+04 -0.71200615458E+03 -0.63631613672E+02  0.15014935302E+04  0.46999998093E+01 0.  1.
       -5    1    3    3    0  502  0.13204010697E+04  0.71200615458E+03 -0.61642973656E+02  0.15014105685E+04  0.46999998093E+01 0. -1.
</event>
<event>
 5   0  0.1914439E-07  0.3000094E+04  0.7818609E-02  0.8243704E-01
        2   -1    0    0  501    0  0.00000000000E+00  0.00000000000E+00  0.24628321933E+04  0.24628321933E+04  0.25500000920E-02 0. -1.
       -2   -1    0    0    0  501  0.00000000000E+00  0.00000000000E+00 -0.91363945529E+03  0.91363945529E+03  0.25500000920E-02 0.  1.
    10030    2    1    2    0    0  0.00000000000E+00  0.00000000000E+00  0.15491927380E+04  0.33764716486E+04  0.30000937743E+04 0.  0.
        5    1    3    3  502    0  0.24237633378E+03 -0.13551790984E+04  0.10415938618E+03  0.13806259246E+04  0.46999998093E+01 0. -1.
       -5    1    3    3    0  502 -0.24237633378E+03  0.13551790984E+04  0.14450333519E+04  0.19958457240E+04  0.46999998093E+01 0.  1.
</event>
<event>
 5   0  0.1813720E-07  0.2997908E+04  0.7818609E-02  0.8244329E-01
        2   -1    0    0  501    0  0.00000000000E+00  0.00000000000E+00  0.25115126462E+04  0.25115126462E+04  0.25500000920E-02 0. -1.
       -2   -1    0    0    0  501  0.00000000000E+00  0.00000000000E+00 -0.89462532641E+03  0.89462532642E+03  0.25500000920E-02 0.  1.
    10030    2    1    2    0    0  0.00000000000E+00  0.00000000000E+00  0.16168873198E+04  0.34061379726E+04  0.29979078177E+04 0.  0.
        3    1    3    3  502    0  0.13951526495E+03 -0.24708839409E+03  0.24807191893E+04  0.24968950498E+04  0.10100000352E+00 0. -1.
       -3    1    3    3    0  502 -0.13951526495E+03  0.24708839409E+03 -0.86383186950E+03  0.90924292277E+03  0.10100000352E+00 0.  1.
</event>
<event>
 5   0  0.1914439E-07  0.2998371E+04  0.7818609E-02  0.8244196E-01
        2   -1    0    0  501    0  0.00000000000E+00  0.00000000000E+00  0.25278676456E+04  0.25278676456E+04  0.25500000920E-02 0.  1.
       -2   -1    0    0    0  501  0.00000000000E+00  0.00000000000E+00 -0.88911204775E+03  0.88911204775E+03  0.25500000920E-02 0. -1.
    10030    2    1    2    0    0  0.00000000000E+00  0.00000000000E+00  0.16387555979E+04  0.34169796934E+04  0.29983712771E+04 0.  0.
        5    1    3    3  502    0 -0.10281655662E+04 -0.54081586433E+03 -0.26050854800E+03  0.11905851604E+04  0.46999998093E+01 0. -1.
       -5    1    3    3    0  502  0.10281655662E+04  0.54081586433E+03  0.18992641459E+04  0.22263945330E+04  0.46999998093E+01 0.  1.
</event>
<event>
 5   0  0.6636007E-08  0.3001172E+04  0.7818609E-02  0.8243396E-01
       -1   -1    0    0    0  501  0.00000000000E+00  0.00000000000E+00  0.18278353544E+04  0.18278353544E+04  0.50400001928E-02 0. -1.
        1   -1    0    0  501    0  0.00000000000E+00  0.00000000000E+00 -0.12319263199E+04  0.12319263199E+04  0.50400001928E-02 0.  1.
    10030    2    1    2    0    0  0.00000000000E+00  0.00000000000E+00  0.59590903447E+03  0.30597616743E+04  0.30011720921E+04 0.  0.
        2    1    3    3  502    0 -0.56327535565E+01  0.55706022352E+02  0.18267700366E+04  0.18276278766E+04  0.25500000920E-02 0. -1.
       -2    1    3    3    0  502  0.56327535565E+01 -0.55706022352E+02 -0.12308610021E+04  0.12321337977E+04  0.25500000920E-02 0.  1.
</event>
<event>
 5   0  0.1813720E-07  0.2998685E+04  0.7818609E-02  0.8244106E-01
       -2   -1    0    0    0  501  0.00000000000E+00  0.00000000000E+00  0.11581171742E+04  0.11581171743E+04  0.25500000920E-02 0.  1.
        2   -1    0    0  501    0  0.00000000000E+00  0.00000000000E+00 -0.19411061342E+04  0.19411061342E+04  0.25500000920E-02 0. -1.
    10030    2    1    2    0    0  0.00000000000E+00  0.00000000000E+00 -0.78298895992E+03  0.30992233084E+04  0.29986852793E+04 0.  0.
        3    1    3    3  502    0  0.15972281499E+03  0.14186962938E+04  0.81921741904E+02  0.14300075992E+04  0.10100000352E+00 0. -1.
       -3    1    3    3    0  502 -0.15972281499E+03 -0.14186962938E+04 -0.86491070183E+03  0.16692157093E+04  0.10100000352E+00 0.  1.
</event>
<event>
 5   0  0.1810055E-07  0.3000410E+04  0.7818609E-02  0.8243614E-01
       -2   -1    0    0    0  501  0.00000000000E+00  0.00000000000E+00  0.28822954252E+04  0.28822954252E+04  0.25500000920E-02 0. -1.
        2   -1    0    0  501    0  0.00000000000E+00  0.00000000000E+00 -0.78084120207E+03  0.78084120207E+03  0.25500000920E-02 0.  1.
    10030    2    1    2    0    0  0.00000000000E+00  0.00000000000E+00  0.21014542231E+04  0.36631366273E+04  0.30004099883E+04 0.  0.
        4    1    3    3  502    0 -0.10989976743E+03 -0.10219145018E+04 -0.28345714857E+03  0.10661785853E+04  0.12699999809E+01 0.  1.
       -4    1    3    3    0  502  0.10989976743E+03  0.10219145018E+04  0.23849113717E+04  0.25969580419E+04  0.12699999809E+01 0. -1.
</event>
<event>
 5   0  0.1813720E-07  0.3000940E+04  0.7818609E-02  0.8243462E-01
        2   -1    0    0  501    0  0.00000000000E+00  0.00000000000E+00  0.21780436867E+04  0.21780436867E+04  0.25500000920E-02 0.  1.
       -2   -1    0    0    0  501  0.00000000000E+00  0.00000000000E+00 -0.10336846514E+04  0.10336846514E+04  0.25500000920E-02 0. -1.
    10030    2    1    2    0    0  0.00000000000E+00  0.00000000000E+00  0.11443590353E+04  0.32117283381E+04  0.30009400720E+04 0.  0.
        3    1    3    3  502    0 -0.68746221964E+03 -0.46043928554E+02  0.19987289246E+04  0.21141527076E+04  0.10100000352E+00 0.  1.
       -3    1    3    3    0  502  0.68746221964E+03  0.46043928554E+02 -0.85436988928E+03  0.10975756305E+04  0.10100000352E+00 0. -1.
</event>
<event>
 5   0  0.6636007E-08  0.2999768E+04  0.7818609E-02  0.8243797E-01
       -1   -1    0    0    0  501  0.00000000000E+00  0.00000000000E+00  0.17840478069E+04  0.17840478069E+04  0.50400001928E-02 0. -1.
        1   -1    0    0  501    0  0.00000000000E+00  0.00000000000E+00 -0.12609817675E+04  0.12609817675E+04  0.50400001928E-02 0.  1.
    10030    2    1    2    0    0  0.00000000000E+00  0.00000000000E+00  0.52306603940E+03  0.30450295745E+04  0.29997678290E+04 0.  0.
        2    1    3    3  502    0  0.38095979375E+03  0.14347363671E+04  0.43695543897E+02  0.14850953196E+04  0.25500000920E-02 0. -1.
       -2    1    3    3    0  502 -0.38095979375E+03 -0.14347363671E+04  0.47937049550E+03  0.15599342549E+04  0.25500000920E-02 0.  1.
</event>
<event>
 5   0  0.1821305E-07  0.2983101E+04  0.7818609E-02  0.8248573E-01
        2   -1    0    0  501    0  0.00000000000E+00  0.00000000000E+00  0.14616555171E+04  0.14616555171E+04  0.25500000920E-02 0. -1.
       -2   -1    0    0    0  501  0.00000000000E+00  0.00000000000E+00 -0.15220572642E+04  0.15220572642E+04  0.25500000920E-02 0.  1.
    10030    2    1    2    0    0  0.00000000000E+00  0.00000000000E+00 -0.60401747054E+02  0.29837127813E+04  0.29831013376E+04 0.  0.
        2    1    3    3  502    0 -0.11829701806E+04 -0.90628412841E+03  0.32693076891E+02  0.14905831768E+04  0.25500000920E-02 0.  1.
       -2    1    3    3    0  502  0.11829701806E+04  0.90628412841E+03 -0.93094823945E+02  0.14931296045E+04  0.25500000920E-02 0. -1.
</event>
<event>
 5   0  0.6525507E-08  0.2999294E+04  0.7818609E-02  0.8243933E-01
       -1   -1    0    0    0  501  0.00000000000E+00  0.00000000000E+00  0.15982543791E+04  0.15982543791E+04  0.50400001928E-02 0. -1.
        1   -1    0    0  501    0  0.00000000000E+00  0.00000000000E+00 -0.14071231411E+04  0.14071231411E+04  0.50400001928E-02 0.  1.
    10030    2    1    2    0    0  0.00000000000E+00  0.00000000000E+00  0.19113123802E+03  0.30053775202E+04  0.29992937317E+04 0.  0.
        4    1    3    3  502    0 -0.61518044820E+03 -0.12813284729E+04  0.57475051192E+03  0.15331632017E+04  0.12699999809E+01 0. -1.
       -4    1    3    3    0  502  0.61518044820E+03  0.12813284729E+04 -0.38361927390E+03  0.14722143185E+04  0.12699999809E+01 0.  1.
</event>
<event>
 5   0  0.6525507E-08  0.3001777E+04  0.7818609E-02  0.8243224E-01
       -1   -1    0    0    0  501  0.00000000000E+00  0.00000000000E+00  0.10602148788E+04  0.10602148788E+04  0.50400001928E-02 0. -1.
        1   -1    0    0  501    0  0.00000000000E+00  0.00000000000E+00 -0.21247259588E+04  0.21247259588E+04  0.50400001928E-02 0.  1.
    10030    2    1    2    0    0  0.00000000000E+00  0.00000000000E+00 -0.10645110801E+04  0.31849408376E+04  0.30017768570E+04 0.  0.
        4    1    3    3  502    0  0.92283479812E+03 -0.99238514706E+03 -0.12167663710E+04  0.18212562585E+04  0.12699999809E+01 0. -1.
       -4    1    3    3    0  502 -0.92283479812E+03  0.99238514706E+03  0.15225529090E+03  0.13636845791E+04  0.12699999809E+01 0.  1.
</event>
<event>
 5   0  0.1810055E-07  0.3000204E+04  0.7818609E-02  0.8243673E-01
        2   -1    0    0  501    0  0.00000000000E+00  0.00000000000E+00  0.16946804577E+04  0.16946804577E+04  0.25500000920E-02 0. -1.
       -2   -1    0    0    0  501  0.00000000000E+00  0.00000000000E+00 -0.13278647748E+04  0.13278647748E+04  0.25500000920E-02 0.  1.
    10030    2    1    2    0    0  0.00000000000E+00  0.00000000000E+00  0.36681568285E+03  0.30225452325E+04  0.30002043159E+04 0.  0.
        4    1    3    3  502    0 -0.51732223050E+03  0.97541578206E+03  0.12064728930E+04  0.16354316533E+04  0.12699999809E+01 0. -1.
       -4    1    3    3    0  502  0.51732223050E+03 -0.97541578206E+03 -0.83965721019E+03  0.13871135792E+04  0.12699999809E+01 0.  1.
</event>
<event>
 5   0  0.6679022E-08  0.2977656E+04  0.7818609E-02  0.8250140E-01
       -1   -1    0    0    0  501  0.00000000000E+00  0.00000000000E+00  0.99780561960E+03  0.99780561961E+03  0.50400001928E-02 0. -1.
        1   -1    0    0  501    0  0.00000000000E+00  0.00000000000E+00 -0.22214839769E+04  0.22214839769E+04  0.50400001928E-02 0.  1.
    10030    2    1    2    0    0  0.00000000000E+00  0.00000000000E+00 -0.12236783573E+04  0.32192895966E+04  0.29776562569E+04 0.  0.
        3    1    3    3  502    0 -0.14685618323E+04 -0.13533979562E+03 -0.83240008717E+03  0.16934818071E+04  0.10100000352E+00 0.  1.
       -3    1    3    3    0  502  0.14685618323E+04  0.13533979562E+03 -0.39127827016E+03  0.15258077895E+04  0.10100000352E+00 0. -1.
</event>
<event>
 5   0  0.6636007E-08  0.2997347E+04  0.7818609E-02  0.8244489E-01
        1   -1    0    0  501    0  0.00000000000E+00  0.00000000000E+00  0.18802854266E+04  0.18802854266E+04  0.50400001928E-02 0. -1.
       -1   -1    0    0    0  501  0.00000000000E+00  0.00000000000E+00 -0.11945113639E+04  0.11945113639E+04  0.50400001928E-02 0.  1.
    10030    2    1    2    0    0  0.00000000000E+00  0.00000000000E+00  0.68577406269E+03  0.30747967905E+04  0.29973470332E+04 0.  0.
        2    1    3    3  502    0 -0.51998542050E+03 -0.72182865599E+03 -0.89434544407E+03  0.12614575774E+04  0.25500000920E-02 0.  1.
       -2    1    3    3    0  502  0.51998542050E+03  0.72182865599E+03  0.15801195068E+04  0.18133392131E+04  0.25500000920E-02 0. -1.
</event>
<event>
 5   0  0.1817566E-07  0.2999790E+04  0.7818609E-02  0.8243791E-01
        2   -1    0    0  501    0  0.00000000000E+00  0.00000000000E+00  0.22551285435E+04  0.22551285435E+04  0.25500000920E-02 0. -1.
       -2   -1    0    0    0  501  0.00000000000E+00  0.00000000000E+00 -0.99758620396E+03  0.99758620397E+03  0.25500000920E-02 0.  1.
    10030    2    1    2    0    0  0.00000000000E+00  0.00000000000E+00  0.12575423396E+04  0.32527147475E+04  0.29997900748E+04 0.  0.
        1    1    3    3  502    0  0.13770100590E+04  0.46468074608E+03  0.22655022052E+03  0.14708534600E+04  0.50400001928E-02 0.  1.
       -1    1    3    3    0  502 -0.13770100590E+04 -0.46468074608E+03  0.10309921191E+04  0.17818612875E+04  0.50400001928E-02 0. -1.
</event>
<event>
 5   0  0.1813720E-07  0.2997458E+04  0.7818609E-02  0.8244457E-01
       -2   -1    0    0    0  501  0.00000000000E+00  0.00000000000E+00  0.11368543890E+04  0.11368543890E+04  0.25500000920E-02 0.  1.
        2   -1    0    0  501    0  0.00000000000E+00  0.00000000000E+00 -0.19757931962E+04  0.19757931962E+04  0.25500000920E-02 0. -1.
    10030    2    1    2    0    0  0.00000000000E+00  0.00000000000E+00 -0.83893880720E+03  0.31126475852E+04  0.29974583679E+04 0.  0.
        3    1    3    3  502    0  0.96542043806E+03  0.34716087304E+03  0.71505017328E+03  0.12505415045E+04  0.10100000352E+00 0.  1.
       -3    1    3    3    0  502 -0.96542043806E+03 -0.34716087304E+03 -0.15539889805E+04  0.18621060807E+04  0.10100000352E+00 0. -1.
</event>
<event>
 5   0  0.1810055E-07  0.2995461E+04  0.7818609E-02  0.8245028E-01
       -2   -1    0    0    0  501  0.00000000000E+00  0.00000000000E+00  0.10756177674E+04  0.10756177675E+04  0.25500000920E-02 0. -1.
        2   -1    0    0  501    0  0.00000000000E+00  0.00000000000E+00 -0.20854962366E+04  0.20854962366E+04  0.25500000920E-02 0.  1.
    10030    2    1    2    0    0  0.00000000000E+00  0.00000000000E+00 -0.10098784692E+04  0.31611140041E+04  0.29954611038E+04 0.  0.
        4    1    3    3  502    0 -0.60144726791E+03 -0.30328262858E+02 -0.19521019545E+04  0.20428808759E+04  0.12699999809E+01 0.  1.
       -4    1    3    3    0  502  0.60144726791E+03  0.30328262858E+02  0.94222348534E+03  0.11182331281E+04  0.12699999809E+01 0. -1.
</event>
<event>
 5   0  0.6374748E-08  0.2998774E+04  0.7818609E-02  0.8244081E-01
        1   -1    0    0  501    0  0.00000000000E+00  0.00000000000E+00  0.18099812102E+04  0.18099812102E+04  0.50400001928E-02 0. -1.
       -1   -1    0    0    0  501  0.00000000000E+00  0.00000000000E+00 -0.12420909584E+04  0.12420909584E+04  0.50400001928E-02 0.  1.
    10030    2    1    2    0    0  0.00000000000E+00  0.00000000000E+00  0.56789025189E+03  0.30520721686E+04  0.29987739468E+04 0.  0.
        1    1    3    3  502    0  0.12689567944E+04 -0.34022539329E+03 -0.45150202286E+03  0.13891935578E+04  0.50400001928E-02 0.  1.
       -1    1    3    3    0  502 -0.12689567944E+04  0.34022539329E+03  0.10193922747E+04  0.16628786108E+04  0.50400001928E-02 0. -1.
</event>
<event>
 5   0  0.1810055E-07  0.2994042E+04  0.7818609E-02  0.8245434E-01
        2   -1    0    0  501    0  0.00000000000E+00  0.00000000000E+00  0.14769412092E+04  0.14769412092E+04  0.25500000920E-02 0.  1.
       -2   -1    0    0    0  501  0.00000000000E+00  0.00000000000E+00 -0.15173740935E+04  0.15173740935E+04  0.25500000920E-02 0. -1.
    10030    2    1    2    0    0  0.00000000000E+00  0.00000000000E+00 -0.40432884314E+02  0.29943153027E+04  0.29940423033E+04 0.  0.
        4    1    3    3  502    0  0.11334500484E+04 -0.97498047748E+03 -0.96215291656E+02  0.14981838802E+04  0.12699999809E+01 0. -1.
       -4    1    3    3    0  502 -0.11334500484E+04  0.97498047748E+03  0.55782407342E+02  0.14961314225E+04  0.12699999809E+01 0.  1.
</event>
<event>
 5   0  0.6679022E-08  0.3000562E+04  0.7818609E-02  0.8243570E-01
       -1   -1    0    0    0  501  0.00000000000E+00  0.00000000000E+00  0.13080981301E+04  0.13080981301E+04  0.50400001928E-02 0. -1.
        1   -1    0    0  501    0  0.00000000000E+00  0.00000000000E+00 -0.17206987516E+04  0.17206987516E+04  0.50400001928E-02 0.  1.
    10030    2    1    2    0    0  0.00000000000E+00  0.00000000000E+00 -0.41260062142E+03  0.30287968817E+04  0.30005618270E+04 0.  0.
        3    1    3    3  502    0  0.60444606788E+03  0.84783453462E+03 -0.12965865618E+04  0.16629236812E+04  0.10100000352E+00 0.  1.
       -3    1    3    3    0  502 -0.60444606788E+03 -0.84783453462E+03  0.88398594033E+03  0.13658732005E+04  0.10100000352E+00 0. -1.
</event>
<event>
 5   0  0.1813720E-07  0.2998565E+04  0.7818609E-02  0.8244141E-01
        2   -1    0    0  501    0  0.00000000000E+00  0.00000000000E+00  0.14610117290E+04  0.14610117290E+04  0.25500000920E-02 0. -1.
       -2   -1    0    0    0  501  0.00000000000E+00  0.00000000000E+00 -0.15385554830E+04  0.15385554830E+04  0.25500000920E-02 0.  1.
    10030    2    1    2    0    0  0.00000000000E+00  0.00000000000E+00 -0.77543753993E+02  0.29995672120E+04  0.29985647276E+04 0.  0.
        3    1    3    3  502    0  0.73011671815E+03  0.54560331419E+03 -0.12295875159E+04  0.15305681521E+04  0.10100000352E+00 0.  1.
       -3    1    3    3    0  502 -0.73011671815E+03 -0.54560331419E+03  0.11520437619E+04  0.14689990600E+04  0.10100000352E+00 0. -1.
</event>
<event>
 5   0  0.1813720E-07  0.2999910E+04  0.7818609E-02  0.8243757E-01
        2   -1    0    0  501    0  0.00000000000E+00  0.00000000000E+00  0.24806961694E+04  0.24806961694E+04  0.25500000920E-02 0. -1.
       -2   -1    0    0    0  501  0.00000000000E+00  0.00000000000E+00 -0.90694894953E+03  0.90694894954E+03  0.25500000920E-02 0.  1.
    10030    2    1    2    0    0  0.00000000000E+00  0.00000000000E+00  0.15737472198E+04  0.33876451189E+04  0.29999098553E+04 0.  0.
        3    1    3    3  502    0 -0.60959764259E+03 -0.51007413231E+03  0.22233208559E+04  0.23611312002E+04  0.10100000352E+00 0. -1.
       -3    1    3    3    0  502  0.60959764259E+03  0.51007413231E+03 -0.64957363607E+03  0.10265139187E+04  0.10100000352E+00 0.  1.
</event>
<event>
 5   0  0.6374748E-08  0.3000154E+04  0.7818609E-02  0.8243687E-01
       -1   -1    0    0    0  501  0.00000000000E+00  0.00000000000E+00  0.14401974023E+04  0.14401974023E+04  0.50400001928E-02 0. -1.
        1   -1    0    0  501    0  0.00000000000E+00  0.00000000000E+00 -0.15624458511E+04  0.15624458511E+04  0.50400001928E-02 0.  1.
    10030    2    1    2    0    0  0.00000000000E+00  0.00000000000E+00 -0.12224844880E+03  0.30026432534E+04  0.30001536334E+04 0.  0.
        1    1    3    3  502    0  0.14213766439E+04 -0.34646934007E+03  0.27062918447E+03  0.14878147475E+04  0.50400001928E-02 0. -1.
       -1    1    3    3    0  502 -0.14213766439E+04  0.34646934007E+03 -0.39287763327E+03  0.15148285059E+04  0.50400001928E-02 0.  1.
</event>
<event>
 5   0  0.6374748E-08  0.2999248E+04  0.7818609E-02  0.8243946E-01
       -1   -1    0    0    0  501  0.00000000000E+00  0.00000000000E+00  0.14842827176E+04  0.14842827176E+04  0.50400001928E-02 0. -1.
        1   -1    0    0  501    0  0.00000000000E+00  0.00000000000E+00 -0.15151233851E+04  0.15151233851E+04  0.50400001928E-02 0.  1.
    10030    2    1    2    0    0  0.00000000000E+00  0.00000000000E+00 -0.30840667495E+02  0.29994061027E+04  0.29992475427E+04 0.  0.
        1    1    3    3  502    0 -0.35649524633E+02 -0.11263210324E+03 -0.15104624359E+04  0.15150754600E+04  0.50400001928E-02 0.  1.
       -1    1    3    3    0  502  0.35649524633E+02  0.11263210324E+03  0.14796217684E+04  0.14843306427E+04  0.50400001928E-02 0. -1.
</event>
<event>
 5   0  0.1817566E-07  0.3000689E+04  0.7818609E-02  0.8243534E-01
        2   -1    0    0  501    0  0.00000000000E+00  0.00000000000E+00  0.30698469153E+04  0.30698469153E+04  0.25500000920E-02 0.  1.
       -2   -1    0    0    0  501  0.00000000000E+00  0.00000000000E+00 -0.73327227945E+03  0.73327227945E+03  0.25500000920E-02 0. -1.
    10030    2    1    2    0    0  0.00000000000E+00  0.00000000000E+00  0.23365746358E+04  0.38031191947E+04  0.30006890176E+04 0.  0.
        1    1    3    3  502    0  0.64410899381E+03 -0.26662352022E+03  0.28521233943E+04  0.29360811218E+04  0.50400001928E-02 0.  1.
       -1    1    3    3    0  502 -0.64410899381E+03  0.26662352022E+03 -0.51554875850E+03  0.86703807290E+03  0.50400001928E-02 0. -1.
</event>
<event>
 5   0  0.6525507E-08  0.2998125E+04  0.7818609E-02  0.8244266E-01
       -1   -1    0    0    0  501  0.00000000000E+00  0.00000000000E+00  0.13255206800E+04  0.13255206800E+04  0.50400001928E-02 0. -1.
        1   -1    0    0  501    0  0.00000000000E+00  0.00000000000E+00 -0.16953252800E+04  0.16953252800E+04  0.50400001928E-02 0.  1.
    10030    2    1    2    0    0  0.00000000000E+00  0.00000000000E+00 -0.36980459997E+03  0.30208459601E+04  0.29981252262E+04 0.  0.
        4    1    3    3  502    0 -0.83675881848E+02  0.47550940604E+02  0.13224039967E+04  0.13259022168E+04  0.12699999809E+01 0. -1.
       -4    1    3    3    0  502  0.83675881848E+02 -0.47550940604E+02 -0.16922085967E+04  0.16949437432E+04  0.12699999809E+01 0.  1.
</event>
<event>
 5   0  0.1914439E-07  0.2999494E+04  0.7818609E-02  0.8243875E-01
       -2   -1    0    0    0  501  0.00000000000E+00  0.00000000000E+00  0.15952171371E+04  0.15952171371E+04  0.25500000920E-02 0. -1.
        2   -1    0    0  501    0  0.00000000000E+00  0.00000000000E+00 -0.14099903268E+04  0.14099903268E+04  0.25500000920E-02 0.  1.
    10030    2    1    2    0    0  0.00000000000E+00  0.00000000000E+00  0.18522681034E+03  0.30052074639E+04  0.29994937789E+04 0.  0.
        5    1    3    3  502    0  0.11641573831E+04 -0.33203923973E+03 -0.79434474160E+03  0.14479358162E+04  0.46999998093E+01 0.  1.
       -5    1    3    3    0  502 -0.11641573831E+04  0.33203923973E+03  0.97957155193E+03  0.15572716477E+04  0.46999998093E+01 0. -1.
</event>
<event>
 5   0  0.6636007E-08  0.3000289E+04  0.7818609E-02  0.8243648E-01
        1   -1    0    0  501    0  0.00000000000E+00  0.00000000000E+00  0.13027687195E+04  0.13027687195E+04  0.50400001928E-02 0. -1.
       -1   -1    0    0    0  501  0.00000000000E+00  0.00000000000E+00 -0.17274241802E+04  0.17274241802E+04  0.50400001928E-02 0.  1.
    10030    2    1    2    0    0  0.00000000000E+00  0.00000000000E+00 -0.42465546078E+03  0.30301928997E+04  0.30002894442E+04 0.  0.
        2    1    3    3  502    0 -0.27253260389E+02 -0.66037098716E+03  0.11477949044E+04  0.13244869661E+04  0.25500000920E-02 0. -1.
       -2    1    3    3    0  502  0.27253260389E+02  0.66037098716E+03 -0.15724503652E+04  0.17057059336E+04  0.25500000920E-02 0.  1.
</event>
<event>
 5   0  0.6464436E-08  0.2999439E+04  0.7818609E-02  0.8243891E-01
       -1   -1    0    0    0  501  0.00000000000E+00  0.00000000000E+00  0.15226557796E+04  0.15226557796E+04  0.50400001928E-02 0. -1.
        1   -1    0    0  501    0  0.00000000000E+00  0.00000000000E+00 -0.14771284220E+04  0.14771284220E+04  0.50400001928E-02 0.  1.
    10030    2    1    2    0    0  0.00000000000E+00  0.00000000000E+00  0.45527357610E+02  0.29997842016E+04  0.29994387002E+04 0.  0.
        5    1    3    3  502    0 -0.84060274002E+03 -0.12403856136E+04  0.85751900276E+02  0.15008480653E+04  0.46999998093E+01 0.  1.
       -5    1    3    3    0  502  0.84060274002E+03  0.12403856136E+04 -0.40224542666E+02  0.14989361363E+04  0.46999998093E+01 0. -1.
</event>
<event>
 5   0  0.6374748E-08  0.2999854E+04  0.7818609E-02  0.8243773E-01
       -1   -1    0    0    0  501  0.00000000000E+00  0.00000000000E+00  0.15221914862E+04  0.15221914862E+04  0.50400001928E-02 0. -1.
        1   -1    0    0  501    0  0.00000000000E+00  0.00000000000E+00 -0.14779881011E+04  0.14779881011E+04  0.50400001928E-02 0.  1.
    10030    2    1    2    0    0  0.00000000000E+00  0.00000000000E+00  0.44203385072E+02  0.30001795873E+04  0.29998539326E+04 0.  0.
        1    1    3    3  502    0 -0.10239640439E+04 -0.10705702364E+04 -0.21278101466E+03  0.14966291306E+04  0.50400001928E-02 0.  1.
       -1    1    3    3    0  502  0.10239640439E+04  0.10705702364E+04  0.25698439973E+03  0.15035504568E+04  0.50400001928E-02 0. -1.
</event>
<event>
 5   0  0.1914439E-07  0.2999251E+04  0.7818609E-02  0.8243945E-01
       -2   -1    0    0    0  501  0.00000000000E+00  0.00000000000E+00  0.14661601360E+04  0.14661601360E+04  0.25500000920E-02 0. -1.
        2   -1    0    0  501    0  0.00000000000E+00  0.00000000000E+00 -0.15338548792E+04  0.15338548792E+04  0.25500000920E-02 0.  1.
    10030    2    1    2    0    0  0.00000000000E+00  0.00000000000E+00 -0.67694743178E+02  0.30000150152E+04  0.29992511587E+04 0.  0.
        5    1    3    3  502    0  0.33775267434E+03 -0.14584256942E+04 -0.12203111814E+03  0.15019973563E+04  0.46999998093E+01 0.  1.
       -5    1    3    3    0  502 -0.33775267434E+03  0.14584256942E+04  0.54336374960E+02  0.14980176589E+04  0.46999998093E+01 0. -1.
</event>
<event>
 5   0  0.6636007E-08  0.3000257E+04  0.7818609E-02  0.8243657E-01
       -1   -1    0    0    0  501  0.00000000000E+00  0.00000000000E+00  0.15142352398E+04  0.15142352398E+04  0.50400001928E-02 0. -1.
        1   -1    0    0  501    0  0.00000000000E+00  0.00000000000E+00 -0.14861534194E+04  0.14861534194E+04  0.50400001928E-02 0.  1.
    10030    2    1    2    0    0  0.00000000000E+00  0.00000000000E+00  0.28081820394E+02  0.30003886592E+04  0.30002572419E+04 0.  0.
        2    1    3    3  502    0  0.49054587474E+03 -0.12973494609E+04 -0.55750402735E+03  0.14948450152E+04  0.25500000920E-02 0.  1.
       -2    1    3    3    0  502 -0.49054587474E+03  0.12973494609E+04  0.58558584775E+03  0.15055436440E+04  0.25500000920E-02 0. -1.
</event>
<event>
 5   0  0.6679022E-08  0.2999987E+04  0.7818609E-02  0.8243735E-01
       -1   -1    0    0    0  501  0.00000000000E+00  0.00000000000E+00  0.28401807107E+04  0.28401807107E+04  0.50400001928E-02 0.  1.
        1   -1    0    0  501    0  0.00000000000E+00  0.00000000000E+00 -0.79219603380E+03  0.79219603382E+03  0.50400001928E-02 0. -1.
    10030    2    1    2    0    0  0.00000000000E+00  0.00000000000E+00  0.20479846769E+04  0.36323767445E+04  0.29999865962E+04 0.  0.
        3    1    3    3  502    0  0.49752983213E+03 -0.14092874391E+04  0.86915757065E+03  0.17288903704E+04  0.10100000352E+00 0.  1.
       -3    1    3    3    0  502 -0.49752983213E+03  0.14092874391E+04  0.11788271063E+04  0.19034863742E+04  0.10100000352E+00 0. -1.
</event>
<event>
 5   0  0.1813720E-07  0.3000670E+04  0.7818609E-02  0.8243540E-01
       -2   -1    0    0    0  501  0.00000000000E+00  0.00000000000E+00  0.11431701606E+04  0.11431701606E+04  0.25500000920E-02 0.  1.
        2   -1    0    0  501    0  0.00000000000E+00  0.00000000000E+00 -0.19690904177E+04  0.19690904177E+04  0.25500000920E-02 0. -1.
    10030    2    1    2    0    0  0.00000000000E+00  0.00000000000E+00 -0.82592025714E+03  0.31122605783E+04  0.30006701978E+04 0.  0.
        3    1    3    3  502    0 -0.85170538844E+03 -0.67467376469E+03  0.66012584611E+03  0.12713586828E+04  0.10100000352E+00 0.  1.
       -3    1    3    3    0  502  0.85170538844E+03  0.67467376469E+03 -0.14860461033E+04  0.18409018954E+04  0.10100000352E+00 0. -1.
</event>
<event>
 5   0  0.1914439E-07  0.2999869E+04  0.7818609E-02  0.8243768E-01
        2   -1    0    0  501    0  0.00000000000E+00  0.00000000000E+00  0.15425448768E+04  0.15425448768E+04  0.25500000920E-02 0. -1.
       -2   -1    0    0    0  501  0.00000000000E+00  0.00000000000E+00 -0.14585016292E+04  0.14585016292E+04  0.25500000920E-02 0.  1.
    10030    2    1    2    0    0  0.00000000000E+00  0.00000000000E+00  0.84043247569E+02  0.30010465060E+04  0.29998694744E+04 0.  0.
        5    1    3    3  502    0 -0.11655257446E+04  0.43525274852E+03 -0.79609400277E+03  0.14770521209E+04  0.46999998093E+01 0. -1.
       -5    1    3    3    0  502  0.11655257446E+04 -0.43525274852E+03  0.88013725034E+03  0.15239943851E+04  0.46999998093E+01 0.  1.
</event>
<event>
 5   0  0.1817566E-07  0.2999366E+04  0.7818609E-02  0.8243912E-01
       -2   -1    0    0    0  501  0.00000000000E+00  0.00000000000E+00  0.24378428575E+04  0.24378428575E+04  0.25500000920E-02 0.  1.
        2   -1    0    0  501    0  0.00000000000E+00  0.00000000000E+00 -0.92255703653E+03  0.92255703653E+03  0.25500000920E-02 0. -1.
    10030    2    1    2    0    0  0.00000000000E+00  0.00000000000E+00  0.15152858210E+04  0.33603998941E+04  0.29993659878E+04 0.  0.
        1    1    3    3  502    0  0.58923385438E+02  0.11079690764E+03 -0.91666429379E+03  0.92521421716E+03  0.50400001928E-02 0. -1.
       -1    1    3    3    0  502 -0.58923385438E+02 -0.11079690764E+03  0.24319501148E+04  0.24351856769E+04  0.50400001928E-02 0.  1.
</event>
<event>
 5   0  0.6525507E-08  0.2999939E+04  0.7818609E-02  0.8243748E-01
        1   -1    0    0  501    0  0.00000000000E+00  0.00000000000E+00  0.16777851579E+04  0.16777851579E+04  0.50400001928E-02 0.  1.
       -1   -1    0    0    0  501  0.00000000000E+00  0.00000000000E+00 -0.13409989353E+04  0.13409989353E+04  0.50400001928E-02 0. -1.
    10030    2    1    2    0    0  0.00000000000E+00  0.00000000000E+00  0.33678622253E+03  0.30187840932E+04  0.29999387397E+04 0.  0.
        4    1    3    3  502    0  0.85956280295E+03 -0.82580454446E+03  0.10846652273E+04  0.16116146022E+04  0.12699999809E+01 0.  1.
       -4    1    3    3    0  502 -0.85956280295E+03  0.82580454446E+03 -0.74787900474E+03  0.14071694910E+04  0.12699999809E+01 0. -1.
</event>
<event>
 5   0  0.6679022E-08  0.2999668E+04  0.7818609E-02  0.8243826E-01
       -1   -1    0    0    0  501  0.00000000000E+00  0.00000000000E+00  0.15887243231E+04  0.15887243231E+04  0.50400001928E-02 0. -1.
        1   -1    0    0  501    0  0.00000000000E+00  0.00000000000E+00 -0.14159175362E+04  0.14159175362E+04  0.50400001928E-02 0.  1.
    10030    2    1    2    0    0  0.00000000000E+00  0.00000000000E+00  0.17280678691E+03  0.30046418593E+04  0.29996684012E+04 0.  0.
        3    1    3    3  502    0  0.14660749582E+04  0.27969051334E+03 -0.61828633506E+02  0.14937956207E+04  0.10100000352E+00 0.  1.
       -3    1    3    3    0  502 -0.14660749582E+04 -0.27969051334E+03  0.23463542042E+03  0.15108462387E+04  0.10100000352E+00 0. -1.
</event>
<event>
 5   0  0.6374748E-08  0.3000504E+04  0.7818609E-02  0.8243587E-01
       -1   -1    0    0    0  501  0.00000000000E+00  0.00000000000E+00  0.86987095310E+03  0.86987095311E+03  0.50400001928E-02 0.  1.
        1   -1    0    0  501    0  0.00000000000E+00  0.00000000000E+00 -0.25874589884E+04  0.25874589884E+04  0.50400001928E-02 0. -1.
    10030    2    1    2    0    0  0.00000000000E+00  0.00000000000E+00 -0.17175880353E+04  0.34573299415E+04  0.30005035687E+04 0.  0.
        1    1    3    3  502    0  0.11554043392E+04 -0.47693736554E+03 -0.18147636039E+04  0.22035869340E+04  0.50400001928E-02 0. -1.
       -1    1    3    3    0  502 -0.11554043392E+04  0.47693736554E+03  0.97175568546E+02  0.12537430075E+04  0.50400001928E-02 0.  1.
</event>
<event>
 5   0  0.1821305E-07  0.2998932E+04  0.7818609E-02  0.8244036E-01
        2   -1    0    0  501    0  0.00000000000E+00  0.00000000000E+00  0.22367359667E+04  0.22367359667E+04  0.25500000920E-02 0. -1.
       -2   -1    0    0    0  501  0.00000000000E+00  0.00000000000E+00 -0.10052142583E+04  0.10052142583E+04  0.25500000920E-02 0.  1.
    10030    2    1    2    0    0  0.00000000000E+00  0.00000000000E+00  0.12315217084E+04  0.32419502251E+04  0.29989324006E+04 0.  0.
        2    1    3    3  502    0 -0.10327438525E+04  0.60977944013E+03 -0.35717528484E+03  0.12513852383E+04  0.25500000920E-02 0.  1.
       -2    1    3    3    0  502  0.10327438525E+04 -0.60977944013E+03  0.15886969932E+04  0.19905649868E+04  0.25500000920E-02 0. -1.
</event>
<event>
 5   0  0.6374748E-08  0.2991092E+04  0.7818609E-02  0.8246279E-01
        1   -1    0    0  501    0  0.00000000000E+00  0.00000000000E+00  0.22322707742E+04  0.22322707742E+04  0.50400001928E-02 0. -1.
       -1   -1    0    0    0  501  0.00000000000E+00  0.00000000000E+00 -0.10019653093E+04  0.10019653093E+04  0.50400001928E-02 0.  1.
    10030    2    1    2    0    0  0.00000000000E+00  0.00000000000E+00  0.12303054649E+04  0.32342360835E+04  0.29910920258E+04 0.  0.
        1    1    3    3  502    0 -0.54799366253E+03 -0.85362173213E+03 -0.57313007890E+03  0.11650945039E+04  0.50400001928E-02 0.  1.
       -1    1    3    3    0  502  0.54799366253E+03  0.85362173213E+03  0.18034355438E+04  0.20691415796E+04  0.50400001928E-02 0. -1.
</event>
<event>
 5   0  0.6636007E-08  0.3000466E+04  0.7818609E-02  0.8243598E-01
       -1   -1    0    0    0  501  0.00000000000E+00  0.00000000000E+00  0.15567466689E+04  0.15567466689E+04  0.50400001928E-02 0.  1.
        1   -1    0    0  501    0  0.00000000000E+00  0.00000000000E+00 -0.14457708741E+04  0.14457708742E+04  0.50400001928E-02 0. -1.
    10030    2    1    2    0    0  0.00000000000E+00  0.00000000000E+00  0.11097579479E+03  0.30025175431E+04  0.30004659587E+04 0.  0.
        2    1    3    3  502    0 -0.14395530764E+04  0.41002499090E+03 -0.45899884222E+02  0.14975113864E+04  0.25500000920E-02 0.  1.
       -2    1    3    3    0  502  0.14395530764E+04 -0.41002499090E+03  0.15687567901E+03  0.15050061567E+04  0.25500000920E-02 0. -1.
</event>
<event>
 5   0  0.6525507E-08  0.3000314E+04  0.7818609E-02  0.8243641E-01
        1   -1    0    0  501    0  0.00000000000E+00  0.00000000000E+00  0.63870330571E+03  0.63870330573E+03  0.50400001928E-02 0. -1.
       -1   -1    0    0    0  501  0.00000000000E+00  0.00000000000E+00 -0.35234998435E+04  0.35234998435E+04  0.50400001928E-02 0.  1.
    10030    2    1    2    0    0  0.00000000000E+00  0.00000000000E+00 -0.28847965378E+04  0.41622031493E+04  0.30003139821E+04 0.  0.
        4    1    3    3  502    0 -0.44747960199E+03  0.76154352243E+03 -0.31245184216E+04  0.32469683569E+04  0.12699999809E+01 0.  1.
       -4    1    3    3    0  502  0.44747960199E+03 -0.76154352243E+03  0.23972188378E+03  0.91523479239E+03  0.12699999809E+01 0. -1.
</event>
<event>
 5   0  0.1817566E-07  0.3000470E+04  0.7818609E-02  0.8243597E-01
       -2   -1    0    0    0  501  0.00000000000E+00  0.00000000000E+00  0.10994858030E+04  0.10994858030E+04  0.25500000920E-02 0.  1.
        2   -1    0    0  501    0  0.00000000000E+00  0.00000000000E+00 -0.20470528863E+04  0.20470528863E+04  0.25500000920E-02 0. -1.
    10030    2    1    2    0    0  0.00000000000E+00  0.00000000000E+00 -0.94756708329E+03  0.31465386893E+04  0.30004703542E+04 0.  0.
        1    1    3    3  502    0 -0.39740654382E+03 -0.10648110892E+04 -0.15007161336E+04  0.18825258379E+04  0.50400001928E-02 0. -1.
       -1    1    3    3    0  502  0.39740654382E+03  0.10648110892E+04  0.55314905033E+03  0.12640128514E+04  0.50400001928E-02 0.  1.
</event>
<event>
 5   0  0.1813720E-07  0.2999742E+04  0.7818609E-02  0.8243804E-01
        2   -1    0    0  501    0  0.00000000000E+00  0.00000000000E+00  0.14212640699E+04  0.14212640699E+04  0.25500000920E-02 0.  1.
       -2   -1    0    0    0  501  0.00000000000E+00  0.00000000000E+00 -0.15828260077E+04  0.15828260077E+04  0.25500000920E-02 0. -1.
    10030    2    1    2    0    0  0.00000000000E+00  0.00000000000E+00 -0.16156193773E+03  0.30040900776E+04  0.29997424781E+04 0.  0.
        3    1    3    3  502    0 -0.52343881522E+02 -0.13182200682E+04  0.63381448785E+03  0.14636136257E+04  0.10100000352E+00 0. -1.
       -3    1    3    3    0  502  0.52343881522E+02  0.13182200682E+04 -0.79537642558E+03  0.15404764519E+04  0.10100000352E+00 0.  1.
</event>
<event>
 5   0  0.6636007E-08  0.2999935E+04  0.7818609E-02  0.8243749E-01
        1   -1    0    0  501    0  0.00000000000E+00  0.00000000000E+00  0.13968193799E+04  0.13968193799E+04  0.50400001928E-02 0.  1.
       -1   -1    0    0    0  501  0.00000000000E+00  0.00000000000E+00 -0.16107329847E+04  0.16107329847E+04  0.50400001928E-02 0. -1.
    10030    2    1    2    0    0  0.00000000000E+00  0.00000000000E+00 -0.21391360486E+03  0.30075523646E+04  0.29999353652E+04 0.  0.
        2    1    3    3  502    0  0.36000494187E+03 -0.11485775059E+04 -0.10042540134E+04  0.15675968769E+04  0.25500000920E-02 0. -1.
       -2    1    3    3    0  502 -0.36000494187E+03  0.11485775059E+04  0.79034040850E+03  0.14399554877E+04  0.25500000920E-02 0.  1.
</event>
<event>
 5   0  0.6464436E-08  0.2999877E+04  0.7818609E-02  0.8243766E-01
        1   -1    0    0  501    0  0.00000000000E+00  0.00000000000E+00  0.27567085994E+04  0.27567085995E+04  0.50400001928E-02 0.  1.
       -1   -1    0    0    0  501  0.00000000000E+00  0.00000000000E+00 -0.81612388494E+03  0.81612388495E+03  0.50400001928E-02 0. -1.
    10030    2    1    2    0    0  0.00000000000E+00  0.00000000000E+00  0.19405847145E+04  0.35728324844E+04  0.29998771521E+04 0.  0.
        5    1    3    3  502    0 -0.13949223406E+04 -0.24919919613E+03  0.38454044876E+03  0.14682649700E+04  0.46999998093E+01 0. -1.
       -5    1    3    3    0  502  0.13949223406E+04  0.24919919613E+03  0.15560442657E+04  0.21045675144E+04  0.46999998093E+01 0.  1.
</event>
<event>
 5   0  0.1914439E-07  0.2999843E+04  0.7818609E-02  0.8243776E-01
       -2   -1    0    0    0  501  0.00000000000E+00  0.00000000000E+00  0.95258290250E+03  0.95258290250E+03  0.25500000920E-02 0.  1.
        2   -1    0    0  501    0  0.00000000000E+00  0.00000000000E+00 -0.23617522250E+04  0.23617522250E+04  0.25500000920E-02 0. -1.
    10030    2    1    2    0    0  0.00000000000E+00  0.00000000000E+00 -0.14091693225E+04  0.33143351275E+04  0.29998431889E+04 0.  0.
        5    1    3    3  502    0 -0.14331825960E+04  0.47590100072E+02 -0.11905436987E+04  0.18637847407E+04  0.46999998093E+01 0.  1.
       -5    1    3    3    0  502  0.14331825960E+04 -0.47590100072E+02 -0.21862562379E+03  0.14505503868E+04  0.46999998093E+01 0. -1.
</event>
<event>
 5   0  0.1817566E-07  0.3002473E+04  0.7818609E-02  0.8243025E-01
       -2   -1    0    0    0  501  0.00000000000E+00  0.00000000000E+00  0.10272775719E+04  0.10272775719E+04  0.25500000920E-02 0.  1.
        2   -1    0    0  501    0  0.00000000000E+00  0.00000000000E+00 -0.21938677168E+04  0.21938677168E+04  0.25500000920E-02 0. -1.
    10030    2    1    2    0    0  0.00000000000E+00  0.00000000000E+00 -0.11665901449E+04  0.32211452887E+04  0.30024730481E+04 0.  0.
        1    1    3    3  502    0  0.41773799244E+03  0.13514984924E+04 -0.11225543602E+04  0.18058741642E+04  0.50400001928E-02 0. -1.
       -1    1    3    3    0  502 -0.41773799244E+03 -0.13514984924E+04 -0.44035784708E+02  0.14152711245E+04  0.50400001928E-02 0.  1.
</event>
<event>
 5   0  0.6464436E-08  0.2999500E+04  0.7818609E-02  0.8243874E-01
        1   -1    0    0  501    0  0.00000000000E+00  0.00000000000E+00  0.92953318244E+03  0.92953318246E+03  0.50400001928E-02 0.  1.
       -1   -1    0    0    0  501  0.00000000000E+00  0.00000000000E+00 -0.24197628994E+04  0.24197628994E+04  0.50400001928E-02 0. -1.
    10030    2    1    2    0    0  0.00000000000E+00  0.00000000000E+00 -0.14902297169E+04  0.33492960819E+04  0.29994998974E+04 0.  0.
        5    1    3    3  502    0 -0.14023168788E+04 -0.31581979089E+03 -0.12227782828E+04  0.18871787376E+04  0.46999998093E+01 0. -1.
       -5    1    3    3    0  502  0.14023168788E+04  0.31581979089E+03 -0.26745143419E+03  0.14621173443E+04  0.46999998093E+01 0.  1.
</event>
<event>
 5   0  0.6525507E-08  0.2999099E+04  0.7818609E-02  0.8243988E-01
       -1   -1    0    0    0  501  0.00000000000E+00  0.00000000000E+00  0.25719357630E+04  0.25719357630E+04  0.50400001928E-02 0. -1.
        1   -1    0    0  501    0  0.00000000000E+00  0.00000000000E+00 -0.87430226526E+03  0.87430226527E+03  0.50400001928E-02 0.  1.
    10030    2    1    2    0    0  0.00000000000E+00  0.00000000000E+00  0.16976334978E+04  0.34462380283E+04  0.29990993740E+04 0.  0.
        4    1    3    3  502    0  0.80694942233E+03  0.74542198322E+02 -0.60100811722E+03  0.10089282826E+04  0.12699999809E+01 0.  1.
       -4    1    3    3    0  502 -0.80694942233E+03 -0.74542198322E+02  0.22986416150E+04  0.24373097457E+04  0.12699999809E+01 0. -1.
</event>
<event>
 5   0  0.1810055E-07  0.3001112E+04  0.7818609E-02  0.8243413E-01
       -2   -1    0    0    0  501  0.00000000000E+00  0.00000000000E+00  0.16806381455E+04  0.16806381455E+04  0.25500000920E-02 0. -1.
        2   -1    0    0  501    0  0.00000000000E+00  0.00000000000E+00 -0.13397698163E+04  0.13397698163E+04  0.25500000920E-02 0.  1.
    10030    2    1    2    0    0  0.00000000000E+00  0.00000000000E+00  0.34086832922E+03  0.30204079618E+04  0.30011119668E+04 0.  0.
        4    1    3    3  502    0 -0.36217090965E+03  0.19348192549E+02 -0.12949925110E+04  0.13448231619E+04  0.12699999809E+01 0.  1.
       -4    1    3    3    0  502  0.36217090965E+03 -0.19348192549E+02  0.16358608402E+04  0.16755847999E+04  0.12699999809E+01 0. -1.
</event>
<event>
 5   0  0.1817566E-07  0.3000005E+04  0.7818609E-02  0.8243729E-01
        2   -1    0    0  501    0  0.00000000000E+00  0.00000000000E+00  0.14903385568E+04  0.14903385568E+04  0.25500000920E-02 0.  1.
       -2   -1    0    0    0  501  0.00000000000E+00  0.00000000000E+00 -0.15097291193E+04  0.15097291193E+04  0.25500000920E-02 0. -1.
    10030    2    1    2    0    0  0.00000000000E+00  0.00000000000E+00 -0.19390562480E+02  0.30000676761E+04  0.30000050112E+04 0.  0.
        1    1    3    3  502    0 -0.97928690499E+03  0.95855100340E+03 -0.61977740446E+03  0.15039770276E+04  0.50400001928E-02 0. -1.
       -1    1    3    3    0  502  0.97928690499E+03 -0.95855100340E+03  0.60038684198E+03  0.14960906485E+04  0.50400001928E-02 0.  1.
</event>
<event>
 5   0  0.1914439E-07  0.2999803E+04  0.7818609E-02  0.8243787E-01
        2   -1    0    0  501    0  0.00000000000E+00  0.00000000000E+00  0.17262790197E+04  0.17262790197E+04  0.25500000920E-02 0. -1.
       -2   -1    0    0    0  501  0.00000000000E+00  0.00000000000E+00 -0.13032098518E+04  0.13032098518E+04  0.25500000920E-02 0.  1.
    10030    2    1    2    0    0  0.00000000000E+00  0.00000000000E+00  0.42306916795E+03  0.30294888715E+04  0.29998025438E+04 0.  0.
        5    1    3    3  502    0  0.94436346341E+03 -0.10816280816E+04  0.64934530594E+03  0.15758848544E+04  0.46999998093E+01 0. -1.
       -5    1    3    3    0  502 -0.94436346341E+03  0.10816280816E+04 -0.22627613799E+03  0.14536040171E+04  0.46999998093E+01 0.  1.
</event>
<event>
 5   0  0.1914439E-07  0.2999156E+04  0.7818609E-02  0.8243972E-01
       -2   -1    0    0    0  501  0.00000000000E+00  0.00000000000E+00  0.17333293812E+04  0.17333293812E+04  0.25500000920E-02 0. -1.
        2   -1    0    0  501    0  0.00000000000E+00  0.00000000000E+00 -0.12973496025E+04  0.12973496025E+04  0.25500000920E-02 0.  1.
    10030    2    1    2    0    0  0.00000000000E+00  0.00000000000E+00  0.43597977873E+03  0.30306789837E+04  0.29991560037E+04 0.  0.
        5    1    3    3  502    0  0.56337455645E+03  0.15960102868E+03  0.16130248535E+04  0.17160229157E+04  0.46999998093E+01 0. -1.
       -5    1    3    3    0  502 -0.56337455645E+03 -0.15960102868E+03 -0.11770450747E+04  0.13146560680E+04  0.46999998093E+01 0.  1.
</event>
<event>
 5   0  0.1914439E-07  0.3000956E+04  0.7818609E-02  0.8243458E-01
       -2   -1    0    0    0  501  0.00000000000E+00  0.00000000000E+00  0.18928503603E+04  0.18928503603E+04  0.25500000920E-02 0.  1.
        2   -1    0    0  501    0  0.00000000000E+00  0.00000000000E+00 -0.11894413332E+04  0.11894413332E+04  0.25500000920E-02 0. -1.
    10030    2    1    2    0    0  0.00000000000E+00  0.00000000000E+00  0.70340902714E+03  0.30822916935E+04  0.30009561517E+04 0.  0.
        5    1    3    3  502    0 -0.95874888432E+03 -0.28500375743E+03 -0.79708450735E+03  0.12789809877E+04  0.46999998093E+01 0. -1.
       -5    1    3    3    0  502  0.95874888432E+03  0.28500375743E+03  0.15004935345E+04  0.18033107059E+04  0.46999998093E+01 0.  1.
</event>
<event>
 5   0  0.6464436E-08  0.2996340E+04  0.7818609E-02  0.8244777E-01
       -1   -1    0    0    0  501  0.00000000000E+00  0.00000000000E+00  0.89690326675E+03  0.89690326676E+03  0.50400001928E-02 0. -1.
        1   -1    0    0  501    0  0.00000000000E+00  0.00000000000E+00 -0.25025140313E+04  0.25025140313E+04  0.50400001928E-02 0.  1.
    10030    2    1    2    0    0  0.00000000000E+00  0.00000000000E+00 -0.16056107646E+04  0.33994172981E+04  0.29963397737E+04 0.  0.
        5    1    3    3  502    0  0.29295196198E+03 -0.90109871248E+03 -0.21193859126E+04  0.23215551852E+04  0.46999998093E+01 0.  1.
       -5    1    3    3    0  502 -0.29295196198E+03  0.90109871248E+03  0.51377514799E+03  0.10778621129E+04  0.46999998093E+01 0. -1.
</event>
<event>
 5   0  0.1817566E-07  0.2999631E+04  0.7818609E-02  0.8243836E-01
       -2   -1    0    0    0  501  0.00000000000E+00  0.00000000000E+00  0.15499288758E+04  0.15499288758E+04  0.25500000920E-02 0. -1.
        2   -1    0    0  501    0  0.00000000000E+00  0.00000000000E+00 -0.14513222382E+04  0.14513222383E+04  0.25500000920E-02 0.  1.
    10030    2    1    2    0    0  0.00000000000E+00  0.00000000000E+00  0.98606637516E+02  0.30012511140E+04  0.29996308074E+04 0.  0.
        1    1    3    3  502    0  0.14839599451E+04  0.17851017185E+03  0.17364129864E+03  0.15047107034E+04  0.50400001928E-02 0.  1.
       -1    1    3    3    0  502 -0.14839599451E+04 -0.17851017185E+03 -0.75034661120E+02  0.14965404106E+04  0.50400001928E-02 0. -1.
</event>
<event>
 5   0  0.6636007E-08  0.3001530E+04  0.7818609E-02  0.8243294E-01
        1   -1    0    0  501    0  0.00000000000E+00  0.00000000000E+00  0.16716456129E+04  0.16716456129E+04  0.50400001928E-02 0. -1.
       -1   -1    0    0    0  501  0.00000000000E+00  0.00000000000E+00 -0.13473519174E+04  0.13473519174E+04  0.50400001928E-02 0.  1.
    10030    2    1    2    0    0  0.00000000000E+00  0.00000000000E+00  0.32429369553E+03  0.30189975303E+04  0.30015295579E+04 0.  0.
        2    1    3    3  502    0  0.11888520453E+03  0.36254203403E+02  0.16664600245E+04  0.16710885891E+04  0.25500000920E-02 0. -1.
       -2    1    3    3    0  502 -0.11888520453E+03 -0.36254203403E+02 -0.13421663290E+04  0.13479089412E+04  0.25500000920E-02 0.  1.
</event>
<event>
 5   0  0.6525507E-08  0.2999255E+04  0.7818609E-02  0.8243944E-01
        1   -1    0    0  501    0  0.00000000000E+00  0.00000000000E+00  0.17343113061E+04  0.17343113061E+04  0.50400001928E-02 0.  1.
       -1   -1    0    0    0  501  0.00000000000E+00  0.00000000000E+00 -0.12967002538E+04  0.12967002538E+04  0.50400001928E-02 0. -1.
    10030    2    1    2    0    0  0.00000000000E+00  0.00000000000E+00  0.43761105226E+03  0.30310115600E+04  0.29992545146E+04 0.  0.
        4    1    3    3  502    0 -0.12094778840E+04  0.88468555508E+03  0.27751552961E+03  0.15239822064E+04  0.12699999809E+01 0.  1.
       -4    1    3    3    0  502  0.12094778840E+04 -0.88468555508E+03  0.16009552265E+03  0.15070293536E+04  0.12699999809E+01 0. -1.
</event>
<event>
 5   0  0.6679022E-08  0.2988831E+04  0.7818609E-02  0.8246928E-01
        1   -1    0    0  501    0  0.00000000000E+00  0.00000000000E+00  0.21108584741E+04  0.21108584741E+04  0.50400001928E-02 0. -1.
       -1   -1    0    0    0  501  0.00000000000E+00  0.00000000000E+00 -0.10579948510E+04  0.10579948510E+04  0.50400001928E-02 0.  1.
    10030    2    1    2    0    0  0.00000000000E+00  0.00000000000E+00  0.10528636231E+04  0.31688533251E+04  0.29888308061E+04 0.  0.
        3    1    3    3  502    0 -0.30229990599E+03 -0.14594100107E+04  0.64264488727E+03  0.16230389009E+04  0.10100000352E+00 0. -1.
       -3    1    3    3    0  502  0.30229990599E+03  0.14594100107E+04  0.41021873582E+03  0.15458144242E+04  0.10100000352E+00 0.  1.
</event>
<event>
 5   0  0.1817566E-07  0.3001301E+04  0.7818609E-02  0.8243359E-01
        2   -1    0    0  501    0  0.00000000000E+00  0.00000000000E+00  0.21398884503E+04  0.21398884503E+04  0.25500000920E-02 0. -1.
       -2   -1    0    0    0  501  0.00000000000E+00  0.00000000000E+00 -0.10523688705E+04  0.10523688706E+04  0.25500000920E-02 0.  1.
    10030    2    1    2    0    0  0.00000000000E+00  0.00000000000E+00  0.10875195798E+04  0.31922573209E+04  0.30013010456E+04 0.  0.
        1    1    3    3  502    0 -0.82561404490E+01 -0.13635148048E+04 -0.12277830889E+03  0.13690563538E+04  0.50400001928E-02 0.  1.
       -1    1    3    3    0  502  0.82561404490E+01  0.13635148048E+04  0.12102978887E+04  0.18232009670E+04  0.50400001928E-02 0. -1.
</event>
<event>
 5   0  0.6525507E-08  0.3003785E+04  0.7818609E-02  0.8242651E-01
        1   -1    0    0  501    0  0.00000000000E+00  0.00000000000E+00  0.20014372752E+04  0.20014372752E+04  0.50400001928E-02 0.  1.
       -1   -1    0    0    0  501  0.00000000000E+00  0.00000000000E+00 -0.11270308950E+04  0.11270308950E+04  0.50400001928E-02 0. -1.
    10030    2    1    2    0    0  0.00000000000E+00  0.00000000000E+00  0.87440638023E+03  0.31284681702E+04  0.30037853742E+04 0.  0.
        4    1    3    3  502    0  0.11886019028E+04 -0.91785747778E+03  0.41527707956E+03  0.15581057405E+04  0.12699999809E+01 0.  1.
       -4    1    3    3    0  502 -0.11886019028E+04  0.91785747778E+03  0.45912930067E+03  0.15703624297E+04  0.12699999809E+01 0. -1.
</event>
<event>
 5   0  0.6525507E-08  0.2999879E+04  0.7818609E-02  0.8243766E-01
       -1   -1    0    0    0  501  0.00000000000E+00  0.00000000000E+00  0.12485716027E+04  0.12485716027E+04  0.50400001928E-02 0. -1.
        1   -1    0    0  501    0  0.00000000000E+00  0.00000000000E+00 -0.18019133069E+04  0.18019133069E+04  0.50400001928E-02 0.  1.
    10030    2    1    2    0    0  0.00000000000E+00  0.00000000000E+00 -0.55334170422E+03  0.30504849096E+04  0.29998785212E+04 0.  0.
        4    1    3    3  502    0  0.51566285270E+03 -0.11126490336E+04  0.60156542839E+03  0.13659350743E+04  0.12699999809E+01 0. -1.
       -4    1    3    3    0  502 -0.51566285270E+03  0.11126490336E+04 -0.11549071326E+04  0.16845498353E+04  0.12699999809E+01 0.  1.
</event>
<event>
 5   0  0.6464436E-08  0.3000386E+04  0.7818609E-02  0.8243621E-01
        1   -1    0    0  501    0  0.00000000000E+00  0.00000000000E+00  0.15893022591E+04  0.15893022591E+04  0.50400001928E-02 0.  1.
       -1   -1    0    0    0  501  0.00000000000E+00  0.00000000000E+00 -0.14160794696E+04  0.14160794696E+04  0.50400001928E-02 0. -1.
    10030    2    1    2    0    0  0.00000000000E+00  0.00000000000E+00  0.17322278951E+03  0.30053817287E+04  0.30003855086E+04 0.  0.
        5    1    3    3  502    0  0.50279968369E+03  0.16823729077E+03  0.14923174002E+04  0.15837122911E+04  0.46999998093E+01 0.  1.
       -5    1    3    3    0  502 -0.50279968369E+03 -0.16823729077E+03 -0.13190946107E+04  0.14216694376E+04  0.46999998093E+01 0. -1.
</event>
<event>
 5   0  0.1821305E-07  0.3000174E+04  0.7818609E-02  0.8243681E-01
        2   -1    0    0  501    0  0.00000000000E+00  0.00000000000E+00  0.14247226984E+04  0.14247226984E+04  0.25500000920E-02 0. -1.
       -2   -1    0    0    0  501  0.00000000000E+00  0.00000000000E+00 -0.15794383275E+04  0.15794383275E+04  0.25500000920E-02 0.  1.
    10030    2    1    2    0    0  0.00000000000E+00  0.00000000000E+00 -0.15471562912E+03  0.30041610259E+04  0.30001744188E+04 0.  0.
        2    1    3    3  502    0  0.13184359051E+04  0.72522391735E+02 -0.79015264604E+03  0.15387897638E+04  0.25500000920E-02 0.  1.
       -2    1    3    3    0  502 -0.13184359051E+04 -0.72522391735E+02  0.63543701692E+03  0.14653712620E+04  0.25500000920E-02 0. -1.
</event>
<event>
 5   0  0.1810055E-07  0.2999936E+04  0.7818609E-02  0.8243749E-01
        2   -1    0    0  501    0  0.00000000000E+00  0.00000000000E+00  0.10282082430E+04  0.10282082430E+04  0.25500000920E-02 0.  1.
       -2   -1    0    0    0  501  0.00000000000E+00  0.00000000000E+00 -0.21881792373E+04  0.21881792373E+04  0.25500000920E-02 0. -1.
    10030    2    1    2    0    0  0.00000000000E+00  0.00000000000E+00 -0.11599709943E+04  0.32163874804E+04  0.29999359520E+04 0.  0.
        4    1    3    3  502    0  0.36627366875E+03 -0.88296467364E+03 -0.18192927720E+04  0.20551425300E+04  0.12699999809E+01 0. -1.
       -4    1    3    3    0  502 -0.36627366875E+03  0.88296467364E+03  0.65932177770E+03  0.11612449504E+04  0.12699999809E+01 0.  1.
</event>
<event>
 5   0  0.1914439E-07  0.2997491E+04  0.7818609E-02  0.8244448E-01
        2   -1    0    0  501    0  0.00000000000E+00  0.00000000000E+00  0.22952808816E+04  0.22952808816E+04  0.25500000920E-02 0.  1.
       -2   -1    0    0    0  501  0.00000000000E+00  0.00000000000E+00 -0.97863322423E+03  0.97863322424E+03  0.25500000920E-02 0. -1.
    10030    2    1    2    0    0  0.00000000000E+00  0.00000000000E+00  0.13166476574E+04  0.32739141058E+04  0.29974910373E+04 0.  0.
        5    1    3    3  502    0  0.56566845272E+02 -0.61067859381E+03  0.21519447785E+04  0.22376363808E+04  0.46999998093E+01 0.  1.
       -5    1    3    3    0  502 -0.56566845272E+02  0.61067859381E+03 -0.83529712111E+03  0.10362777251E+04  0.46999998093E+01 0. -1.
</event>
<event>
 5   0  0.1813720E-07  0.3002551E+04  0.7818609E-02  0.8243003E-01
        2   -1    0    0  501    0  0.00000000000E+00  0.00000000000E+00  0.24142390806E+04  0.24142390806E+04  0.25500000920E-02 0.  1.
       -2   -1    0    0    0  501  0.00000000000E+00  0.00000000000E+00 -0.93355620876E+03  0.93355620876E+03  0.25500000920E-02 0. -1.
    10030    2    1    2    0    0  0.00000000000E+00  0.00000000000E+00  0.14806828718E+04  0.33477952893E+04  0.30025508376E+04 0.  0.
        3    1    3    3  502    0 -0.45152206806E+03 -0.34598101458E+03 -0.80874490216E+03  0.98875849800E+03  0.10100000352E+00 0. -1.
       -3    1    3    3    0  502  0.45152206806E+03  0.34598101458E+03  0.22894277740E+04  0.23590367913E+04  0.10100000352E+00 0.  1.
</event>
<event>
 5   0  0.1914439E-07  0.2996231E+04  0.7818609E-02  0.8244808E-01
        2   -1    0    0  501    0  0.00000000000E+00  0.00000000000E+00  0.25994021256E+04  0.25994021256E+04  0.25500000920E-02 0. -1.
       -2   -1    0    0    0  501  0.00000000000E+00  0.00000000000E+00 -0.86340995737E+03  0.86340995738E+03  0.25500000920E-02 0.  1.
    10030    2    1    2    0    0  0.00000000000E+00  0.00000000000E+00  0.17359921682E+04  0.34628120830E+04  0.29962307511E+04 0.  0.
        5    1    3    3  502    0 -0.34676815814E+03  0.59885475112E+03  0.24036087164E+04  0.25012461134E+04  0.46999998093E+01 0. -1.
       -5    1    3    3    0  502  0.34676815814E+03 -0.59885475112E+03 -0.66761654815E+03  0.96156596956E+03  0.46999998093E+01 0.  1.
</event>
<event>
 5   0  0.1821305E-07  0.2994847E+04  0.7818609E-02  0.8245204E-01
       -2   -1    0    0    0  501  0.00000000000E+00  0.00000000000E+00  0.15366250160E+04  0.15366250160E+04  0.25500000920E-02 0.  1.
        2   -1    0    0  501    0  0.00000000000E+00  0.00000000000E+00 -0.14592218588E+04  0.14592218588E+04  0.25500000920E-02 0. -1.
    10030    2    1    2    0    0  0.00000000000E+00  0.00000000000E+00  0.77403157190E+02  0.29958468747E+04  0.29948467821E+04 0.  0.
        2    1    3    3  502    0  0.65706090043E+03 -0.33159503072E+03  0.13432047387E+04  0.15316276510E+04  0.25500000920E-02 0.  1.
       -2    1    3    3    0  502 -0.65706090043E+03  0.33159503072E+03 -0.12658015815E+04  0.14642192237E+04  0.25500000920E-02 0. -1.
</event>
<event>
 5   0  0.6374748E-08  0.2999970E+04  0.7818609E-02  0.8243739E-01
       -1   -1    0    0    0  501  0.00000000000E+00  0.00000000000E+00  0.10412399781E+04  0.10412399781E+04  0.50400001928E-02 0.  1.
        1   -1    0    0  501    0  0.00000000000E+00  0.00000000000E+00 -0.21608423258E+04  0.21608423258E+04  0.50400001928E-02 0. -1.
    10030    2    1    2    0    0  0.00000000000E+00  0.00000000000E+00 -0.11196023477E+04  0.32020823040E+04  0.29999702773E+04 0.  0.
        1    1    3    3  502    0 -0.72321150314E+03  0.12969643613E+04 -0.78573114800E+03  0.16800371632E+04  0.50400001928E-02 0. -1.
       -1    1    3    3    0  502  0.72321150314E+03 -0.12969643613E+04 -0.33387119970E+03  0.15220451408E+04  0.50400001928E-02 0.  1.
</event>
<event>
 5   0  0.6525507E-08  0.2998455E+04  0.7818609E-02  0.8244172E-01
       -1   -1    0    0    0  501  0.00000000000E+00  0.00000000000E+00  0.10350950703E+04  0.10350950703E+04  0.50400001928E-02 0. -1.
        1   -1    0    0  501    0  0.00000000000E+00  0.00000000000E+00 -0.21714754239E+04  0.21714754239E+04  0.50400001928E-02 0.  1.
    10030    2    1    2    0    0  0.00000000000E+00  0.00000000000E+00 -0.11363803536E+04  0.32065704942E+04  0.29984552733E+04 0.  0.
        4    1    3    3  502    0 -0.47874791398E+02 -0.11016872674E+04 -0.16544023948E+04  0.19882292945E+04  0.12699999809E+01 0.  1.
       -4    1    3    3    0  502  0.47874791398E+02  0.11016872674E+04  0.51802204124E+03  0.12183411997E+04  0.12699999809E+01 0. -1.
</event>
<event>
 5   0  0.1810055E-07  0.3001831E+04  0.7818609E-02  0.8243208E-01
       -2   -1    0    0    0  501  0.00000000000E+00  0.00000000000E+00  0.19459389762E+04  0.19459389762E+04  0.25500000920E-02 0.  1.
        2   -1    0    0  501    0  0.00000000000E+00  0.00000000000E+00 -0.11576657920E+04  0.11576657920E+04  0.25500000920E-02 0. -1.
    10030    2    1    2    0    0  0.00000000000E+00  0.00000000000E+00  0.78827318416E+03  0.31036047682E+04  0.30018307655E+04 0.  0.
        4    1    3    3  502    0 -0.27431439864E+03 -0.89792992919E+03  0.16048283608E+04  0.18593015429E+04  0.12699999809E+01 0.  1.
       -4    1    3    3    0  502  0.27431439864E+03  0.89792992919E+03 -0.81655517664E+03  0.12443032253E+04  0.12699999809E+01 0. -1.
</event>
<event>
 5   0  0.1810055E-07  0.2997330E+04  0.7818609E-02  0.8244494E-01
        2   -1    0    0  501    0  0.00000000000E+00  0.00000000000E+00  0.16149104996E+04  0.16149104996E+04  0.25500000920E-02 0.  1.
       -2   -1    0    0    0  501  0.00000000000E+00  0.00000000000E+00 -0.13907870006E+04  0.13907870006E+04  0.25500000920E-02 0. -1.
    10030    2    1    2    0    0  0.00000000000E+00  0.00000000000E+00  0.22412349895E+03  0.30056975002E+04  0.29973298317E+04 0.  0.
        4    1    3    3  502    0  0.11000359235E+04 -0.99203426432E+03  0.34025779918E+03  0.15198644668E+04  0.12699999809E+01 0.  1.
       -4    1    3    3    0  502 -0.11000359235E+04  0.99203426432E+03 -0.11613430023E+03  0.14858330334E+04  0.12699999809E+01 0. -1.
</event>
<event>
 5   0  0.6636007E-08  0.3004508E+04  0.7818609E-02  0.8242445E-01
       -1   -1    0    0    0  501  0.00000000000E+00  0.00000000000E+00  0.12885040091E+04  0.12885040091E+04  0.50400001928E-02 0.  1.
        1   -1    0    0  501    0  0.00000000000E+00  0.00000000000E+00 -0.17514629238E+04  0.17514629238E+04  0.50400001928E-02 0. -1.
    10030    2    1    2    0    0  0.00000000000E+00  0.00000000000E+00 -0.46295891471E+03  0.30399669329E+04  0.30045079458E+04 0.  0.
        2    1    3    3  502    0 -0.45946754316E+02 -0.63984487640E+03  0.11429537229E+04  0.13106699747E+04  0.25500000920E-02 0.  1.
       -2    1    3    3    0  502  0.45946754316E+02  0.63984487640E+03 -0.16059126376E+04  0.17292969582E+04  0.25500000920E-02 0. -1.
</event>
<event>
 5   0  0.6636007E-08  0.3000861E+04  0.7818609E-02  0.8243485E-01
       -1   -1    0    0    0  501  0.00000000000E+00  0.00000000000E+00  0.16836306639E+04  0.16836306639E+04  0.50400001928E-02 0. -1.
        1   -1    0    0  501    0  0.00000000000E+00  0.00000000000E+00 -0.13371644947E+04  0.13371644947E+04  0.50400001928E-02 0.  1.
    10030    2    1    2    0    0  0.00000000000E+00  0.00000000000E+00  0.34646616916E+03  0.30207951586E+04  0.30008606405E+04 0.  0.
        2    1    3    3  502    0 -0.11370048325E+04  0.35630768710E+03  0.10911876732E+04  0.16156811861E+04  0.25500000920E-02 0. -1.
       -2    1    3    3    0  502  0.11370048325E+04 -0.35630768710E+03 -0.74472150400E+03  0.14051139725E+04  0.25500000920E-02 0.  1.
</event>
<event>
 5   0  0.1821305E-07  0.3000437E+04  0.7818609E-02  0.8243606E-01
        2   -1    0    0  501    0  0.00000000000E+00  0.00000000000E+00  0.30095433656E+04  0.30095433656E+04  0.25500000920E-02 0.  1.
       -2   -1    0    0    0  501  0.00000000000E+00  0.00000000000E+00 -0.74783971981E+03  0.74783971981E+03  0.25500000920E-02 0. -1.
    10030    2    1    2    0    0  0.00000000000E+00  0.00000000000E+00  0.22617036458E+04  0.37573830854E+04  0.30004373463E+04 0.  0.
        2    1    3    3  502    0  0.79149232878E+03  0.50608771711E+03 -0.33387036735E+03  0.99702272097E+03  0.25500000920E-02 0. -1.
       -2    1    3    3    0  502 -0.79149232878E+03 -0.50608771711E+03  0.25955740131E+04  0.27603603644E+04  0.25500000920E-02 0.  1.
</event>
<event>
 5   0  0.1813720E-07  0.2998569E+04  0.7818609E-02  0.8244140E-01
        2   -1    0    0  501    0  0.00000000000E+00  0.00000000000E+00  0.19861856658E+04  0.19861856658E+04  0.25500000920E-02 0.  1.
       -2   -1    0    0    0  501  0.00000000000E+00  0.00000000000E+00 -0.11317443425E+04  0.11317443425E+04  0.25500000920E-02 0. -1.
    10030    2    1    2    0    0  0.00000000000E+00  0.00000000000E+00  0.85444132327E+03  0.31179300082E+04  0.29985692524E+04 0.  0.
        3    1    3    3  502    0 -0.30959706350E+03  0.52428203046E+03 -0.99740161263E+03  0.11685597872E+04  0.10100000352E+00 0. -1.
       -3    1    3    3    0  502  0.30959706350E+03 -0.52428203046E+03  0.18518429359E+04  0.19493702210E+04  0.10100000352E+00 0.  1.
</event>
<event>
 5   0  0.1821305E-07  0.3000235E+04  0.7818609E-02  0.8243664E-01
        2   -1    0    0  501    0  0.00000000000E+00  0.00000000000E+00  0.14232961381E+04  0.14232961381E+04  0.25500000920E-02 0. -1.
       -2   -1    0    0    0  501  0.00000000000E+00  0.00000000000E+00 -0.15810848667E+04  0.15810848667E+04  0.25500000920E-02 0.  1.
    10030    2    1    2    0    0  0.00000000000E+00  0.00000000000E+00 -0.15778872855E+03  0.30043810048E+04  0.30002346474E+04 0.  0.
        2    1    3    3  502    0 -0.54079447253E+03 -0.12519193693E+04 -0.70473105617E+03  0.15350591618E+04  0.25500000920E-02 0.  1.
       -2    1    3    3    0  502  0.54079447253E+03  0.12519193693E+04  0.54694232761E+03  0.14693218430E+04  0.25500000920E-02 0. -1.
</event>
<event>
 5   0  0.1817566E-07  0.2999204E+04  0.7818609E-02  0.8243958E-01
       -2   -1    0    0    0  501  0.00000000000E+00  0.00000000000E+00  0.12693964542E+04  0.12693964542E+04  0.25500000920E-02 0.  1.
        2   -1    0    0  501    0  0.00000000000E+00  0.00000000000E+00 -0.17715556980E+04  0.17715556980E+04  0.25500000920E-02 0. -1.
    10030    2    1    2    0    0  0.00000000000E+00  0.00000000000E+00 -0.50215924372E+03  0.30409521522E+04  0.29992042421E+04 0.  0.
        1    1    3    3  502    0 -0.70128318552E+03 -0.59253416863E+03 -0.14532957882E+04  0.17190007258E+04  0.50400001928E-02 0. -1.
       -1    1    3    3    0  502  0.70128318552E+03  0.59253416863E+03  0.95113654452E+03  0.13219514264E+04  0.50400001928E-02 0.  1.
</event>
<event>
 5   0  0.6464436E-08  0.3008529E+04  0.7818609E-02  0.8241300E-01
       -1   -1    0    0    0  501  0.00000000000E+00  0.00000000000E+00  0.25033329787E+04  0.25033329788E+04  0.50400001928E-02 0. -1.
        1   -1    0    0  501    0  0.00000000000E+00  0.00000000000E+00 -0.90391959988E+03  0.90391959989E+03  0.50400001928E-02 0.  1.
    10030    2    1    2    0    0  0.00000000000E+00  0.00000000000E+00  0.15994133789E+04  0.34072525786E+04  0.30085290389E+04 0.  0.
        5    1    3    3  502    0  0.53871383588E+03 -0.98189096844E+03  0.19370223161E+04  0.22374986065E+04  0.46999998093E+01 0. -1.
       -5    1    3    3    0  502 -0.53871383588E+03  0.98189096844E+03 -0.33760893725E+03  0.11697539722E+04  0.46999998093E+01 0.  1.
</event>
<event>
 5   0  0.1914439E-07  0.3000474E+04  0.7818609E-02  0.8243596E-01
        2   -1    0    0  501    0  0.00000000000E+00  0.00000000000E+00  0.16479252956E+04  0.16479252956E+04  0.25500000920E-02 0. -1.
       -2   -1    0    0    0  501  0.00000000000E+00  0.00000000000E+00 -0.13657847100E+04  0.13657847100E+04  0.25500000920E-02 0.  1.
    10030    2    1    2    0    0  0.00000000000E+00  0.00000000000E+00  0.28214058565E+03  0.30137100056E+04  0.30004740772E+04 0.  0.
        5    1    3    3  502    0  0.52769970231E+03 -0.96840757874E+03 -0.88047516819E+03  0.14112189150E+04  0.46999998093E+01 0.  1.
       -5    1    3    3    0  502 -0.52769970231E+03  0.96840757874E+03  0.11626157538E+04  0.16024910906E+04  0.46999998093E+01 0. -1.
</event>
<event>
 5   0  0.1810055E-07  0.2998427E+04  0.7818609E-02  0.8244180E-01
       -2   -1    0    0    0  501  0.00000000000E+00  0.00000000000E+00  0.13462418301E+04  0.13462418301E+04  0.25500000920E-02 0.  1.
        2   -1    0    0  501    0  0.00000000000E+00  0.00000000000E+00 -0.16695673480E+04  0.16695673480E+04  0.25500000920E-02 0. -1.
    10030    2    1    2    0    0  0.00000000000E+00  0.00000000000E+00 -0.32332551788E+03  0.30158091781E+04  0.29984271891E+04 0.  0.
        4    1    3    3  502    0  0.83922216182E+03  0.10794407829E+04 -0.78016950556E+03  0.15742148237E+04  0.12699999809E+01 0.  1.
       -4    1    3    3    0  502 -0.83922216182E+03 -0.10794407829E+04  0.45684398768E+03  0.14415943544E+04  0.12699999809E+01 0. -1.
</event>
<event>
 5   0  0.1821305E-07  0.3001059E+04  0.7818609E-02  0.8243429E-01
       -2   -1    0    0    0  501  0.00000000000E+00  0.00000000000E+00  0.10530442033E+04  0.10530442033E+04  0.25500000920E-02 0. -1.
        2   -1    0    0  501    0  0.00000000000E+00  0.00000000000E+00 -0.21381709101E+04  0.21381709101E+04  0.25500000920E-02 0.  1.
    10030    2    1    2    0    0  0.00000000000E+00  0.00000000000E+00 -0.10851267068E+04  0.31912151134E+04  0.30010588016E+04 0.  0.
        2    1    3    3  502    0 -0.12409408312E+04 -0.79651637056E+03 -0.24707848473E+03  0.14951321857E+04  0.25500000920E-02 0.  1.
       -2    1    3    3    0  502  0.12409408312E+04  0.79651637056E+03 -0.83804822202E+03  0.16960829277E+04  0.25500000920E-02 0. -1.
</event>
<event>
 5   0  0.6679022E-08  0.3001259E+04  0.7818609E-02  0.8243371E-01
       -1   -1    0    0    0  501  0.00000000000E+00  0.00000000000E+00  0.12378611843E+04  0.12378611844E+04  0.50400001928E-02 0. -1.
        1   -1    0    0  501    0  0.00000000000E+00  0.00000000000E+00 -0.18191772781E+04  0.18191772781E+04  0.50400001928E-02 0.  1.
    10030    2    1    2    0    0  0.00000000000E+00  0.00000000000E+00 -0.58131609376E+03  0.30570384625E+04  0.30012590292E+04 0.  0.
        3    1    3    3  502    0 -0.31412610490E+03  0.13618923681E+04  0.26581303327E+03  0.14227025729E+04  0.10100000352E+00 0. -1.
       -3    1    3    3    0  502  0.31412610490E+03 -0.13618923681E+04 -0.84712912703E+03  0.16343358896E+04  0.10100000352E+00 0.  1.
</event>
<event>
 5   0  0.6464436E-08  0.3002178E+04  0.7818609E-02  0.8243109E-01
       -1   -1    0    0    0  501  0.00000000000E+00  0.00000000000E+00  0.10431998255E+04  0.10431998255E+04  0.50400001928E-02 0. -1.
        1   -1    0    0  501    0  0.00000000000E+00  0.00000000000E+00 -0.21599578144E+04  0.21599578144E+04  0.50400001928E-02 0.  1.
    10030    2    1    2    0    0  0.00000000000E+00  0.00000000000E+00 -0.11167579889E+04  0.32031576399E+04  0.30021776197E+04 0.  0.
        5    1    3    3  502    0  0.14866056508E+03 -0.78939129521E+03 -0.19113418994E+04  0.20732796548E+04  0.46999998093E+01 0.  1.
       -5    1    3    3    0  502 -0.14866056508E+03  0.78939129521E+03  0.79458391044E+03  0.11298779851E+04  0.46999998093E+01 0. -1.
</event>
<event>
 5   0  0.1817566E-07  0.3000238E+04  0.7818609E-02  0.8243663E-01
       -2   -1    0    0    0  501  0.00000000000E+00  0.00000000000E+00  0.10853354124E+04  0.10853354124E+04  0.25500000920E-02 0.  1.
        2   -1    0    0  501    0  0.00000000000E+00  0.00000000000E+00 -0.20734206351E+04  0.20734206351E+04  0.25500000920E-02 0. -1.
    10030    2    1    2    0    0  0.00000000000E+00  0.00000000000E+00 -0.98808522268E+03  0.31587560474E+04  0.30002378839E+04 0.  0.
        1    1    3    3  502    0  0.29992623724E+03  0.32347831248E+03 -0.20035905348E+04  0.20515771976E+04  0.50400001928E-02 0. -1.
       -1    1    3    3    0  502 -0.29992623724E+03 -0.32347831248E+03  0.10155053122E+04  0.11071788498E+04  0.50400001928E-02 0.  1.
</event>
<event>
 5   0  0.1914439E-07  0.2998621E+04  0.7818609E-02  0.8244125E-01
        2   -1    0    0  501    0  0.00000000000E+00  0.00000000000E+00  0.19630786382E+04  0.19630786382E+04  0.25500000920E-02 0. -1.
       -2   -1    0    0    0  501  0.00000000000E+00  0.00000000000E+00 -0.11451051643E+04  0.11451051643E+04  0.25500000920E-02 0.  1.
    10030    2    1    2    0    0  0.00000000000E+00  0.00000000000E+00  0.81797347391E+03  0.31081838025E+04  0.29986206739E+04 0.  0.
        5    1    3    3  502    0  0.11543097562E+04 -0.43345816662E+03 -0.47516995697E+03  0.13214104485E+04  0.46999998093E+01 0.  1.
       -5    1    3    3    0  502 -0.11543097562E+04  0.43345816662E+03  0.12931434309E+04  0.17867733539E+04  0.46999998093E+01 0. -1.
</event>
<event>
 5   0  0.1914439E-07  0.3001892E+04  0.7818609E-02  0.8243191E-01
        2   -1    0    0  501    0  0.00000000000E+00  0.00000000000E+00  0.16062224942E+04  0.16062224942E+04  0.25500000920E-02 0. -1.
       -2   -1    0    0    0  501  0.00000000000E+00  0.00000000000E+00 -0.14025700708E+04  0.14025700708E+04  0.25500000920E-02 0.  1.
    10030    2    1    2    0    0  0.00000000000E+00  0.00000000000E+00  0.20365242345E+03  0.30087925650E+04  0.30018924681E+04 0.  0.
        5    1    3    3  502    0  0.99276439357E+03  0.87909295159E+03 -0.60294860777E+03  0.14566930604E+04  0.46999998093E+01 0.  1.
       -5    1    3    3    0  502 -0.99276439357E+03 -0.87909295159E+03  0.80660103122E+03  0.15520995046E+04  0.46999998093E+01 0. -1.
</event>
<event>
 5   0  0.6525507E-08  0.3011302E+04  0.7818609E-02  0.8240511E-01
        1   -1    0    0  501    0  0.00000000000E+00  0.00000000000E+00  0.18609912225E+04  0.18609912226E+04  0.50400001928E-02 0. -1.
       -1   -1    0    0    0  501  0.00000000000E+00  0.00000000000E+00 -0.12181595674E+04  0.12181595674E+04  0.50400001928E-02 0.  1.
    10030    2    1    2    0    0  0.00000000000E+00  0.00000000000E+00  0.64283165516E+03  0.30791507900E+04  0.30113015542E+04 0.  0.
        4    1    3    3  502    0 -0.55433869884E+03  0.76963160710E+03 -0.87427224733E+03  0.12899526267E+04  0.12699999809E+01 0.  1.
       -4    1    3    3    0  502  0.55433869884E+03 -0.76963160710E+03  0.15171039025E+04  0.17891981633E+04  0.12699999809E+01 0. -1.
</event>
<event>
 5   0  0.6525507E-08  0.2999789E+04  0.7818609E-02  0.8243791E-01
        1   -1    0    0  501    0  0.00000000000E+00  0.00000000000E+00  0.16422758887E+04  0.16422758887E+04  0.50400001928E-02 0.  1.
       -1   -1    0    0    0  501  0.00000000000E+00  0.00000000000E+00 -0.13698567974E+04  0.13698567974E+04  0.50400001928E-02 0. -1.
    10030    2    1    2    0    0  0.00000000000E+00  0.00000000000E+00  0.27241909131E+03  0.30121326861E+04  0.29997885187E+04 0.  0.
        4    1    3    3  502    0  0.98844348750E+03 -0.45713513106E+03 -0.89938705148E+03  0.14124063641E+04  0.12699999809E+01 0. -1.
       -4    1    3    3    0  502 -0.98844348750E+03  0.45713513106E+03  0.11718061428E+04  0.15997263220E+04  0.12699999809E+01 0.  1.
</event>
<event>
 5   0  0.6636007E-08  0.2999436E+04  0.7818609E-02  0.8243892E-01
        1   -1    0    0  501    0  0.00000000000E+00  0.00000000000E+00  0.18291043371E+04  0.18291043371E+04  0.50400001928E-02 0. -1.
       -1   -1    0    0    0  501  0.00000000000E+00  0.00000000000E+00 -0.12296476989E+04  0.12296476989E+04  0.50400001928E-02 0.  1.
    10030    2    1    2    0    0  0.00000000000E+00  0.00000000000E+00  0.59945663821E+03  0.30587520359E+04  0.29994359064E+04 0.  0.
        2    1    3    3  502    0  0.34504031347E+03 -0.59325316545E+03 -0.10601157221E+04  0.12628727095E+04  0.25500000920E-02 0.  1.
       -2    1    3    3    0  502 -0.34504031347E+03  0.59325316545E+03  0.16595723603E+04  0.17958793265E+04  0.25500000920E-02 0. -1.
</event>
<event>
 5   0  0.1817566E-07  0.3000329E+04  0.7818609E-02  0.8243637E-01
       -2   -1    0    0    0  501  0.00000000000E+00  0.00000000000E+00  0.11328203891E+04  0.11328203891E+04  0.25500000920E-02 0.  1.
        2   -1    0    0  501    0  0.00000000000E+00  0.00000000000E+00 -0.19866284012E+04  0.19866284012E+04  0.25500000920E-02 0. -1.
    10030    2    1    2    0    0  0.00000000000E+00  0.00000000000E+00 -0.85380801212E+03  0.31194487904E+04  0.30003287543E+04 0.  0.
        1    1    3    3  502    0 -0.45759313625E+03 -0.71118809990E+03 -0.17151758158E+04  0.19123305339E+04  0.50400001928E-02 0. -1.
       -1    1    3    3    0  502  0.45759313625E+03  0.71118809990E+03  0.86136780369E+03  0.12071182564E+04  0.50400001928E-02 0.  1.
</event>
<event>
 5   0  0.1914439E-07  0.3005182E+04  0.7818609E-02  0.8242253E-01
        2   -1    0    0  501    0  0.00000000000E+00  0.00000000000E+00  0.28360791983E+04  0.28360791983E+04  0.25500000920E-02 0. -1.
       -2   -1    0    0    0  501  0.00000000000E+00  0.00000000000E+00 -0.79609208471E+03  0.79609208471E+03  0.25500000920E-02 0.  1.
    10030    2    1    2    0    0  0.00000000000E+00  0.00000000000E+00  0.20399871136E+04  0.36321712830E+04  0.30051823248E+04 0.  0.
        5    1    3    3  502    0  0.43212515868E+03 -0.89403754471E+03  0.23829806021E+04  0.25815991021E+04  0.46999998093E+01 0. -1.
       -5    1    3    3    0  502 -0.43212515868E+03  0.89403754471E+03 -0.34299348850E+03  0.10505721809E+04  0.46999998093E+01 0.  1.
</event>
<event>
 5   0  0.1813720E-07  0.2997072E+04  0.7818609E-02  0.8244568E-01
       -2   -1    0    0    0  501  0.00000000000E+00  0.00000000000E+00  0.12600505248E+04  0.12600505248E+04  0.25500000920E-02 0.  1.
        2   -1    0    0  501    0  0.00000000000E+00  0.00000000000E+00 -0.17821584207E+04  0.17821584207E+04  0.25500000920E-02 0. -1.
    10030    2    1    2    0    0  0.00000000000E+00  0.00000000000E+00 -0.52210789590E+03  0.30422089455E+04  0.29970716730E+04 0.  0.
        3    1    3    3  502    0  0.13427650529E+04  0.43242735805E+02 -0.93492086881E+03  0.16367543990E+04  0.10100000352E+00 0. -1.
       -3    1    3    3    0  502 -0.13427650529E+04 -0.43242735805E+02  0.41281297291E+03  0.14054545465E+04  0.10100000352E+00 0.  1.
</event>
<event>
 5   0  0.6525507E-08  0.2998318E+04  0.7818609E-02  0.8244211E-01
       -1   -1    0    0    0  501  0.00000000000E+00  0.00000000000E+00  0.14479496182E+04  0.14479496182E+04  0.50400001928E-02 0. -1.
        1   -1    0    0  501    0  0.00000000000E+00  0.00000000000E+00 -0.15521796301E+04  0.15521796301E+04  0.50400001928E-02 0.  1.
    10030    2    1    2    0    0  0.00000000000E+00  0.00000000000E+00 -0.10423001186E+03  0.30001292483E+04  0.29983181304E+04 0.  0.
        4    1    3    3  502    0 -0.42642133672E+03 -0.50697167407E+02  0.13850920276E+04  0.14501334066E+04  0.12699999809E+01 0. -1.
       -4    1    3    3    0  502  0.42642133672E+03  0.50697167407E+02 -0.14893220394E+04  0.15499958417E+04  0.12699999809E+01 0.  1.
</event>
<event>
 5   0  0.1817566E-07  0.3001104E+04  0.7818609E-02  0.8243416E-01
        2   -1    0    0  501    0  0.00000000000E+00  0.00000000000E+00  0.12246683269E+04  0.12246683269E+04  0.25500000920E-02 0. -1.
       -2   -1    0    0    0  501  0.00000000000E+00  0.00000000000E+00 -0.18385842904E+04  0.18385842904E+04  0.25500000920E-02 0.  1.
    10030    2    1    2    0    0  0.00000000000E+00  0.00000000000E+00 -0.61391596355E+03  0.30632526173E+04  0.30011037615E+04 0.  0.
        1    1    3    3  502    0  0.32386611810E+03 -0.14597739023E+04 -0.17854796926E+03  0.15058912596E+04  0.50400001928E-02 0.  1.
       -1    1    3    3    0  502 -0.32386611810E+03  0.14597739023E+04 -0.43536799429E+03  0.15573613578E+04  0.50400001928E-02 0. -1.
</event>
<event>
 5   0  0.6525507E-08  0.3000651E+04  0.7818609E-02  0.8243545E-01
       -1   -1    0    0    0  501  0.00000000000E+00  0.00000000000E+00  0.14243769064E+04  0.14243769064E+04  0.50400001928E-02 0.  1.
        1   -1    0    0  501    0  0.00000000000E+00  0.00000000000E+00 -0.15803232774E+04  0.15803232774E+04  0.50400001928E-02 0. -1.
    10030    2    1    2    0    0  0.00000000000E+00  0.00000000000E+00 -0.15594637094E+03  0.30047001838E+04  0.30006505834E+04 0.  0.
        4    1    3    3  502    0  0.96794206433E+03 -0.96395278555E+03 -0.69917930581E+03  0.15345911922E+04  0.12699999809E+01 0. -1.
       -4    1    3    3    0  502 -0.96794206433E+03  0.96395278555E+03  0.54323293487E+03  0.14701089916E+04  0.12699999809E+01 0.  1.
</event>
<event>
 5   0  0.1813720E-07  0.2998757E+04  0.7818609E-02  0.8244086E-01
        2   -1    0    0  501    0  0.00000000000E+00  0.00000000000E+00  0.17442811417E+04  0.17442811417E+04  0.25500000920E-02 0. -1.
       -2   -1    0    0    0  501  0.00000000000E+00  0.00000000000E+00 -0.12888609943E+04  0.12888609943E+04  0.25500000920E-02 0.  1.
    10030    2    1    2    0    0  0.00000000000E+00  0.00000000000E+00  0.45542014739E+03  0.30331421360E+04  0.29987570269E+04 0.  0.
        3    1    3    3  502    0 -0.21442247440E+03 -0.68399191486E+03 -0.11043240357E+04  0.13165688448E+04  0.10100000352E+00 0.  1.
       -3    1    3    3    0  502  0.21442247440E+03  0.68399191486E+03  0.15597441831E+04  0.17165732912E+04  0.10100000352E+00 0. -1.
</event>
<event>
 5   0  0.1810055E-07  0.3000639E+04  0.7818609E-02  0.8243548E-01
       -2   -1    0    0    0  501  0.00000000000E+00  0.00000000000E+00  0.17572814589E+04  0.17572814589E+04  0.25500000920E-02 0. -1.
        2   -1    0    0  501    0  0.00000000000E+00  0.00000000000E+00 -0.12809322908E+04  0.12809322908E+04  0.25500000920E-02 0.  1.
    10030    2    1    2    0    0  0.00000000000E+00  0.00000000000E+00  0.47634916819E+03  0.30382137497E+04  0.30006389751E+04 0.  0.
        4    1    3    3  502    0 -0.41932294354E+03 -0.43610626911E+03  0.16282966782E+04  0.17370584601E+04  0.12699999809E+01 0. -1.
       -4    1    3    3    0  502  0.41932294354E+03  0.43610626911E+03 -0.11519475100E+04  0.13011552896E+04  0.12699999809E+01 0.  1.
</event>
<event>
 5   0  0.6374748E-08  0.2999821E+04  0.7818609E-02  0.8243782E-01
        1   -1    0    0  501    0  0.00000000000E+00  0.00000000000E+00  0.22851224051E+04  0.22851224051E+04  0.50400001928E-02 0. -1.
       -1   -1    0    0    0  501  0.00000000000E+00  0.00000000000E+00 -0.98451254227E+03  0.98451254228E+03  0.50400001928E-02 0.  1.
    10030    2    1    2    0    0  0.00000000000E+00  0.00000000000E+00  0.13006098628E+04  0.32696349474E+04  0.29998211070E+04 0.  0.
        1    1    3    3  502    0 -0.72920725956E+03  0.78775842783E+03 -0.49149852866E+03  0.11806258390E+04  0.50400001928E-02 0.  1.
       -1    1    3    3    0  502  0.72920725956E+03 -0.78775842783E+03  0.17921083915E+04  0.20890091084E+04  0.50400001928E-02 0. -1.
</event>
<event>
 5   0  0.1817566E-07  0.3001358E+04  0.7818609E-02  0.8243343E-01
       -2   -1    0    0    0  501  0.00000000000E+00  0.00000000000E+00  0.99284761849E+03  0.99284761849E+03  0.25500000920E-02 0.  1.
        2   -1    0    0  501    0  0.00000000000E+00  0.00000000000E+00 -0.22682610252E+04  0.22682610252E+04  0.25500000920E-02 0. -1.
    10030    2    1    2    0    0  0.00000000000E+00  0.00000000000E+00 -0.12754134067E+04  0.32611086437E+04  0.30013580639E+04 0.  0.
        1    1    3    3  502    0  0.67882859751E+03 -0.10147262254E+04 -0.15859057497E+04  0.20013931709E+04  0.50400001928E-02 0. -1.
       -1    1    3    3    0  502 -0.67882859751E+03  0.10147262254E+04  0.31049234301E+03  0.12597154728E+04  0.50400001928E-02 0.  1.
</event>
<event>
 5   0  0.6464436E-08  0.3001665E+04  0.7818609E-02  0.8243256E-01
        1   -1    0    0  501    0  0.00000000000E+00  0.00000000000E+00  0.11736009506E+04  0.11736009506E+04  0.50400001928E-02 0.  1.
       -1   -1    0    0    0  501  0.00000000000E+00  0.00000000000E+00 -0.19193044284E+04  0.19193044284E+04  0.50400001928E-02 0. -1.
    10030    2    1    2    0    0  0.00000000000E+00  0.00000000000E+00 -0.74570347781E+03  0.30929053790E+04  0.30016645394E+04 0.  0.
        5    1    3    3  502    0 -0.61338017512E+02 -0.14891152565E+04 -0.19070506909E+03  0.15025368924E+04  0.46999998093E+01 0.  1.
       -5    1    3    3    0  502  0.61338017512E+02  0.14891152565E+04 -0.55499840872E+03  0.15903684866E+04  0.46999998093E+01 0. -1.
</event>
<event>
 5   0  0.6464436E-08  0.3000442E+04  0.7818609E-02  0.8243605E-01
       -1   -1    0    0    0  501  0.00000000000E+00  0.00000000000E+00  0.15816658694E+04  0.15816658694E+04  0.50400001928E-02 0. -1.
        1   -1    0    0  501    0  0.00000000000E+00  0.00000000000E+00 -0.14229695150E+04  0.14229695151E+04  0.50400001928E-02 0.  1.
    10030    2    1    2    0    0  0.00000000000E+00  0.00000000000E+00  0.15869635437E+03  0.30046353845E+04  0.30004415110E+04 0.  0.
        5    1    3    3  502    0  0.11707361998E+04  0.87118648540E+03  0.42775845047E+03  0.15207197388E+04  0.46999998093E+01 0. -1.
       -5    1    3    3    0  502 -0.11707361998E+04 -0.87118648540E+03 -0.26906209610E+03  0.14839156457E+04  0.46999998093E+01 0.  1.
</event>
<event>
 5   0  0.6374748E-08  0.3003817E+04  0.7818609E-02  0.8242642E-01
       -1   -1    0    0    0  501  0.00000000000E+00  0.00000000000E+00  0.13354586679E+04  0.13354586679E+04  0.50400001928E-02 0.  1.
        1   -1    0    0  501    0  0.00000000000E+00  0.00000000000E+00 -0.16891043596E+04  0.16891043596E+04  0.50400001928E-02 0. -1.
    10030    2    1    2    0    0  0.00000000000E+00  0.00000000000E+00 -0.35364569169E+03  0.30245630276E+04  0.30038169439E+04 0.  0.
        1    1    3    3  502    0  0.11457938352E+04  0.67333396972E+03 -0.88130271892E+03  0.15946525108E+04  0.50400001928E-02 0. -1.
       -1    1    3    3    0  502 -0.11457938352E+04 -0.67333396972E+03  0.52765702723E+03  0.14299105168E+04  0.50400001928E-02 0.  1.
</event>
<event>
 5   0  0.6679022E-08  0.2992682E+04  0.7818609E-02  0.8245824E-01
        1   -1    0    0  501    0  0.00000000000E+00  0.00000000000E+00  0.20384418533E+04  0.20384418533E+04  0.50400001928E-02 0. -1.
       -1   -1    0    0    0  501  0.00000000000E+00  0.00000000000E+00 -0.10984055583E+04  0.10984055583E+04  0.50400001928E-02 0.  1.
    10030    2    1    2    0    0  0.00000000000E+00  0.00000000000E+00  0.94003629496E+03  0.31368474116E+04  0.29926816482E+04 0.  0.
        3    1    3    3  502    0 -0.66652140275E+03 -0.12236638704E+04  0.10416633662E+04  0.17397317686E+04  0.10100000352E+00 0. -1.
       -3    1    3    3    0  502  0.66652140275E+03  0.12236638704E+04 -0.10162707123E+03  0.13971156430E+04  0.10100000352E+00 0.  1.
</event>
<event>
 5   0  0.6679022E-08  0.3007640E+04  0.7818609E-02  0.8241553E-01
        1   -1    0    0  501    0  0.00000000000E+00  0.00000000000E+00  0.14350517099E+04  0.14350517099E+04  0.50400001928E-02 0. -1.
       -1   -1    0    0    0  501  0.00000000000E+00  0.00000000000E+00 -0.15758832660E+04  0.15758832660E+04  0.50400001928E-02 0.  1.
    10030    2    1    2    0    0  0.00000000000E+00  0.00000000000E+00 -0.14083155616E+03  0.30109349759E+04  0.30076395897E+04 0.  0.
        3    1    3    3  502    0 -0.12376482186E+04  0.38132044902E+02  0.78389301425E+03  0.14655085922E+04  0.10100000352E+00 0. -1.
       -3    1    3    3    0  502  0.12376482186E+04 -0.38132044902E+02 -0.92472457041E+03  0.15454263836E+04  0.10100000352E+00 0.  1.
</event>
<event>
 5   0  0.6525507E-08  0.2990393E+04  0.7818609E-02  0.8246480E-01
        1   -1    0    0  501    0  0.00000000000E+00  0.00000000000E+00  0.14391494263E+04  0.14391494263E+04  0.50400001928E-02 0. -1.
       -1   -1    0    0    0  501  0.00000000000E+00  0.00000000000E+00 -0.15534263278E+04  0.15534263278E+04  0.50400001928E-02 0.  1.
    10030    2    1    2    0    0  0.00000000000E+00  0.00000000000E+00 -0.11427690147E+03  0.29925757541E+04  0.29903930233E+04 0.  0.
        4    1    3    3  502    0  0.66767455810E+03 -0.94567783166E+03 -0.10041457868E+04  0.15324510599E+04  0.12699999809E+01 0.  1.
       -4    1    3    3    0  502 -0.66767455810E+03  0.94567783166E+03  0.88986888534E+03  0.14601246943E+04  0.12699999809E+01 0. -1.
</event>
<event>
 5   0  0.6679022E-08  0.2999949E+04  0.7818609E-02  0.8243745E-01
        1   -1    0    0  501    0  0.00000000000E+00  0.00000000000E+00  0.13825697274E+04  0.13825697274E+04  0.50400001928E-02 0. -1.
       -1   -1    0    0    0  501  0.00000000000E+00  0.00000000000E+00 -0.16273489250E+04  0.16273489250E+04  0.50400001928E-02 0.  1.
    10030    2    1    2    0    0  0.00000000000E+00  0.00000000000E+00 -0.24477919766E+03  0.30099186524E+04  0.29999489060E+04 0.  0.
        3    1    3    3  502    0  0.67824204534E+03  0.10376189566E+04  0.72496310460E+03  0.14360490536E+04  0.10100000352E+00 0. -1.
       -3    1    3    3    0  502 -0.67824204534E+03 -0.10376189566E+04 -0.96974230226E+03  0.15738695988E+04  0.10100000352E+00 0.  1.
</event>
<event>
 5   0  0.6374748E-08  0.2999841E+04  0.7818609E-02  0.8243776E-01
       -1   -1    0    0    0  501  0.00000000000E+00  0.00000000000E+00  0.16540287634E+04  0.16540287634E+04  0.50400001928E-02 0. -1.
        1   -1    0    0  501    0  0.00000000000E+00  0.00000000000E+00 -0.13601703800E+04  0.13601703801E+04  0.50400001928E-02 0.  1.
    10030    2    1    2    0    0  0.00000000000E+00  0.00000000000E+00  0.29385838335E+03  0.30141991435E+04  0.29998406169E+04 0.  0.
        1    1    3    3  502    0 -0.95357667056E+03  0.13869835522E+03  0.13018721808E+04  0.16196965381E+04  0.50400001928E-02 0. -1.
       -1    1    3    3    0  502  0.95357667056E+03 -0.13869835522E+03 -0.10080137975E+04  0.13945026053E+04  0.50400001928E-02 0.  1.
</event>
<event>
 5   0  0.6464436E-08  0.3005041E+04  0.7818609E-02  0.8242293E-01
        1   -1    0    0  501    0  0.00000000000E+00  0.00000000000E+00  0.20719130556E+04  0.20719130556E+04  0.50400001928E-02 0. -1.
       -1   -1    0    0    0  501  0.00000000000E+00  0.00000000000E+00 -0.10896055057E+04  0.10896055057E+04  0.50400001928E-02 0.  1.
    10030    2    1    2    0    0  0.00000000000E+00  0.00000000000E+00  0.98230754997E+03  0.31615185613E+04  0.30050410132E+04 0.  0.
        5    1    3    3  502    0  0.13169949578E+04 -0.70324201612E+02 -0.26613658092E+03  0.13454634822E+04  0.46999998093E+01 0.  1.
       -5    1    3    3    0  502 -0.13169949578E+04  0.70324201612E+02  0.12484441309E+04  0.18160550791E+04  0.46999998093E+01 0. -1.
</event>
<event>
 5   0  0.1813720E-07  0.3001897E+04  0.7818609E-02  0.8243189E-01
        2   -1    0    0  501    0  0.00000000000E+00  0.00000000000E+00  0.28334705569E+04  0.28334705569E+04  0.25500000920E-02 0.  1.
       -2   -1    0    0    0  501  0.00000000000E+00  0.00000000000E+00 -0.79508361386E+03  0.79508361386E+03  0.25500000920E-02 0. -1.
    10030    2    1    2    0    0  0.00000000000E+00  0.00000000000E+00  0.20383869430E+04  0.36285541707E+04  0.30018967405E+04 0.  0.
        3    1    3    3  502    0 -0.31323812759E+03  0.11857807044E+04  0.20650638317E+04  0.24018082027E+04  0.10100000352E+00 0.  1.
       -3    1    3    3    0  502  0.31323812759E+03 -0.11857807044E+04 -0.26676888688E+02  0.12267459680E+04  0.10100000352E+00 0. -1.
</event>
<event>
 5   0  0.1821305E-07  0.3009554E+04  0.7818609E-02  0.8241008E-01
       -2   -1    0    0    0  501  0.00000000000E+00  0.00000000000E+00  0.15685946648E+04  0.15685946648E+04  0.25500000920E-02 0. -1.
        2   -1    0    0  501    0  0.00000000000E+00  0.00000000000E+00 -0.14435560451E+04  0.14435560451E+04  0.25500000920E-02 0.  1.
    10030    2    1    2    0    0  0.00000000000E+00  0.00000000000E+00  0.12503861973E+03  0.30121507099E+04  0.30095543263E+04 0.  0.
        2    1    3    3  502    0 -0.13744394453E+04  0.53041452460E+03  0.36926528781E+03  0.15188088127E+04  0.25500000920E-02 0. -1.
       -2    1    3    3    0  502  0.13744394453E+04 -0.53041452460E+03 -0.24422666808E+03  0.14933418972E+04  0.25500000920E-02 0.  1.
</event>
<event>
 5   0  0.6464436E-08  0.2999717E+04  0.7818609E-02  0.8243812E-01
       -1   -1    0    0    0  501  0.00000000000E+00  0.00000000000E+00  0.11637586567E+04  0.11637586567E+04  0.50400001928E-02 0.  1.
        1   -1    0    0  501    0  0.00000000000E+00  0.00000000000E+00 -0.19330257758E+04  0.19330257758E+04  0.50400001928E-02 0. -1.
    10030    2    1    2    0    0  0.00000000000E+00  0.00000000000E+00 -0.76926711908E+03  0.30967844325E+04  0.29997169735E+04 0.  0.
        5    1    3    3  502    0 -0.17393827874E+03  0.13072186501E+04 -0.11222308674E+04  0.17316175483E+04  0.46999998093E+01 0. -1.
       -5    1    3    3    0  502  0.17393827874E+03 -0.13072186501E+04  0.35296374832E+03  0.13651668842E+04  0.46999998093E+01 0.  1.
</event>
<event>
 5   0  0.1813720E-07  0.2999616E+04  0.7818609E-02  0.8243840E-01
       -2   -1    0    0    0  501  0.00000000000E+00  0.00000000000E+00  0.15796269552E+04  0.15796269552E+04  0.25500000920E-02 0.  1.
        2   -1    0    0  501    0  0.00000000000E+00  0.00000000000E+00 -0.14240225228E+04  0.14240225228E+04  0.25500000920E-02 0. -1.
    10030    2    1    2    0    0  0.00000000000E+00  0.00000000000E+00  0.15560443241E+03  0.30036494779E+04  0.29996162166E+04 0.  0.
        3    1    3    3  502    0 -0.47501107250E+03 -0.22772338313E+03  0.14839449349E+04  0.15746701363E+04  0.10100000352E+00 0.  1.
       -3    1    3    3    0  502  0.47501107250E+03  0.22772338313E+03 -0.13283405024E+04  0.14289793416E+04  0.10100000352E+00 0. -1.
</event>
<event>
 5   0  0.1817566E-07  0.2999502E+04  0.7818609E-02  0.8243873E-01
       -2   -1    0    0    0  501  0.00000000000E+00  0.00000000000E+00  0.13009852207E+04  0.13009852207E+04  0.25500000920E-02 0.  1.
        2   -1    0    0  501    0  0.00000000000E+00  0.00000000000E+00 -0.17288840648E+04  0.17288840648E+04  0.25500000920E-02 0. -1.
    10030    2    1    2    0    0  0.00000000000E+00  0.00000000000E+00 -0.42789884404E+03  0.30298692855E+04  0.29995017031E+04 0.  0.
        1    1    3    3  502    0  0.22231970952E+03  0.82431860145E+03  0.10315486407E+04  0.13390368957E+04  0.50400001928E-02 0.  1.
       -1    1    3    3    0  502 -0.22231970952E+03 -0.82431860145E+03 -0.14594474847E+04  0.16908323898E+04  0.50400001928E-02 0. -1.
</event>
<event>
 5   0  0.1810055E-07  0.3000566E+04  0.7818609E-02  0.8243569E-01
        2   -1    0    0  501    0  0.00000000000E+00  0.00000000000E+00  0.23834159254E+04  0.23834159254E+04  0.25500000920E-02 0.  1.
       -2   -1    0    0    0  501  0.00000000000E+00  0.00000000000E+00 -0.94437955755E+03  0.94437955755E+03  0.25500000920E-02 0. -1.
    10030    2    1    2    0    0  0.00000000000E+00  0.00000000000E+00  0.14390363678E+04  0.33277954829E+04  0.30005661313E+04 0.  0.
        4    1    3    3  502    0  0.30698561691E+02 -0.85721865147E+03  0.20846400243E+04  0.22542164629E+04  0.12699999809E+01 0.  1.
       -4    1    3    3    0  502 -0.30698561691E+02  0.85721865147E+03 -0.64560365642E+03  0.10735790200E+04  0.12699999809E+01 0. -1.
</event>
<event>
 5   0  0.1821305E-07  0.3000204E+04  0.7818609E-02  0.8243673E-01
       -2   -1    0    0    0  501  0.00000000000E+00  0.00000000000E+00  0.10925194320E+04  0.10925194320E+04  0.25500000920E-02 0.  1.
        2   -1    0    0  501    0  0.00000000000E+00  0.00000000000E+00 -0.20597398740E+04  0.20597398740E+04  0.25500000920E-02 0. -1.
    10030    2    1    2    0    0  0.00000000000E+00  0.00000000000E+00 -0.96722044196E+03  0.31522593060E+04  0.30002038845E+04 0.  0.
        2    1    3    3  502    0  0.67396036848E+03 -0.92499470704E+03 -0.15025375006E+04  0.18887712215E+04  0.25500000920E-02 0. -1.
       -2    1    3    3    0  502 -0.67396036848E+03  0.92499470704E+03  0.53531705866E+03  0.12634880845E+04  0.25500000920E-02 0.  1.
</event>
<event>
 5   0  0.6464436E-08  0.3001530E+04  0.7818609E-02  0.8243294E-01
        1   -1    0    0  501    0  0.00000000000E+00  0.00000000000E+00  0.23525206720E+04  0.23525206720E+04  0.50400001928E-02 0. -1.
       -1   -1    0    0    0  501  0.00000000000E+00  0.00000000000E+00 -0.95739692688E+03  0.95739692690E+03  0.50400001928E-02 0.  1.
    10030    2    1    2    0    0  0.00000000000E+00  0.00000000000E+00  0.13951237451E+04  0.33099175989E+04  0.30015303175E+04 0.  0.
        5    1    3    3  502    0  0.12690528155E+03  0.99951388737E+03  0.19241084628E+04  0.21719457701E+04  0.46999998093E+01 0. -1.
       -5    1    3    3    0  502 -0.12690528155E+03 -0.99951388737E+03 -0.52898471772E+03  0.11379718288E+04  0.46999998093E+01 0.  1.
</event>
<event>
 5   0  0.1821305E-07  0.3000908E+04  0.7818609E-02  0.8243472E-01
        2   -1    0    0  501    0  0.00000000000E+00  0.00000000000E+00  0.13934141248E+04  0.13934141248E+04  0.25500000920E-02 0. -1.
       -2   -1    0    0    0  501  0.00000000000E+00  0.00000000000E+00 -0.16157161307E+04  0.16157161307E+04  0.25500000920E-02 0.  1.
    10030    2    1    2    0    0  0.00000000000E+00  0.00000000000E+00 -0.22230200585E+03  0.30091302555E+04  0.30009076482E+04 0.  0.
        2    1    3    3  502    0 -0.50974993763E+03  0.10661180102E+04  0.81599540217E+03  0.14360714143E+04  0.25500000920E-02 0. -1.
       -2    1    3    3    0  502  0.50974993763E+03 -0.10661180102E+04 -0.10382974080E+04  0.15730588413E+04  0.25500000920E-02 0.  1.
</event>
<event>
 5   0  0.6464436E-08  0.3001243E+04  0.7818609E-02  0.8243376E-01
       -1   -1    0    0    0  501  0.00000000000E+00  0.00000000000E+00  0.15767201298E+04  0.15767201298E+04  0.50400001928E-02 0. -1.
        1   -1    0    0  501    0  0.00000000000E+00  0.00000000000E+00 -0.14281955298E+04  0.14281955298E+04  0.50400001928E-02 0.  1.
    10030    2    1    2    0    0  0.00000000000E+00  0.00000000000E+00  0.14852460005E+03  0.30049156596E+04  0.30012428366E+04 0.  0.
        5    1    3    3  502    0  0.30870149695E+03  0.14442925563E+04 -0.19170342073E+03  0.14893118860E+04  0.46999998093E+01 0.  1.
       -5    1    3    3    0  502 -0.30870149695E+03 -0.14442925563E+04  0.34022802078E+03  0.15156037736E+04  0.46999998093E+01 0. -1.
</event>
<event>
 5   0  0.6525507E-08  0.2999086E+04  0.7818609E-02  0.8243992E-01
       -1   -1    0    0    0  501  0.00000000000E+00  0.00000000000E+00  0.17128304453E+04  0.17128304453E+04  0.50400001928E-02 0. -1.
        1   -1    0    0  501    0  0.00000000000E+00  0.00000000000E+00 -0.13128145155E+04  0.13128145156E+04  0.50400001928E-02 0.  1.
    10030    2    1    2    0    0  0.00000000000E+00  0.00000000000E+00  0.40001592975E+03  0.30256449609E+04  0.29990856415E+04 0.  0.
        4    1    3    3  502    0  0.52699333864E+03 -0.13393512302E+04  0.62449938925E+03  0.15689438476E+04  0.12699999809E+01 0. -1.
       -4    1    3    3    0  502 -0.52699333864E+03  0.13393512302E+04 -0.22448345949E+03  0.14567011133E+04  0.12699999809E+01 0.  1.
</event>
<event>
 5   0  0.6636007E-08  0.2999455E+04  0.7818609E-02  0.8243887E-01
        1   -1    0    0  501    0  0.00000000000E+00  0.00000000000E+00  0.96163811459E+03  0.96163811460E+03  0.50400001928E-02 0.  1.
       -1   -1    0    0    0  501  0.00000000000E+00  0.00000000000E+00 -0.23389069423E+04  0.23389069423E+04  0.50400001928E-02 0. -1.
    10030    2    1    2    0    0  0.00000000000E+00  0.00000000000E+00 -0.13772688277E+04  0.33005450569E+04  0.29994546586E+04 0.  0.
        2    1    3    3  502    0 -0.12882873830E+04 -0.49853731981E+03 -0.46103617433E+02  0.13821538931E+04  0.25500000920E-02 0.  1.
       -2    1    3    3    0  502  0.12882873830E+04  0.49853731981E+03 -0.13311652103E+04  0.19183911639E+04  0.25500000920E-02 0. -1.
</event>
<event>
 5   0  0.6525507E-08  0.3003053E+04  0.7818609E-02  0.8242860E-01
        1   -1    0    0  501    0  0.00000000000E+00  0.00000000000E+00  0.14608136221E+04  0.14608136221E+04  0.50400001928E-02 0.  1.
       -1   -1    0    0    0  501  0.00000000000E+00  0.00000000000E+00 -0.15433741822E+04  0.15433741822E+04  0.50400001928E-02 0. -1.
    10030    2    1    2    0    0  0.00000000000E+00  0.00000000000E+00 -0.82560560114E+02  0.30041878044E+04  0.30030531327E+04 0.  0.
        4    1    3    3  502    0 -0.10770614920E+04 -0.52239658220E+03  0.86549519846E+03  0.14771740582E+04  0.12699999809E+01 0.  1.
       -4    1    3    3    0  502  0.10770614920E+04  0.52239658220E+03 -0.94805575857E+03  0.15270137462E+04  0.12699999809E+01 0. -1.
</event>
<event>
 5   0  0.1817566E-07  0.3004369E+04  0.7818609E-02  0.8242484E-01
       -2   -1    0    0    0  501  0.00000000000E+00  0.00000000000E+00  0.17586722072E+04  0.17586722072E+04  0.25500000920E-02 0. -1.
        2   -1    0    0  501    0  0.00000000000E+00  0.00000000000E+00 -0.12831032816E+04  0.12831032816E+04  0.25500000920E-02 0.  1.
    10030    2    1    2    0    0  0.00000000000E+00  0.00000000000E+00  0.47556892567E+03  0.30417754888E+04  0.30043688724E+04 0.  0.
        1    1    3    3  502    0  0.26331371956E+03  0.31652466827E+03  0.17004293011E+04  0.17495661715E+04  0.50400001928E-02 0. -1.
       -1    1    3    3    0  502 -0.26331371956E+03 -0.31652466827E+03 -0.12248603754E+04  0.12922093173E+04  0.50400001928E-02 0.  1.
</event>
<event>
 5   0  0.1810055E-07  0.3003050E+04  0.7818609E-02  0.8242861E-01
       -2   -1    0    0    0  501  0.00000000000E+00  0.00000000000E+00  0.11238046823E+04  0.11238046823E+04  0.25500000920E-02 0. -1.
        2   -1    0    0  501    0  0.00000000000E+00  0.00000000000E+00 -0.20061999658E+04  0.20061999658E+04  0.25500000920E-02 0.  1.
    10030    2    1    2    0    0  0.00000000000E+00  0.00000000000E+00 -0.88239528350E+03  0.31300046482E+04  0.30030497267E+04 0.  0.
        4    1    3    3  502    0  0.77018481337E+03 -0.46256056188E+03 -0.16951498975E+04  0.19185102835E+04  0.12699999809E+01 0.  1.
       -4    1    3    3    0  502 -0.77018481337E+03  0.46256056188E+03  0.81275461397E+03  0.12114943647E+04  0.12699999809E+01 0. -1.
</event>
<event>
 5   0  0.6679022E-08  0.3000438E+04  0.7818609E-02  0.8243606E-01
       -1   -1    0    0    0  501  0.00000000000E+00  0.00000000000E+00  0.18053112354E+04  0.18053112354E+04  0.50400001928E-02 0. -1.
        1   -1    0    0  501    0  0.00000000000E+00  0.00000000000E+00 -0.12466861448E+04  0.12466861448E+04  0.50400001928E-02 0.  1.
    10030    2    1    2    0    0  0.00000000000E+00  0.00000000000E+00  0.55862509065E+03  0.30519973802E+04  0.30004376376E+04 0.  0.
        3    1    3    3  502    0  0.13526790538E+04  0.96299122531E+02  0.93193133957E+03  0.16454513592E+04  0.10100000352E+00 0. -1.
       -3    1    3    3    0  502 -0.13526790538E+04 -0.96299122531E+02 -0.37330624891E+03  0.14065460210E+04  0.10100000352E+00 0.  1.
</event>
<event>
 5   0  0.1813720E-07  0.2996979E+04  0.7818609E-02  0.8244594E-01
       -2   -1    0    0    0  501  0.00000000000E+00  0.00000000000E+00  0.11672517634E+04  0.11672517634E+04  0.25500000920E-02 0. -1.
        2   -1    0    0  501    0  0.00000000000E+00  0.00000000000E+00 -0.19237250885E+04  0.19237250885E+04  0.25500000920E-02 0.  1.
    10030    2    1    2    0    0  0.00000000000E+00  0.00000000000E+00 -0.75647332509E+03  0.30909768519E+04  0.29969794806E+04 0.  0.
        3    1    3    3  502    0  0.77854152867E+03 -0.93430097715E+03  0.52467897073E+03  0.13245124614E+04  0.10100000352E+00 0. -1.
       -3    1    3    3    0  502 -0.77854152867E+03  0.93430097715E+03 -0.12811522958E+04  0.17664643905E+04  0.10100000352E+00 0.  1.
</event>
<event>
 5   0  0.6679022E-08  0.2999399E+04  0.7818609E-02  0.8243902E-01
        1   -1    0    0  501    0  0.00000000000E+00  0.00000000000E+00  0.20879262370E+04  0.20879262371E+04  0.50400001928E-02 0. -1.
       -1   -1    0    0    0  501  0.00000000000E+00  0.00000000000E+00 -0.10771926676E+04  0.10771926676E+04  0.50400001928E-02 0.  1.
    10030    2    1    2    0    0  0.00000000000E+00  0.00000000000E+00  0.10107335695E+04  0.31651189046E+04  0.29993991618E+04 0.  0.
        3    1    3    3  502    0  0.52970960745E+03 -0.64807629583E+03 -0.80777579375E+03  0.11632269325E+04  0.10100000352E+00 0.  1.
       -3    1    3    3    0  502 -0.52970960745E+03  0.64807629583E+03  0.18185093632E+04  0.20018919721E+04  0.10100000352E+00 0. -1.
</event>
<event>
 5   0  0.6636007E-08  0.2997955E+04  0.7818609E-02  0.8244315E-01
        1   -1    0    0  501    0  0.00000000000E+00  0.00000000000E+00  0.17285749717E+04  0.17285749717E+04  0.50400001928E-02 0. -1.
       -1   -1    0    0    0  501  0.00000000000E+00  0.00000000000E+00 -0.12998763611E+04  0.12998763611E+04  0.50400001928E-02 0.  1.
    10030    2    1    2    0    0  0.00000000000E+00  0.00000000000E+00  0.42869861057E+03  0.30284513328E+04  0.29979551325E+04 0.  0.
        2    1    3    3  502    0  0.12282322234E+04  0.19761379343E+03  0.10591144209E+04  0.16338081168E+04  0.25500000920E-02 0. -1.
       -2    1    3    3    0  502 -0.12282322234E+04 -0.19761379343E+03 -0.63041581034E+03  0.13946432160E+04  0.25500000920E-02 0.  1.
</event>
<event>
 5   0  0.1821305E-07  0.3000179E+04  0.7818609E-02  0.8243680E-01
       -2   -1    0    0    0  501  0.00000000000E+00  0.00000000000E+00  0.72600258112E+03  0.72600258113E+03  0.25500000920E-02 0. -1.
        2   -1    0    0  501    0  0.00000000000E+00  0.00000000000E+00 -0.30995333631E+04  0.30995333631E+04  0.25500000920E-02 0.  1.
    10030    2    1    2    0    0  0.00000000000E+00  0.00000000000E+00 -0.23735307820E+04  0.38255359442E+04  0.30001794759E+04 0.  0.
        2    1    3    3  502    0  0.12231591638E+04 -0.43424487640E+03 -0.21457087241E+04  0.25077385991E+04  0.25500000920E-02 0.  1.
       -2    1    3    3    0  502 -0.12231591638E+04  0.43424487640E+03 -0.22782205784E+03  0.13177973451E+04  0.25500000920E-02 0. -1.
</event>
<event>
 5   0  0.6464436E-08  0.3003274E+04  0.7818609E-02  0.8242796E-01
       -1   -1    0    0    0  501  0.00000000000E+00  0.00000000000E+00  0.15557701169E+04  0.15557701169E+04  0.50400001928E-02 0. -1.
        1   -1    0    0  501    0  0.00000000000E+00  0.00000000000E+00 -0.14493878164E+04  0.14493878164E+04  0.50400001928E-02 0.  1.
    10030    2    1    2    0    0  0.00000000000E+00  0.00000000000E+00  0.10638230048E+03  0.30051579333E+04  0.30032743815E+04 0.  0.
        5    1    3    3  502    0  0.14532909093E+04 -0.25506595827E+03  0.33225502081E+03  0.15124578007E+04  0.46999998093E+01 0. -1.
       -5    1    3    3    0  502 -0.14532909093E+04  0.25506595827E+03 -0.22587272032E+03  0.14927001326E+04  0.46999998093E+01 0.  1.
</event>
<event>
 5   0  0.6374748E-08  0.3003080E+04  0.7818609E-02  0.8242852E-01
        1   -1    0    0  501    0  0.00000000000E+00  0.00000000000E+00  0.17151043220E+04  0.17151043220E+04  0.50400001928E-02 0.  1.
       -1   -1    0    0    0  501  0.00000000000E+00  0.00000000000E+00 -0.13145683666E+04  0.13145683666E+04  0.50400001928E-02 0. -1.
    10030    2    1    2    0    0  0.00000000000E+00  0.00000000000E+00  0.40053595536E+03  0.30296726886E+04  0.30030796773E+04 0.  0.
        1    1    3    3  502    0 -0.10837569047E+04 -0.28298378795E+03 -0.80859384382E+03  0.13814604073E+04  0.50400001928E-02 0. -1.
       -1    1    3    3    0  502  0.10837569047E+04  0.28298378795E+03  0.12091297992E+04  0.16482122812E+04  0.50400001928E-02 0.  1.
</event>
<event>
 5   0  0.1810055E-07  0.2999666E+04  0.7818609E-02  0.8243826E-01
       -2   -1    0    0    0  501  0.00000000000E+00  0.00000000000E+00  0.13525620706E+04  0.13525620706E+04  0.25500000920E-02 0. -1.
        2   -1    0    0  501    0  0.00000000000E+00  0.00000000000E+00 -0.16631388663E+04  0.16631388663E+04  0.25500000920E-02 0.  1.
    10030    2    1    2    0    0  0.00000000000E+00  0.00000000000E+00 -0.31057679569E+03  0.30157009369E+04  0.29996656805E+04 0.  0.
        4    1    3    3  502    0  0.12562100847E+03 -0.11863049088E+03 -0.16530993147E+04  0.16621049270E+04  0.12699999809E+01 0.  1.
       -4    1    3    3    0  502 -0.12562100847E+03  0.11863049088E+03  0.13425225190E+04  0.13535960099E+04  0.12699999809E+01 0. -1.
</event>
<event>
 5   0  0.6374748E-08  0.3000008E+04  0.7818609E-02  0.8243729E-01
        1   -1    0    0  501    0  0.00000000000E+00  0.00000000000E+00  0.17173981321E+04  0.17173981321E+04  0.50400001928E-02 0. -1.
       -1   -1    0    0    0  501  0.00000000000E+00  0.00000000000E+00 -0.13101283958E+04  0.13101283958E+04  0.50400001928E-02 0.  1.
    10030    2    1    2    0    0  0.00000000000E+00  0.00000000000E+00  0.40726973631E+03  0.30275265280E+04  0.30000080399E+04 0.  0.
        1    1    3    3  502    0 -0.14590476131E+04 -0.24882281645E+03 -0.42071932216E+02  0.14807102278E+04  0.50400001928E-02 0.  1.
       -1    1    3    3    0  502  0.14590476131E+04  0.24882281645E+03  0.44934166853E+03  0.15468163002E+04  0.50400001928E-02 0. -1.
</event>
<event>
 5   0  0.1810055E-07  0.2999340E+04  0.7818609E-02  0.8243919E-01
        2   -1    0    0  501    0  0.00000000000E+00  0.00000000000E+00  0.16911559347E+04  0.16911559347E+04  0.25500000920E-02 0.  1.
       -2   -1    0    0    0  501  0.00000000000E+00  0.00000000000E+00 -0.13298655963E+04  0.13298655963E+04  0.25500000920E-02 0. -1.
    10030    2    1    2    0    0  0.00000000000E+00  0.00000000000E+00  0.36129033832E+03  0.30210215310E+04  0.29993399911E+04 0.  0.
        4    1    3    3  502    0 -0.12444081596E+04  0.20429935762E+03 -0.63683661027E+03  0.14127463949E+04  0.12699999809E+01 0. -1.
       -4    1    3    3    0  502  0.12444081596E+04 -0.20429935762E+03  0.99812694859E+03  0.16082751361E+04  0.12699999809E+01 0.  1.
</event>
<event>
 5   0  0.1914439E-07  0.3000597E+04  0.7818609E-02  0.8243560E-01
       -2   -1    0    0    0  501  0.00000000000E+00  0.00000000000E+00  0.26196555898E+04  0.26196555898E+04  0.25500000920E-02 0. -1.
        2   -1    0    0  501    0  0.00000000000E+00  0.00000000000E+00 -0.85923341724E+03  0.85923341725E+03  0.25500000920E-02 0.  1.
    10030    2    1    2    0    0  0.00000000000E+00  0.00000000000E+00  0.17604221725E+04  0.34788890070E+04  0.30005970235E+04 0.  0.
        5    1    3    3  502    0 -0.14448512317E+04  0.15419405500E+03  0.44717496747E+03  0.15203152403E+04  0.46999998093E+01 0.  1.
       -5    1    3    3    0  502  0.14448512317E+04 -0.15419405500E+03  0.13132472051E+04  0.19585737668E+04  0.46999998093E+01 0. -1.
</event>
<event>
 5   0  0.6525507E-08  0.3000151E+04  0.7818609E-02  0.8243688E-01
       -1   -1    0    0    0  501  0.00000000000E+00  0.00000000000E+00  0.13212863001E+04  0.13212863001E+04  0.50400001928E-02 0. -1.
        1   -1    0    0  501    0  0.00000000000E+00  0.00000000000E+00 -0.17030579481E+04  0.17030579481E+04  0.50400001928E-02 0.  1.
    10030    2    1    2    0    0  0.00000000000E+00  0.00000000000E+00 -0.38177164803E+03  0.30243442482E+04  0.30001514195E+04 0.  0.
        4    1    3    3  502    0  0.10662027958E+04  0.10117904728E+04  0.11105776073E+03  0.14740569194E+04  0.12699999809E+01 0. -1.
       -4    1    3    3    0  502 -0.10662027958E+04 -0.10117904728E+04 -0.49282940876E+03  0.15502873287E+04  0.12699999809E+01 0.  1.
</event>
<event>
 5   0  0.1914439E-07  0.3003482E+04  0.7818609E-02  0.8242737E-01
       -2   -1    0    0    0  501  0.00000000000E+00  0.00000000000E+00  0.10526687255E+04  0.10526687255E+04  0.25500000920E-02 0.  1.
        2   -1    0    0  501    0  0.00000000000E+00  0.00000000000E+00 -0.21423889911E+04  0.21423889911E+04  0.25500000920E-02 0. -1.
    10030    2    1    2    0    0  0.00000000000E+00  0.00000000000E+00 -0.10897202656E+04  0.31950577166E+04  0.30034819052E+04 0.  0.
        5    1    3    3  502    0 -0.88772478928E+03  0.11825886403E+04 -0.82354855688E+03  0.16925795430E+04  0.46999998093E+01 0.  1.
       -5    1    3    3    0  502  0.88772478928E+03 -0.11825886403E+04 -0.26617170871E+03  0.15024781736E+04  0.46999998093E+01 0. -1.
</event>
<event>
 5   0  0.6636007E-08  0.3004349E+04  0.7818609E-02  0.8242490E-01
       -1   -1    0    0    0  501  0.00000000000E+00  0.00000000000E+00  0.18575411658E+04  0.18575411658E+04  0.50400001928E-02 0. -1.
        1   -1    0    0  501    0  0.00000000000E+00  0.00000000000E+00 -0.12147934088E+04  0.12147934088E+04  0.50400001928E-02 0.  1.
    10030    2    1    2    0    0  0.00000000000E+00  0.00000000000E+00  0.64274775699E+03  0.30723345747E+04  0.30043493571E+04 0.  0.
        2    1    3    3  502    0  0.67782637671E+03  0.15812301430E+03  0.16826913059E+04  0.18209617008E+04  0.25500000920E-02 0. -1.
       -2    1    3    3    0  502 -0.67782637671E+03 -0.15812301430E+03 -0.10399435489E+04  0.12513728739E+04  0.25500000920E-02 0.  1.
</event>
<event>
 5   0  0.1821305E-07  0.3000500E+04  0.7818609E-02  0.8243588E-01
        2   -1    0    0  501    0  0.00000000000E+00  0.00000000000E+00  0.11234021482E+04  0.11234021482E+04  0.25500000920E-02 0.  1.
       -2   -1    0    0    0  501  0.00000000000E+00  0.00000000000E+00 -0.20035118922E+04  0.20035118922E+04  0.25500000920E-02 0. -1.
    10030    2    1    2    0    0  0.00000000000E+00  0.00000000000E+00 -0.88010974406E+03  0.31269140404E+04  0.30004996675E+04 0.  0.
        2    1    3    3  502    0  0.29689141775E+03  0.13018769283E+04 -0.11527700910E+04  0.17640597873E+04  0.25500000920E-02 0. -1.
       -2    1    3    3    0  502 -0.29689141775E+03 -0.13018769283E+04  0.27266034695E+03  0.13628542531E+04  0.25500000920E-02 0.  1.
</event>
<event>
 5   0  0.6464436E-08  0.3003174E+04  0.7818609E-02  0.8242825E-01
       -1   -1    0    0    0  501  0.00000000000E+00  0.00000000000E+00  0.14487365239E+04  0.14487365239E+04  0.50400001928E-02 0.  1.
        1   -1    0    0  501    0  0.00000000000E+00  0.00000000000E+00 -0.15563649818E+04  0.15563649818E+04  0.50400001928E-02 0. -1.
    10030    2    1    2    0    0  0.00000000000E+00  0.00000000000E+00 -0.10762845791E+03  0.30051015057E+04  0.30031735172E+04 0.  0.
        5    1    3    3  502    0  0.11549350491E+04 -0.37536239855E+03  0.82991117054E+03  0.14708999078E+04  0.46999998093E+01 0.  1.
       -5    1    3    3    0  502 -0.11549350491E+04  0.37536239855E+03 -0.93753962845E+03  0.15342015978E+04  0.46999998093E+01 0. -1.
</event>
</LesHouchesEvents>
