<LesHouchesEvents version="3.0">
<header>
<!--
#*********************************************************************
#                                                                    *
#                        MadGraph5_aMC@NLO                           *
#                                                                    *
#                           Going Beyond                             *
#                                                                    *
#                   http://madgraph.hep.uiuc.edu                     *
#                   http://madgraph.phys.ucl.ac.be                   *
#                   http://amcatnlo.cern.ch                          *
#                                                                    *
#                     The MadGraph5_aMC@NLO team                     *
#                                                                    *
#....................................................................*
#                                                                    *
# This file contains all the information necessary to reproduce      *
# the events generated:                                              *
#                                                                    *
# 1. software version                                                *
# 2. proc_card          : code generation info including model       *
# 3. param_card         : model primary parameters in the LH format  *
# 4. run_card           : running parameters (collider and cuts)     *
# 5. pythia_card        : present only if pythia has been run        *
# 6. pgs_card           : present only if pgs has been run           *
# 7. delphes_cards      : present only if delphes has been run       *
#                                                                    *
#                                                                    *
#*********************************************************************
-->
<MGVersion>
#5.2.2.3
</MGVersion>
<MG5ProcCard>
#************************************************************
#*                     MadGraph5_aMC@NLO                    *
#*                                                          *
#*                *                       *                 *
#*                  *        * *        *                   *
#*                    * * * * 5 * * * *                     *
#*                  *        * *        *                   *
#*                *                       *                 *
#*                                                          *
#*                                                          *
#*         VERSION 2.2.3                 2015-02-10         *
#*                                                          *
#*    The MadGraph5_aMC@NLO Development Team - Find us at   *
#*    https://server06.fynu.ucl.ac.be/projects/madgraph     *
#*                                                          *
#************************************************************
#*                                                          *
#*               Command File for MadGraph5_aMC@NLO         *
#*                                                          *
#*     run as ./bin/mg5_aMC  filename                       *
#*                                                          *
#************************************************************
set group_subprocesses Auto
set ignore_six_quark_processes False
set loop_optimized_output True
set gauge unitary
set complex_mass_scheme False
import model sm
define p = g u c d s u~ c~ d~ s~
define j = g u c d s u~ c~ d~ s~
define l+ = e+ mu+
define l- = e- mu-
define vl = ve vm vt
define vl~ = ve~ vm~ vt~
import model Zprime_UFO
generate p p > zph, zph > j j
add process p p > zph, zph > b b~
output Dijet_signal
</MG5ProcCard>
<MGProcCard>
#*********************************************************************
#                        MadGraph/MadEvent                           *
#                   http://madgraph.hep.uiuc.edu                     *
#                                                                    *
#                          proc_card.dat                             *
#*********************************************************************
#                                                                    *
#            This Files is generated by MADGRAPH 5                   *
#                                                                    *
# WARNING: This Files is generated for MADEVENT (compatibility issue)*
#          This files is NOT a valid MG4 proc_card.dat               *
#          Running this in MG4 will NEVER reproduce the result of MG5*
#                                                                    *
#*********************************************************************
#*********************************************************************
# Process(es) requested : mg2 input                                  *
#*********************************************************************
# Begin PROCESS # This is TAG. Do not modify this line
p p > zph , zph > j j           #Process
# Be carefull the coupling are here in MG5 convention
          
end_coup           # End the couplings input

done               # this tells MG there are no more procs
# End PROCESS  # This is TAG. Do not modify this line
#*********************************************************************
# Model information                                                  *
#*********************************************************************
# Begin MODEL  # This is TAG. Do not modify this line
Zprime_UFO
# End   MODEL  # This is TAG. Do not modify this line
#*********************************************************************
# Start multiparticle definitions                                    *
#*********************************************************************
# Begin MULTIPARTICLES # This is TAG. Do not modify this line

# End  MULTIPARTICLES # This is TAG. Do not modify this line
</MGProcCard>
<MGRunCard>
#*********************************************************************
#                       MadGraph5_aMC@NLO                            *
#                                                                    *
#                     run_card.dat MadEvent                          *
#                                                                    *
#  This file is used to set the parameters of the run.               *
#                                                                    *
#  Some notation/conventions:                                        *
#                                                                    *
#   Lines starting with a '# ' are info or comments                  *
#                                                                    *
#   mind the format:   value    = variable     ! comment             *
#*********************************************************************
#
#*******************                                                 
# Running parameters
#*******************                                                 
#                                                                    
#*********************************************************************
# Tag name for the run (one word)                                    *
#*********************************************************************
  tag_1     = run_tag ! name of the run 
#*********************************************************************
# Run to generate the grid pack                                      *
#*********************************************************************
  .false.     = gridpack  !True = setting up the grid pack
#*********************************************************************
# Number of events and rnd seed                                      *
# Warning: Do not generate more than 1M events in a single run       *
# If you want to run Pythia, avoid more than 50k events in a run.    *
#*********************************************************************
  2000 = nevents ! Number of unweighted events requested 
 123 = iseed   ! rnd seed (0=assigned automatically=default))
#*********************************************************************
# Collider type and energy                                           *
# lpp: 0=No PDF, 1=proton, -1=antiproton, 2=photon from proton,      *
#                                         3=photon from electron     *
#*********************************************************************
        1     = lpp1    ! beam 1 type 
        1     = lpp2    ! beam 2 type
     4000     = ebeam1  ! beam 1 total energy in GeV
     4000     = ebeam2  ! beam 2 total energy in GeV
#*********************************************************************
# Beam polarization from -100 (left-handed) to 100 (right-handed)    *
#*********************************************************************
        0     = polbeam1 ! beam polarization for beam 1
        0     = polbeam2 ! beam polarization for beam 2
#*********************************************************************
# PDF CHOICE: this automatically fixes also alpha_s and its evol.    *
#*********************************************************************
 'nn23lo1'    = pdlabel     ! PDF set                                     
 230000    = lhaid     ! if pdlabel=lhapdf, this is the lhapdf number
#*********************************************************************
# Renormalization and factorization scales                           *
#*********************************************************************
 F        = fixed_ren_scale  ! if .true. use fixed ren scale
 F        = fixed_fac_scale  ! if .true. use fixed fac scale
 91.1880  = scale            ! fixed ren scale
 91.1880  = dsqrt_q2fact1    ! fixed fact scale for pdf1
 91.1880  = dsqrt_q2fact2    ! fixed fact scale for pdf2
 1        = scalefact        ! scale factor for event-by-event scales
#*********************************************************************
# Matching - Warning! ickkw > 1 is still beta
#*********************************************************************
 0        = ickkw            ! 0 no matching, 1 MLM, 2 CKKW matching
 1        = highestmult      ! for ickkw=2, highest mult group
 1        = ktscheme         ! for ickkw=1, 1 Durham kT, 2 Pythia pTE
 1        = alpsfact         ! scale factor for QCD emission vx
 F        = chcluster        ! cluster only according to channel diag
 T        = pdfwgt           ! for ickkw=1, perform pdf reweighting
 5        = asrwgtflavor     ! highest quark flavor for a_s reweight
 T        = clusinfo         ! include clustering tag in output
 3.0      = lhe_version       ! Change the way clustering information pass to shower.        
#*********************************************************************
#**********************************************************
#
#**********************************************************
# Automatic ptj and mjj cuts if xqcut > 0
# (turn off for VBF and single top processes)
#**********************************************************
   T  = auto_ptj_mjj  ! Automatic setting of ptj and mjj
#**********************************************************
#                                                                    
#**********************************
# BW cutoff (M+/-bwcutoff*Gamma)
#**********************************
  15  = bwcutoff      ! (M+/-bwcutoff*Gamma)
#**********************************************************
# Apply pt/E/eta/dr/mij cuts on decay products or not
# (note that etmiss/ptll/ptheavy/ht/sorted cuts always apply)
#**********************************************************
   T  = cut_decays    ! Cut decay products 
#*************************************************************
# Number of helicities to sum per event (0 = all helicities)
# 0 gives more stable result, but longer run time (needed for
# long decay chains e.g.).
# Use >=2 if most helicities contribute, e.g. pure QCD.
#*************************************************************
   0  = nhel          ! Number of helicities used per event
#*******************                                                 
# Standard Cuts
#*******************                                                 
#                                                                    
#*********************************************************************
# Minimum and maximum pt's (for max, -1 means no cut)                *
#*********************************************************************
 20  = ptj       ! minimum pt for the jets 
  0  = ptb       ! minimum pt for the b 
 10  = pta       ! minimum pt for the photons 
 10  = ptl       ! minimum pt for the charged leptons 
  0  = misset    ! minimum missing Et (sum of neutrino's momenta)
  0  = ptheavy   ! minimum pt for one heavy final state
 1.0 = ptonium   ! minimum pt for the quarkonium states
 -1  = ptjmax    ! maximum pt for the jets
 -1  = ptbmax    ! maximum pt for the b
 -1  = ptamax    ! maximum pt for the photons
 -1  = ptlmax    ! maximum pt for the charged leptons
 -1  = missetmax ! maximum missing Et (sum of neutrino's momenta)
#*********************************************************************
# Minimum and maximum E's (in the center of mass frame)              *
#*********************************************************************
  0  = ej     ! minimum E for the jets 
  0  = eb     ! minimum E for the b 
  0  = ea     ! minimum E for the photons 
  0  = el     ! minimum E for the charged leptons 
 -1   = ejmax ! maximum E for the jets
 -1   = ebmax ! maximum E for the b
 -1   = eamax ! maximum E for the photons
 -1   = elmax ! maximum E for the charged leptons
#*********************************************************************
# Maximum and minimum absolute rapidity (for max, -1 means no cut)   *
#*********************************************************************
   5  = etaj    ! max rap for the jets 
  -1  = etab    ! max rap for the b
 2.5  = etaa    ! max rap for the photons 
 2.5  = etal    ! max rap for the charged leptons 
 0.6  = etaonium ! max rap for the quarkonium states
   0  = etajmin ! min rap for the jets
   0  = etabmin ! min rap for the b
   0  = etaamin ! min rap for the photons
   0  = etalmin ! main rap for the charged leptons
#*********************************************************************
# Minimum and maximum DeltaR distance                                *
#*********************************************************************
 0.4 = drjj    ! min distance between jets 
 0   = drbb    ! min distance between b's 
 0.4 = drll    ! min distance between leptons 
 0.4 = draa    ! min distance between gammas 
 0   = drbj    ! min distance between b and jet 
 0.4 = draj    ! min distance between gamma and jet 
 0.4 = drjl    ! min distance between jet and lepton 
 0   = drab    ! min distance between gamma and b 
 0   = drbl    ! min distance between b and lepton 
 0.4 = dral    ! min distance between gamma and lepton 
 -1  = drjjmax ! max distance between jets
 -1  = drbbmax ! max distance between b's
 -1  = drllmax ! max distance between leptons
 -1  = draamax ! max distance between gammas
 -1  = drbjmax ! max distance between b and jet
 -1  = drajmax ! max distance between gamma and jet
 -1  = drjlmax ! max distance between jet and lepton
 -1  = drabmax ! max distance between gamma and b
 -1  = drblmax ! max distance between b and lepton
 -1  = dralmax ! maxdistance between gamma and lepton
#*********************************************************************
# Minimum and maximum invariant mass for pairs                       *
# WARNING: for four lepton final state mmll cut require to have      *
#          different lepton masses for each flavor!                  *           
#*********************************************************************
 0   = mmjj    ! min invariant mass of a jet pair 
 0   = mmbb    ! min invariant mass of a b pair 
 0   = mmaa    ! min invariant mass of gamma gamma pair
 0   = mmll    ! min invariant mass of l+l- (same flavour) lepton pair
 -1  = mmjjmax ! max invariant mass of a jet pair
 -1  = mmbbmax ! max invariant mass of a b pair
 -1  = mmaamax ! max invariant mass of gamma gamma pair
 -1  = mmllmax ! max invariant mass of l+l- (same flavour) lepton pair
#*********************************************************************
# Minimum and maximum invariant mass for all letpons                 *
#*********************************************************************
 0   = mmnl    ! min invariant mass for all letpons (l+- and vl) 
 -1  = mmnlmax ! max invariant mass for all letpons (l+- and vl) 
#*********************************************************************
# Minimum and maximum pt for 4-momenta sum of leptons                *
#*********************************************************************
 0   = ptllmin  ! Minimum pt for 4-momenta sum of leptons(l and vl)
 -1  = ptllmax  ! Maximum pt for 4-momenta sum of leptons(l and vl)
#*********************************************************************
# Inclusive cuts                                                     *
#*********************************************************************
 0  = xptj ! minimum pt for at least one jet  
 0  = xptb ! minimum pt for at least one b 
 0  = xpta ! minimum pt for at least one photon 
 0  = xptl ! minimum pt for at least one charged lepton 
#*********************************************************************
# Control the pt's of the jets sorted by pt                          *
#*********************************************************************
 0   = ptj1min ! minimum pt for the leading jet in pt
 0   = ptj2min ! minimum pt for the second jet in pt
 0   = ptj3min ! minimum pt for the third jet in pt
 0   = ptj4min ! minimum pt for the fourth jet in pt
 -1  = ptj1max ! maximum pt for the leading jet in pt 
 -1  = ptj2max ! maximum pt for the second jet in pt
 -1  = ptj3max ! maximum pt for the third jet in pt
 -1  = ptj4max ! maximum pt for the fourth jet in pt
 0   = cutuse  ! reject event if fails any (0) / all (1) jet pt cuts
#*********************************************************************
# Control the pt's of leptons sorted by pt                           *
#*********************************************************************
 0   = ptl1min ! minimum pt for the leading lepton in pt
 0   = ptl2min ! minimum pt for the second lepton in pt
 0   = ptl3min ! minimum pt for the third lepton in pt
 0   = ptl4min ! minimum pt for the fourth lepton in pt
 -1  = ptl1max ! maximum pt for the leading lepton in pt 
 -1  = ptl2max ! maximum pt for the second lepton in pt
 -1  = ptl3max ! maximum pt for the third lepton in pt
 -1  = ptl4max ! maximum pt for the fourth lepton in pt
#*********************************************************************
# Control the Ht(k)=Sum of k leading jets                            *
#*********************************************************************
 0   = htjmin ! minimum jet HT=Sum(jet pt)
 -1  = htjmax ! maximum jet HT=Sum(jet pt)
 0   = ihtmin  !inclusive Ht for all partons (including b)
 -1  = ihtmax  !inclusive Ht for all partons (including b)
 0   = ht2min ! minimum Ht for the two leading jets
 0   = ht3min ! minimum Ht for the three leading jets
 0   = ht4min ! minimum Ht for the four leading jets
 -1  = ht2max ! maximum Ht for the two leading jets
 -1  = ht3max ! maximum Ht for the three leading jets
 -1  = ht4max ! maximum Ht for the four leading jets
#***********************************************************************
# Photon-isolation cuts, according to hep-ph/9801442                   *
# When ptgmin=0, all the other parameters are ignored                  *
# When ptgmin>0, pta and draj are not going to be used                 *
#***********************************************************************
   0 = ptgmin ! Min photon transverse momentum
 0.4 = R0gamma ! Radius of isolation code
 1.0 = xn ! n parameter of eq.(3.4) in hep-ph/9801442
 1.0 = epsgamma ! epsilon_gamma parameter of eq.(3.4) in hep-ph/9801442
 .true. = isoEM ! isolate photons from EM energy (photons and leptons)
#*********************************************************************
# WBF cuts                                                           *
#*********************************************************************
 0   = xetamin ! minimum rapidity for two jets in the WBF case  
 0   = deltaeta ! minimum rapidity for two jets in the WBF case 
#*********************************************************************
# KT DURHAM CUT                                                      *
#*********************************************************************
 -1    =  ktdurham        
 0.4  =  dparameter 
#*********************************************************************
# maximal pdg code for quark to be considered as a light jet         *
# (otherwise b cuts are applied)                                     *
#*********************************************************************
 4 = maxjetflavor    ! Maximum jet pdg code
#*********************************************************************
# Jet measure cuts                                                   *
#*********************************************************************
 0   = xqcut   ! minimum kt jet measure between partons
#*********************************************************************
#
#*********************************************************************
# Store info for systematics studies                                 *
# WARNING: If use_syst is T, matched Pythia output is                *
#          meaningful ONLY if plotted taking matchscale              *
#          reweighting into account!                                 *
#*********************************************************************
   F  = use_syst      ! Enable systematics studies
#
#**************************************
# Parameter of the systematics study
#  will be used by SysCalc (if installed)
#**************************************                                  
#
0.5 1 2 = sys_scalefact  # factorization/renormalization scale factor
0.5 1 2 = sys_alpsfact  # \alpha_s emission scale factors
30 50 = sys_matchscale # variation of merging scale
# PDF sets and number of members (0 or none for all members).
CT10nlo.LHgrid = sys_pdf # matching scales
# MSTW2008nlo68cl.LHgrid 1  = sys_pdf
</MGRunCard>
<slha>
######################################################################
## PARAM_CARD AUTOMATICALY GENERATED BY MG5 FOLLOWING UFO MODEL   ####
######################################################################
##                                                                  ##
##  Width set on Auto will be computed following the information    ##
##        present in the decay.py files of the model.               ##
##        See  arXiv:1402.1178 for more details.                    ##
##                                                                  ##
######################################################################

###################################
## INFORMATION FOR CKMBLOCK
###################################
Block ckmblock 
    1 2.277360e-01 # cabi 

###################################
## INFORMATION FOR FRBLOCK
###################################
Block frblock 
    1 4.000000e-01 # gz 

###################################
## INFORMATION FOR MASS
###################################
Block mass 
    1 5.040000e-03 # MD 
    2 2.550000e-03 # MU 
    3 1.010000e-01 # MS 
    4 1.270000e+00 # MC 
    5 4.700000e+00 # MB 
    6 1.720000e+02 # MT 
   11 5.110000e-04 # Me 
   13 1.056600e-01 # MM 
   15 1.777000e+00 # MTA 
   23 9.118760e+01 # MZ 
   25 1.200000e+02 # MH 
  10030 6.000000e+02 # MZph 
  10031 3.000000e+02 # MZpl 
## Dependent parameters, given by model restrictions.
## Those values should be edited following the 
## analytical expression. MG5 ignores those values 
## but they are important for interfacing the output of MG5
## to external program such as Pythia.
  12 0.000000 # ve : 0.0 
  14 0.000000 # vm : 0.0 
  16 0.000000 # vt : 0.0 
  21 0.000000 # g : 0.0 
  22 0.000000 # a : 0.0 
  24 79.824360 # w+ : cmath.sqrt(MZ__exp__2/2. + cmath.sqrt(MZ__exp__4/4. - (aEW*cmath.pi*MZ__exp__2)/(Gf*sqrt__2))) 

###################################
## INFORMATION FOR SMINPUTS
###################################
Block sminputs 
    1 1.279000e+02 # aEWM1 
    2 1.166370e-05 # Gf 
    3 1.184000e-01 # aS 

###################################
## INFORMATION FOR YUKAWA
###################################
Block yukawa 
    1 5.040000e-03 # ymdo 
    2 2.550000e-03 # ymup 
    3 1.010000e-01 # yms 
    4 1.270000e+00 # ymc 
    5 4.700000e+00 # ymb 
    6 1.720000e+02 # ymt 
   11 5.110000e-04 # yme 
   13 1.056600e-01 # ymm 
   15 1.777000e+00 # ymtau 

###################################
## INFORMATION FOR DECAY
###################################
DECAY   6 1.508336e+00 # WT 
DECAY  23 2.495200e+00 # WZ 
DECAY  24 2.085000e+00 # WW 
DECAY  25 5.753088e-03 # WH 
## Dependent parameters, given by model restrictions.
## Those values should be edited following the 
## analytical expression. MG5 ignores those values 
## but they are important for interfacing the output of MG5
## to external program such as Pythia.
DECAY  1 0.000000 # d : 0.0 
DECAY  2 0.000000 # u : 0.0 
DECAY  3 0.000000 # s : 0.0 
DECAY  4 0.000000 # c : 0.0 
DECAY  5 0.000000 # b : 0.0 
DECAY  11 0.000000 # e- : 0.0 
DECAY  12 0.000000 # ve : 0.0 
DECAY  13 0.000000 # mu- : 0.0 
DECAY  14 0.000000 # vm : 0.0 
DECAY  15 0.000000 # ta- : 0.0 
DECAY  16 0.000000 # vt : 0.0 
DECAY  21 0.000000 # g : 0.0 
DECAY  22 0.000000 # a : 0.0 
DECAY  10030 0.308725 # zph : (gz__exp__2*MZph*(5 + cmath.sqrt(1 - (4*MT__exp__2)/MZph__exp__2)))/(144.*cmath.pi) 
DECAY  10031 0.132629 # zpl : (5*gz__exp__2*MZpl)/(144.*cmath.pi) 
#===========================================================
# QUANTUM NUMBERS OF NEW STATE(S) (NON SM PDG CODE)
#===========================================================

Block QNUMBERS 10030  # zph 
        1 0  # 3 times electric charge
        2 3  # number of spin states (2S+1)
        3 1  # colour rep (1: singlet, 3: triplet, 8: octet)
        4 0  # Particle/Antiparticle distinction (0=own anti)
Block QNUMBERS 10031  # zpl 
        1 0  # 3 times electric charge
        2 3  # number of spin states (2S+1)
        3 1  # colour rep (1: singlet, 3: triplet, 8: octet)
        4 0  # Particle/Antiparticle distinction (0=own anti)
</slha>
## END BANNER##
<MGGenerationInfo>
#  Number of Events        :         4168
#  Integrated weight (pb)  :  0.30450E+01
#  Max wgt                 :  0.98226E-03
#  Average wgt             :  0.73057E-03
</MGGenerationInfo>
</header>
<init>
     2212     2212  0.40000000000E+04  0.40000000000E+04 0 0  247000  247000 2   1
  0.30432794974E+01  0.59668266849E-02  0.98226070000E-03   0
</init>
<event>
 5   0  0.9028473E-03  0.6004244E+03  0.7818609E-02  0.9904526E-01
       -2   -1    0    0    0  501  0.00000000000E+00  0.00000000000E+00  0.27683796280E+03  0.27683796281E+03  0.25500000920E-02 0. -1.
        2   -1    0    0  501    0  0.00000000000E+00  0.00000000000E+00 -0.32555999235E+03  0.32555999236E+03  0.25500000920E-02 0.  1.
    10030    2    1    2    0    0  0.00000000000E+00  0.00000000000E+00 -0.48722029551E+02  0.60239795518E+03  0.60042440010E+03 0.  0.
        1    1    3    3  502    0 -0.18454200482E+03 -0.14725087705E+03  0.16169067585E+03  0.28615109124E+03  0.50400001928E-02 0. -1.
       -1    1    3    3    0  502  0.18454200482E+03  0.14725087705E+03 -0.21041270540E+03  0.31624686394E+03  0.50400001928E-02 0.  1.
</event>
<event>
 5   0  0.3806250E-03  0.5995577E+03  0.7818609E-02  0.9906324E-01
       -3   -1    0    0    0  501  0.00000000000E+00  0.00000000000E+00  0.74388837818E+03  0.74388838504E+03  0.10100000352E+00 0. -1.
        3   -1    0    0  501    0  0.00000000000E+00  0.00000000000E+00 -0.12080754337E+03  0.12080758559E+03  0.10100000352E+00 0.  1.
    10030    2    1    2    0    0  0.00000000000E+00  0.00000000000E+00  0.62308083481E+03  0.86469597062E+03  0.59955766603E+03 0.  0.
        1    1    3    3  502    0  0.17072672750E+03 -0.15623247944E+03  0.36717813427E+02  0.23431688151E+03  0.50400001928E-02 0.  1.
       -1    1    3    3    0  502 -0.17072672750E+03  0.15623247944E+03  0.58636302139E+03  0.63037908911E+03  0.50400001928E-02 0. -1.
</event>
<event>
 5   0  0.9028473E-03  0.5996564E+03  0.7818609E-02  0.9906119E-01
        2   -1    0    0  501    0  0.00000000000E+00  0.00000000000E+00  0.40795633688E+03  0.40795633689E+03  0.25500000920E-02 0. -1.
       -2   -1    0    0    0  501  0.00000000000E+00  0.00000000000E+00 -0.22035925835E+03  0.22035925837E+03  0.25500000920E-02 0.  1.
    10030    2    1    2    0    0  0.00000000000E+00  0.00000000000E+00  0.18759707853E+03  0.62831559526E+03  0.59965642110E+03 0.  0.
        1    1    3    3  502    0  0.24075826324E+03  0.57066392763E+02 -0.83634068351E+02  0.26118149229E+03  0.50400001928E-02 0.  1.
       -1    1    3    3    0  502 -0.24075826324E+03 -0.57066392763E+02  0.27123114688E+03  0.36713410297E+03  0.50400001928E-02 0. -1.
</event>
<event>
 5   0  0.9822607E-03  0.6005480E+03  0.7818609E-02  0.9904270E-01
        2   -1    0    0  501    0  0.00000000000E+00  0.00000000000E+00  0.67870770608E+03  0.67870770608E+03  0.25500000920E-02 0.  1.
       -2   -1    0    0    0  501  0.00000000000E+00  0.00000000000E+00 -0.13284726867E+03  0.13284726869E+03  0.25500000920E-02 0. -1.
    10030    2    1    2    0    0  0.00000000000E+00  0.00000000000E+00  0.54586043741E+03  0.81155497477E+03  0.60054796640E+03 0.  0.
        3    1    3    3  502    0 -0.80193728837E+02 -0.12622208360E+03 -0.78945739134E+02  0.16910200608E+03  0.10100000352E+00 0. -1.
       -3    1    3    3    0  502  0.80193728837E+02  0.12622208360E+03  0.62480617654E+03  0.64245296869E+03  0.10100000352E+00 0.  1.
</event>
<event>
 5   0  0.9028473E-03  0.5999873E+03  0.7818609E-02  0.9905432E-01
        2   -1    0    0  501    0  0.00000000000E+00  0.00000000000E+00  0.90403174626E+02  0.90403174662E+02  0.25500000920E-02 0.  1.
       -2   -1    0    0    0  501  0.00000000000E+00  0.00000000000E+00 -0.99549809433E+03  0.99549809433E+03  0.25500000920E-02 0. -1.
    10030    2    1    2    0    0  0.00000000000E+00  0.00000000000E+00 -0.90509491970E+03  0.10859012690E+04  0.59998729347E+03 0.  0.
        1    1    3    3  502    0  0.99044381893E+01 -0.10609086080E+03  0.55001363311E+02  0.11991046090E+03  0.50400001928E-02 0.  1.
       -1    1    3    3    0  502 -0.99044381893E+01  0.10609086080E+03 -0.96009628301E+03  0.96599080809E+03  0.50400001928E-02 0. -1.
</event>
<event>
 5   0  0.9822607E-03  0.5873132E+03  0.7818609E-02  0.9932082E-01
        2   -1    0    0  501    0  0.00000000000E+00  0.00000000000E+00  0.57118330528E+03  0.57118330529E+03  0.25500000920E-02 0. -1.
       -2   -1    0    0    0  501  0.00000000000E+00  0.00000000000E+00 -0.15097464384E+03  0.15097464386E+03  0.25500000920E-02 0.  1.
    10030    2    1    2    0    0  0.00000000000E+00  0.00000000000E+00  0.42020866144E+03  0.72215794914E+03  0.58731319103E+03 0.  0.
        3    1    3    3  502    0  0.24237099503E+03 -0.75393233633E+02  0.39167843065E+03  0.46673315947E+03  0.10100000352E+00 0. -1.
       -3    1    3    3    0  502 -0.24237099503E+03  0.75393233633E+02  0.28530230796E+02  0.25542478968E+03  0.10100000352E+00 0.  1.
</event>
<event>
 5   0  0.5765045E-03  0.6007106E+03  0.7818609E-02  0.9903933E-01
        1   -1    0    0  501    0  0.00000000000E+00  0.00000000000E+00  0.18893509175E+04  0.18893509175E+04  0.50400001928E-02 0. -1.
       -1   -1    0    0    0  501  0.00000000000E+00  0.00000000000E+00 -0.47748303373E+02  0.47748303639E+02  0.50400001928E-02 0.  1.
    10030    2    1    2    0    0  0.00000000000E+00  0.00000000000E+00  0.18416026141E+04  0.19370992211E+04  0.60071058273E+03 0.  0.
        1    1    3    3  502    0  0.26157129956E+02  0.22460521133E+03  0.28331218731E+03  0.36248791967E+03  0.50400001928E-02 0.  1.
       -1    1    3    3    0  502 -0.26157129956E+02 -0.22460521133E+03  0.15582904268E+04  0.15746113015E+04  0.50400001928E-02 0. -1.
</event>
<event>
 5   0  0.5790967E-03  0.6038516E+03  0.7818609E-02  0.9897447E-01
        1   -1    0    0  501    0  0.00000000000E+00  0.00000000000E+00  0.78322184023E+03  0.78322184024E+03  0.50400001928E-02 0. -1.
       -1   -1    0    0    0  501  0.00000000000E+00  0.00000000000E+00 -0.11638998851E+03  0.11638998862E+03  0.50400001928E-02 0.  1.
    10030    2    1    2    0    0  0.00000000000E+00  0.00000000000E+00  0.66683185171E+03  0.89961182886E+03  0.60385157462E+03 0.  0.
        3    1    3    3  502    0 -0.43866130020E+02  0.13698726228E+03  0.72889664328E+03  0.74295361509E+03  0.10100000352E+00 0. -1.
       -3    1    3    3    0  502  0.43866130020E+02 -0.13698726228E+03 -0.62064791566E+02  0.15665821377E+03  0.10100000352E+00 0.  1.
</event>
<event>
 5   0  0.9028473E-03  0.5995060E+03  0.7818609E-02  0.9906431E-01
       -2   -1    0    0    0  501  0.00000000000E+00  0.00000000000E+00  0.55262624914E+02  0.55262624973E+02  0.25500000920E-02 0. -1.
        2   -1    0    0  501    0  0.00000000000E+00  0.00000000000E+00 -0.16259064773E+04  0.16259064773E+04  0.25500000920E-02 0.  1.
    10030    2    1    2    0    0  0.00000000000E+00  0.00000000000E+00 -0.15706438524E+04  0.16811691023E+04  0.59950599613E+03 0.  0.
        1    1    3    3  502    0  0.26919021567E+03  0.12954387740E+03 -0.85440413567E+03  0.90512508277E+03  0.50400001928E-02 0. -1.
       -1    1    3    3    0  502 -0.26919021567E+03 -0.12954387740E+03 -0.71623971671E+03  0.77604401950E+03  0.50400001928E-02 0.  1.
</event>
<event>
 5   0  0.3806250E-03  0.6008553E+03  0.7818609E-02  0.9903633E-01
       -4   -1    0    0    0  501  0.00000000000E+00  0.00000000000E+00  0.36355235538E+03  0.36355457363E+03  0.12699999809E+01 0.  1.
        4   -1    0    0  501    0  0.00000000000E+00  0.00000000000E+00 -0.24825886790E+03  0.24826211630E+03  0.12699999809E+01 0. -1.
    10030    2    1    2    0    0  0.00000000000E+00  0.00000000000E+00  0.11529348749E+03  0.61181668993E+03  0.60085528525E+03 0.  0.
        4    1    3    3  502    0 -0.71256480802E+02 -0.11738695130E+03  0.32972533859E+03  0.35718005851E+03  0.12699999809E+01 0.  1.
       -4    1    3    3    0  502  0.71256480802E+02  0.11738695130E+03 -0.21443185110E+03  0.25463663141E+03  0.12699999809E+01 0. -1.
</event>
<event>
 5   0  0.9028473E-03  0.6004089E+03  0.7818609E-02  0.9904558E-01
       -2   -1    0    0    0  501  0.00000000000E+00  0.00000000000E+00  0.12985600039E+03  0.12985600042E+03  0.25500000920E-02 0.  1.
        2   -1    0    0  501    0  0.00000000000E+00  0.00000000000E+00 -0.69402043633E+03  0.69402043634E+03  0.25500000920E-02 0. -1.
    10030    2    1    2    0    0  0.00000000000E+00  0.00000000000E+00 -0.56416443594E+03  0.82387643676E+03  0.60040892088E+03 0.  0.
        1    1    3    3  502    0  0.19704606286E+02 -0.18223624425E+03  0.44154558925E+02  0.18854162757E+03  0.50400001928E-02 0.  1.
       -1    1    3    3    0  502 -0.19704606286E+02  0.18223624425E+03 -0.60831899486E+03  0.63533480919E+03  0.50400001928E-02 0. -1.
</event>
<event>
 5   0  0.9162342E-03  0.5988723E+03  0.7818609E-02  0.9907749E-01
        2   -1    0    0  501    0  0.00000000000E+00  0.00000000000E+00  0.88765807025E+03  0.88765807025E+03  0.25500000920E-02 0. -1.
       -2   -1    0    0    0  501  0.00000000000E+00  0.00000000000E+00 -0.10100961198E+03  0.10100961201E+03  0.25500000920E-02 0.  1.
    10030    2    1    2    0    0  0.00000000000E+00  0.00000000000E+00  0.78664845826E+03  0.98866768227E+03  0.59887226440E+03 0.  0.
        5    1    3    3  502    0  0.23394792889E+03  0.10032551442E+03  0.13311737881E+03  0.28729630839E+03  0.46999998093E+01 0.  1.
       -5    1    3    3    0  502 -0.23394792889E+03 -0.10032551442E+03  0.65353107946E+03  0.70137137387E+03  0.46999998093E+01 0. -1.
</event>
<event>
 5   0  0.9162342E-03  0.5983133E+03  0.7818609E-02  0.9908912E-01
        2   -1    0    0  501    0  0.00000000000E+00  0.00000000000E+00  0.20932035554E+03  0.20932035556E+03  0.25500000920E-02 0.  1.
       -2   -1    0    0    0  501  0.00000000000E+00  0.00000000000E+00 -0.42754893482E+03  0.42754893482E+03  0.25500000920E-02 0. -1.
    10030    2    1    2    0    0  0.00000000000E+00  0.00000000000E+00 -0.21822857927E+03  0.63686929038E+03  0.59831327933E+03 0.  0.
        5    1    3    3  502    0  0.23621073882E+03  0.85181601876E+02 -0.28213489424E+03  0.37772159982E+03  0.46999998093E+01 0. -1.
       -5    1    3    3    0  502 -0.23621073882E+03 -0.85181601876E+02  0.63906314962E+02  0.25914769056E+03  0.46999998093E+01 0.  1.
</event>
<event>
 5   0  0.5819446E-03  0.5999544E+03  0.7818609E-02  0.9905501E-01
        1   -1    0    0  501    0  0.00000000000E+00  0.00000000000E+00  0.28758876669E+03  0.28758876674E+03  0.50400001928E-02 0. -1.
       -1   -1    0    0    0  501  0.00000000000E+00  0.00000000000E+00 -0.31289926221E+03  0.31289926225E+03  0.50400001928E-02 0.  1.
    10030    2    1    2    0    0  0.00000000000E+00  0.00000000000E+00 -0.25310495516E+02  0.60048802899E+03  0.59995437474E+03 0.  0.
        5    1    3    3  502    0 -0.27926114671E+03 -0.81357923356E+02 -0.85920927278E+02  0.30333215375E+03  0.46999998093E+01 0.  1.
       -5    1    3    3    0  502  0.27926114671E+03  0.81357923356E+02  0.60610431763E+02  0.29715587524E+03  0.46999998093E+01 0. -1.
</event>
<event>
 5   0  0.3806250E-03  0.5997758E+03  0.7818609E-02  0.9905871E-01
        3   -1    0    0  501    0  0.00000000000E+00  0.00000000000E+00  0.13193090929E+04  0.13193090968E+04  0.10100000352E+00 0. -1.
       -3   -1    0    0    0  501  0.00000000000E+00  0.00000000000E+00 -0.68166521975E+02  0.68166596799E+02  0.10100000352E+00 0.  1.
    10030    2    1    2    0    0  0.00000000000E+00  0.00000000000E+00  0.12511425709E+04  0.13874756936E+04  0.59977584767E+03 0.  0.
        2    1    3    3  502    0 -0.18802885939E+03 -0.72934534140E+02  0.11214646072E+03  0.23076205688E+03  0.25500000920E-02 0.  1.
       -2    1    3    3    0  502  0.18802885939E+03  0.72934534140E+02  0.11389961102E+04  0.11567136367E+04  0.25500000920E-02 0. -1.
</event>
<event>
 5   0  0.3806250E-03  0.6002143E+03  0.7818609E-02  0.9904962E-01
       -3   -1    0    0    0  501  0.00000000000E+00  0.00000000000E+00  0.60164200555E+03  0.60164201403E+03  0.10100000352E+00 0.  1.
        3   -1    0    0  501    0  0.00000000000E+00  0.00000000000E+00 -0.14969748044E+03  0.14969751451E+03  0.10100000352E+00 0. -1.
    10030    2    1    2    0    0  0.00000000000E+00  0.00000000000E+00  0.45194452511E+03  0.75133952854E+03  0.60021432286E+03 0.  0.
        5    1    3    3  502    0  0.14058883322E+03  0.19127339806E+03 -0.37959593082E+01  0.23745995902E+03  0.46999998093E+01 0. -1.
       -5    1    3    3    0  502 -0.14058883322E+03 -0.19127339806E+03  0.45574048442E+03  0.51387956952E+03  0.46999998093E+01 0.  1.
</event>
<event>
 5   0  0.5765045E-03  0.5993197E+03  0.7818609E-02  0.9906818E-01
        1   -1    0    0  501    0  0.00000000000E+00  0.00000000000E+00  0.79061429310E+03  0.79061429311E+03  0.50400001928E-02 0. -1.
       -1   -1    0    0    0  501  0.00000000000E+00  0.00000000000E+00 -0.11357754595E+03  0.11357754606E+03  0.50400001928E-02 0.  1.
    10030    2    1    2    0    0  0.00000000000E+00  0.00000000000E+00  0.67703674715E+03  0.90419183918E+03  0.59931971855E+03 0.  0.
        1    1    3    3  502    0  0.29599494942E+03  0.74989488156E+01  0.40809510245E+03  0.50419327344E+03  0.50400001928E-02 0.  1.
       -1    1    3    3    0  502 -0.29599494942E+03 -0.74989488156E+01  0.26894164470E+03  0.39999856574E+03  0.50400001928E-02 0. -1.
</event>
<event>
 5   0  0.5790967E-03  0.6001571E+03  0.7818609E-02  0.9905080E-01
        1   -1    0    0  501    0  0.00000000000E+00  0.00000000000E+00  0.50194078696E+03  0.50194078699E+03  0.50400001928E-02 0.  1.
       -1   -1    0    0    0  501  0.00000000000E+00  0.00000000000E+00 -0.17939794529E+03  0.17939794536E+03  0.50400001928E-02 0. -1.
    10030    2    1    2    0    0  0.00000000000E+00  0.00000000000E+00  0.32254284167E+03  0.68133873234E+03  0.60015713232E+03 0.  0.
        3    1    3    3  502    0 -0.16116036070E+02  0.29431583442E+03  0.97397138574E+02  0.31043155415E+03  0.10100000352E+00 0. -1.
       -3    1    3    3    0  502  0.16116036070E+02 -0.29431583442E+03  0.22514570310E+03  0.37090717819E+03  0.10100000352E+00 0.  1.
</event>
<event>
 5   0  0.5790967E-03  0.6002100E+03  0.7818609E-02  0.9904971E-01
        1   -1    0    0  501    0  0.00000000000E+00  0.00000000000E+00  0.15873757945E+03  0.15873757953E+03  0.50400001928E-02 0.  1.
       -1   -1    0    0    0  501  0.00000000000E+00  0.00000000000E+00 -0.56737036655E+03  0.56737036658E+03  0.50400001928E-02 0. -1.
    10030    2    1    2    0    0  0.00000000000E+00  0.00000000000E+00 -0.40863278710E+03  0.72610794611E+03  0.60020995885E+03 0.  0.
        3    1    3    3  502    0  0.23935879952E+02  0.10488486594E+03 -0.54324093599E+03  0.55379101310E+03  0.10100000352E+00 0. -1.
       -3    1    3    3    0  502 -0.23935879952E+02 -0.10488486594E+03  0.13460814889E+03  0.17231693301E+03  0.10100000352E+00 0.  1.
</event>
<event>
 5   0  0.9028473E-03  0.6002421E+03  0.7818609E-02  0.9904904E-01
       -2   -1    0    0    0  501  0.00000000000E+00  0.00000000000E+00  0.16088584991E+03  0.16088584993E+03  0.25500000920E-02 0. -1.
        2   -1    0    0  501    0  0.00000000000E+00  0.00000000000E+00 -0.55985429822E+03  0.55985429823E+03  0.25500000920E-02 0.  1.
    10030    2    1    2    0    0  0.00000000000E+00  0.00000000000E+00 -0.39896844831E+03  0.72074014816E+03  0.60024206652E+03 0.  0.
        1    1    3    3  502    0  0.11409551619E+03 -0.12010611499E+03  0.10101358070E+03  0.19402837211E+03  0.50400001928E-02 0. -1.
       -1    1    3    3    0  502 -0.11409551619E+03  0.12010611499E+03 -0.49998202901E+03  0.52671177605E+03  0.50400001928E-02 0.  1.
</event>
<event>
 5   0  0.5891927E-03  0.6018183E+03  0.7818609E-02  0.9901641E-01
       -1   -1    0    0    0  501  0.00000000000E+00  0.00000000000E+00  0.15125244058E+03  0.15125244067E+03  0.50400001928E-02 0. -1.
        1   -1    0    0  501    0  0.00000000000E+00  0.00000000000E+00 -0.59864373518E+03  0.59864373520E+03  0.50400001928E-02 0.  1.
    10030    2    1    2    0    0  0.00000000000E+00  0.00000000000E+00 -0.44739129459E+03  0.74989617587E+03  0.60181833148E+03 0.  0.
        4    1    3    3  502    0  0.29797556622E+03  0.13669637628E+02 -0.27304328507E+03  0.40438910158E+03  0.12699999809E+01 0. -1.
       -4    1    3    3    0  502 -0.29797556622E+03 -0.13669637628E+02 -0.17434800952E+03  0.34550707428E+03  0.12699999809E+01 0.  1.
</event>
<event>
 5   0  0.5765045E-03  0.6031005E+03  0.7818609E-02  0.9898994E-01
       -1   -1    0    0    0  501  0.00000000000E+00  0.00000000000E+00  0.79559591553E+02  0.79559591712E+02  0.50400001928E-02 0. -1.
        1   -1    0    0  501    0  0.00000000000E+00  0.00000000000E+00 -0.11429489914E+04  0.11429489914E+04  0.50400001928E-02 0.  1.
    10030    2    1    2    0    0  0.00000000000E+00  0.00000000000E+00 -0.10633893999E+04  0.12225085831E+04  0.60310050581E+03 0.  0.
        1    1    3    3  502    0  0.99939003550E+02  0.25755545065E+03 -0.28668321266E+03  0.39813299164E+03  0.50400001928E-02 0.  1.
       -1    1    3    3    0  502 -0.99939003550E+02 -0.25755545065E+03 -0.77670618721E+03  0.82437559151E+03  0.50400001928E-02 0. -1.
</event>
<event>
 5   0  0.9391405E-03  0.5990623E+03  0.7818609E-02  0.9907353E-01
       -2   -1    0    0    0  501  0.00000000000E+00  0.00000000000E+00  0.65436663075E+02  0.65436663125E+02  0.25500000920E-02 0.  1.
        2   -1    0    0  501    0  0.00000000000E+00  0.00000000000E+00 -0.13710800669E+04  0.13710800669E+04  0.25500000920E-02 0. -1.
    10030    2    1    2    0    0  0.00000000000E+00  0.00000000000E+00 -0.13056434038E+04  0.14365167300E+04  0.59906228199E+03 0.  0.
        2    1    3    3  502    0 -0.15989837143E+03  0.19576953464E+03 -0.10381800759E+04  0.10685088067E+04  0.25500000920E-02 0. -1.
       -2    1    3    3    0  502  0.15989837143E+03 -0.19576953464E+03 -0.26746332790E+03  0.36800792336E+03  0.25500000920E-02 0.  1.
</event>
<event>
 5   0  0.5790967E-03  0.6037393E+03  0.7818609E-02  0.9897678E-01
        1   -1    0    0  501    0  0.00000000000E+00  0.00000000000E+00  0.12267126014E+04  0.12267126014E+04  0.50400001928E-02 0.  1.
       -1   -1    0    0    0  501  0.00000000000E+00  0.00000000000E+00 -0.74284145065E+02  0.74284145236E+02  0.50400001928E-02 0. -1.
    10030    2    1    2    0    0  0.00000000000E+00  0.00000000000E+00  0.11524284563E+04  0.13009967466E+04  0.60373933763E+03 0.  0.
        3    1    3    3  502    0  0.48556332267E+02  0.14861217735E+03  0.19757993237E+02  0.15758707167E+03  0.10100000352E+00 0. -1.
       -3    1    3    3    0  502 -0.48556332267E+02 -0.14861217735E+03  0.11326704631E+04  0.11434096749E+04  0.10100000352E+00 0.  1.
</event>
<event>
 5   0  0.3806250E-03  0.6003458E+03  0.7818609E-02  0.9904689E-01
        3   -1    0    0  501    0  0.00000000000E+00  0.00000000000E+00  0.43864925971E+02  0.43865042248E+02  0.10100000352E+00 0.  1.
       -3   -1    0    0    0  501  0.00000000000E+00  0.00000000000E+00 -0.20541163052E+04  0.20541163077E+04  0.10100000352E+00 0. -1.
    10030    2    1    2    0    0  0.00000000000E+00  0.00000000000E+00 -0.20102513793E+04  0.20979813500E+04  0.60034584780E+03 0.  0.
        4    1    3    3  502    0 -0.74933469174E+02 -0.16964349818E+03 -0.18299468465E+04  0.18393208027E+04  0.12699999809E+01 0. -1.
       -4    1    3    3    0  502  0.74933469174E+02  0.16964349818E+03 -0.18030453272E+03  0.25866054723E+03  0.12699999809E+01 0.  1.
</event>
<event>
 5   0  0.9822607E-03  0.5996392E+03  0.7818609E-02  0.9906155E-01
       -2   -1    0    0    0  501  0.00000000000E+00  0.00000000000E+00  0.24290560682E+03  0.24290560683E+03  0.25500000920E-02 0.  1.
        2   -1    0    0  501    0  0.00000000000E+00  0.00000000000E+00 -0.37006887513E+03  0.37006887514E+03  0.25500000920E-02 0. -1.
    10030    2    1    2    0    0  0.00000000000E+00  0.00000000000E+00 -0.12716326831E+03  0.61297448198E+03  0.59963924050E+03 0.  0.
        3    1    3    3  502    0 -0.21249050287E+03 -0.67672282604E+02 -0.26843798564E+03  0.34898526326E+03  0.10100000352E+00 0. -1.
       -3    1    3    3    0  502  0.21249050287E+03  0.67672282604E+02  0.14127471732E+03  0.26398921871E+03  0.10100000352E+00 0.  1.
</event>
<event>
 5   0  0.5891927E-03  0.6002110E+03  0.7818609E-02  0.9904968E-01
        1   -1    0    0  501    0  0.00000000000E+00  0.00000000000E+00  0.94091303054E+03  0.94091303055E+03  0.50400001928E-02 0.  1.
       -1   -1    0    0    0  501  0.00000000000E+00  0.00000000000E+00 -0.95719048347E+02  0.95719048480E+02  0.50400001928E-02 0. -1.
    10030    2    1    2    0    0  0.00000000000E+00  0.00000000000E+00  0.84519398219E+03  0.10366320790E+04  0.60021096270E+03 0.  0.
        4    1    3    3  502    0  0.15514858405E+03  0.10234775207E+03  0.15659211538E+02  0.18652873584E+03  0.12699999809E+01 0. -1.
       -4    1    3    3    0  502 -0.15514858405E+03 -0.10234775207E+03  0.82953477065E+03  0.85010334319E+03  0.12699999809E+01 0.  1.
</event>
<event>
 5   0  0.9391405E-03  0.6002486E+03  0.7818609E-02  0.9904890E-01
        2   -1    0    0  501    0  0.00000000000E+00  0.00000000000E+00  0.12371056147E+04  0.12371056147E+04  0.25500000920E-02 0.  1.
       -2   -1    0    0    0  501  0.00000000000E+00  0.00000000000E+00 -0.72810754857E+02  0.72810754902E+02  0.25500000920E-02 0. -1.
    10030    2    1    2    0    0  0.00000000000E+00  0.00000000000E+00  0.11642948598E+04  0.13099163696E+04  0.60024859408E+03 0.  0.
        2    1    3    3  502    0  0.28044122603E+03 -0.46983861727E+02  0.37260409357E+03  0.46870947833E+03  0.25500000920E-02 0. -1.
       -2    1    3    3    0  502 -0.28044122603E+03  0.46983861727E+02  0.79169076626E+03  0.84120689126E+03  0.25500000920E-02 0.  1.
</event>
<event>
 5   0  0.6078658E-03  0.5986228E+03  0.7818609E-02  0.9908267E-01
       -1   -1    0    0    0  501  0.00000000000E+00  0.00000000000E+00  0.52224987386E+03  0.52224987388E+03  0.50400001928E-02 0. -1.
        1   -1    0    0  501    0  0.00000000000E+00  0.00000000000E+00 -0.17154111221E+03  0.17154111229E+03  0.50400001928E-02 0.  1.
    10030    2    1    2    0    0  0.00000000000E+00  0.00000000000E+00  0.35070876164E+03  0.69379098617E+03  0.59862283367E+03 0.  0.
        2    1    3    3  502    0 -0.22187272178E+03  0.76166189147E+02 -0.40098850879E+02  0.23798468624E+03  0.25500000920E-02 0.  1.
       -2    1    3    3    0  502  0.22187272178E+03 -0.76166189147E+02  0.39080761252E+03  0.45580629992E+03  0.25500000920E-02 0. -1.
</event>
<event>
 5   0  0.9822607E-03  0.6002762E+03  0.7818609E-02  0.9904833E-01
       -2   -1    0    0    0  501  0.00000000000E+00  0.00000000000E+00  0.72832602616E+03  0.72832602616E+03  0.25500000920E-02 0.  1.
        2   -1    0    0  501    0  0.00000000000E+00  0.00000000000E+00 -0.12368484615E+03  0.12368484617E+03  0.25500000920E-02 0. -1.
    10030    2    1    2    0    0  0.00000000000E+00  0.00000000000E+00  0.60464118001E+03  0.85201087234E+03  0.60027624475E+03 0.  0.
        3    1    3    3  502    0  0.26797653814E+03 -0.96306268158E+02  0.43694760627E+03  0.52154534137E+03  0.10100000352E+00 0.  1.
       -3    1    3    3    0  502 -0.26797653814E+03  0.96306268158E+02  0.16769357374E+03  0.33046553096E+03  0.10100000352E+00 0. -1.
</event>
<event>
 5   0  0.9162342E-03  0.5994018E+03  0.7818609E-02  0.9906648E-01
       -2   -1    0    0    0  501  0.00000000000E+00  0.00000000000E+00  0.17253381666E+03  0.17253381668E+03  0.25500000920E-02 0. -1.
        2   -1    0    0  501    0  0.00000000000E+00  0.00000000000E+00 -0.52059726652E+03  0.52059726653E+03  0.25500000920E-02 0.  1.
    10030    2    1    2    0    0  0.00000000000E+00  0.00000000000E+00 -0.34806344986E+03  0.69313108320E+03  0.59940181296E+03 0.  0.
        5    1    3    3  502    0  0.42647604155E+02  0.24521405591E+03 -0.36700994695E+03  0.44347169302E+03  0.46999998093E+01 0.  1.
       -5    1    3    3    0  502 -0.42647604155E+02 -0.24521405591E+03  0.18946497087E+02  0.24965939018E+03  0.46999998093E+01 0. -1.
</event>
<event>
 5   0  0.6078658E-03  0.5956410E+03  0.7818609E-02  0.9914491E-01
        1   -1    0    0  501    0  0.00000000000E+00  0.00000000000E+00  0.69806673495E+03  0.69806673496E+03  0.50400001928E-02 0.  1.
       -1   -1    0    0    0  501  0.00000000000E+00  0.00000000000E+00 -0.12706099889E+03  0.12706099899E+03  0.50400001928E-02 0. -1.
    10030    2    1    2    0    0  0.00000000000E+00  0.00000000000E+00  0.57100573605E+03  0.82512773396E+03  0.59564102171E+03 0.  0.
        2    1    3    3  502    0  0.54928998515E+02  0.52349345147E+01  0.69092410862E+03  0.69312388741E+03  0.25500000920E-02 0.  1.
       -2    1    3    3    0  502 -0.54928998515E+02 -0.52349345147E+01 -0.11991837257E+03  0.13200384655E+03  0.25500000920E-02 0. -1.
</event>
<event>
 5   0  0.9822607E-03  0.6004297E+03  0.7818609E-02  0.9904515E-01
        2   -1    0    0  501    0  0.00000000000E+00  0.00000000000E+00  0.98557289287E+03  0.98557289287E+03  0.25500000920E-02 0.  1.
       -2   -1    0    0    0  501  0.00000000000E+00  0.00000000000E+00 -0.91448279472E+02  0.91448279508E+02  0.25500000920E-02 0. -1.
    10030    2    1    2    0    0  0.00000000000E+00  0.00000000000E+00  0.89412461340E+03  0.10770211724E+04  0.60042966405E+03 0.  0.
        3    1    3    3  502    0 -0.26583242594E+03 -0.59408467398E+02  0.22064654300E+03  0.35054407971E+03  0.10100000352E+00 0. -1.
       -3    1    3    3    0  502  0.26583242594E+03  0.59408467398E+02  0.67347807039E+03  0.72647709267E+03  0.10100000352E+00 0.  1.
</event>
<event>
 5   0  0.9028473E-03  0.6019209E+03  0.7818609E-02  0.9901429E-01
        2   -1    0    0  501    0  0.00000000000E+00  0.00000000000E+00  0.20469746510E+04  0.20469746510E+04  0.25500000920E-02 0.  1.
       -2   -1    0    0    0  501  0.00000000000E+00  0.00000000000E+00 -0.44249301781E+02  0.44249301854E+02  0.25500000920E-02 0. -1.
    10030    2    1    2    0    0  0.00000000000E+00  0.00000000000E+00  0.20027253492E+04  0.20912239529E+04  0.60192092221E+03 0.  0.
        1    1    3    3  502    0  0.28305963004E+03  0.35941565927E+02  0.66880143846E+03  0.72712441469E+03  0.50400001928E-02 0. -1.
       -1    1    3    3    0  502 -0.28305963004E+03 -0.35941565927E+02  0.13339239108E+04  0.13640995382E+04  0.50400001928E-02 0.  1.
</event>
<event>
 5   0  0.5790967E-03  0.6011516E+03  0.7818609E-02  0.9903020E-01
       -1   -1    0    0    0  501  0.00000000000E+00  0.00000000000E+00  0.60394016775E+03  0.60394016777E+03  0.50400001928E-02 0.  1.
        1   -1    0    0  501    0  0.00000000000E+00  0.00000000000E+00 -0.14959396954E+03  0.14959396963E+03  0.50400001928E-02 0. -1.
    10030    2    1    2    0    0  0.00000000000E+00  0.00000000000E+00  0.45434619821E+03  0.75353413740E+03  0.60115158521E+03 0.  0.
        3    1    3    3  502    0  0.17727443572E+03  0.19587517943E+03  0.47471844298E+02  0.26841553174E+03  0.10100000352E+00 0. -1.
       -3    1    3    3    0  502 -0.17727443572E+03 -0.19587517943E+03  0.40687435391E+03  0.48511860565E+03  0.10100000352E+00 0.  1.
</event>
<event>
 5   0  0.9822607E-03  0.6001306E+03  0.7818609E-02  0.9905135E-01
        2   -1    0    0  501    0  0.00000000000E+00  0.00000000000E+00  0.64889330945E+03  0.64889330945E+03  0.25500000920E-02 0.  1.
       -2   -1    0    0    0  501  0.00000000000E+00  0.00000000000E+00 -0.13875807708E+03  0.13875807710E+03  0.25500000920E-02 0. -1.
    10030    2    1    2    0    0  0.00000000000E+00  0.00000000000E+00  0.51013523237E+03  0.78765138655E+03  0.60013061198E+03 0.  0.
        3    1    3    3  502    0  0.84862778089E+02  0.20404240825E+03 -0.11347529650E+02  0.22127759059E+03  0.10100000352E+00 0. -1.
       -3    1    3    3    0  502 -0.84862778089E+02 -0.20404240825E+03  0.52148276202E+03  0.56637379596E+03  0.10100000352E+00 0.  1.
</event>
<event>
 5   0  0.5891927E-03  0.6005028E+03  0.7818609E-02  0.9904363E-01
       -1   -1    0    0    0  501  0.00000000000E+00  0.00000000000E+00  0.23271849325E+03  0.23271849331E+03  0.50400001928E-02 0.  1.
        1   -1    0    0  501    0  0.00000000000E+00  0.00000000000E+00 -0.38738177088E+03  0.38738177091E+03  0.50400001928E-02 0. -1.
    10030    2    1    2    0    0  0.00000000000E+00  0.00000000000E+00 -0.15466327762E+03  0.62010026422E+03  0.60050279619E+03 0.  0.
        4    1    3    3  502    0 -0.15897535606E+03 -0.17494358057E+03 -0.26849710510E+03  0.35772996599E+03  0.12699999809E+01 0. -1.
       -4    1    3    3    0  502  0.15897535606E+03  0.17494358057E+03  0.11383382747E+03  0.26237029823E+03  0.12699999809E+01 0.  1.
</event>
<event>
 5   0  0.5891927E-03  0.6001604E+03  0.7818609E-02  0.9905073E-01
       -1   -1    0    0    0  501  0.00000000000E+00  0.00000000000E+00  0.38142956738E+03  0.38142956742E+03  0.50400001928E-02 0. -1.
        1   -1    0    0  501    0  0.00000000000E+00  0.00000000000E+00 -0.23608061394E+03  0.23608061400E+03  0.50400001928E-02 0.  1.
    10030    2    1    2    0    0  0.00000000000E+00  0.00000000000E+00  0.14534895344E+03  0.61751018141E+03  0.60016040013E+03 0.  0.
        4    1    3    3  502    0  0.28604757906E+03 -0.96298207173E+01  0.16545078476E+03  0.33059268899E+03  0.12699999809E+01 0. -1.
       -4    1    3    3    0  502 -0.28604757906E+03  0.96298207173E+01 -0.20101831321E+02  0.28691749242E+03  0.12699999809E+01 0.  1.
</event>
<event>
 5   0  0.5790967E-03  0.6001582E+03  0.7818609E-02  0.9905078E-01
        1   -1    0    0  501    0  0.00000000000E+00  0.00000000000E+00  0.75888484456E+03  0.75888484458E+03  0.50400001928E-02 0. -1.
       -1   -1    0    0    0  501  0.00000000000E+00  0.00000000000E+00 -0.11865761129E+03  0.11865761140E+03  0.50400001928E-02 0.  1.
    10030    2    1    2    0    0  0.00000000000E+00  0.00000000000E+00  0.64022723327E+03  0.87754245598E+03  0.60015818899E+03 0.  0.
        3    1    3    3  502    0 -0.18810352885E+03 -0.23186667994E+03  0.36403659871E+03  0.47081604713E+03  0.10100000352E+00 0.  1.
       -3    1    3    3    0  502  0.18810352885E+03  0.23186667994E+03  0.27619063457E+03  0.40672640885E+03  0.10100000352E+00 0. -1.
</event>
<event>
 5   0  0.9303190E-03  0.5977731E+03  0.7818609E-02  0.9910037E-01
        2   -1    0    0  501    0  0.00000000000E+00  0.00000000000E+00  0.15364659102E+04  0.15364659102E+04  0.25500000920E-02 0. -1.
       -2   -1    0    0    0  501  0.00000000000E+00  0.00000000000E+00 -0.58141977629E+02  0.58141977685E+02  0.25500000920E-02 0.  1.
    10030    2    1    2    0    0  0.00000000000E+00  0.00000000000E+00  0.14783239325E+04  0.15946078878E+04  0.59777308947E+03 0.  0.
        4    1    3    3  502    0 -0.26290887095E+03  0.32304253778E+01  0.11182968122E+04  0.11487910529E+04  0.12699999809E+01 0.  1.
       -4    1    3    3    0  502  0.26290887095E+03 -0.32304253778E+01  0.36002712031E+03  0.44581683496E+03  0.12699999809E+01 0. -1.
</event>
<event>
 5   0  0.9303190E-03  0.5999765E+03  0.7818609E-02  0.9905455E-01
       -2   -1    0    0    0  501  0.00000000000E+00  0.00000000000E+00  0.54247117657E+03  0.54247117658E+03  0.25500000920E-02 0.  1.
        2   -1    0    0  501    0  0.00000000000E+00  0.00000000000E+00 -0.16589444367E+03  0.16589444369E+03  0.25500000920E-02 0. -1.
    10030    2    1    2    0    0  0.00000000000E+00  0.00000000000E+00  0.37657673290E+03  0.70836562027E+03  0.59997651305E+03 0.  0.
        4    1    3    3  502    0 -0.32628790289E+02  0.52901921380E+01 -0.16373457877E+03  0.16704265705E+03  0.12699999809E+01 0. -1.
       -4    1    3    3    0  502  0.32628790289E+02 -0.52901921380E+01  0.54031131167E+03  0.54132296322E+03  0.12699999809E+01 0.  1.
</event>
<event>
 5   0  0.3806250E-03  0.5883100E+03  0.7818609E-02  0.9929960E-01
        4   -1    0    0  501    0  0.00000000000E+00  0.00000000000E+00  0.17579204180E+03  0.17579662926E+03  0.12699999809E+01 0.  1.
       -4   -1    0    0    0  501  0.00000000000E+00  0.00000000000E+00 -0.49220144521E+03  0.49220308366E+03  0.12699999809E+01 0. -1.
    10030    2    1    2    0    0  0.00000000000E+00  0.00000000000E+00 -0.31640940341E+03  0.66799971292E+03  0.58831004232E+03 0.  0.
        2    1    3    3  502    0 -0.22021454562E+03  0.19056474106E+03 -0.20526531210E+03  0.35629091343E+03  0.25500000920E-02 0. -1.
       -2    1    3    3    0  502  0.22021454562E+03 -0.19056474106E+03 -0.11114409131E+03  0.31170879948E+03  0.25500000920E-02 0.  1.
</event>
<event>
 5   0  0.5790967E-03  0.6011909E+03  0.7818609E-02  0.9902938E-01
       -1   -1    0    0    0  501  0.00000000000E+00  0.00000000000E+00  0.77765575235E+02  0.77765575399E+02  0.50400001928E-02 0. -1.
        1   -1    0    0  501    0  0.00000000000E+00  0.00000000000E+00 -0.11619233551E+04  0.11619233551E+04  0.50400001928E-02 0.  1.
    10030    2    1    2    0    0  0.00000000000E+00  0.00000000000E+00 -0.10841577799E+04  0.12396889305E+04  0.60119094536E+03 0.  0.
        3    1    3    3  502    0 -0.22064473538E+03 -0.59716329214E+02 -0.13954221260E+03  0.26780996719E+03  0.10100000352E+00 0. -1.
       -3    1    3    3    0  502  0.22064473538E+03  0.59716329214E+02 -0.94461556726E+03  0.97187896331E+03  0.10100000352E+00 0.  1.
</event>
<event>
 5   0  0.5819446E-03  0.6023867E+03  0.7818609E-02  0.9900467E-01
        1   -1    0    0  501    0  0.00000000000E+00  0.00000000000E+00  0.75515235559E+03  0.75515235560E+03  0.50400001928E-02 0.  1.
       -1   -1    0    0    0  501  0.00000000000E+00  0.00000000000E+00 -0.12013128637E+03  0.12013128648E+03  0.50400001928E-02 0. -1.
    10030    2    1    2    0    0  0.00000000000E+00  0.00000000000E+00  0.63502106921E+03  0.87528364208E+03  0.60238666631E+03 0.  0.
        5    1    3    3  502    0  0.27629156975E+02  0.12331327953E+03  0.71471008180E+03  0.72581135720E+03  0.46999998093E+01 0.  1.
       -5    1    3    3    0  502 -0.27629156975E+02 -0.12331327953E+03 -0.79689012585E+02  0.14947228488E+03  0.46999998093E+01 0. -1.
</event>
<event>
 5   0  0.9391405E-03  0.5994229E+03  0.7818609E-02  0.9906604E-01
        2   -1    0    0  501    0  0.00000000000E+00  0.00000000000E+00  0.66703607504E+03  0.66703607504E+03  0.25500000920E-02 0.  1.
       -2   -1    0    0    0  501  0.00000000000E+00  0.00000000000E+00 -0.13466578893E+03  0.13466578895E+03  0.25500000920E-02 0. -1.
    10030    2    1    2    0    0  0.00000000000E+00  0.00000000000E+00  0.53237028611E+03  0.80170186399E+03  0.59942285342E+03 0.  0.
        2    1    3    3  502    0  0.17593745938E+03 -0.15636987182E+03  0.18046762870E+02  0.23607459008E+03  0.25500000920E-02 0. -1.
       -2    1    3    3    0  502 -0.17593745938E+03  0.15636987182E+03  0.51432352324E+03  0.56562727391E+03  0.25500000920E-02 0.  1.
</event>
<event>
 5   0  0.9822607E-03  0.5989563E+03  0.7818609E-02  0.9907574E-01
        2   -1    0    0  501    0  0.00000000000E+00  0.00000000000E+00  0.16873776065E+04  0.16873776065E+04  0.25500000920E-02 0.  1.
       -2   -1    0    0    0  501  0.00000000000E+00  0.00000000000E+00 -0.53151809304E+02  0.53151809365E+02  0.25500000920E-02 0. -1.
    10030    2    1    2    0    0  0.00000000000E+00  0.00000000000E+00  0.16342257971E+04  0.17405294158E+04  0.59895633503E+03 0.  0.
        3    1    3    3  502    0  0.11472722089E+03 -0.71082428205E+02  0.40231855590E+02  0.14083202483E+03  0.10100000352E+00 0. -1.
       -3    1    3    3    0  502 -0.11472722089E+03  0.71082428205E+02  0.15939939416E+04  0.15996973910E+04  0.10100000352E+00 0.  1.
</event>
<event>
 5   0  0.9028473E-03  0.6001439E+03  0.7818609E-02  0.9905108E-01
       -2   -1    0    0    0  501  0.00000000000E+00  0.00000000000E+00  0.11620754993E+03  0.11620754995E+03  0.25500000920E-02 0. -1.
        2   -1    0    0  501    0  0.00000000000E+00  0.00000000000E+00 -0.77484793673E+03  0.77484793673E+03  0.25500000920E-02 0.  1.
    10030    2    1    2    0    0  0.00000000000E+00  0.00000000000E+00 -0.65864038680E+03  0.89105548669E+03  0.60014391709E+03 0.  0.
        1    1    3    3  502    0  0.19462230257E+03  0.17232766417E+03 -0.55187477160E+03  0.61003313685E+03  0.50400001928E-02 0. -1.
       -1    1    3    3    0  502 -0.19462230257E+03 -0.17232766417E+03 -0.10676561520E+03  0.28102234984E+03  0.50400001928E-02 0.  1.
</event>
<event>
 5   0  0.9391405E-03  0.5997663E+03  0.7818609E-02  0.9905891E-01
        2   -1    0    0  501    0  0.00000000000E+00  0.00000000000E+00  0.49632757468E+03  0.49632757469E+03  0.25500000920E-02 0. -1.
       -2   -1    0    0    0  501  0.00000000000E+00  0.00000000000E+00 -0.18119064687E+03  0.18119064689E+03  0.25500000920E-02 0.  1.
    10030    2    1    2    0    0  0.00000000000E+00  0.00000000000E+00  0.31513692781E+03  0.67751822158E+03  0.59976633558E+03 0.  0.
        2    1    3    3  502    0  0.25259886471E+03  0.44253982107E+02 -0.18035819892E+02  0.25707954448E+03  0.25500000920E-02 0.  1.
       -2    1    3    3    0  502 -0.25259886471E+03 -0.44253982107E+02  0.33317274770E+03  0.42043867710E+03  0.25500000920E-02 0. -1.
</event>
<event>
 5   0  0.9822607E-03  0.5997282E+03  0.7818609E-02  0.9905970E-01
       -2   -1    0    0    0  501  0.00000000000E+00  0.00000000000E+00  0.80966349684E+02  0.80966349724E+02  0.25500000920E-02 0. -1.
        2   -1    0    0  501    0  0.00000000000E+00  0.00000000000E+00 -0.11105659533E+04  0.11105659533E+04  0.25500000920E-02 0.  1.
    10030    2    1    2    0    0  0.00000000000E+00  0.00000000000E+00 -0.10295996036E+04  0.11915323030E+04  0.59972817625E+03 0.  0.
        3    1    3    3  502    0 -0.15779264210E+03  0.15363171290E+03 -0.91913536855E+03  0.94515134081E+03  0.10100000352E+00 0.  1.
       -3    1    3    3    0  502  0.15779264210E+03 -0.15363171290E+03 -0.11046423505E+03  0.24638096220E+03  0.10100000352E+00 0. -1.
</event>
<event>
 5   0  0.5790967E-03  0.6007555E+03  0.7818609E-02  0.9903840E-01
        1   -1    0    0  501    0  0.00000000000E+00  0.00000000000E+00  0.45678890326E+03  0.45678890329E+03  0.50400001928E-02 0.  1.
       -1   -1    0    0    0  501  0.00000000000E+00  0.00000000000E+00 -0.19752406068E+03  0.19752406074E+03  0.50400001928E-02 0. -1.
    10030    2    1    2    0    0  0.00000000000E+00  0.00000000000E+00  0.25926484259E+03  0.65431296403E+03  0.60075552124E+03 0.  0.
        3    1    3    3  502    0  0.13060116451E+03 -0.67530243548E+02  0.41491864619E+03  0.44019824071E+03  0.10100000352E+00 0.  1.
       -3    1    3    3    0  502 -0.13060116451E+03  0.67530243548E+02 -0.15565380361E+03  0.21411472332E+03  0.10100000352E+00 0. -1.
</event>
<event>
 5   0  0.9162342E-03  0.6007187E+03  0.7818609E-02  0.9903916E-01
        2   -1    0    0  501    0  0.00000000000E+00  0.00000000000E+00  0.71078895330E+02  0.71078895375E+02  0.25500000920E-02 0.  1.
       -2   -1    0    0    0  501  0.00000000000E+00  0.00000000000E+00 -0.12692338783E+04  0.12692338783E+04  0.25500000920E-02 0. -1.
    10030    2    1    2    0    0  0.00000000000E+00  0.00000000000E+00 -0.11981549830E+04  0.13403127737E+04  0.60071870960E+03 0.  0.
        5    1    3    3  502    0  0.85553580890E+02 -0.19365685292E+03 -0.10743310954E+04  0.10950030979E+04  0.46999998093E+01 0. -1.
       -5    1    3    3    0  502 -0.85553580890E+02  0.19365685292E+03 -0.12382388753E+03  0.24530967573E+03  0.46999998093E+01 0.  1.
</event>
<event>
 5   0  0.5819446E-03  0.6031403E+03  0.7818609E-02  0.9898912E-01
       -1   -1    0    0    0  501  0.00000000000E+00  0.00000000000E+00  0.89381544011E+02  0.89381544153E+02  0.50400001928E-02 0. -1.
        1   -1    0    0  501    0  0.00000000000E+00  0.00000000000E+00 -0.10174869283E+04  0.10174869283E+04  0.50400001928E-02 0.  1.
    10030    2    1    2    0    0  0.00000000000E+00  0.00000000000E+00 -0.92810538432E+03  0.11068684725E+04  0.60314029131E+03 0.  0.
        5    1    3    3  502    0  0.56648433428E+01 -0.11752953184E+03  0.45443084624E+02  0.12622379032E+03  0.46999998093E+01 0. -1.
       -5    1    3    3    0  502 -0.56648433428E+01  0.11752953184E+03 -0.97354846894E+03  0.98064468218E+03  0.46999998093E+01 0.  1.
</event>
<event>
 5   0  0.5790967E-03  0.6013014E+03  0.7818609E-02  0.9902710E-01
        1   -1    0    0  501    0  0.00000000000E+00  0.00000000000E+00  0.61465351531E+03  0.61465351533E+03  0.50400001928E-02 0.  1.
       -1   -1    0    0    0  501  0.00000000000E+00  0.00000000000E+00 -0.14705981228E+03  0.14705981237E+03  0.50400001928E-02 0. -1.
    10030    2    1    2    0    0  0.00000000000E+00  0.00000000000E+00  0.46759370303E+03  0.76171332770E+03  0.60130135747E+03 0.  0.
        3    1    3    3  502    0  0.19551397377E+02  0.75983858196E+02 -0.13386257298E+03  0.15516121452E+03  0.10100000352E+00 0. -1.
       -3    1    3    3    0  502 -0.19551397377E+02 -0.75983858196E+02  0.60145627601E+03  0.60655211318E+03  0.10100000352E+00 0.  1.
</event>
<event>
 5   0  0.3806250E-03  0.5995600E+03  0.7818609E-02  0.9906319E-01
        3   -1    0    0  501    0  0.00000000000E+00  0.00000000000E+00  0.73493477125E+02  0.73493546526E+02  0.10100000352E+00 0.  1.
       -3   -1    0    0    0  501  0.00000000000E+00  0.00000000000E+00 -0.12228025205E+04  0.12228025246E+04  0.10100000352E+00 0. -1.
    10030    2    1    2    0    0  0.00000000000E+00  0.00000000000E+00 -0.11493090433E+04  0.12962960712E+04  0.59956002786E+03 0.  0.
        3    1    3    3  502    0  0.29612834739E+03 -0.46368222523E+02 -0.56362233208E+03  0.63836678611E+03  0.10100000352E+00 0. -1.
       -3    1    3    3    0  502 -0.29612834739E+03  0.46368222523E+02 -0.58568671126E+03  0.65792928505E+03  0.10100000352E+00 0.  1.
</event>
<event>
 5   0  0.9822607E-03  0.5967806E+03  0.7818609E-02  0.9912108E-01
        2   -1    0    0  501    0  0.00000000000E+00  0.00000000000E+00  0.40303461227E+03  0.40303461228E+03  0.25500000920E-02 0.  1.
       -2   -1    0    0    0  501  0.00000000000E+00  0.00000000000E+00 -0.22091593046E+03  0.22091593047E+03  0.25500000920E-02 0. -1.
    10030    2    1    2    0    0  0.00000000000E+00  0.00000000000E+00  0.18211868181E+03  0.62395054275E+03  0.59678058408E+03 0.  0.
        3    1    3    3  502    0 -0.15205604426E+03 -0.76907299598E+02 -0.16504365794E+03  0.23722392914E+03  0.10100000352E+00 0. -1.
       -3    1    3    3    0  502  0.15205604426E+03  0.76907299598E+02  0.34716233976E+03  0.38672661361E+03  0.10100000352E+00 0.  1.
</event>
<event>
 5   0  0.5765045E-03  0.5999306E+03  0.7818609E-02  0.9905550E-01
       -1   -1    0    0    0  501  0.00000000000E+00  0.00000000000E+00  0.27484158474E+03  0.27484158479E+03  0.50400001928E-02 0.  1.
        1   -1    0    0  501    0  0.00000000000E+00  0.00000000000E+00 -0.32738561012E+03  0.32738561016E+03  0.50400001928E-02 0. -1.
    10030    2    1    2    0    0  0.00000000000E+00  0.00000000000E+00 -0.52544025374E+02  0.60222719494E+03  0.59993059576E+03 0.  0.
        1    1    3    3  502    0 -0.69156720264E+02 -0.20563581362E+03  0.18166932649E+03  0.28297081831E+03  0.50400001928E-02 0.  1.
       -1    1    3    3    0  502  0.69156720264E+02  0.20563581362E+03 -0.23421335187E+03  0.31925637663E+03  0.50400001928E-02 0. -1.
</event>
<event>
 5   0  0.5790967E-03  0.5997618E+03  0.7818609E-02  0.9905900E-01
        1   -1    0    0  501    0  0.00000000000E+00  0.00000000000E+00  0.12786342450E+03  0.12786342460E+03  0.50400001928E-02 0.  1.
       -1   -1    0    0    0  501  0.00000000000E+00  0.00000000000E+00 -0.70331734071E+03  0.70331734073E+03  0.50400001928E-02 0. -1.
    10030    2    1    2    0    0  0.00000000000E+00  0.00000000000E+00 -0.57545391621E+03  0.83118076533E+03  0.59976183188E+03 0.  0.
        3    1    3    3  502    0 -0.16244984255E+03  0.21355332162E+03 -0.10213883920E+03  0.28710159385E+03  0.10100000352E+00 0.  1.
       -3    1    3    3    0  502  0.16244984255E+03 -0.21355332162E+03 -0.47331507701E+03  0.54407917148E+03  0.10100000352E+00 0. -1.
</event>
<event>
 5   0  0.6078658E-03  0.6002588E+03  0.7818609E-02  0.9904869E-01
        1   -1    0    0  501    0  0.00000000000E+00  0.00000000000E+00  0.12220183630E+04  0.12220183630E+04  0.50400001928E-02 0. -1.
       -1   -1    0    0    0  501  0.00000000000E+00  0.00000000000E+00 -0.73712188302E+02  0.73712188475E+02  0.50400001928E-02 0.  1.
    10030    2    1    2    0    0  0.00000000000E+00  0.00000000000E+00  0.11483061747E+04  0.12957305515E+04  0.60025877021E+03 0.  0.
        2    1    3    3  502    0  0.86717255059E+02 -0.21812892465E+03  0.97786429059E+03  0.10056434164E+04  0.25500000920E-02 0. -1.
       -2    1    3    3    0  502 -0.86717255059E+02  0.21812892465E+03  0.17044188414E+03  0.29008713513E+03  0.25500000920E-02 0.  1.
</event>
<event>
 5   0  0.5819446E-03  0.6008635E+03  0.7818609E-02  0.9903616E-01
        1   -1    0    0  501    0  0.00000000000E+00  0.00000000000E+00  0.43908561700E+03  0.43908561703E+03  0.50400001928E-02 0. -1.
       -1   -1    0    0    0  501  0.00000000000E+00  0.00000000000E+00 -0.20556180329E+03  0.20556180335E+03  0.50400001928E-02 0.  1.
    10030    2    1    2    0    0  0.00000000000E+00  0.00000000000E+00  0.23352381371E+03  0.64464742038E+03  0.60086348286E+03 0.  0.
        5    1    3    3  502    0  0.60876977981E+02  0.27378445384E+03  0.23217984480E+03  0.36413390936E+03  0.46999998093E+01 0.  1.
       -5    1    3    3    0  502 -0.60876977981E+02 -0.27378445384E+03  0.13439689096E+01  0.28051351102E+03  0.46999998093E+01 0. -1.
</event>
<event>
 5   0  0.9303190E-03  0.6056544E+03  0.7818609E-02  0.9893744E-01
       -2   -1    0    0    0  501  0.00000000000E+00  0.00000000000E+00  0.12204755775E+03  0.12204755777E+03  0.25500000920E-02 0. -1.
        2   -1    0    0  501    0  0.00000000000E+00  0.00000000000E+00 -0.75138174805E+03  0.75138174806E+03  0.25500000920E-02 0.  1.
    10030    2    1    2    0    0  0.00000000000E+00  0.00000000000E+00 -0.62933419030E+03  0.87342930583E+03  0.60565438098E+03 0.  0.
        4    1    3    3  502    0  0.11074356033E+03 -0.16710825250E+03  0.12645684864E+02  0.20087516137E+03  0.12699999809E+01 0. -1.
       -4    1    3    3    0  502 -0.11074356033E+03  0.16710825250E+03 -0.64197987517E+03  0.67255414446E+03  0.12699999809E+01 0.  1.
</event>
<event>
 5   0  0.9028473E-03  0.5996429E+03  0.7818609E-02  0.9906147E-01
       -2   -1    0    0    0  501  0.00000000000E+00  0.00000000000E+00  0.25334863889E+03  0.25334863890E+03  0.25500000920E-02 0. -1.
        2   -1    0    0  501    0  0.00000000000E+00  0.00000000000E+00 -0.35481895055E+03  0.35481895056E+03  0.25500000920E-02 0.  1.
    10030    2    1    2    0    0  0.00000000000E+00  0.00000000000E+00 -0.10147031166E+03  0.60816758946E+03  0.59964288766E+03 0.  0.
        1    1    3    3  502    0  0.75365746964E+02  0.42317734026E+02  0.24043875105E+03  0.25550260167E+03  0.50400001928E-02 0. -1.
       -1    1    3    3    0  502 -0.75365746964E+02 -0.42317734026E+02 -0.34190906270E+03  0.35266498779E+03  0.50400001928E-02 0.  1.
</event>
<event>
 5   0  0.5891927E-03  0.6001210E+03  0.7818609E-02  0.9905155E-01
        1   -1    0    0  501    0  0.00000000000E+00  0.00000000000E+00  0.27727990489E+03  0.27727990494E+03  0.50400001928E-02 0.  1.
       -1   -1    0    0    0  501  0.00000000000E+00  0.00000000000E+00 -0.32471265747E+03  0.32471265751E+03  0.50400001928E-02 0. -1.
    10030    2    1    2    0    0  0.00000000000E+00  0.00000000000E+00 -0.47432752580E+02  0.60199256245E+03  0.60012097049E+03 0.  0.
        4    1    3    3  502    0  0.19012427509E+03 -0.22864095226E+03 -0.63975778293E+02  0.30416843712E+03  0.12699999809E+01 0. -1.
       -4    1    3    3    0  502 -0.19012427509E+03  0.22864095226E+03  0.16543025713E+02  0.29782412533E+03  0.12699999809E+01 0.  1.
</event>
<event>
 5   0  0.9391405E-03  0.5990384E+03  0.7818609E-02  0.9907403E-01
       -2   -1    0    0    0  501  0.00000000000E+00  0.00000000000E+00  0.12128503056E+03  0.12128503059E+03  0.25500000920E-02 0.  1.
        2   -1    0    0  501    0  0.00000000000E+00  0.00000000000E+00 -0.73967691388E+03  0.73967691388E+03  0.25500000920E-02 0. -1.
    10030    2    1    2    0    0  0.00000000000E+00  0.00000000000E+00 -0.61839188332E+03  0.86096194447E+03  0.59903835309E+03 0.  0.
        2    1    3    3  502    0 -0.25848523260E+03 -0.10654491701E+03 -0.46362605179E+03  0.54140146908E+03  0.25500000920E-02 0. -1.
       -2    1    3    3    0  502  0.25848523260E+03  0.10654491701E+03 -0.15476583153E+03  0.31956047539E+03  0.25500000920E-02 0.  1.
</event>
<event>
 5   0  0.5790967E-03  0.6000538E+03  0.7818609E-02  0.9905295E-01
        1   -1    0    0  501    0  0.00000000000E+00  0.00000000000E+00  0.42842297989E+03  0.42842297992E+03  0.50400001928E-02 0.  1.
       -1   -1    0    0    0  501  0.00000000000E+00  0.00000000000E+00 -0.21011040900E+03  0.21011040906E+03  0.50400001928E-02 0. -1.
    10030    2    1    2    0    0  0.00000000000E+00  0.00000000000E+00  0.21831257089E+03  0.63853338898E+03  0.60005375612E+03 0.  0.
        3    1    3    3  502    0 -0.25042409818E+03  0.15251961859E+03  0.17680710117E+03  0.34239629704E+03  0.10100000352E+00 0. -1.
       -3    1    3    3    0  502  0.25042409818E+03 -0.15251961859E+03  0.41505469723E+02  0.29613709194E+03  0.10100000352E+00 0.  1.
</event>
<event>
 5   0  0.9391405E-03  0.6003586E+03  0.7818609E-02  0.9904662E-01
       -2   -1    0    0    0  501  0.00000000000E+00  0.00000000000E+00  0.79508686587E+02  0.79508686628E+02  0.25500000920E-02 0.  1.
        2   -1    0    0  501    0  0.00000000000E+00  0.00000000000E+00 -0.11333051459E+04  0.11333051459E+04  0.25500000920E-02 0. -1.
    10030    2    1    2    0    0  0.00000000000E+00  0.00000000000E+00 -0.10537964593E+04  0.12128138325E+04  0.60035857179E+03 0.  0.
        2    1    3    3  502    0  0.99842762355E+02 -0.20040553522E+03 -0.93081009713E+03  0.95736011650E+03  0.25500000920E-02 0. -1.
       -2    1    3    3    0  502 -0.99842762355E+02  0.20040553522E+03 -0.12298636218E+03  0.25545371603E+03  0.25500000920E-02 0.  1.
</event>
<event>
 5   0  0.6078658E-03  0.5959820E+03  0.7818609E-02  0.9913777E-01
       -1   -1    0    0    0  501  0.00000000000E+00  0.00000000000E+00  0.85791725426E+02  0.85791725574E+02  0.50400001928E-02 0.  1.
        1   -1    0    0  501    0  0.00000000000E+00  0.00000000000E+00 -0.10350488585E+04  0.10350488585E+04  0.50400001928E-02 0. -1.
    10030    2    1    2    0    0  0.00000000000E+00  0.00000000000E+00 -0.94925713303E+03  0.11208405840E+04  0.59598197139E+03 0.  0.
        2    1    3    3  502    0  0.53307158302E+02 -0.12524002322E+03 -0.97317040094E+03  0.98264304089E+03  0.25500000920E-02 0. -1.
       -2    1    3    3    0  502 -0.53307158302E+02  0.12524002322E+03  0.23913267912E+02  0.13819754315E+03  0.25500000920E-02 0.  1.
</event>
<event>
 5   0  0.6078658E-03  0.5991585E+03  0.7818609E-02  0.9907153E-01
       -1   -1    0    0    0  501  0.00000000000E+00  0.00000000000E+00  0.18524526401E+03  0.18524526408E+03  0.50400001928E-02 0. -1.
        1   -1    0    0  501    0  0.00000000000E+00  0.00000000000E+00 -0.48448059912E+03  0.48448059915E+03  0.50400001928E-02 0.  1.
    10030    2    1    2    0    0  0.00000000000E+00  0.00000000000E+00 -0.29923533511E+03  0.66972586323E+03  0.59915853170E+03 0.  0.
        2    1    3    3  502    0 -0.72548795843E+02 -0.83484294375E+02 -0.46082339846E+03  0.47391049762E+03  0.25500000920E-02 0.  1.
       -2    1    3    3    0  502  0.72548795843E+02  0.83484294375E+02  0.16158806335E+03  0.19581536561E+03  0.25500000920E-02 0. -1.
</event>
<event>
 5   0  0.6078658E-03  0.5996896E+03  0.7818609E-02  0.9906050E-01
       -1   -1    0    0    0  501  0.00000000000E+00  0.00000000000E+00  0.14213907007E+03  0.14213907016E+03  0.50400001928E-02 0.  1.
        1   -1    0    0  501    0  0.00000000000E+00  0.00000000000E+00 -0.63252773908E+03  0.63252773910E+03  0.50400001928E-02 0. -1.
    10030    2    1    2    0    0  0.00000000000E+00  0.00000000000E+00 -0.49038866901E+03  0.77466680925E+03  0.59968960193E+03 0.  0.
        2    1    3    3  502    0 -0.14665052510E+03  0.18892736534E+03 -0.11575074025E+02  0.23944500043E+03  0.25500000920E-02 0.  1.
       -2    1    3    3    0  502  0.14665052510E+03 -0.18892736534E+03 -0.47881359498E+03  0.53522180882E+03  0.25500000920E-02 0. -1.
</event>
<event>
 5   0  0.9391405E-03  0.6002297E+03  0.7818609E-02  0.9904930E-01
       -2   -1    0    0    0  501  0.00000000000E+00  0.00000000000E+00  0.36963148689E+03  0.36963148690E+03  0.25500000920E-02 0.  1.
        2   -1    0    0  501    0  0.00000000000E+00  0.00000000000E+00 -0.24367219653E+03  0.24367219654E+03  0.25500000920E-02 0. -1.
    10030    2    1    2    0    0  0.00000000000E+00  0.00000000000E+00  0.12595929036E+03  0.61330368344E+03  0.60022967711E+03 0.  0.
        2    1    3    3  502    0 -0.29501612588E+03  0.47173834257E+02  0.92042664478E+02  0.31262075628E+03  0.25500000920E-02 0.  1.
       -2    1    3    3    0  502  0.29501612588E+03 -0.47173834257E+02  0.33916625884E+02  0.30068292716E+03  0.25500000920E-02 0. -1.
</event>
<event>
 5   0  0.5819446E-03  0.5993374E+03  0.7818609E-02  0.9906782E-01
       -1   -1    0    0    0  501  0.00000000000E+00  0.00000000000E+00  0.42147181636E+03  0.42147181639E+03  0.50400001928E-02 0. -1.
        1   -1    0    0  501    0  0.00000000000E+00  0.00000000000E+00 -0.21306603629E+03  0.21306603635E+03  0.50400001928E-02 0.  1.
    10030    2    1    2    0    0  0.00000000000E+00  0.00000000000E+00  0.20840578007E+03  0.63453785274E+03  0.59933739863E+03 0.  0.
        5    1    3    3  502    0 -0.19479017670E+03 -0.12701783893E+03 -0.95845674615E+02  0.25156555346E+03  0.46999998093E+01 0.  1.
       -5    1    3    3    0  502  0.19479017670E+03  0.12701783893E+03  0.30425145468E+03  0.38297229928E+03  0.46999998093E+01 0. -1.
</event>
<event>
 5   0  0.9162342E-03  0.6022896E+03  0.7818609E-02  0.9900667E-01
       -2   -1    0    0    0  501  0.00000000000E+00  0.00000000000E+00  0.67441947976E+02  0.67441948024E+02  0.25500000920E-02 0.  1.
        2   -1    0    0  501    0  0.00000000000E+00  0.00000000000E+00 -0.13446853265E+04  0.13446853265E+04  0.25500000920E-02 0. -1.
    10030    2    1    2    0    0  0.00000000000E+00  0.00000000000E+00 -0.12772433786E+04  0.14121272746E+04  0.60228962426E+03 0.  0.
        5    1    3    3  502    0 -0.68251085791E+02 -0.16850594064E+02  0.47845143280E+02  0.85166900646E+02  0.46999998093E+01 0.  1.
       -5    1    3    3    0  502  0.68251085791E+02  0.16850594064E+02 -0.13250885218E+04  0.13269603739E+04  0.46999998093E+01 0. -1.
</event>
<event>
 5   0  0.9162342E-03  0.6009784E+03  0.7818609E-02  0.9903378E-01
       -2   -1    0    0    0  501  0.00000000000E+00  0.00000000000E+00  0.27490947764E+03  0.27490947765E+03  0.25500000920E-02 0.  1.
        2   -1    0    0  501    0  0.00000000000E+00  0.00000000000E+00 -0.32844909738E+03  0.32844909739E+03  0.25500000920E-02 0. -1.
    10030    2    1    2    0    0  0.00000000000E+00  0.00000000000E+00 -0.53539619746E+02  0.60335857504E+03  0.60097843488E+03 0.  0.
        5    1    3    3  502    0  0.23868945449E+03  0.14635426649E+03 -0.13619437241E+03  0.31138918427E+03  0.46999998093E+01 0. -1.
       -5    1    3    3    0  502 -0.23868945449E+03 -0.14635426649E+03  0.82654752668E+02  0.29196939077E+03  0.46999998093E+01 0.  1.
</event>
<event>
 5   0  0.9303190E-03  0.5992945E+03  0.7818609E-02  0.9906871E-01
        2   -1    0    0  501    0  0.00000000000E+00  0.00000000000E+00  0.28788606750E+03  0.28788606752E+03  0.25500000920E-02 0.  1.
       -2   -1    0    0    0  501  0.00000000000E+00  0.00000000000E+00 -0.31188887307E+03  0.31188887308E+03  0.25500000920E-02 0. -1.
    10030    2    1    2    0    0  0.00000000000E+00  0.00000000000E+00 -0.24002805563E+02  0.59977494059E+03  0.59929445575E+03 0.  0.
        4    1    3    3  502    0 -0.13732217863E+03  0.68163776783E+02  0.24566018699E+03  0.28957593405E+03  0.12699999809E+01 0.  1.
       -4    1    3    3    0  502  0.13732217863E+03 -0.68163776783E+02 -0.26966299255E+03  0.31019900654E+03  0.12699999809E+01 0. -1.
</event>
<event>
 5   0  0.5891927E-03  0.5996362E+03  0.7818609E-02  0.9906161E-01
       -1   -1    0    0    0  501  0.00000000000E+00  0.00000000000E+00  0.81644167638E+03  0.81644167640E+03  0.50400001928E-02 0. -1.
        1   -1    0    0  501    0  0.00000000000E+00  0.00000000000E+00 -0.11010080955E+03  0.11010080967E+03  0.50400001928E-02 0.  1.
    10030    2    1    2    0    0  0.00000000000E+00  0.00000000000E+00  0.70634086683E+03  0.92654248607E+03  0.59963618831E+03 0.  0.
        4    1    3    3  502    0 -0.16767018464E+03 -0.20949489950E+03  0.55983063772E+03  0.62081668757E+03  0.12699999809E+01 0. -1.
       -4    1    3    3    0  502  0.16767018464E+03  0.20949489950E+03  0.14651022911E+03  0.30572579850E+03  0.12699999809E+01 0.  1.
</event>
<event>
 5   0  0.3806250E-03  0.5999164E+03  0.7818609E-02  0.9905579E-01
       -4   -1    0    0    0  501  0.00000000000E+00  0.00000000000E+00  0.44455711214E+03  0.44455892619E+03  0.12699999809E+01 0.  1.
        4   -1    0    0  501    0  0.00000000000E+00  0.00000000000E+00 -0.20238806813E+03  0.20239205276E+03  0.12699999809E+01 0. -1.
    10030    2    1    2    0    0  0.00000000000E+00  0.00000000000E+00  0.24216904400E+03  0.64695097895E+03  0.59991643026E+03 0.  0.
        1    1    3    3  502    0  0.21760731496E+03 -0.92357721780E+01 -0.10132964805E+03  0.24022060821E+03  0.50400001928E-02 0. -1.
       -1    1    3    3    0  502 -0.21760731496E+03  0.92357721780E+01  0.34349869205E+03  0.40673037074E+03  0.50400001928E-02 0.  1.
</event>
<event>
 5   0  0.3806250E-03  0.6009132E+03  0.7818609E-02  0.9903513E-01
        3   -1    0    0  501    0  0.00000000000E+00  0.00000000000E+00  0.73022834099E+03  0.73022834797E+03  0.10100000352E+00 0.  1.
       -3   -1    0    0    0  501  0.00000000000E+00  0.00000000000E+00 -0.12362455312E+03  0.12362459438E+03  0.10100000352E+00 0. -1.
    10030    2    1    2    0    0  0.00000000000E+00  0.00000000000E+00  0.60660378787E+03  0.85385294235E+03  0.60091321479E+03 0.  0.
        4    1    3    3  502    0  0.19326769027E+03  0.20954879913E+03  0.16843022790E+03  0.33110942888E+03  0.12699999809E+01 0. -1.
       -4    1    3    3    0  502 -0.19326769027E+03 -0.20954879913E+03  0.43817355996E+03  0.52274351347E+03  0.12699999809E+01 0.  1.
</event>
<event>
 5   0  0.9391405E-03  0.5995146E+03  0.7818609E-02  0.9906414E-01
       -2   -1    0    0    0  501  0.00000000000E+00  0.00000000000E+00  0.32383496926E+03  0.32383496927E+03  0.25500000920E-02 0. -1.
        2   -1    0    0  501    0  0.00000000000E+00  0.00000000000E+00 -0.27746982979E+03  0.27746982980E+03  0.25500000920E-02 0.  1.
    10030    2    1    2    0    0  0.00000000000E+00  0.00000000000E+00  0.46365139468E+02  0.60130479907E+03  0.59951458300E+03 0.  0.
        2    1    3    3  502    0 -0.45731323954E+02  0.12868546646E+03 -0.24445338842E+03  0.28001564668E+03  0.25500000920E-02 0.  1.
       -2    1    3    3    0  502  0.45731323954E+02 -0.12868546646E+03  0.29081852789E+03  0.32128915239E+03  0.25500000920E-02 0. -1.
</event>
<event>
 5   0  0.6078658E-03  0.5974897E+03  0.7818609E-02  0.9910628E-01
        1   -1    0    0  501    0  0.00000000000E+00  0.00000000000E+00  0.11638173843E+04  0.11638173843E+04  0.50400001928E-02 0.  1.
       -1   -1    0    0    0  501  0.00000000000E+00  0.00000000000E+00 -0.76685986071E+02  0.76685986237E+02  0.50400001928E-02 0. -1.
    10030    2    1    2    0    0  0.00000000000E+00  0.00000000000E+00  0.10871313982E+04  0.12405033705E+04  0.59748969474E+03 0.  0.
        2    1    3    3  502    0  0.12921582642E+03 -0.72577257376E+02  0.10821136589E+04  0.10922152530E+04  0.25500000920E-02 0.  1.
       -2    1    3    3    0  502 -0.12921582642E+03  0.72577257376E+02  0.50177393004E+01  0.14828811753E+03  0.25500000920E-02 0. -1.
</event>
<event>
 5   0  0.9822607E-03  0.6003434E+03  0.7818609E-02  0.9904694E-01
       -2   -1    0    0    0  501  0.00000000000E+00  0.00000000000E+00  0.96383970536E+02  0.96383970569E+02  0.25500000920E-02 0.  1.
        2   -1    0    0  501    0  0.00000000000E+00  0.00000000000E+00 -0.93483430285E+03  0.93483430286E+03  0.25500000920E-02 0. -1.
    10030    2    1    2    0    0  0.00000000000E+00  0.00000000000E+00 -0.83845033232E+03  0.10312182734E+04  0.60034337482E+03 0.  0.
        3    1    3    3  502    0  0.10483503645E+03  0.27633788776E+03 -0.32914717410E+03  0.44236962542E+03  0.10100000352E+00 0.  1.
       -3    1    3    3    0  502 -0.10483503645E+03 -0.27633788776E+03 -0.50930315822E+03  0.58884864800E+03  0.10100000352E+00 0. -1.
</event>
<event>
 5   0  0.9162342E-03  0.5994646E+03  0.7818609E-02  0.9906518E-01
        2   -1    0    0  501    0  0.00000000000E+00  0.00000000000E+00  0.46131716558E+03  0.46131716559E+03  0.25500000920E-02 0.  1.
       -2   -1    0    0    0  501  0.00000000000E+00  0.00000000000E+00 -0.19474549105E+03  0.19474549107E+03  0.25500000920E-02 0. -1.
    10030    2    1    2    0    0  0.00000000000E+00  0.00000000000E+00  0.26657167453E+03  0.65606265666E+03  0.59946455424E+03 0.  0.
        5    1    3    3  502    0 -0.14346415794E+02 -0.27813130640E+03  0.25443758701E+03  0.37725776192E+03  0.46999998093E+01 0.  1.
       -5    1    3    3    0  502  0.14346415794E+02  0.27813130640E+03  0.12134087521E+02  0.27880489473E+03  0.46999998093E+01 0. -1.
</event>
<event>
 5   0  0.5819446E-03  0.5983625E+03  0.7818609E-02  0.9908809E-01
        1   -1    0    0  501    0  0.00000000000E+00  0.00000000000E+00  0.64598567771E+03  0.64598567773E+03  0.50400001928E-02 0. -1.
       -1   -1    0    0    0  501  0.00000000000E+00  0.00000000000E+00 -0.13856252670E+03  0.13856252679E+03  0.50400001928E-02 0.  1.
    10030    2    1    2    0    0  0.00000000000E+00  0.00000000000E+00  0.50742315101E+03  0.78454820452E+03  0.59836245790E+03 0.  0.
        5    1    3    3  502    0  0.14223886404E+03 -0.34434764708E+02  0.59579506912E+03  0.61352383967E+03  0.46999998093E+01 0. -1.
       -5    1    3    3    0  502 -0.14223886404E+03  0.34434764708E+02 -0.88371918103E+02  0.17102436484E+03  0.46999998093E+01 0.  1.
</event>
<event>
 5   0  0.5790967E-03  0.5999272E+03  0.7818609E-02  0.9905557E-01
        1   -1    0    0  501    0  0.00000000000E+00  0.00000000000E+00  0.16041764539E+04  0.16041764539E+04  0.50400001928E-02 0.  1.
       -1   -1    0    0    0  501  0.00000000000E+00  0.00000000000E+00 -0.56089940773E+02  0.56089941000E+02  0.50400001928E-02 0. -1.
    10030    2    1    2    0    0  0.00000000000E+00  0.00000000000E+00  0.15480865131E+04  0.16602663949E+04  0.59992720386E+03 0.  0.
        3    1    3    3  502    0  0.46024702929E+02 -0.10513853582E+03  0.15410093027E+04  0.15452773428E+04  0.10100000352E+00 0.  1.
       -3    1    3    3    0  502 -0.46024702929E+02  0.10513853582E+03  0.70772104253E+01  0.11498905210E+03  0.10100000352E+00 0. -1.
</event>
<event>
 5   0  0.9822607E-03  0.6000583E+03  0.7818609E-02  0.9905285E-01
        2   -1    0    0  501    0  0.00000000000E+00  0.00000000000E+00  0.35607912017E+03  0.35607912018E+03  0.25500000920E-02 0. -1.
       -2   -1    0    0    0  501  0.00000000000E+00  0.00000000000E+00 -0.25280192669E+03  0.25280192670E+03  0.25500000920E-02 0.  1.
    10030    2    1    2    0    0  0.00000000000E+00  0.00000000000E+00  0.10327719348E+03  0.60888104688E+03  0.60005828930E+03 0.  0.
        3    1    3    3  502    0  0.26509979594E+03  0.87365831709E+02  0.16328724476E+03  0.32337814530E+03  0.10100000352E+00 0. -1.
       -3    1    3    3    0  502 -0.26509979594E+03 -0.87365831709E+02 -0.60010051283E+02  0.28550290158E+03  0.10100000352E+00 0.  1.
</event>
<event>
 5   0  0.9028473E-03  0.6003218E+03  0.7818609E-02  0.9904739E-01
        2   -1    0    0  501    0  0.00000000000E+00  0.00000000000E+00  0.79170205938E+02  0.79170205979E+02  0.25500000920E-02 0. -1.
       -2   -1    0    0    0  501  0.00000000000E+00  0.00000000000E+00 -0.11380111900E+04  0.11380111900E+04  0.25500000920E-02 0.  1.
    10030    2    1    2    0    0  0.00000000000E+00  0.00000000000E+00 -0.10588409841E+04  0.12171813960E+04  0.60032184802E+03 0.  0.
        1    1    3    3  502    0 -0.20588070550E+03 -0.14315389858E+03 -0.19492620575E+03  0.31761002706E+03  0.50400001928E-02 0. -1.
       -1    1    3    3    0  502  0.20588070550E+03  0.14315389858E+03 -0.86391477836E+03  0.89957136897E+03  0.50400001928E-02 0.  1.
</event>
<event>
 5   0  0.9028473E-03  0.5996300E+03  0.7818609E-02  0.9906174E-01
       -2   -1    0    0    0  501  0.00000000000E+00  0.00000000000E+00  0.57468186469E+02  0.57468186525E+02  0.25500000920E-02 0. -1.
        2   -1    0    0  501    0  0.00000000000E+00  0.00000000000E+00 -0.15641531306E+04  0.15641531306E+04  0.25500000920E-02 0.  1.
    10030    2    1    2    0    0  0.00000000000E+00  0.00000000000E+00 -0.15066849441E+04  0.16216213171E+04  0.59963003201E+03 0.  0.
        1    1    3    3  502    0  0.64973342174E+02 -0.21374774106E+03 -0.21260773615E+03  0.30840181825E+03  0.50400001928E-02 0. -1.
       -1    1    3    3    0  502 -0.64973342174E+02  0.21374774106E+03 -0.12940772080E+04  0.13132194989E+04  0.50400001928E-02 0.  1.
</event>
<event>
 5   0  0.9391405E-03  0.6024146E+03  0.7818609E-02  0.9900409E-01
       -2   -1    0    0    0  501  0.00000000000E+00  0.00000000000E+00  0.21964607485E+03  0.21964607486E+03  0.25500000920E-02 0.  1.
        2   -1    0    0  501    0  0.00000000000E+00  0.00000000000E+00 -0.41305474089E+03  0.41305474090E+03  0.25500000920E-02 0. -1.
    10030    2    1    2    0    0  0.00000000000E+00  0.00000000000E+00 -0.19340866604E+03  0.63270081576E+03  0.60241464970E+03 0.  0.
        2    1    3    3  502    0 -0.89203033091E+02 -0.26540718046E+03 -0.21331650865E+03  0.35199728042E+03  0.25500000920E-02 0.  1.
       -2    1    3    3    0  502  0.89203033091E+02  0.26540718046E+03  0.19907842606E+02  0.28070353535E+03  0.25500000920E-02 0. -1.
</event>
<event>
 5   0  0.5765045E-03  0.5989118E+03  0.7818609E-02  0.9907666E-01
       -1   -1    0    0    0  501  0.00000000000E+00  0.00000000000E+00  0.12662457387E+03  0.12662457397E+03  0.50400001928E-02 0.  1.
        1   -1    0    0  501    0  0.00000000000E+00  0.00000000000E+00 -0.70818677657E+03  0.70818677658E+03  0.50400001928E-02 0. -1.
    10030    2    1    2    0    0  0.00000000000E+00  0.00000000000E+00 -0.58156220270E+03  0.83481135055E+03  0.59891184276E+03 0.  0.
        1    1    3    3  502    0 -0.62026918567E+02  0.78774622822E+02  0.10253293597E+03  0.14340775018E+03  0.50400001928E-02 0.  1.
       -1    1    3    3    0  502  0.62026918567E+02 -0.78774622822E+02 -0.68409513867E+03  0.69140360037E+03  0.50400001928E-02 0. -1.
</event>
<event>
 5   0  0.9028473E-03  0.6011526E+03  0.7818609E-02  0.9903018E-01
       -2   -1    0    0    0  501  0.00000000000E+00  0.00000000000E+00  0.10885309695E+03  0.10885309698E+03  0.25500000920E-02 0.  1.
        2   -1    0    0  501    0  0.00000000000E+00  0.00000000000E+00 -0.82998207978E+03  0.82998207978E+03  0.25500000920E-02 0. -1.
    10030    2    1    2    0    0  0.00000000000E+00  0.00000000000E+00 -0.72112898283E+03  0.93883517676E+03  0.60115262558E+03 0.  0.
        1    1    3    3  502    0  0.22184703309E+03  0.13252046686E+03 -0.12080870437E+03  0.28525869541E+03  0.50400001928E-02 0.  1.
       -1    1    3    3    0  502 -0.22184703309E+03 -0.13252046686E+03 -0.60032027846E+03  0.65357648135E+03  0.50400001928E-02 0. -1.
</event>
<event>
 5   0  0.9303190E-03  0.6005637E+03  0.7818609E-02  0.9904237E-01
       -2   -1    0    0    0  501  0.00000000000E+00  0.00000000000E+00  0.43819833164E+03  0.43819833164E+03  0.25500000920E-02 0. -1.
        2   -1    0    0  501    0  0.00000000000E+00  0.00000000000E+00 -0.20577256518E+03  0.20577256520E+03  0.25500000920E-02 0.  1.
    10030    2    1    2    0    0  0.00000000000E+00  0.00000000000E+00  0.23242576646E+03  0.64397089684E+03  0.60056371774E+03 0.  0.
        4    1    3    3  502    0 -0.54542412226E+02 -0.28293288105E+03  0.20682947133E+03  0.35469132076E+03  0.12699999809E+01 0. -1.
       -4    1    3    3    0  502  0.54542412226E+02  0.28293288105E+03  0.25596295131E+02  0.28927957608E+03  0.12699999809E+01 0.  1.
</event>
<event>
 5   0  0.9822607E-03  0.6002360E+03  0.7818609E-02  0.9904917E-01
        2   -1    0    0  501    0  0.00000000000E+00  0.00000000000E+00  0.70070430147E+03  0.70070430147E+03  0.25500000920E-02 0. -1.
       -2   -1    0    0    0  501  0.00000000000E+00  0.00000000000E+00 -0.12854324962E+03  0.12854324965E+03  0.25500000920E-02 0.  1.
    10030    2    1    2    0    0  0.00000000000E+00  0.00000000000E+00  0.57216105185E+03  0.82924755112E+03  0.60023598009E+03 0.  0.
        3    1    3    3  502    0  0.28222640391E+03  0.40107819005E+02  0.15640428334E+03  0.32515025796E+03  0.10100000352E+00 0. -1.
       -3    1    3    3    0  502 -0.28222640391E+03 -0.40107819005E+02  0.41575676851E+03  0.50409729316E+03  0.10100000352E+00 0.  1.
</event>
<event>
 5   0  0.5790967E-03  0.5998446E+03  0.7818609E-02  0.9905728E-01
       -1   -1    0    0    0  501  0.00000000000E+00  0.00000000000E+00  0.18282001374E+03  0.18282001381E+03  0.50400001928E-02 0. -1.
        1   -1    0    0  501    0  0.00000000000E+00  0.00000000000E+00 -0.49203254538E+03  0.49203254541E+03  0.50400001928E-02 0.  1.
    10030    2    1    2    0    0  0.00000000000E+00  0.00000000000E+00 -0.30921253164E+03  0.67485255922E+03  0.59984463569E+03 0.  0.
        3    1    3    3  502    0 -0.19074456518E+02  0.18183392623E+03 -0.42208801251E+03  0.45998446944E+03  0.10100000352E+00 0.  1.
       -3    1    3    3    0  502  0.19074456518E+02 -0.18183392623E+03  0.11287548088E+03  0.21486808978E+03  0.10100000352E+00 0. -1.
</event>
<event>
 5   0  0.3806250E-03  0.6062901E+03  0.7818609E-02  0.9892441E-01
       -4   -1    0    0    0  501  0.00000000000E+00  0.00000000000E+00  0.87720615079E+03  0.87720707013E+03  0.12699999809E+01 0.  1.
        4   -1    0    0  501    0  0.00000000000E+00  0.00000000000E+00 -0.10475607766E+03  0.10476377574E+03  0.12699999809E+01 0. -1.
    10030    2    1    2    0    0  0.00000000000E+00  0.00000000000E+00  0.77245007313E+03  0.98197084587E+03  0.60629005159E+03 0.  0.
        4    1    3    3  502    0  0.24929123937E+03 -0.15796264690E+03  0.49840152246E+03  0.57922708010E+03  0.12699999809E+01 0.  1.
       -4    1    3    3    0  502 -0.24929123937E+03  0.15796264690E+03  0.27404855068E+03  0.40274376577E+03  0.12699999809E+01 0. -1.
</event>
<event>
 5   0  0.9028473E-03  0.6009578E+03  0.7818609E-02  0.9903421E-01
        2   -1    0    0  501    0  0.00000000000E+00  0.00000000000E+00  0.47592104238E+03  0.47592104239E+03  0.25500000920E-02 0. -1.
       -2   -1    0    0    0  501  0.00000000000E+00  0.00000000000E+00 -0.18971125991E+03  0.18971125993E+03  0.25500000920E-02 0.  1.
    10030    2    1    2    0    0  0.00000000000E+00  0.00000000000E+00  0.28620978247E+03  0.66563230232E+03  0.60095783738E+03 0.  0.
        1    1    3    3  502    0  0.74830063245E+02  0.18851518630E+03 -0.10245217839E+03  0.22723107779E+03  0.50400001928E-02 0.  1.
       -1    1    3    3    0  502 -0.74830063245E+02 -0.18851518630E+03  0.38866196085E+03  0.43840122453E+03  0.50400001928E-02 0. -1.
</event>
<event>
 5   0  0.9303190E-03  0.5993409E+03  0.7818609E-02  0.9906774E-01
        2   -1    0    0  501    0  0.00000000000E+00  0.00000000000E+00  0.35780742172E+03  0.35780742173E+03  0.25500000920E-02 0.  1.
       -2   -1    0    0    0  501  0.00000000000E+00  0.00000000000E+00 -0.25097967649E+03  0.25097967651E+03  0.25500000920E-02 0. -1.
    10030    2    1    2    0    0  0.00000000000E+00  0.00000000000E+00  0.10682774523E+03  0.60878709824E+03  0.59934094123E+03 0.  0.
        4    1    3    3  502    0  0.18581172730E+03 -0.16694171446E+03 -0.11474056438E+03  0.27488642026E+03  0.12699999809E+01 0. -1.
       -4    1    3    3    0  502 -0.18581172730E+03  0.16694171446E+03  0.22156830961E+03  0.33390067798E+03  0.12699999809E+01 0.  1.
</event>
<event>
 5   0  0.9822607E-03  0.6000785E+03  0.7818609E-02  0.9905243E-01
       -2   -1    0    0    0  501  0.00000000000E+00  0.00000000000E+00  0.64438121547E+02  0.64438121598E+02  0.25500000920E-02 0. -1.
        2   -1    0    0  501    0  0.00000000000E+00  0.00000000000E+00 -0.13970544157E+04  0.13970544157E+04  0.25500000920E-02 0.  1.
    10030    2    1    2    0    0  0.00000000000E+00  0.00000000000E+00 -0.13326162942E+04  0.14614925373E+04  0.60007853582E+03 0.  0.
        3    1    3    3  502    0  0.14381251919E+03  0.20918732451E+03 -0.10558527927E+04  0.10859403794E+04  0.10100000352E+00 0.  1.
       -3    1    3    3    0  502 -0.14381251919E+03 -0.20918732451E+03 -0.27676350143E+03  0.37555215795E+03  0.10100000352E+00 0. -1.
</event>
<event>
 5   0  0.5765045E-03  0.5985869E+03  0.7818609E-02  0.9908342E-01
        1   -1    0    0  501    0  0.00000000000E+00  0.00000000000E+00  0.26470758822E+03  0.26470758827E+03  0.50400001928E-02 0.  1.
       -1   -1    0    0    0  501  0.00000000000E+00  0.00000000000E+00 -0.33839815256E+03  0.33839815259E+03  0.50400001928E-02 0. -1.
    10030    2    1    2    0    0  0.00000000000E+00  0.00000000000E+00 -0.73690564337E+02  0.60310574086E+03  0.59858686537E+03 0.  0.
        1    1    3    3  502    0 -0.59731483415E+02  0.28655020256E+03 -0.99748075810E+02  0.30923865760E+03  0.50400001928E-02 0. -1.
       -1    1    3    3    0  502  0.59731483415E+02 -0.28655020256E+03  0.26057511473E+02  0.29386708327E+03  0.50400001928E-02 0.  1.
</event>
<event>
 5   0  0.9391405E-03  0.6003903E+03  0.7818609E-02  0.9904597E-01
       -2   -1    0    0    0  501  0.00000000000E+00  0.00000000000E+00  0.13337382880E+03  0.13337382882E+03  0.25500000920E-02 0. -1.
        2   -1    0    0  501    0  0.00000000000E+00  0.00000000000E+00 -0.67567318654E+03  0.67567318655E+03  0.25500000920E-02 0.  1.
    10030    2    1    2    0    0  0.00000000000E+00  0.00000000000E+00 -0.54229935775E+03  0.80904701537E+03  0.60039027280E+03 0.  0.
        2    1    3    3  502    0  0.34499541566E+02  0.64402283156E+00 -0.67299200593E+03  0.67387600728E+03  0.25500000920E-02 0.  1.
       -2    1    3    3    0  502 -0.34499541566E+02 -0.64402283156E+00  0.13069264818E+03  0.13517100809E+03  0.25500000920E-02 0. -1.
</event>
<event>
 5   0  0.5891927E-03  0.6002795E+03  0.7818609E-02  0.9904826E-01
        1   -1    0    0  501    0  0.00000000000E+00  0.00000000000E+00  0.45981291693E+03  0.45981291695E+03  0.50400001928E-02 0. -1.
       -1   -1    0    0    0  501  0.00000000000E+00  0.00000000000E+00 -0.19591420543E+03  0.19591420549E+03  0.50400001928E-02 0.  1.
    10030    2    1    2    0    0  0.00000000000E+00  0.00000000000E+00  0.26389871150E+03  0.65572712245E+03  0.60027954253E+03 0.  0.
        4    1    3    3  502    0  0.70450088117E+02  0.21232196484E+03  0.35052822062E+03  0.41583106909E+03  0.12699999809E+01 0. -1.
       -4    1    3    3    0  502 -0.70450088117E+02 -0.21232196484E+03 -0.86629509120E+02  0.23989605336E+03  0.12699999809E+01 0.  1.
</event>
<event>
 5   0  0.6078658E-03  0.6009156E+03  0.7818609E-02  0.9903508E-01
       -1   -1    0    0    0  501  0.00000000000E+00  0.00000000000E+00  0.43918500406E+03  0.43918500409E+03  0.50400001928E-02 0.  1.
        1   -1    0    0  501    0  0.00000000000E+00  0.00000000000E+00 -0.20555090761E+03  0.20555090767E+03  0.50400001928E-02 0. -1.
    10030    2    1    2    0    0  0.00000000000E+00  0.00000000000E+00  0.23363409645E+03  0.64473591176E+03  0.60091555554E+03 0.  0.
        2    1    3    3  502    0  0.11824647828E+03  0.27398450083E+03  0.15437148526E+03  0.33597662387E+03  0.25500000920E-02 0.  1.
       -2    1    3    3    0  502 -0.11824647828E+03 -0.27398450083E+03  0.79262611189E+02  0.30875928789E+03  0.25500000920E-02 0. -1.
</event>
<event>
 5   0  0.9162342E-03  0.5989053E+03  0.7818609E-02  0.9907680E-01
       -2   -1    0    0    0  501  0.00000000000E+00  0.00000000000E+00  0.21316842390E+03  0.21316842392E+03  0.25500000920E-02 0.  1.
        2   -1    0    0  501    0  0.00000000000E+00  0.00000000000E+00 -0.42066215228E+03  0.42066215229E+03  0.25500000920E-02 0. -1.
    10030    2    1    2    0    0  0.00000000000E+00  0.00000000000E+00 -0.20749372838E+03  0.63383057621E+03  0.59890529470E+03 0.  0.
        5    1    3    3  502    0  0.14747769772E+03  0.92295335977E+02  0.15414719505E+03  0.23248988818E+03  0.46999998093E+01 0.  1.
       -5    1    3    3    0  502 -0.14747769772E+03 -0.92295335977E+02 -0.36164092343E+03  0.40134068802E+03  0.46999998093E+01 0. -1.
</event>
<event>
 5   0  0.5765045E-03  0.6003231E+03  0.7818609E-02  0.9904736E-01
       -1   -1    0    0    0  501  0.00000000000E+00  0.00000000000E+00  0.48405069762E+02  0.48405070024E+02  0.50400001928E-02 0. -1.
        1   -1    0    0  501    0  0.00000000000E+00  0.00000000000E+00 -0.18613124921E+04  0.18613124921E+04  0.50400001928E-02 0.  1.
    10030    2    1    2    0    0  0.00000000000E+00  0.00000000000E+00 -0.18129074223E+04  0.19097175621E+04  0.60032311728E+03 0.  0.
        1    1    3    3  502    0  0.73098169952E+02 -0.18028515162E+03 -0.17929218722E+03  0.26455957130E+03  0.50400001928E-02 0. -1.
       -1    1    3    3    0  502 -0.73098169952E+02  0.18028515162E+03 -0.16336152351E+04  0.16451579908E+04  0.50400001928E-02 0.  1.
</event>
<event>
 5   0  0.9303190E-03  0.6006826E+03  0.7818609E-02  0.9903991E-01
        2   -1    0    0  501    0  0.00000000000E+00  0.00000000000E+00  0.21682939076E+04  0.21682939076E+04  0.25500000920E-02 0.  1.
       -2   -1    0    0    0  501  0.00000000000E+00  0.00000000000E+00 -0.41601780393E+02  0.41601780471E+02  0.25500000920E-02 0. -1.
    10030    2    1    2    0    0  0.00000000000E+00  0.00000000000E+00  0.21266921273E+04  0.22098956881E+04  0.60068256862E+03 0.  0.
        4    1    3    3  502    0 -0.10375657992E+03  0.23551837165E+03  0.16329214136E+04  0.16530784274E+04  0.12699999809E+01 0.  1.
       -4    1    3    3    0  502  0.10375657992E+03 -0.23551837165E+03  0.49377071361E+03  0.55681726067E+03  0.12699999809E+01 0. -1.
</event>
<event>
 5   0  0.5819446E-03  0.5989296E+03  0.7818609E-02  0.9907629E-01
        1   -1    0    0  501    0  0.00000000000E+00  0.00000000000E+00  0.19404427870E+04  0.19404427870E+04  0.50400001928E-02 0. -1.
       -1   -1    0    0    0  501  0.00000000000E+00  0.00000000000E+00 -0.46215831922E+02  0.46215832197E+02  0.50400001928E-02 0.  1.
    10030    2    1    2    0    0  0.00000000000E+00  0.00000000000E+00  0.18942269550E+04  0.19866586192E+04  0.59892963853E+03 0.  0.
        5    1    3    3  502    0  0.18116407542E+03 -0.18676277377E+03  0.14386177939E+04  0.14619658009E+04  0.46999998093E+01 0. -1.
       -5    1    3    3    0  502 -0.18116407542E+03  0.18676277377E+03  0.45560916109E+03  0.52469281828E+03  0.46999998093E+01 0.  1.
</event>
<event>
 5   0  0.9822607E-03  0.5991215E+03  0.7818609E-02  0.9907230E-01
        2   -1    0    0  501    0  0.00000000000E+00  0.00000000000E+00  0.21465143674E+04  0.21465143674E+04  0.25500000920E-02 0. -1.
       -2   -1    0    0    0  501  0.00000000000E+00  0.00000000000E+00 -0.41805746623E+02  0.41805746700E+02  0.25500000920E-02 0.  1.
    10030    2    1    2    0    0  0.00000000000E+00  0.00000000000E+00  0.21047086208E+04  0.21883201141E+04  0.59912147634E+03 0.  0.
        3    1    3    3  502    0  0.13971095945E+02 -0.61839286748E+02  0.21217299803E+04  0.21226769440E+04  0.10100000352E+00 0. -1.
       -3    1    3    3    0  502 -0.13971095945E+02  0.61839286748E+02 -0.17021359511E+02  0.65643170155E+02  0.10100000352E+00 0.  1.
</event>
<event>
 5   0  0.9822607E-03  0.5991125E+03  0.7818609E-02  0.9907249E-01
       -2   -1    0    0    0  501  0.00000000000E+00  0.00000000000E+00  0.70404209059E+02  0.70404209105E+02  0.25500000920E-02 0.  1.
        2   -1    0    0  501    0  0.00000000000E+00  0.00000000000E+00 -0.12745539103E+04  0.12745539103E+04  0.25500000920E-02 0. -1.
    10030    2    1    2    0    0  0.00000000000E+00  0.00000000000E+00 -0.12041497013E+04  0.13449581194E+04  0.59911254366E+03 0.  0.
        3    1    3    3  502    0 -0.14925115158E+03 -0.19518103226E+03 -0.21739788249E+03  0.32807528269E+03  0.10100000352E+00 0.  1.
       -3    1    3    3    0  502  0.14925115158E+03  0.19518103226E+03 -0.98675181877E+03  0.10168828367E+04  0.10100000352E+00 0. -1.
</event>
<event>
 5   0  0.5790967E-03  0.5996027E+03  0.7818609E-02  0.9906231E-01
        1   -1    0    0  501    0  0.00000000000E+00  0.00000000000E+00  0.18429695907E+03  0.18429695914E+03  0.50400001928E-02 0.  1.
       -1   -1    0    0    0  501  0.00000000000E+00  0.00000000000E+00 -0.48769577156E+03  0.48769577158E+03  0.50400001928E-02 0. -1.
    10030    2    1    2    0    0  0.00000000000E+00  0.00000000000E+00 -0.30339881249E+03  0.67199273072E+03  0.59960269406E+03 0.  0.
        3    1    3    3  502    0 -0.18601073490E+03  0.54799285808E+02 -0.40794711612E+03  0.45168995448E+03  0.10100000352E+00 0. -1.
       -3    1    3    3    0  502  0.18601073490E+03 -0.54799285808E+02  0.10454830364E+03  0.22030277624E+03  0.10100000352E+00 0.  1.
</event>
<event>
 5   0  0.9391405E-03  0.6004482E+03  0.7818609E-02  0.9904477E-01
        2   -1    0    0  501    0  0.00000000000E+00  0.00000000000E+00  0.71219214332E+03  0.71219214333E+03  0.25500000920E-02 0.  1.
       -2   -1    0    0    0  501  0.00000000000E+00  0.00000000000E+00 -0.12655927981E+03  0.12655927983E+03  0.25500000920E-02 0. -1.
    10030    2    1    2    0    0  0.00000000000E+00  0.00000000000E+00  0.58563286352E+03  0.83875142316E+03  0.60044824841E+03 0.  0.
        2    1    3    3  502    0 -0.14892498345E+03 -0.23480567807E+03  0.45099163910E+03  0.52981677559E+03  0.25500000920E-02 0. -1.
       -2    1    3    3    0  502  0.14892498345E+03  0.23480567807E+03  0.13464122442E+03  0.30893464757E+03  0.25500000920E-02 0.  1.
</event>
<event>
 5   0  0.9303190E-03  0.5959625E+03  0.7818609E-02  0.9913818E-01
       -2   -1    0    0    0  501  0.00000000000E+00  0.00000000000E+00  0.46583058382E+02  0.46583058452E+02  0.25500000920E-02 0. -1.
        2   -1    0    0  501    0  0.00000000000E+00  0.00000000000E+00 -0.19061183618E+04  0.19061183618E+04  0.25500000920E-02 0.  1.
    10030    2    1    2    0    0  0.00000000000E+00  0.00000000000E+00 -0.18595353034E+04  0.19527014202E+04  0.59596249210E+03 0.  0.
        4    1    3    3  502    0  0.60616185695E+02  0.15210311919E+03 -0.11403460200E+03  0.19953742554E+03  0.12699999809E+01 0. -1.
       -4    1    3    3    0  502 -0.60616185695E+02 -0.15210311919E+03 -0.17455007014E+04  0.17531639947E+04  0.12699999809E+01 0.  1.
</event>
<event>
 5   0  0.9303190E-03  0.6002343E+03  0.7818609E-02  0.9904920E-01
       -2   -1    0    0    0  501  0.00000000000E+00  0.00000000000E+00  0.21370599325E+03  0.21370599326E+03  0.25500000920E-02 0. -1.
        2   -1    0    0  501    0  0.00000000000E+00  0.00000000000E+00 -0.42146835384E+03  0.42146835385E+03  0.25500000920E-02 0.  1.
    10030    2    1    2    0    0  0.00000000000E+00  0.00000000000E+00 -0.20776236059E+03  0.63517434711E+03  0.60023433153E+03 0.  0.
        4    1    3    3  502    0 -0.23118069905E+03 -0.15927298474E+03 -0.21615279449E+03  0.35431065853E+03  0.12699999809E+01 0.  1.
       -4    1    3    3    0  502  0.23118069905E+03  0.15927298474E+03  0.83904339036E+01  0.28086368858E+03  0.12699999809E+01 0. -1.
</event>
<event>
 5   0  0.6078658E-03  0.5999518E+03  0.7818609E-02  0.9905506E-01
        1   -1    0    0  501    0  0.00000000000E+00  0.00000000000E+00  0.75099386176E+03  0.75099386177E+03  0.50400001928E-02 0.  1.
       -1   -1    0    0    0  501  0.00000000000E+00  0.00000000000E+00 -0.11982192864E+03  0.11982192875E+03  0.50400001928E-02 0. -1.
    10030    2    1    2    0    0  0.00000000000E+00  0.00000000000E+00  0.63117193312E+03  0.87081579052E+03  0.59995177462E+03 0.  0.
        2    1    3    3  502    0  0.92867456859E+02 -0.22435307759E+03  0.59916478864E+02  0.25009728589E+03  0.25500000920E-02 0. -1.
       -2    1    3    3    0  502 -0.92867456859E+02  0.22435307759E+03  0.57125545425E+03  0.62071850463E+03  0.25500000920E-02 0.  1.
</event>
<event>
 5   0  0.5790967E-03  0.5987719E+03  0.7818609E-02  0.9907957E-01
        1   -1    0    0  501    0  0.00000000000E+00  0.00000000000E+00  0.36383290893E+03  0.36383290896E+03  0.50400001928E-02 0.  1.
       -1   -1    0    0    0  501  0.00000000000E+00  0.00000000000E+00 -0.24635467782E+03  0.24635467788E+03  0.50400001928E-02 0. -1.
    10030    2    1    2    0    0  0.00000000000E+00  0.00000000000E+00  0.11747823110E+03  0.61018758684E+03  0.59877187338E+03 0.  0.
        3    1    3    3  502    0 -0.18159804063E+03 -0.78377519326E+02  0.28777058184E+03  0.34918877684E+03  0.10100000352E+00 0.  1.
       -3    1    3    3    0  502  0.18159804063E+03  0.78377519326E+02 -0.17029235074E+03  0.26099880999E+03  0.10100000352E+00 0. -1.
</event>
<event>
 5   0  0.5765045E-03  0.5996327E+03  0.7818609E-02  0.9906168E-01
        1   -1    0    0  501    0  0.00000000000E+00  0.00000000000E+00  0.72000857797E+03  0.72000857799E+03  0.50400001928E-02 0.  1.
       -1   -1    0    0    0  501  0.00000000000E+00  0.00000000000E+00 -0.12484550071E+03  0.12484550081E+03  0.50400001928E-02 0. -1.
    10030    2    1    2    0    0  0.00000000000E+00  0.00000000000E+00  0.59516307726E+03  0.84485407880E+03  0.59963265916E+03 0.  0.
        1    1    3    3  502    0 -0.15593113275E+03 -0.25601149719E+03  0.30572750402E+03  0.42816551892E+03  0.50400001928E-02 0.  1.
       -1    1    3    3    0  502  0.15593113275E+03  0.25601149719E+03  0.28943557324E+03  0.41668855988E+03  0.50400001928E-02 0. -1.
</event>
<event>
 5   0  0.6078658E-03  0.6003433E+03  0.7818609E-02  0.9904694E-01
        1   -1    0    0  501    0  0.00000000000E+00  0.00000000000E+00  0.31027865064E+03  0.31027865068E+03  0.50400001928E-02 0. -1.
       -1   -1    0    0    0  501  0.00000000000E+00  0.00000000000E+00 -0.29039390526E+03  0.29039390530E+03  0.50400001928E-02 0.  1.
    10030    2    1    2    0    0  0.00000000000E+00  0.00000000000E+00  0.19884745382E+02  0.60067255599E+03  0.60034333212E+03 0.  0.
        2    1    3    3  502    0  0.88208924315E+02  0.28690656177E+03  0.12559066019E+02  0.30042290136E+03  0.25500000920E-02 0. -1.
       -2    1    3    3    0  502 -0.88208924315E+02 -0.28690656177E+03  0.73256793626E+01  0.30024965462E+03  0.25500000920E-02 0.  1.
</event>
<event>
 5   0  0.5765045E-03  0.6000700E+03  0.7818609E-02  0.9905261E-01
        1   -1    0    0  501    0  0.00000000000E+00  0.00000000000E+00  0.11883095056E+04  0.11883095057E+04  0.50400001928E-02 0.  1.
       -1   -1    0    0    0  501  0.00000000000E+00  0.00000000000E+00 -0.75755514908E+02  0.75755515075E+02  0.50400001928E-02 0. -1.
    10030    2    1    2    0    0  0.00000000000E+00  0.00000000000E+00  0.11125539907E+04  0.12640650207E+04  0.60006999119E+03 0.  0.
        1    1    3    3  502    0  0.22745905386E+02 -0.52628125215E+02  0.11766629392E+04  0.11780588984E+04  0.50400001928E-02 0.  1.
       -1    1    3    3    0  502 -0.22745905386E+02  0.52628125215E+02 -0.64108948432E+02  0.86006122282E+02  0.50400001928E-02 0. -1.
</event>
<event>
 5   0  0.9391405E-03  0.5980856E+03  0.7818609E-02  0.9909386E-01
       -2   -1    0    0    0  501  0.00000000000E+00  0.00000000000E+00  0.13923725970E+03  0.13923725972E+03  0.25500000920E-02 0.  1.
        2   -1    0    0  501    0  0.00000000000E+00  0.00000000000E+00 -0.64226050317E+03  0.64226050317E+03  0.25500000920E-02 0. -1.
    10030    2    1    2    0    0  0.00000000000E+00  0.00000000000E+00 -0.50302324347E+03  0.78149776290E+03  0.59808558747E+03 0.  0.
        2    1    3    3  502    0 -0.26811335737E+03  0.12648865808E+03 -0.30282947319E+03  0.42378041821E+03  0.25500000920E-02 0.  1.
       -2    1    3    3    0  502  0.26811335737E+03 -0.12648865808E+03 -0.20019377028E+03  0.35771734468E+03  0.25500000920E-02 0. -1.
</event>
<event>
 5   0  0.6078658E-03  0.6001836E+03  0.7818609E-02  0.9905025E-01
       -1   -1    0    0    0  501  0.00000000000E+00  0.00000000000E+00  0.86111837715E+02  0.86111837863E+02  0.50400001928E-02 0.  1.
        1   -1    0    0  501    0  0.00000000000E+00  0.00000000000E+00 -0.10457923179E+04  0.10457923179E+04  0.50400001928E-02 0. -1.
    10030    2    1    2    0    0  0.00000000000E+00  0.00000000000E+00 -0.95968048014E+03  0.11319041557E+04  0.60018363340E+03 0.  0.
        2    1    3    3  502    0 -0.28154736801E+03  0.97789199514E+02 -0.41387446010E+03  0.51002325114E+03  0.25500000920E-02 0.  1.
       -2    1    3    3    0  502  0.28154736801E+03 -0.97789199514E+02 -0.54580602004E+03  0.62188090459E+03  0.25500000920E-02 0. -1.
</event>
<event>
 5   0  0.9391405E-03  0.6007708E+03  0.7818609E-02  0.9903808E-01
       -2   -1    0    0    0  501  0.00000000000E+00  0.00000000000E+00  0.27784071027E+03  0.27784071028E+03  0.25500000920E-02 0. -1.
        2   -1    0    0  501    0  0.00000000000E+00  0.00000000000E+00 -0.32475944216E+03  0.32475944217E+03  0.25500000920E-02 0.  1.
    10030    2    1    2    0    0  0.00000000000E+00  0.00000000000E+00 -0.46918731893E+02  0.60260015245E+03  0.60077081847E+03 0.  0.
        2    1    3    3  502    0  0.13261782255E+03 -0.75455347005E+02 -0.28299499658E+03  0.32150764275E+03  0.25500000920E-02 0.  1.
       -2    1    3    3    0  502 -0.13261782255E+03  0.75455347005E+02  0.23607626469E+03  0.28109250969E+03  0.25500000920E-02 0. -1.
</event>
<event>
 5   0  0.5891927E-03  0.5995356E+03  0.7818609E-02  0.9906370E-01
       -1   -1    0    0    0  501  0.00000000000E+00  0.00000000000E+00  0.22742292474E+03  0.22742292480E+03  0.50400001928E-02 0. -1.
        1   -1    0    0  501    0  0.00000000000E+00  0.00000000000E+00 -0.39512616814E+03  0.39512616817E+03  0.50400001928E-02 0.  1.
    10030    2    1    2    0    0  0.00000000000E+00  0.00000000000E+00 -0.16770324340E+03  0.62254909297E+03  0.59953564974E+03 0.  0.
        4    1    3    3  502    0  0.82312635204E+02  0.28824252277E+03 -0.83974835534E+02  0.31130773802E+03  0.12699999809E+01 0.  1.
       -4    1    3    3    0  502 -0.82312635204E+02 -0.28824252277E+03 -0.83728407861E+02  0.31124135495E+03  0.12699999809E+01 0. -1.
</event>
<event>
 5   0  0.5790967E-03  0.6003038E+03  0.7818609E-02  0.9904776E-01
       -1   -1    0    0    0  501  0.00000000000E+00  0.00000000000E+00  0.82914389032E+02  0.82914389185E+02  0.50400001928E-02 0. -1.
        1   -1    0    0  501    0  0.00000000000E+00  0.00000000000E+00 -0.10865562986E+04  0.10865562986E+04  0.50400001928E-02 0.  1.
    10030    2    1    2    0    0  0.00000000000E+00  0.00000000000E+00 -0.10036419095E+04  0.11694706878E+04  0.60030376224E+03 0.  0.
        3    1    3    3  502    0 -0.22034335815E+01 -0.29827695130E+03 -0.56693480661E+03  0.64061617209E+03  0.10100000352E+00 0. -1.
       -3    1    3    3    0  502  0.22034335815E+01  0.29827695130E+03 -0.43670710291E+03  0.52885451566E+03  0.10100000352E+00 0.  1.
</event>
<event>
 5   0  0.9391405E-03  0.6002976E+03  0.7818609E-02  0.9904789E-01
        2   -1    0    0  501    0  0.00000000000E+00  0.00000000000E+00  0.57554943871E+03  0.57554943872E+03  0.25500000920E-02 0. -1.
       -2   -1    0    0    0  501  0.00000000000E+00  0.00000000000E+00 -0.15652748453E+03  0.15652748455E+03  0.25500000920E-02 0.  1.
    10030    2    1    2    0    0  0.00000000000E+00  0.00000000000E+00  0.41902195418E+03  0.73207692327E+03  0.60029761244E+03 0.  0.
        2    1    3    3  502    0  0.71075334101E+02  0.19139182514E+03  0.47782487132E+03  0.51961441618E+03  0.25500000920E-02 0. -1.
       -2    1    3    3    0  502 -0.71075334101E+02 -0.19139182514E+03 -0.58802917133E+02  0.21246250709E+03  0.25500000920E-02 0.  1.
</event>
<event>
 5   0  0.9028473E-03  0.6004875E+03  0.7818609E-02  0.9904395E-01
       -2   -1    0    0    0  501  0.00000000000E+00  0.00000000000E+00  0.94529467032E+02  0.94529467067E+02  0.25500000920E-02 0.  1.
        2   -1    0    0  501    0  0.00000000000E+00  0.00000000000E+00 -0.95363173163E+03  0.95363173163E+03  0.25500000920E-02 0. -1.
    10030    2    1    2    0    0  0.00000000000E+00  0.00000000000E+00 -0.85910226459E+03  0.10481611987E+04  0.60048746650E+03 0.  0.
        1    1    3    3  502    0 -0.25310429779E+03 -0.30588747073E+02 -0.15274026850E+03  0.29719866530E+03  0.50400001928E-02 0.  1.
       -1    1    3    3    0  502  0.25310429779E+03  0.30588747073E+02 -0.70636199610E+03  0.75096253340E+03  0.50400001928E-02 0. -1.
</event>
<event>
 5   0  0.9162342E-03  0.5995311E+03  0.7818609E-02  0.9906379E-01
        2   -1    0    0  501    0  0.00000000000E+00  0.00000000000E+00  0.32496962895E+03  0.32496962896E+03  0.25500000920E-02 0.  1.
       -2   -1    0    0    0  501  0.00000000000E+00  0.00000000000E+00 -0.27651628673E+03  0.27651628675E+03  0.25500000920E-02 0. -1.
    10030    2    1    2    0    0  0.00000000000E+00  0.00000000000E+00  0.48453342221E+02  0.60148591571E+03  0.59953113382E+03 0.  0.
        5    1    3    3  502    0  0.25805587229E+02  0.28383542116E+03  0.11731297774E+03  0.30824162499E+03  0.46999998093E+01 0.  1.
       -5    1    3    3    0  502 -0.25805587229E+02 -0.28383542116E+03 -0.68859635515E+02  0.29324429072E+03  0.46999998093E+01 0. -1.
</event>
<event>
 5   0  0.5891927E-03  0.6002049E+03  0.7818609E-02  0.9904981E-01
        1   -1    0    0  501    0  0.00000000000E+00  0.00000000000E+00  0.53467064455E+03  0.53467064457E+03  0.50400001928E-02 0. -1.
       -1   -1    0    0    0  501  0.00000000000E+00  0.00000000000E+00 -0.16844290465E+03  0.16844290472E+03  0.50400001928E-02 0.  1.
    10030    2    1    2    0    0  0.00000000000E+00  0.00000000000E+00  0.36622773990E+03  0.70311354929E+03  0.60020488646E+03 0.  0.
        4    1    3    3  502    0 -0.20527350549E+03 -0.21772401167E+03  0.20979906481E+03  0.36545617769E+03  0.12699999809E+01 0. -1.
       -4    1    3    3    0  502  0.20527350549E+03  0.21772401167E+03  0.15642867509E+03  0.33765737161E+03  0.12699999809E+01 0.  1.
</event>
<event>
 5   0  0.5765045E-03  0.5898680E+03  0.7818609E-02  0.9926652E-01
        1   -1    0    0  501    0  0.00000000000E+00  0.00000000000E+00  0.59805661884E+03  0.59805661886E+03  0.50400001928E-02 0. -1.
       -1   -1    0    0    0  501  0.00000000000E+00  0.00000000000E+00 -0.14544789191E+03  0.14544789200E+03  0.50400001928E-02 0.  1.
    10030    2    1    2    0    0  0.00000000000E+00  0.00000000000E+00  0.45260872692E+03  0.74350451086E+03  0.58986803437E+03 0.  0.
        1    1    3    3  502    0 -0.23306572955E+03  0.17912873268E+03  0.19596583624E+03  0.35328366246E+03  0.50400001928E-02 0. -1.
       -1    1    3    3    0  502  0.23306572955E+03 -0.17912873268E+03  0.25664289068E+03  0.39022084840E+03  0.50400001928E-02 0.  1.
</event>
<event>
 5   0  0.5790967E-03  0.5998697E+03  0.7818609E-02  0.9905676E-01
       -1   -1    0    0    0  501  0.00000000000E+00  0.00000000000E+00  0.22626246971E+03  0.22626246976E+03  0.50400001928E-02 0.  1.
        1   -1    0    0  501    0  0.00000000000E+00  0.00000000000E+00 -0.39759541171E+03  0.39759541174E+03  0.50400001928E-02 0. -1.
    10030    2    1    2    0    0  0.00000000000E+00  0.00000000000E+00 -0.17133294200E+03  0.62385788150E+03  0.59986971860E+03 0.  0.
        3    1    3    3  502    0 -0.12548478080E+03  0.18590951890E+03 -0.29275783496E+03  0.36880338877E+03  0.10100000352E+00 0. -1.
       -3    1    3    3    0  502  0.12548478080E+03 -0.18590951890E+03  0.12142489297E+03  0.25505449273E+03  0.10100000352E+00 0.  1.
</event>
<event>
 5   0  0.9822607E-03  0.5994704E+03  0.7818609E-02  0.9906506E-01
        2   -1    0    0  501    0  0.00000000000E+00  0.00000000000E+00  0.75954964697E+03  0.75954964698E+03  0.25500000920E-02 0.  1.
       -2   -1    0    0    0  501  0.00000000000E+00  0.00000000000E+00 -0.11828216606E+03  0.11828216608E+03  0.25500000920E-02 0. -1.
    10030    2    1    2    0    0  0.00000000000E+00  0.00000000000E+00  0.64126748092E+03  0.87783181306E+03  0.59947035785E+03 0.  0.
        3    1    3    3  502    0 -0.17831170139E+03  0.57295757398E+01 -0.32067753594E+02  0.18126290827E+03  0.10100000352E+00 0. -1.
       -3    1    3    3    0  502  0.17831170139E+03 -0.57295757398E+01  0.67333523451E+03  0.69656890479E+03  0.10100000352E+00 0.  1.
</event>
<event>
 5   0  0.9391405E-03  0.6006867E+03  0.7818609E-02  0.9903982E-01
       -2   -1    0    0    0  501  0.00000000000E+00  0.00000000000E+00  0.14953853464E+03  0.14953853466E+03  0.25500000920E-02 0.  1.
        2   -1    0    0  501    0  0.00000000000E+00  0.00000000000E+00 -0.60323001990E+03  0.60323001991E+03  0.25500000920E-02 0. -1.
    10030    2    1    2    0    0  0.00000000000E+00  0.00000000000E+00 -0.45369148526E+03  0.75276855457E+03  0.60068671781E+03 0.  0.
        2    1    3    3  502    0  0.24477417903E+03 -0.17012174676E+03 -0.18079541534E+03  0.34862987487E+03  0.25500000920E-02 0.  1.
       -2    1    3    3    0  502 -0.24477417903E+03  0.17012174676E+03 -0.27289606992E+03  0.40413867970E+03  0.25500000920E-02 0. -1.
</event>
<event>
 5   0  0.3806250E-03  0.6030289E+03  0.7818609E-02  0.9899142E-01
       -4   -1    0    0    0  501  0.00000000000E+00  0.00000000000E+00  0.31434976984E+03  0.31435233528E+03  0.12699999809E+01 0. -1.
        4   -1    0    0  501    0  0.00000000000E+00  0.00000000000E+00 -0.28919803298E+03  0.28920082154E+03  0.12699999809E+01 0.  1.
    10030    2    1    2    0    0  0.00000000000E+00  0.00000000000E+00  0.25151736860E+02  0.60355315682E+03  0.60302885772E+03 0.  0.
        2    1    3    3  502    0 -0.18309131950E+03  0.66808081403E+02 -0.21767892666E+03  0.29218122140E+03  0.25500000920E-02 0.  1.
       -2    1    3    3    0  502  0.18309131950E+03 -0.66808081403E+02  0.24283066352E+03  0.31137193543E+03  0.25500000920E-02 0. -1.
</event>
<event>
 5   0  0.3806250E-03  0.5949264E+03  0.7818609E-02  0.9915988E-01
        4   -1    0    0  501    0  0.00000000000E+00  0.00000000000E+00  0.17474985761E+03  0.17475447243E+03  0.12699999809E+01 0.  1.
       -4   -1    0    0    0  501  0.00000000000E+00  0.00000000000E+00 -0.50633650897E+03  0.50633810168E+03  0.12699999809E+01 0. -1.
    10030    2    1    2    0    0  0.00000000000E+00  0.00000000000E+00 -0.33158665135E+03  0.68109257411E+03  0.59492637121E+03 0.  0.
        3    1    3    3  502    0 -0.81053176714E+00  0.22245876109E+03  0.60281251130E+02  0.23048296420E+03  0.10100000352E+00 0. -1.
       -3    1    3    3    0  502  0.81053176714E+00 -0.22245876109E+03 -0.39186790248E+03  0.45060960991E+03  0.10100000352E+00 0.  1.
</event>
<event>
 5   0  0.9303190E-03  0.5998825E+03  0.7818609E-02  0.9905650E-01
        2   -1    0    0  501    0  0.00000000000E+00  0.00000000000E+00  0.60641905227E+03  0.60641905228E+03  0.25500000920E-02 0. -1.
       -2   -1    0    0    0  501  0.00000000000E+00  0.00000000000E+00 -0.14835410610E+03  0.14835410612E+03  0.25500000920E-02 0.  1.
    10030    2    1    2    0    0  0.00000000000E+00  0.00000000000E+00  0.45806494617E+03  0.75477315840E+03  0.59988250994E+03 0.  0.
        4    1    3    3  502    0 -0.12566143763E+03  0.22666352803E+03  0.41900005393E+03  0.49267617148E+03  0.12699999809E+01 0. -1.
       -4    1    3    3    0  502  0.12566143763E+03 -0.22666352803E+03  0.39064892240E+02  0.26209698692E+03  0.12699999809E+01 0.  1.
</event>
<event>
 5   0  0.5790967E-03  0.5973349E+03  0.7818609E-02  0.9910951E-01
       -1   -1    0    0    0  501  0.00000000000E+00  0.00000000000E+00  0.28574551242E+03  0.28574551246E+03  0.50400001928E-02 0.  1.
        1   -1    0    0  501    0  0.00000000000E+00  0.00000000000E+00 -0.31217373651E+03  0.31217373655E+03  0.50400001928E-02 0. -1.
    10030    2    1    2    0    0  0.00000000000E+00  0.00000000000E+00 -0.26428224091E+02  0.59791924901E+03  0.59733489543E+03 0.  0.
        3    1    3    3  502    0 -0.11603009522E+03  0.30470010916E+02  0.26056914389E+03  0.28685831609E+03  0.10100000352E+00 0.  1.
       -3    1    3    3    0  502  0.11603009522E+03 -0.30470010916E+02 -0.28699736798E+03  0.31106093292E+03  0.10100000352E+00 0. -1.
</event>
<event>
 5   0  0.9028473E-03  0.5997805E+03  0.7818609E-02  0.9905862E-01
        2   -1    0    0  501    0  0.00000000000E+00  0.00000000000E+00  0.11295696390E+04  0.11295696390E+04  0.25500000920E-02 0. -1.
       -2   -1    0    0    0  501  0.00000000000E+00  0.00000000000E+00 -0.79618073947E+02  0.79618073988E+02  0.25500000920E-02 0.  1.
    10030    2    1    2    0    0  0.00000000000E+00  0.00000000000E+00  0.10499515650E+04  0.12091877130E+04  0.59978049008E+03 0.  0.
        1    1    3    3  502    0  0.48596016427E+02 -0.34348279847E+02  0.11175464094E+04  0.11191297308E+04  0.50400001928E-02 0. -1.
       -1    1    3    3    0  502 -0.48596016427E+02  0.34348279847E+02 -0.67594844379E+02  0.90057982173E+02  0.50400001928E-02 0.  1.
</event>
<event>
 5   0  0.3806250E-03  0.6003800E+03  0.7818609E-02  0.9904618E-01
       -4   -1    0    0    0  501  0.00000000000E+00  0.00000000000E+00  0.77464802541E+02  0.77475212376E+02  0.12699999809E+01 0.  1.
        4   -1    0    0  501    0  0.00000000000E+00  0.00000000000E+00 -0.11632011710E+04  0.11632018643E+04  0.12699999809E+01 0. -1.
    10030    2    1    2    0    0  0.00000000000E+00  0.00000000000E+00 -0.10857363684E+04  0.12406770767E+04  0.60038000199E+03 0.  0.
        4    1    3    3  502    0  0.69040361516E+02  0.24614141421E+03 -0.21769845470E+03  0.33577730326E+03  0.12699999809E+01 0.  1.
       -4    1    3    3    0  502 -0.69040361516E+02 -0.24614141421E+03 -0.86803791374E+03  0.90489977340E+03  0.12699999809E+01 0. -1.
</event>
<event>
 5   0  0.6078658E-03  0.5988877E+03  0.7818609E-02  0.9907716E-01
        1   -1    0    0  501    0  0.00000000000E+00  0.00000000000E+00  0.36931104432E+03  0.36931104436E+03  0.50400001928E-02 0.  1.
       -1   -1    0    0    0  501  0.00000000000E+00  0.00000000000E+00 -0.24279431402E+03  0.24279431408E+03  0.50400001928E-02 0. -1.
    10030    2    1    2    0    0  0.00000000000E+00  0.00000000000E+00  0.12651673030E+03  0.61210535843E+03  0.59888770799E+03 0.  0.
        2    1    3    3  502    0 -0.24943972160E+02  0.26051222853E+02 -0.24056612310E+03  0.24325486131E+03  0.25500000920E-02 0. -1.
       -2    1    3    3    0  502  0.24943972160E+02 -0.26051222853E+02  0.36708285340E+03  0.36885049712E+03  0.25500000920E-02 0.  1.
</event>
<event>
 5   0  0.9303190E-03  0.5999373E+03  0.7818609E-02  0.9905536E-01
       -2   -1    0    0    0  501  0.00000000000E+00  0.00000000000E+00  0.24189720342E+03  0.24189720343E+03  0.25500000920E-02 0.  1.
        2   -1    0    0  501    0  0.00000000000E+00  0.00000000000E+00 -0.37198109431E+03  0.37198109432E+03  0.25500000920E-02 0. -1.
    10030    2    1    2    0    0  0.00000000000E+00  0.00000000000E+00 -0.13008389089E+03  0.61387829775E+03  0.59993728487E+03 0.  0.
        4    1    3    3  502    0 -0.16653154895E+03 -0.10950191585E+03 -0.29443011841E+03  0.35554765348E+03  0.12699999809E+01 0. -1.
       -4    1    3    3    0  502  0.16653154895E+03  0.10950191585E+03  0.16434622751E+03  0.25833064427E+03  0.12699999809E+01 0.  1.
</event>
<event>
 5   0  0.9391405E-03  0.6009527E+03  0.7818609E-02  0.9903431E-01
        2   -1    0    0  501    0  0.00000000000E+00  0.00000000000E+00  0.68588598916E+03  0.68588598916E+03  0.25500000920E-02 0. -1.
       -2   -1    0    0    0  501  0.00000000000E+00  0.00000000000E+00 -0.13163417682E+03  0.13163417684E+03  0.25500000920E-02 0.  1.
    10030    2    1    2    0    0  0.00000000000E+00  0.00000000000E+00  0.55425181234E+03  0.81752016600E+03  0.60095270225E+03 0.  0.
        2    1    3    3  502    0  0.91248880328E+02 -0.28110328580E+03  0.20335624433E+03  0.35874667603E+03  0.25500000920E-02 0.  1.
       -2    1    3    3    0  502 -0.91248880328E+02  0.28110328580E+03  0.35089556801E+03  0.45877348997E+03  0.25500000920E-02 0. -1.
</event>
<event>
 5   0  0.5819446E-03  0.6014415E+03  0.7818609E-02  0.9902420E-01
       -1   -1    0    0    0  501  0.00000000000E+00  0.00000000000E+00  0.12429455153E+03  0.12429455164E+03  0.50400001928E-02 0.  1.
        1   -1    0    0  501    0  0.00000000000E+00  0.00000000000E+00 -0.72756983849E+03  0.72756983851E+03  0.50400001928E-02 0. -1.
    10030    2    1    2    0    0  0.00000000000E+00  0.00000000000E+00 -0.60327528696E+03  0.85186439014E+03  0.60144149121E+03 0.  0.
        5    1    3    3  502    0 -0.14672138552E+03  0.24245904279E+03 -0.15931295747E+03  0.32514037095E+03  0.46999998093E+01 0.  1.
       -5    1    3    3    0  502  0.14672138552E+03 -0.24245904279E+03 -0.44396232948E+03  0.52672401920E+03  0.46999998093E+01 0. -1.
</event>
<event>
 5   0  0.9162342E-03  0.6006694E+03  0.7818609E-02  0.9904018E-01
       -2   -1    0    0    0  501  0.00000000000E+00  0.00000000000E+00  0.20998931681E+03  0.20998931682E+03  0.25500000920E-02 0.  1.
        2   -1    0    0  501    0  0.00000000000E+00  0.00000000000E+00 -0.42955007809E+03  0.42955007810E+03  0.25500000920E-02 0. -1.
    10030    2    1    2    0    0  0.00000000000E+00  0.00000000000E+00 -0.21956076128E+03  0.63953939492E+03  0.60066938474E+03 0.  0.
        5    1    3    3  502    0 -0.70255208161E+02 -0.21116882869E+03 -0.32444782557E+03  0.39346734299E+03  0.46999998093E+01 0. -1.
       -5    1    3    3    0  502  0.70255208161E+02  0.21116882869E+03  0.10488706429E+03  0.24607205193E+03  0.46999998093E+01 0.  1.
</event>
<event>
 5   0  0.9391405E-03  0.5980551E+03  0.7818609E-02  0.9909449E-01
        2   -1    0    0  501    0  0.00000000000E+00  0.00000000000E+00  0.12608973228E+04  0.12608973228E+04  0.25500000920E-02 0.  1.
       -2   -1    0    0    0  501  0.00000000000E+00  0.00000000000E+00 -0.70915736751E+02  0.70915736797E+02  0.25500000920E-02 0. -1.
    10030    2    1    2    0    0  0.00000000000E+00  0.00000000000E+00  0.11899815860E+04  0.13318130596E+04  0.59805505647E+03 0.  0.
        2    1    3    3  502    0  0.16875067006E+03  0.23003117163E+03  0.79449897840E+03  0.84416808471E+03  0.25500000920E-02 0.  1.
       -2    1    3    3    0  502 -0.16875067006E+03 -0.23003117163E+03  0.39548260761E+03  0.48764497484E+03  0.25500000920E-02 0. -1.
</event>
<event>
 5   0  0.9162342E-03  0.6005568E+03  0.7818609E-02  0.9904252E-01
        2   -1    0    0  501    0  0.00000000000E+00  0.00000000000E+00  0.58959524570E+03  0.58959524571E+03  0.25500000920E-02 0.  1.
       -2   -1    0    0    0  501  0.00000000000E+00  0.00000000000E+00 -0.15293054372E+03  0.15293054374E+03  0.25500000920E-02 0. -1.
    10030    2    1    2    0    0  0.00000000000E+00  0.00000000000E+00  0.43666470198E+03  0.74252578945E+03  0.60055681333E+03 0.  0.
        5    1    3    3  502    0 -0.28492886679E+02 -0.29216813732E+03  0.14042013567E+03  0.32544426490E+03  0.46999998093E+01 0.  1.
       -5    1    3    3    0  502  0.28492886679E+02  0.29216813732E+03  0.29624456631E+03  0.41708152455E+03  0.46999998093E+01 0. -1.
</event>
<event>
 5   0  0.5790967E-03  0.5993730E+03  0.7818609E-02  0.9906708E-01
        1   -1    0    0  501    0  0.00000000000E+00  0.00000000000E+00  0.23890575753E+03  0.23890575758E+03  0.50400001928E-02 0. -1.
       -1   -1    0    0    0  501  0.00000000000E+00  0.00000000000E+00 -0.37593061919E+03  0.37593061922E+03  0.50400001928E-02 0.  1.
    10030    2    1    2    0    0  0.00000000000E+00  0.00000000000E+00 -0.13702486166E+03  0.61483637680E+03  0.59937297030E+03 0.  0.
        3    1    3    3  502    0 -0.28255578945E+03 -0.94459144453E+02 -0.10177863037E+03  0.31483202493E+03  0.10100000352E+00 0. -1.
       -3    1    3    3    0  502  0.28255578945E+03  0.94459144453E+02 -0.35246231292E+02  0.30000435187E+03  0.10100000352E+00 0.  1.
</event>
<event>
 5   0  0.9028473E-03  0.6004505E+03  0.7818609E-02  0.9904472E-01
        2   -1    0    0  501    0  0.00000000000E+00  0.00000000000E+00  0.41049495102E+03  0.41049495103E+03  0.25500000920E-02 0.  1.
       -2   -1    0    0    0  501  0.00000000000E+00  0.00000000000E+00 -0.21957687299E+03  0.21957687300E+03  0.25500000920E-02 0. -1.
    10030    2    1    2    0    0  0.00000000000E+00  0.00000000000E+00  0.19091807803E+03  0.63007182404E+03  0.60045048999E+03 0.  0.
        1    1    3    3  502    0  0.20566165913E+03  0.21738469151E+03  0.12078199664E+03  0.32270902200E+03  0.50400001928E-02 0.  1.
       -1    1    3    3    0  502 -0.20566165913E+03 -0.21738469151E+03  0.70136081394E+02  0.30736280204E+03  0.50400001928E-02 0. -1.
</event>
<event>
 5   0  0.5790967E-03  0.5981834E+03  0.7818609E-02  0.9909182E-01
       -1   -1    0    0    0  501  0.00000000000E+00  0.00000000000E+00  0.87504780694E+02  0.87504780839E+02  0.50400001928E-02 0. -1.
        1   -1    0    0  501    0  0.00000000000E+00  0.00000000000E+00 -0.10222966914E+04  0.10222966914E+04  0.50400001928E-02 0.  1.
    10030    2    1    2    0    0  0.00000000000E+00  0.00000000000E+00 -0.93479191068E+03  0.11098014722E+04  0.59818340957E+03 0.  0.
        3    1    3    3  502    0  0.12232091294E+03  0.29367111704E+02  0.36036599317E+02  0.13085671433E+03  0.10100000352E+00 0. -1.
       -3    1    3    3    0  502 -0.12232091294E+03 -0.29367111704E+02 -0.97082851000E+03  0.97894475790E+03  0.10100000352E+00 0.  1.
</event>
<event>
 5   0  0.9391405E-03  0.6000975E+03  0.7818609E-02  0.9905204E-01
        2   -1    0    0  501    0  0.00000000000E+00  0.00000000000E+00  0.24982805423E+04  0.24982805423E+04  0.25500000920E-02 0.  1.
       -2   -1    0    0    0  501  0.00000000000E+00  0.00000000000E+00 -0.36036491378E+02  0.36036491468E+02  0.25500000920E-02 0. -1.
    10030    2    1    2    0    0  0.00000000000E+00  0.00000000000E+00  0.24622440509E+04  0.25343170338E+04  0.60009754319E+03 0.  0.
        2    1    3    3  502    0  0.16725137523E+02  0.25876767754E+03  0.18686511837E+04  0.18865570989E+04  0.25500000920E-02 0.  1.
       -2    1    3    3    0  502 -0.16725137523E+02 -0.25876767754E+03  0.59359286726E+03  0.64775993488E+03  0.25500000920E-02 0. -1.
</event>
<event>
 5   0  0.9822607E-03  0.5986809E+03  0.7818609E-02  0.9908147E-01
       -2   -1    0    0    0  501  0.00000000000E+00  0.00000000000E+00  0.15783491442E+03  0.15783491444E+03  0.25500000920E-02 0. -1.
        2   -1    0    0  501    0  0.00000000000E+00  0.00000000000E+00 -0.56771158781E+03  0.56771158782E+03  0.25500000920E-02 0.  1.
    10030    2    1    2    0    0  0.00000000000E+00  0.00000000000E+00 -0.40987667339E+03  0.72554650227E+03  0.59868091632E+03 0.  0.
        3    1    3    3  502    0  0.21551413305E+03 -0.20769634366E+03 -0.21043711375E+03  0.36587962741E+03  0.10100000352E+00 0. -1.
       -3    1    3    3    0  502 -0.21551413305E+03  0.20769634366E+03 -0.19943955964E+03  0.35966687485E+03  0.10100000352E+00 0.  1.
</event>
<event>
 5   0  0.9028473E-03  0.5991577E+03  0.7818609E-02  0.9907155E-01
       -2   -1    0    0    0  501  0.00000000000E+00  0.00000000000E+00  0.72675931988E+02  0.72675932033E+02  0.25500000920E-02 0. -1.
        2   -1    0    0  501    0  0.00000000000E+00  0.00000000000E+00 -0.12348996274E+04  0.12348996274E+04  0.25500000920E-02 0.  1.
    10030    2    1    2    0    0  0.00000000000E+00  0.00000000000E+00 -0.11622236954E+04  0.13075755595E+04  0.59915767997E+03 0.  0.
        1    1    3    3  502    0 -0.19766682002E+03  0.20344934273E+03 -0.79138586770E+03  0.84068745585E+03  0.50400001928E-02 0. -1.
       -1    1    3    3    0  502  0.19766682002E+03 -0.20344934273E+03 -0.37083782773E+03  0.46688810361E+03  0.50400001928E-02 0.  1.
</event>
<event>
 5   0  0.9162342E-03  0.6003432E+03  0.7818609E-02  0.9904694E-01
       -2   -1    0    0    0  501  0.00000000000E+00  0.00000000000E+00  0.35102997351E+03  0.35102997352E+03  0.25500000920E-02 0. -1.
        2   -1    0    0  501    0  0.00000000000E+00  0.00000000000E+00 -0.25668175860E+03  0.25668175862E+03  0.25500000920E-02 0.  1.
    10030    2    1    2    0    0  0.00000000000E+00  0.00000000000E+00  0.94348214905E+02  0.60771173214E+03  0.60034320494E+03 0.  0.
        5    1    3    3  502    0 -0.22733810241E+03  0.16581078564E+03  0.15288318421E+03  0.32026736870E+03  0.46999998093E+01 0. -1.
       -5    1    3    3    0  502  0.22733810241E+03 -0.16581078564E+03 -0.58534969301E+02  0.28744436344E+03  0.46999998093E+01 0.  1.
</event>
<event>
 5   0  0.6078658E-03  0.5996128E+03  0.7818609E-02  0.9906210E-01
       -1   -1    0    0    0  501  0.00000000000E+00  0.00000000000E+00  0.38319727198E+03  0.38319727202E+03  0.50400001928E-02 0.  1.
        1   -1    0    0  501    0  0.00000000000E+00  0.00000000000E+00 -0.23456293784E+03  0.23456293789E+03  0.50400001928E-02 0. -1.
    10030    2    1    2    0    0  0.00000000000E+00  0.00000000000E+00  0.14863433414E+03  0.61776020991E+03  0.59961280145E+03 0.  0.
        2    1    3    3  502    0 -0.20885213641E+03 -0.66524866105E+01  0.29581318374E+03  0.36217248673E+03  0.25500000920E-02 0.  1.
       -2    1    3    3    0  502  0.20885213641E+03  0.66524866105E+01 -0.14717884960E+03  0.25558772318E+03  0.25500000920E-02 0. -1.
</event>
<event>
 5   0  0.5790967E-03  0.6029004E+03  0.7818609E-02  0.9899407E-01
       -1   -1    0    0    0  501  0.00000000000E+00  0.00000000000E+00  0.28446984030E+03  0.28446984035E+03  0.50400001928E-02 0.  1.
        1   -1    0    0  501    0  0.00000000000E+00  0.00000000000E+00 -0.31944411730E+03  0.31944411734E+03  0.50400001928E-02 0. -1.
    10030    2    1    2    0    0  0.00000000000E+00  0.00000000000E+00 -0.34974276999E+02  0.60391395769E+03  0.60290038003E+03 0.  0.
        3    1    3    3  502    0  0.29586406022E+03  0.57057838155E+02 -0.84682339187E+01  0.30143466989E+03  0.10100000352E+00 0. -1.
       -3    1    3    3    0  502 -0.29586406022E+03 -0.57057838155E+02 -0.26506043081E+02  0.30247928780E+03  0.10100000352E+00 0.  1.
</event>
<event>
 5   0  0.3806250E-03  0.6004961E+03  0.7818609E-02  0.9904377E-01
        3   -1    0    0  501    0  0.00000000000E+00  0.00000000000E+00  0.39507762927E+02  0.39507892028E+02  0.10100000352E+00 0. -1.
       -3   -1    0    0    0  501  0.00000000000E+00  0.00000000000E+00 -0.22817982813E+04  0.22817982835E+04  0.10100000352E+00 0.  1.
    10030    2    1    2    0    0  0.00000000000E+00  0.00000000000E+00 -0.22422905184E+04  0.23213061755E+04  0.60049612148E+03 0.  0.
        4    1    3    3  502    0  0.18337377849E+03 -0.17733041087E+03 -0.50901336230E+03  0.56935773742E+03  0.12699999809E+01 0. -1.
       -4    1    3    3    0  502 -0.18337377849E+03  0.17733041087E+03 -0.17332771561E+04  0.17519484381E+04  0.12699999809E+01 0.  1.
</event>
<event>
 5   0  0.9303190E-03  0.5996956E+03  0.7818609E-02  0.9906038E-01
        2   -1    0    0  501    0  0.00000000000E+00  0.00000000000E+00  0.36504242313E+03  0.36504242314E+03  0.25500000920E-02 0. -1.
       -2   -1    0    0    0  501  0.00000000000E+00  0.00000000000E+00 -0.24629658286E+03  0.24629658287E+03  0.25500000920E-02 0.  1.
    10030    2    1    2    0    0  0.00000000000E+00  0.00000000000E+00  0.11874584027E+03  0.61133900602E+03  0.59969559419E+03 0.  0.
        4    1    3    3  502    0 -0.11628791504E+03  0.24377076788E+03  0.19213206759E+03  0.33145649903E+03  0.12699999809E+01 0. -1.
       -4    1    3    3    0  502  0.11628791504E+03 -0.24377076788E+03 -0.73386227318E+02  0.27988250698E+03  0.12699999809E+01 0.  1.
</event>
<event>
 5   0  0.5891927E-03  0.5999518E+03  0.7818609E-02  0.9905506E-01
        1   -1    0    0  501    0  0.00000000000E+00  0.00000000000E+00  0.12901774141E+04  0.12901774141E+04  0.50400001928E-02 0. -1.
       -1   -1    0    0    0  501  0.00000000000E+00  0.00000000000E+00 -0.69746639597E+02  0.69746639780E+02  0.50400001928E-02 0.  1.
    10030    2    1    2    0    0  0.00000000000E+00  0.00000000000E+00  0.12204307745E+04  0.13599240539E+04  0.59995179555E+03 0.  0.
        4    1    3    3  502    0  0.55748337380E+02  0.24092941074E+03  0.22534579358E+03  0.33457016852E+03  0.12699999809E+01 0.  1.
       -4    1    3    3    0  502 -0.55748337380E+02 -0.24092941074E+03  0.99508498088E+03  0.10253538853E+04  0.12699999809E+01 0. -1.
</event>
<event>
 5   0  0.3806250E-03  0.6049283E+03  0.7818609E-02  0.9895234E-01
        3   -1    0    0  501    0  0.00000000000E+00  0.00000000000E+00  0.23325688476E+03  0.23325690663E+03  0.10100000352E+00 0. -1.
       -3   -1    0    0    0  501  0.00000000000E+00  0.00000000000E+00 -0.39220509287E+03  0.39220510587E+03  0.10100000352E+00 0.  1.
    10030    2    1    2    0    0  0.00000000000E+00  0.00000000000E+00 -0.15894820811E+03  0.62546201250E+03  0.60492825709E+03 0.  0.
        4    1    3    3  502    0  0.25473920389E+03  0.73662226580E+01  0.88956036554E+02  0.26992797664E+03  0.12699999809E+01 0. -1.
       -4    1    3    3    0  502 -0.25473920389E+03 -0.73662226580E+01 -0.24790424466E+03  0.35553403586E+03  0.12699999809E+01 0.  1.
</event>
<event>
 5   0  0.5765045E-03  0.5999383E+03  0.7818609E-02  0.9905534E-01
        1   -1    0    0  501    0  0.00000000000E+00  0.00000000000E+00  0.75969280042E+03  0.75969280043E+03  0.50400001928E-02 0.  1.
       -1   -1    0    0    0  501  0.00000000000E+00  0.00000000000E+00 -0.11844457859E+03  0.11844457870E+03  0.50400001928E-02 0. -1.
    10030    2    1    2    0    0  0.00000000000E+00  0.00000000000E+00  0.64124822182E+03  0.87813737913E+03  0.59993830903E+03 0.  0.
        1    1    3    3  502    0  0.94007933880E+02  0.12458345138E+03 -0.54334900793E+02  0.16525982409E+03  0.50400001928E-02 0. -1.
       -1    1    3    3    0  502 -0.94007933880E+02 -0.12458345138E+03  0.69558312262E+03  0.71287755504E+03  0.50400001928E-02 0.  1.
</event>
<event>
 5   0  0.9028473E-03  0.5997034E+03  0.7818609E-02  0.9906022E-01
        2   -1    0    0  501    0  0.00000000000E+00  0.00000000000E+00  0.47715547721E+03  0.47715547722E+03  0.25500000920E-02 0. -1.
       -2   -1    0    0    0  501  0.00000000000E+00  0.00000000000E+00 -0.18843135812E+03  0.18843135814E+03  0.25500000920E-02 0.  1.
    10030    2    1    2    0    0  0.00000000000E+00  0.00000000000E+00  0.28872411909E+03  0.66558683535E+03  0.59970344208E+03 0.  0.
        1    1    3    3  502    0 -0.41864224621E+02  0.18877287067E+03  0.39871921244E+03  0.44313070352E+03  0.50400001928E-02 0. -1.
       -1    1    3    3    0  502  0.41864224621E+02 -0.18877287067E+03 -0.10999509335E+03  0.22245613183E+03  0.50400001928E-02 0.  1.
</event>
<event>
 5   0  0.5819446E-03  0.6005472E+03  0.7818609E-02  0.9904271E-01
       -1   -1    0    0    0  501  0.00000000000E+00  0.00000000000E+00  0.23535304831E+03  0.23535304836E+03  0.50400001928E-02 0.  1.
        1   -1    0    0  501    0  0.00000000000E+00  0.00000000000E+00 -0.38310208410E+03  0.38310208414E+03  0.50400001928E-02 0. -1.
    10030    2    1    2    0    0  0.00000000000E+00  0.00000000000E+00 -0.14774903580E+03  0.61845513250E+03  0.60054722823E+03 0.  0.
        5    1    3    3  502    0  0.26945346800E+03 -0.33128381672E+02  0.58165395552E+02  0.27768320858E+03  0.46999998093E+01 0.  1.
       -5    1    3    3    0  502 -0.26945346800E+03  0.33128381672E+02 -0.20591443135E+03  0.34077192391E+03  0.46999998093E+01 0. -1.
</event>
<event>
 5   0  0.9303190E-03  0.5999689E+03  0.7818609E-02  0.9905471E-01
        2   -1    0    0  501    0  0.00000000000E+00  0.00000000000E+00  0.15552380556E+04  0.15552380556E+04  0.25500000920E-02 0.  1.
       -2   -1    0    0    0  501  0.00000000000E+00  0.00000000000E+00 -0.57862962881E+02  0.57862962937E+02  0.25500000920E-02 0. -1.
    10030    2    1    2    0    0  0.00000000000E+00  0.00000000000E+00  0.14973750927E+04  0.16131010185E+04  0.59996893896E+03 0.  0.
        4    1    3    3  502    0  0.29505054589E+03  0.38562722160E+02  0.64640743262E+03  0.71160810143E+03  0.12699999809E+01 0. -1.
       -4    1    3    3    0  502 -0.29505054589E+03 -0.38562722160E+02  0.85096766006E+03  0.90149291708E+03  0.12699999809E+01 0.  1.
</event>
<event>
 5   0  0.9028473E-03  0.5997306E+03  0.7818609E-02  0.9905965E-01
        2   -1    0    0  501    0  0.00000000000E+00  0.00000000000E+00  0.57547555024E+03  0.57547555024E+03  0.25500000920E-02 0. -1.
       -2   -1    0    0    0  501  0.00000000000E+00  0.00000000000E+00 -0.15625199078E+03  0.15625199080E+03  0.25500000920E-02 0.  1.
    10030    2    1    2    0    0  0.00000000000E+00  0.00000000000E+00  0.41922355945E+03  0.73172754105E+03  0.59973060746E+03 0.  0.
        1    1    3    3  502    0 -0.19761304032E+03 -0.18825422120E+03  0.58061431687E+02  0.27903708603E+03  0.50400001928E-02 0.  1.
       -1    1    3    3    0  502  0.19761304032E+03  0.18825422120E+03  0.36116212777E+03  0.45269045502E+03  0.50400001928E-02 0. -1.
</event>
<event>
 5   0  0.9822607E-03  0.5996851E+03  0.7818609E-02  0.9906060E-01
        2   -1    0    0  501    0  0.00000000000E+00  0.00000000000E+00  0.40929972331E+03  0.40929972332E+03  0.25500000920E-02 0.  1.
       -2   -1    0    0    0  501  0.00000000000E+00  0.00000000000E+00 -0.21965700978E+03  0.21965700980E+03  0.25500000920E-02 0. -1.
    10030    2    1    2    0    0  0.00000000000E+00  0.00000000000E+00  0.18964271352E+03  0.62895673311E+03  0.59968509514E+03 0.  0.
        3    1    3    3  502    0  0.24916226900E+03  0.25152570107E+02 -0.78124652665E+02  0.26233177396E+03  0.10100000352E+00 0. -1.
       -3    1    3    3    0  502 -0.24916226900E+03 -0.25152570107E+02  0.26776736619E+03  0.36662495915E+03  0.10100000352E+00 0.  1.
</event>
<event>
 5   0  0.9391405E-03  0.6008014E+03  0.7818609E-02  0.9903745E-01
       -2   -1    0    0    0  501  0.00000000000E+00  0.00000000000E+00  0.28935453267E+03  0.28935453268E+03  0.25500000920E-02 0. -1.
        2   -1    0    0  501    0  0.00000000000E+00  0.00000000000E+00 -0.31186855887E+03  0.31186855888E+03  0.25500000920E-02 0.  1.
    10030    2    1    2    0    0  0.00000000000E+00  0.00000000000E+00 -0.22514026207E+02  0.60122309156E+03  0.60080140184E+03 0.  0.
        2    1    3    3  502    0  0.17729066001E+03 -0.16768440119E+03 -0.18656714337E+03  0.30717639155E+03  0.25500000920E-02 0.  1.
       -2    1    3    3    0  502 -0.17729066001E+03  0.16768440119E+03  0.16405311717E+03  0.29404670001E+03  0.25500000920E-02 0. -1.
</event>
<event>
 5   0  0.9028473E-03  0.5995273E+03  0.7818609E-02  0.9906387E-01
        2   -1    0    0  501    0  0.00000000000E+00  0.00000000000E+00  0.19946730031E+04  0.19946730031E+04  0.25500000920E-02 0.  1.
       -2   -1    0    0    0  501  0.00000000000E+00  0.00000000000E+00 -0.45049118214E+02  0.45049118286E+02  0.25500000920E-02 0. -1.
    10030    2    1    2    0    0  0.00000000000E+00  0.00000000000E+00  0.19496238849E+04  0.20397221214E+04  0.59952734714E+03 0.  0.
        1    1    3    3  502    0 -0.18523955647E+03 -0.39715982678E+02  0.17651756335E+04  0.17753129498E+04  0.50400001928E-02 0.  1.
       -1    1    3    3    0  502  0.18523955647E+03  0.39715982678E+02  0.18444825138E+03  0.26440917159E+03  0.50400001928E-02 0. -1.
</event>
<event>
 5   0  0.9822607E-03  0.6007902E+03  0.7818609E-02  0.9903768E-01
       -2   -1    0    0    0  501  0.00000000000E+00  0.00000000000E+00  0.73299151733E+02  0.73299151777E+02  0.25500000920E-02 0. -1.
        2   -1    0    0  501    0  0.00000000000E+00  0.00000000000E+00 -0.12310811565E+04  0.12310811565E+04  0.25500000920E-02 0.  1.
    10030    2    1    2    0    0  0.00000000000E+00  0.00000000000E+00 -0.11577820048E+04  0.13043803083E+04  0.60079016142E+03 0.  0.
        3    1    3    3  502    0 -0.59291924017E+02 -0.10268940136E+03 -0.11781189613E+04  0.11840713418E+04  0.10100000352E+00 0.  1.
       -3    1    3    3    0  502  0.59291924017E+02  0.10268940136E+03  0.20336956524E+02  0.12030896644E+03  0.10100000352E+00 0. -1.
</event>
<event>
 5   0  0.3806250E-03  0.5999175E+03  0.7818609E-02  0.9905577E-01
        3   -1    0    0  501    0  0.00000000000E+00  0.00000000000E+00  0.81047784206E+03  0.81047784836E+03  0.10100000352E+00 0.  1.
       -3   -1    0    0    0  501  0.00000000000E+00  0.00000000000E+00 -0.11101504502E+03  0.11101509096E+03  0.10100000352E+00 0. -1.
    10030    2    1    2    0    0  0.00000000000E+00  0.00000000000E+00  0.69946279705E+03  0.92149293932E+03  0.59991752163E+03 0.  0.
        3    1    3    3  502    0  0.10854524971E+03 -0.22476586430E+03  0.60525579843E+03  0.65470325853E+03  0.10100000352E+00 0.  1.
       -3    1    3    3    0  502 -0.10854524971E+03  0.22476586430E+03  0.94206998613E+02  0.26678968079E+03  0.10100000352E+00 0. -1.
</event>
<event>
 5   0  0.9391405E-03  0.5994821E+03  0.7818609E-02  0.9906481E-01
       -2   -1    0    0    0  501  0.00000000000E+00  0.00000000000E+00  0.88692675404E+03  0.88692675404E+03  0.25500000920E-02 0. -1.
        2   -1    0    0  501    0  0.00000000000E+00  0.00000000000E+00 -0.10129887639E+03  0.10129887643E+03  0.25500000920E-02 0.  1.
    10030    2    1    2    0    0  0.00000000000E+00  0.00000000000E+00  0.78562787765E+03  0.98822563047E+03  0.59948205526E+03 0.  0.
        2    1    3    3  502    0 -0.19982909805E+03  0.10119536816E+03  0.64473193488E+02  0.23308574313E+03  0.25500000920E-02 0.  1.
       -2    1    3    3    0  502  0.19982909805E+03 -0.10119536816E+03  0.72115468416E+03  0.75513988734E+03  0.25500000920E-02 0. -1.
</event>
<event>
 5   0  0.5790967E-03  0.5996142E+03  0.7818609E-02  0.9906207E-01
        1   -1    0    0  501    0  0.00000000000E+00  0.00000000000E+00  0.11814438711E+03  0.11814438721E+03  0.50400001928E-02 0. -1.
       -1   -1    0    0    0  501  0.00000000000E+00  0.00000000000E+00 -0.76080033102E+03  0.76080033104E+03  0.50400001928E-02 0.  1.
    10030    2    1    2    0    0  0.00000000000E+00  0.00000000000E+00 -0.64265594391E+03  0.87894471825E+03  0.59961417219E+03 0.  0.
        3    1    3    3  502    0  0.23323430336E+03 -0.18837162519E+03 -0.31916902153E+03  0.43789380442E+03  0.10100000352E+00 0. -1.
       -3    1    3    3    0  502 -0.23323430336E+03  0.18837162519E+03 -0.32348692238E+03  0.44105091383E+03  0.10100000352E+00 0.  1.
</event>
<event>
 5   0  0.5765045E-03  0.6002706E+03  0.7818609E-02  0.9904845E-01
        1   -1    0    0  501    0  0.00000000000E+00  0.00000000000E+00  0.34020132145E+03  0.34020132149E+03  0.50400001928E-02 0.  1.
       -1   -1    0    0    0  501  0.00000000000E+00  0.00000000000E+00 -0.26478792724E+03  0.26478792729E+03  0.50400001928E-02 0. -1.
    10030    2    1    2    0    0  0.00000000000E+00  0.00000000000E+00  0.75413394212E+02  0.60498924877E+03  0.60027061489E+03 0.  0.
        1    1    3    3  502    0 -0.21919884698E+02 -0.29309803718E+03  0.98964923686E+02  0.31013061263E+03  0.50400001928E-02 0.  1.
       -1    1    3    3    0  502  0.21919884698E+02  0.29309803718E+03 -0.23551529474E+02  0.29485863615E+03  0.50400001928E-02 0. -1.
</event>
<event>
 5   0  0.9391405E-03  0.5999126E+03  0.7818609E-02  0.9905587E-01
       -2   -1    0    0    0  501  0.00000000000E+00  0.00000000000E+00  0.96836959108E+02  0.96836959142E+02  0.25500000920E-02 0.  1.
        2   -1    0    0  501    0  0.00000000000E+00  0.00000000000E+00 -0.92912636417E+03  0.92912636417E+03  0.25500000920E-02 0. -1.
    10030    2    1    2    0    0  0.00000000000E+00  0.00000000000E+00 -0.83228940506E+03  0.10259633233E+04  0.59991256614E+03 0.  0.
        2    1    3    3  502    0  0.19497202945E+03 -0.16058482113E+03 -0.13947350628E+03  0.28853844806E+03  0.25500000920E-02 0.  1.
       -2    1    3    3    0  502 -0.19497202945E+03  0.16058482113E+03 -0.69281589878E+03  0.73742487526E+03  0.25500000920E-02 0. -1.
</event>
<event>
 5   0  0.9162342E-03  0.5998729E+03  0.7818609E-02  0.9905670E-01
        2   -1    0    0  501    0  0.00000000000E+00  0.00000000000E+00  0.21589729651E+04  0.21589729651E+04  0.25500000920E-02 0. -1.
       -2   -1    0    0    0  501  0.00000000000E+00  0.00000000000E+00 -0.41668827647E+02  0.41668827725E+02  0.25500000920E-02 0.  1.
    10030    2    1    2    0    0  0.00000000000E+00  0.00000000000E+00  0.21173041374E+04  0.22006417928E+04  0.59987289475E+03 0.  0.
        5    1    3    3  502    0  0.27332930595E+02 -0.28342517724E+03  0.71328802702E+03  0.76803568906E+03  0.46999998093E+01 0.  1.
       -5    1    3    3    0  502 -0.27332930595E+02  0.28342517724E+03  0.14040161104E+04  0.14326061037E+04  0.46999998093E+01 0. -1.
</event>
<event>
 5   0  0.9162342E-03  0.6000357E+03  0.7818609E-02  0.9905332E-01
        2   -1    0    0  501    0  0.00000000000E+00  0.00000000000E+00  0.69555782334E+03  0.69555782335E+03  0.25500000920E-02 0. -1.
       -2   -1    0    0    0  501  0.00000000000E+00  0.00000000000E+00 -0.12940795589E+03  0.12940795592E+03  0.25500000920E-02 0.  1.
    10030    2    1    2    0    0  0.00000000000E+00  0.00000000000E+00  0.56614986745E+03  0.82496577927E+03  0.60003571939E+03 0.  0.
        5    1    3    3  502    0  0.26957413398E+03 -0.16295271144E+02  0.46261345912E+03  0.53569492450E+03  0.46999998093E+01 0. -1.
       -5    1    3    3    0  502 -0.26957413398E+03  0.16295271144E+02  0.10353640833E+03  0.28927085477E+03  0.46999998093E+01 0.  1.
</event>
<event>
 5   0  0.5891927E-03  0.5849842E+03  0.7818609E-02  0.9937058E-01
        1   -1    0    0  501    0  0.00000000000E+00  0.00000000000E+00  0.25523449687E+03  0.25523449692E+03  0.50400001928E-02 0. -1.
       -1   -1    0    0    0  501  0.00000000000E+00  0.00000000000E+00 -0.33518833271E+03  0.33518833275E+03  0.50400001928E-02 0.  1.
    10030    2    1    2    0    0  0.00000000000E+00  0.00000000000E+00 -0.79953835834E+02  0.59042282967E+03  0.58498418947E+03 0.  0.
        4    1    3    3  502    0 -0.21984554042E+03 -0.16235758063E+03 -0.14514725626E+03  0.30945336407E+03  0.12699999809E+01 0.  1.
       -4    1    3    3    0  502  0.21984554042E+03  0.16235758063E+03  0.65193420431E+02  0.28096946560E+03  0.12699999809E+01 0. -1.
</event>
<event>
 5   0  0.5819446E-03  0.5992482E+03  0.7818609E-02  0.9906967E-01
       -1   -1    0    0    0  501  0.00000000000E+00  0.00000000000E+00  0.20477752052E+03  0.20477752058E+03  0.50400001928E-02 0.  1.
        1   -1    0    0  501    0  0.00000000000E+00  0.00000000000E+00 -0.43840063082E+03  0.43840063085E+03  0.50400001928E-02 0. -1.
    10030    2    1    2    0    0  0.00000000000E+00  0.00000000000E+00 -0.23362311030E+03  0.64317815143E+03  0.59924817631E+03 0.  0.
        5    1    3    3  502    0  0.29649708564E+03 -0.42883067689E+02 -0.11494482692E+03  0.32091101963E+03  0.46999998093E+01 0. -1.
       -5    1    3    3    0  502 -0.29649708564E+03  0.42883067689E+02 -0.11867828338E+03  0.32226713179E+03  0.46999998093E+01 0.  1.
</event>
<event>
 5   0  0.9028473E-03  0.6003648E+03  0.7818609E-02  0.9904650E-01
       -2   -1    0    0    0  501  0.00000000000E+00  0.00000000000E+00  0.47499209294E+02  0.47499209363E+02  0.25500000920E-02 0.  1.
        2   -1    0    0  501    0  0.00000000000E+00  0.00000000000E+00 -0.18970730879E+04  0.18970730879E+04  0.25500000920E-02 0. -1.
    10030    2    1    2    0    0  0.00000000000E+00  0.00000000000E+00 -0.18495738786E+04  0.19445722973E+04  0.60036479483E+03 0.  0.
        1    1    3    3  502    0  0.19247546358E+03 -0.64533980647E+02 -0.20855353621E+03  0.29104298004E+03  0.50400001928E-02 0.  1.
       -1    1    3    3    0  502 -0.19247546358E+03  0.64533980647E+02 -0.16410203424E+04  0.16535293172E+04  0.50400001928E-02 0. -1.
</event>
<event>
 5   0  0.9303190E-03  0.5993085E+03  0.7818609E-02  0.9906842E-01
       -2   -1    0    0    0  501  0.00000000000E+00  0.00000000000E+00  0.10660745888E+03  0.10660745891E+03  0.25500000920E-02 0. -1.
        2   -1    0    0  501    0  0.00000000000E+00  0.00000000000E+00 -0.84227388034E+03  0.84227388034E+03  0.25500000920E-02 0.  1.
    10030    2    1    2    0    0  0.00000000000E+00  0.00000000000E+00 -0.73566642146E+03  0.94888133925E+03  0.59930852849E+03 0.  0.
        4    1    3    3  502    0 -0.50105609639E+02  0.54917447392E+02  0.91770942656E+02  0.11811018991E+03  0.12699999809E+01 0. -1.
       -4    1    3    3    0  502  0.50105609639E+02 -0.54917447392E+02 -0.82743736411E+03  0.83077114934E+03  0.12699999809E+01 0.  1.
</event>
<event>
 5   0  0.9391405E-03  0.5998428E+03  0.7818609E-02  0.9905732E-01
       -2   -1    0    0    0  501  0.00000000000E+00  0.00000000000E+00  0.67348698828E+02  0.67348698876E+02  0.25500000920E-02 0.  1.
        2   -1    0    0  501    0  0.00000000000E+00  0.00000000000E+00 -0.13356287442E+04  0.13356287442E+04  0.25500000920E-02 0. -1.
    10030    2    1    2    0    0  0.00000000000E+00  0.00000000000E+00 -0.12682800454E+04  0.14029774431E+04  0.59984283967E+03 0.  0.
        2    1    3    3  502    0  0.10050053819E+03  0.19321461564E+03 -0.15184479582E+03  0.26549781148E+03  0.25500000920E-02 0.  1.
       -2    1    3    3    0  502 -0.10050053819E+03 -0.19321461564E+03 -0.11164352496E+04  0.11374796316E+04  0.25500000920E-02 0. -1.
</event>
<event>
 5   0  0.9391405E-03  0.6001496E+03  0.7818609E-02  0.9905096E-01
        2   -1    0    0  501    0  0.00000000000E+00  0.00000000000E+00  0.20103840569E+03  0.20103840570E+03  0.25500000920E-02 0.  1.
       -2   -1    0    0    0  501  0.00000000000E+00  0.00000000000E+00 -0.44789891497E+03  0.44789891497E+03  0.25500000920E-02 0. -1.
    10030    2    1    2    0    0  0.00000000000E+00  0.00000000000E+00 -0.24686050928E+03  0.64893732067E+03  0.60014959395E+03 0.  0.
        2    1    3    3  502    0  0.18963552122E+03  0.23253360939E+03 -0.11978365783E+03  0.32308146821E+03  0.25500000920E-02 0.  1.
       -2    1    3    3    0  502 -0.18963552122E+03 -0.23253360939E+03 -0.12707685145E+03  0.32585585247E+03  0.25500000920E-02 0. -1.
</event>
<event>
 5   0  0.3806250E-03  0.5976677E+03  0.7818609E-02  0.9910257E-01
       -4   -1    0    0    0  501  0.00000000000E+00  0.00000000000E+00  0.34421795071E+03  0.34422029355E+03  0.12699999809E+01 0.  1.
        4   -1    0    0  501    0  0.00000000000E+00  0.00000000000E+00 -0.25942873433E+03  0.25943184287E+03  0.12699999809E+01 0. -1.
    10030    2    1    2    0    0  0.00000000000E+00  0.00000000000E+00  0.84789216377E+02  0.60365213642E+03  0.59766770917E+03 0.  0.
        2    1    3    3  502    0  0.29792857899E+03  0.18845600595E+02  0.56135158148E+02  0.30375607126E+03  0.25500000920E-02 0.  1.
       -2    1    3    3    0  502 -0.29792857899E+03 -0.18845600595E+02  0.28654058230E+02  0.29989606516E+03  0.25500000920E-02 0. -1.
</event>
<event>
 5   0  0.5765045E-03  0.5990576E+03  0.7818609E-02  0.9907363E-01
        1   -1    0    0  501    0  0.00000000000E+00  0.00000000000E+00  0.11135135470E+04  0.11135135470E+04  0.50400001928E-02 0.  1.
       -1   -1    0    0    0  501  0.00000000000E+00  0.00000000000E+00 -0.80571537944E+02  0.80571538102E+02  0.50400001928E-02 0. -1.
    10030    2    1    2    0    0  0.00000000000E+00  0.00000000000E+00  0.10329420091E+04  0.11940850851E+04  0.59905759024E+03 0.  0.
        1    1    3    3  502    0  0.29412899719E+03  0.54304574157E+02  0.48453847137E+03  0.56941933934E+03  0.50400001928E-02 0. -1.
       -1    1    3    3    0  502 -0.29412899719E+03 -0.54304574157E+02  0.54840353769E+03  0.62466574577E+03  0.50400001928E-02 0.  1.
</event>
<event>
 5   0  0.9162342E-03  0.5994440E+03  0.7818609E-02  0.9906560E-01
        2   -1    0    0  501    0  0.00000000000E+00  0.00000000000E+00  0.11992861551E+04  0.11992861551E+04  0.25500000920E-02 0.  1.
       -2   -1    0    0    0  501  0.00000000000E+00  0.00000000000E+00 -0.74905619763E+02  0.74905619807E+02  0.25500000920E-02 0. -1.
    10030    2    1    2    0    0  0.00000000000E+00  0.00000000000E+00  0.11243805353E+04  0.12741917749E+04  0.59944398487E+03 0.  0.
        5    1    3    3  502    0  0.13441163918E+03  0.42345029694E+02  0.11243826978E+04  0.11331893625E+04  0.46999998093E+01 0.  1.
       -5    1    3    3    0  502 -0.13441163918E+03 -0.42345029694E+02 -0.21624689646E-02  0.14100241235E+03  0.46999998093E+01 0. -1.
</event>
<event>
 5   0  0.9028473E-03  0.5990948E+03  0.7818609E-02  0.9907286E-01
       -2   -1    0    0    0  501  0.00000000000E+00  0.00000000000E+00  0.21816025279E+03  0.21816025280E+03  0.25500000920E-02 0. -1.
        2   -1    0    0  501    0  0.00000000000E+00  0.00000000000E+00 -0.41129687877E+03  0.41129687878E+03  0.25500000920E-02 0.  1.
    10030    2    1    2    0    0  0.00000000000E+00  0.00000000000E+00 -0.19313662598E+03  0.62945713158E+03  0.59909475395E+03 0.  0.
        1    1    3    3  502    0 -0.28337112004E+03 -0.76045760880E+02 -0.16001481091E+03  0.33419588441E+03  0.50400001928E-02 0. -1.
       -1    1    3    3    0  502  0.28337112004E+03  0.76045760880E+02 -0.33121815071E+02  0.29526124717E+03  0.50400001928E-02 0.  1.
</event>
<event>
 5   0  0.5891927E-03  0.5979306E+03  0.7818609E-02  0.9909709E-01
       -1   -1    0    0    0  501  0.00000000000E+00  0.00000000000E+00  0.58439726197E+03  0.58439726199E+03  0.50400001928E-02 0. -1.
        1   -1    0    0  501    0  0.00000000000E+00  0.00000000000E+00 -0.15294435495E+03  0.15294435503E+03  0.50400001928E-02 0.  1.
    10030    2    1    2    0    0  0.00000000000E+00  0.00000000000E+00  0.43145290703E+03  0.73734161702E+03  0.59793063913E+03 0.  0.
        4    1    3    3  502    0  0.21027910941E+03 -0.13303473060E+03  0.42008498141E+03  0.48825049709E+03  0.12699999809E+01 0. -1.
       -4    1    3    3    0  502 -0.21027910941E+03  0.13303473060E+03  0.11367925618E+02  0.24909111994E+03  0.12699999809E+01 0.  1.
</event>
<event>
 5   0  0.5790967E-03  0.6002317E+03  0.7818609E-02  0.9904925E-01
       -1   -1    0    0    0  501  0.00000000000E+00  0.00000000000E+00  0.31503659986E+03  0.31503659990E+03  0.50400001928E-02 0.  1.
        1   -1    0    0  501    0  0.00000000000E+00  0.00000000000E+00 -0.28590177220E+03  0.28590177224E+03  0.50400001928E-02 0. -1.
    10030    2    1    2    0    0  0.00000000000E+00  0.00000000000E+00  0.29134827666E+02  0.60093837214E+03  0.60023169604E+03 0.  0.
        3    1    3    3  502    0 -0.14190955735E+03  0.12626304783E+03  0.24719594487E+03  0.31174753419E+03  0.10100000352E+00 0.  1.
       -3    1    3    3    0  502  0.14190955735E+03 -0.12626304783E+03 -0.21806111720E+03  0.28919083795E+03  0.10100000352E+00 0. -1.
</event>
<event>
 5   0  0.9162342E-03  0.5986990E+03  0.7818609E-02  0.9908109E-01
       -2   -1    0    0    0  501  0.00000000000E+00  0.00000000000E+00  0.66242328251E+02  0.66242328300E+02  0.25500000920E-02 0.  1.
        2   -1    0    0  501    0  0.00000000000E+00  0.00000000000E+00 -0.13527622762E+04  0.13527622762E+04  0.25500000920E-02 0. -1.
    10030    2    1    2    0    0  0.00000000000E+00  0.00000000000E+00 -0.12865199480E+04  0.14190046045E+04  0.59869899877E+03 0.  0.
        5    1    3    3  502    0 -0.22159303955E+03  0.20043728248E+03 -0.60156603744E+03  0.67170109929E+03  0.46999998093E+01 0. -1.
       -5    1    3    3    0  502  0.22159303955E+03 -0.20043728248E+03 -0.68495391053E+03  0.74730350523E+03  0.46999998093E+01 0.  1.
</event>
<event>
 5   0  0.9162342E-03  0.5994663E+03  0.7818609E-02  0.9906514E-01
       -2   -1    0    0    0  501  0.00000000000E+00  0.00000000000E+00  0.20712024202E+03  0.20712024203E+03  0.25500000920E-02 0.  1.
        2   -1    0    0  501    0  0.00000000000E+00  0.00000000000E+00 -0.43375756229E+03  0.43375756230E+03  0.25500000920E-02 0. -1.
    10030    2    1    2    0    0  0.00000000000E+00  0.00000000000E+00 -0.22663732027E+03  0.64087780433E+03  0.59946633362E+03 0.  0.
        5    1    3    3  502    0 -0.23956498743E+03  0.92209431742E+02  0.52039865981E+02  0.26196221131E+03  0.46999998093E+01 0.  1.
       -5    1    3    3    0  502  0.23956498743E+03 -0.92209431742E+02 -0.27867718625E+03  0.37891559303E+03  0.46999998093E+01 0. -1.
</event>
<event>
 5   0  0.9391405E-03  0.6011652E+03  0.7818609E-02  0.9902992E-01
        2   -1    0    0  501    0  0.00000000000E+00  0.00000000000E+00  0.13092541291E+04  0.13092541291E+04  0.25500000920E-02 0. -1.
       -2   -1    0    0    0  501  0.00000000000E+00  0.00000000000E+00 -0.69008686679E+02  0.69008686726E+02  0.25500000920E-02 0.  1.
    10030    2    1    2    0    0  0.00000000000E+00  0.00000000000E+00  0.12402454425E+04  0.13782628159E+04  0.60116522859E+03 0.  0.
        2    1    3    3  502    0  0.20297732451E+03 -0.16647547724E+03  0.95579104254E+03  0.99118635775E+03  0.25500000920E-02 0. -1.
       -2    1    3    3    0  502 -0.20297732451E+03  0.16647547724E+03  0.28445439992E+03  0.38707645812E+03  0.25500000920E-02 0.  1.
</event>
<event>
 5   0  0.9303190E-03  0.6007806E+03  0.7818609E-02  0.9903788E-01
        2   -1    0    0  501    0  0.00000000000E+00  0.00000000000E+00  0.64717649471E+03  0.64717649472E+03  0.25500000920E-02 0. -1.
       -2   -1    0    0    0  501  0.00000000000E+00  0.00000000000E+00 -0.13942768569E+03  0.13942768572E+03  0.25500000920E-02 0.  1.
    10030    2    1    2    0    0  0.00000000000E+00  0.00000000000E+00  0.50774880902E+03  0.78660418044E+03  0.60078056195E+03 0.  0.
        4    1    3    3  502    0  0.12888769389E+03  0.65859661234E+01 -0.10127597844E+03  0.16405440955E+03  0.12699999809E+01 0.  1.
       -4    1    3    3    0  502 -0.12888769389E+03 -0.65859661234E+01  0.60902478746E+03  0.62254977088E+03  0.12699999809E+01 0. -1.
</event>
<event>
 5   0  0.5765045E-03  0.5992460E+03  0.7818609E-02  0.9906972E-01
       -1   -1    0    0    0  501  0.00000000000E+00  0.00000000000E+00  0.11115548598E+03  0.11115548609E+03  0.50400001928E-02 0.  1.
        1   -1    0    0  501    0  0.00000000000E+00  0.00000000000E+00 -0.80764288047E+03  0.80764288048E+03  0.50400001928E-02 0. -1.
    10030    2    1    2    0    0  0.00000000000E+00  0.00000000000E+00 -0.69648739449E+03  0.91879836657E+03  0.59924598266E+03 0.  0.
        1    1    3    3  502    0  0.21012502325E+03 -0.79521431249E+02 -0.65219145592E+03  0.68980423210E+03  0.50400001928E-02 0. -1.
       -1    1    3    3    0  502 -0.21012502325E+03  0.79521431249E+02 -0.44295938576E+02  0.22899413448E+03  0.50400001928E-02 0.  1.
</event>
<event>
 5   0  0.5765045E-03  0.5989931E+03  0.7818609E-02  0.9907497E-01
        1   -1    0    0  501    0  0.00000000000E+00  0.00000000000E+00  0.23906199424E+03  0.23906199429E+03  0.50400001928E-02 0.  1.
       -1   -1    0    0    0  501  0.00000000000E+00  0.00000000000E+00 -0.37520890704E+03  0.37520890707E+03  0.50400001928E-02 0. -1.
    10030    2    1    2    0    0  0.00000000000E+00  0.00000000000E+00 -0.13614691279E+03  0.61427090136E+03  0.59899312049E+03 0.  0.
        1    1    3    3  502    0 -0.97160927293E+01  0.35289653375E+02  0.23675962587E+03  0.23957229088E+03  0.50400001928E-02 0.  1.
       -1    1    3    3    0  502  0.97160927293E+01 -0.35289653375E+02 -0.37290653866E+03  0.37469861048E+03  0.50400001928E-02 0. -1.
</event>
<event>
 5   0  0.5790967E-03  0.5996561E+03  0.7818609E-02  0.9906120E-01
       -1   -1    0    0    0  501  0.00000000000E+00  0.00000000000E+00  0.23310593432E+03  0.23310593437E+03  0.50400001928E-02 0. -1.
        1   -1    0    0  501    0  0.00000000000E+00  0.00000000000E+00 -0.38564803502E+03  0.38564803506E+03  0.50400001928E-02 0.  1.
    10030    2    1    2    0    0  0.00000000000E+00  0.00000000000E+00 -0.15254210071E+03  0.61875396943E+03  0.59965605325E+03 0.  0.
        3    1    3    3  502    0 -0.14083746529E+03  0.17132133935E+03  0.13192369003E+03  0.25805050501E+03  0.10100000352E+00 0. -1.
       -3    1    3    3    0  502  0.14083746529E+03 -0.17132133935E+03 -0.28446579073E+03  0.36070346442E+03  0.10100000352E+00 0.  1.
</event>
<event>
 5   0  0.9028473E-03  0.6000401E+03  0.7818609E-02  0.9905323E-01
        2   -1    0    0  501    0  0.00000000000E+00  0.00000000000E+00  0.93970468119E+03  0.93970468119E+03  0.25500000920E-02 0. -1.
       -2   -1    0    0    0  501  0.00000000000E+00  0.00000000000E+00 -0.95787563204E+02  0.95787563238E+02  0.25500000920E-02 0.  1.
    10030    2    1    2    0    0  0.00000000000E+00  0.00000000000E+00  0.84391711798E+03  0.10354922444E+04  0.60004007053E+03 0.  0.
        1    1    3    3  502    0  0.77287459957E+02  0.24530755947E+03  0.15537832375E+03  0.30048556324E+03  0.50400001928E-02 0.  1.
       -1    1    3    3    0  502 -0.77287459957E+02 -0.24530755947E+03  0.68853879423E+03  0.73500668119E+03  0.50400001928E-02 0. -1.
</event>
<event>
 5   0  0.5819446E-03  0.5999935E+03  0.7818609E-02  0.9905420E-01
        1   -1    0    0  501    0  0.00000000000E+00  0.00000000000E+00  0.54431058172E+03  0.54431058175E+03  0.50400001928E-02 0.  1.
       -1   -1    0    0    0  501  0.00000000000E+00  0.00000000000E+00 -0.16534317441E+03  0.16534317449E+03  0.50400001928E-02 0. -1.
    10030    2    1    2    0    0  0.00000000000E+00  0.00000000000E+00  0.37896740731E+03  0.70965375624E+03  0.59999346491E+03 0.  0.
        5    1    3    3  502    0  0.11250754448E+03 -0.27150108768E+03  0.11846670133E+03  0.31690256783E+03  0.46999998093E+01 0. -1.
       -5    1    3    3    0  502 -0.11250754448E+03  0.27150108768E+03  0.26050070599E+03  0.39275118841E+03  0.46999998093E+01 0.  1.
</event>
<event>
 5   0  0.9303190E-03  0.6000910E+03  0.7818609E-02  0.9905217E-01
       -2   -1    0    0    0  501  0.00000000000E+00  0.00000000000E+00  0.45812231487E+02  0.45812231558E+02  0.25500000920E-02 0.  1.
        2   -1    0    0  501    0  0.00000000000E+00  0.00000000000E+00 -0.19651367339E+04  0.19651367340E+04  0.25500000920E-02 0. -1.
    10030    2    1    2    0    0  0.00000000000E+00  0.00000000000E+00 -0.19193245025E+04  0.20109489655E+04  0.60009098987E+03 0.  0.
        4    1    3    3  502    0  0.66251312969E+02 -0.13297024378E+03 -0.18332284359E+04  0.18392385471E+04  0.12699999809E+01 0. -1.
       -4    1    3    3    0  502 -0.66251312969E+02  0.13297024378E+03 -0.86096066587E+02  0.17171041839E+03  0.12699999809E+01 0.  1.
</event>
<event>
 5   0  0.5891927E-03  0.5998509E+03  0.7818609E-02  0.9905715E-01
       -1   -1    0    0    0  501  0.00000000000E+00  0.00000000000E+00  0.13316474797E+03  0.13316474807E+03  0.50400001928E-02 0.  1.
        1   -1    0    0  501    0  0.00000000000E+00  0.00000000000E+00 -0.67551866448E+03  0.67551866450E+03  0.50400001928E-02 0. -1.
    10030    2    1    2    0    0  0.00000000000E+00  0.00000000000E+00 -0.54235391651E+03  0.80868341257E+03  0.59985089065E+03 0.  0.
        4    1    3    3  502    0  0.90117985849E+02 -0.12306671267E+03 -0.61931845621E+03  0.63782727305E+03  0.12699999809E+01 0. -1.
       -4    1    3    3    0  502 -0.90117985849E+02  0.12306671267E+03  0.76964539701E+02  0.17085613952E+03  0.12699999809E+01 0.  1.
</event>
<event>
 5   0  0.5819446E-03  0.5997791E+03  0.7818609E-02  0.9905864E-01
        1   -1    0    0  501    0  0.00000000000E+00  0.00000000000E+00  0.38249639892E+03  0.38249639895E+03  0.50400001928E-02 0. -1.
       -1   -1    0    0    0  501  0.00000000000E+00  0.00000000000E+00 -0.23512309980E+03  0.23512309986E+03  0.50400001928E-02 0.  1.
    10030    2    1    2    0    0  0.00000000000E+00  0.00000000000E+00  0.14737329912E+03  0.61761949881E+03  0.59977908935E+03 0.  0.
        5    1    3    3  502    0 -0.57873623499E+02 -0.28607436606E+03  0.14446054842E+03  0.32569746585E+03  0.46999998093E+01 0. -1.
       -5    1    3    3    0  502  0.57873623499E+02  0.28607436606E+03  0.29127507003E+01  0.29192203296E+03  0.46999998093E+01 0.  1.
</event>
<event>
 5   0  0.9028473E-03  0.6009050E+03  0.7818609E-02  0.9903530E-01
        2   -1    0    0  501    0  0.00000000000E+00  0.00000000000E+00  0.27712840734E+03  0.27712840736E+03  0.25500000920E-02 0.  1.
       -2   -1    0    0    0  501  0.00000000000E+00  0.00000000000E+00 -0.32573964243E+03  0.32573964244E+03  0.25500000920E-02 0. -1.
    10030    2    1    2    0    0  0.00000000000E+00  0.00000000000E+00 -0.48611235090E+02  0.60286804980E+03  0.60090501187E+03 0.  0.
        1    1    3    3  502    0 -0.14205986476E+03 -0.65263843586E+02  0.23310874163E+03  0.28067785789E+03  0.50400001928E-02 0.  1.
       -1    1    3    3    0  502  0.14205986476E+03  0.65263843586E+02 -0.28171997672E+03  0.32219019191E+03  0.50400001928E-02 0. -1.
</event>
<event>
 5   0  0.5790967E-03  0.5990280E+03  0.7818609E-02  0.9907425E-01
       -1   -1    0    0    0  501  0.00000000000E+00  0.00000000000E+00  0.15398069470E+03  0.15398069479E+03  0.50400001928E-02 0. -1.
        1   -1    0    0  501    0  0.00000000000E+00  0.00000000000E+00 -0.58259669317E+03  0.58259669319E+03  0.50400001928E-02 0.  1.
    10030    2    1    2    0    0  0.00000000000E+00  0.00000000000E+00 -0.42861599847E+03  0.73657738798E+03  0.59902802467E+03 0.  0.
        3    1    3    3  502    0 -0.25025028307E+03  0.16454803773E+03 -0.21764670603E+03  0.37023149480E+03  0.10100000352E+00 0.  1.
       -3    1    3    3    0  502  0.25025028307E+03 -0.16454803773E+03 -0.21096929243E+03  0.36634589318E+03  0.10100000352E+00 0. -1.
</event>
<event>
 5   0  0.9391405E-03  0.6009083E+03  0.7818609E-02  0.9903523E-01
        2   -1    0    0  501    0  0.00000000000E+00  0.00000000000E+00  0.67392810259E+03  0.67392810259E+03  0.25500000920E-02 0.  1.
       -2   -1    0    0    0  501  0.00000000000E+00  0.00000000000E+00 -0.13395005917E+03  0.13395005920E+03  0.25500000920E-02 0. -1.
    10030    2    1    2    0    0  0.00000000000E+00  0.00000000000E+00  0.53997804342E+03  0.80787816179E+03  0.60090834320E+03 0.  0.
        2    1    3    3  502    0 -0.27097354818E+03 -0.11594807969E+03  0.19157198609E+03  0.35152588362E+03  0.25500000920E-02 0.  1.
       -2    1    3    3    0  502  0.27097354818E+03  0.11594807969E+03  0.34840605733E+03  0.45635227817E+03  0.25500000920E-02 0. -1.
</event>
<event>
 5   0  0.9391405E-03  0.5979593E+03  0.7818609E-02  0.9909649E-01
        2   -1    0    0  501    0  0.00000000000E+00  0.00000000000E+00  0.55012435730E+03  0.55012435730E+03  0.25500000920E-02 0. -1.
       -2   -1    0    0    0  501  0.00000000000E+00  0.00000000000E+00 -0.16248843083E+03  0.16248843085E+03  0.25500000920E-02 0.  1.
    10030    2    1    2    0    0  0.00000000000E+00  0.00000000000E+00  0.38763592647E+03  0.71261278815E+03  0.59795934171E+03 0.  0.
        2    1    3    3  502    0  0.12053328919E+03  0.53362232446E+02  0.51362464613E+03  0.53026981696E+03  0.25500000920E-02 0. -1.
       -2    1    3    3    0  502 -0.12053328919E+03 -0.53362232446E+02 -0.12598871966E+03  0.18234297119E+03  0.25500000920E-02 0.  1.
</event>
<event>
 5   0  0.9303190E-03  0.5979179E+03  0.7818609E-02  0.9909735E-01
        2   -1    0    0  501    0  0.00000000000E+00  0.00000000000E+00  0.28503221132E+03  0.28503221133E+03  0.25500000920E-02 0. -1.
       -2   -1    0    0    0  501  0.00000000000E+00  0.00000000000E+00 -0.31356616324E+03  0.31356616325E+03  0.25500000920E-02 0.  1.
    10030    2    1    2    0    0  0.00000000000E+00  0.00000000000E+00 -0.28533951920E+02  0.59859837459E+03  0.59791791046E+03 0.  0.
        4    1    3    3  502    0 -0.98947526602E+02  0.16861012429E+03 -0.24069877016E+03  0.31009272467E+03  0.12699999809E+01 0.  1.
       -4    1    3    3    0  502  0.98947526602E+02 -0.16861012429E+03  0.21216481824E+03  0.28850564992E+03  0.12699999809E+01 0. -1.
</event>
<event>
 5   0  0.9822607E-03  0.5993215E+03  0.7818609E-02  0.9906815E-01
       -2   -1    0    0    0  501  0.00000000000E+00  0.00000000000E+00  0.48988838990E+03  0.48988838991E+03  0.25500000920E-02 0.  1.
        2   -1    0    0  501    0  0.00000000000E+00  0.00000000000E+00 -0.18330006557E+03  0.18330006559E+03  0.25500000920E-02 0. -1.
    10030    2    1    2    0    0  0.00000000000E+00  0.00000000000E+00  0.30658832433E+03  0.67318845550E+03  0.59932152973E+03 0.  0.
        3    1    3    3  502    0 -0.64401002904E+02 -0.26473169262E+03  0.29343611362E+03  0.40041868243E+03  0.10100000352E+00 0. -1.
       -3    1    3    3    0  502  0.64401002904E+02  0.26473169262E+03  0.13152210710E+02  0.27276977307E+03  0.10100000352E+00 0.  1.
</event>
<event>
 5   0  0.9028473E-03  0.5974532E+03  0.7818609E-02  0.9910704E-01
       -2   -1    0    0    0  501  0.00000000000E+00  0.00000000000E+00  0.83462694042E+02  0.83462694081E+02  0.25500000920E-02 0.  1.
        2   -1    0    0  501    0  0.00000000000E+00  0.00000000000E+00 -0.10691912950E+04  0.10691912950E+04  0.25500000920E-02 0. -1.
    10030    2    1    2    0    0  0.00000000000E+00  0.00000000000E+00 -0.98572860092E+03  0.11526539890E+04  0.59745321473E+03 0.  0.
        1    1    3    3  502    0  0.11593510048E+03  0.16149788595E+03 -0.62695321813E+02  0.20845435494E+03  0.50400001928E-02 0.  1.
       -1    1    3    3    0  502 -0.11593510048E+03 -0.16149788595E+03 -0.92303327911E+03  0.94419963411E+03  0.50400001928E-02 0. -1.
</event>
<event>
 5   0  0.9162342E-03  0.6000868E+03  0.7818609E-02  0.9905226E-01
        2   -1    0    0  501    0  0.00000000000E+00  0.00000000000E+00  0.16978328246E+04  0.16978328246E+04  0.25500000920E-02 0.  1.
       -2   -1    0    0    0  501  0.00000000000E+00  0.00000000000E+00 -0.53024092365E+02  0.53024092426E+02  0.25500000920E-02 0. -1.
    10030    2    1    2    0    0  0.00000000000E+00  0.00000000000E+00  0.16448087322E+04  0.17508569170E+04  0.60008680894E+03 0.  0.
        5    1    3    3  502    0  0.62402941673E+02  0.19234033864E+03  0.14690163444E+04  0.14828755994E+04  0.46999998093E+01 0.  1.
       -5    1    3    3    0  502 -0.62402941673E+02 -0.19234033864E+03  0.17579238775E+03  0.26798131760E+03  0.46999998093E+01 0. -1.
</event>
<event>
 5   0  0.6078658E-03  0.6006795E+03  0.7818609E-02  0.9903997E-01
        1   -1    0    0  501    0  0.00000000000E+00  0.00000000000E+00  0.81442497109E+03  0.81442497110E+03  0.50400001928E-02 0.  1.
       -1   -1    0    0    0  501  0.00000000000E+00  0.00000000000E+00 -0.11075787115E+03  0.11075787126E+03  0.50400001928E-02 0. -1.
    10030    2    1    2    0    0  0.00000000000E+00  0.00000000000E+00  0.70366709994E+03  0.92518284237E+03  0.60067953542E+03 0.  0.
        2    1    3    3  502    0  0.29481066204E+03  0.94195837242E+01  0.43898809571E+03  0.52887862804E+03  0.25500000920E-02 0.  1.
       -2    1    3    3    0  502 -0.29481066204E+03 -0.94195837242E+01  0.26467900423E+03  0.39630421433E+03  0.25500000920E-02 0. -1.
</event>
<event>
 5   0  0.5790967E-03  0.5989305E+03  0.7818609E-02  0.9907627E-01
       -1   -1    0    0    0  501  0.00000000000E+00  0.00000000000E+00  0.19072432876E+03  0.19072432883E+03  0.50400001928E-02 0. -1.
        1   -1    0    0  501    0  0.00000000000E+00  0.00000000000E+00 -0.47020446856E+03  0.47020446859E+03  0.50400001928E-02 0.  1.
    10030    2    1    2    0    0  0.00000000000E+00  0.00000000000E+00 -0.27948013980E+03  0.66092879742E+03  0.59893048571E+03 0.  0.
        3    1    3    3  502    0 -0.17260783432E+03  0.22500558237E+03 -0.24592118431E+03  0.37536411077E+03  0.10100000352E+00 0.  1.
       -3    1    3    3    0  502  0.17260783432E+03 -0.22500558237E+03 -0.33558955493E+02  0.28556468665E+03  0.10100000352E+00 0. -1.
</event>
<event>
 5   0  0.9303190E-03  0.5999555E+03  0.7818609E-02  0.9905498E-01
        2   -1    0    0  501    0  0.00000000000E+00  0.00000000000E+00  0.43998603980E+03  0.43998603981E+03  0.25500000920E-02 0. -1.
       -2   -1    0    0    0  501  0.00000000000E+00  0.00000000000E+00 -0.20452161050E+03  0.20452161052E+03  0.25500000920E-02 0.  1.
    10030    2    1    2    0    0  0.00000000000E+00  0.00000000000E+00  0.23546442930E+03  0.64450765033E+03  0.59995550991E+03 0.  0.
        4    1    3    3  502    0  0.20516044574E+03  0.47919407095E+02  0.34712605343E+03  0.40606057177E+03  0.12699999809E+01 0.  1.
       -4    1    3    3    0  502 -0.20516044574E+03 -0.47919407095E+02 -0.11166162413E+03  0.23844707856E+03  0.12699999809E+01 0. -1.
</event>
<event>
 5   0  0.9391405E-03  0.5997581E+03  0.7818609E-02  0.9905908E-01
        2   -1    0    0  501    0  0.00000000000E+00  0.00000000000E+00  0.21655923832E+03  0.21655923833E+03  0.25500000920E-02 0. -1.
       -2   -1    0    0    0  501  0.00000000000E+00  0.00000000000E+00 -0.41525564291E+03  0.41525564292E+03  0.25500000920E-02 0.  1.
    10030    2    1    2    0    0  0.00000000000E+00  0.00000000000E+00 -0.19869640459E+03  0.63181488126E+03  0.59975810372E+03 0.  0.
        2    1    3    3  502    0 -0.26079472627E+03 -0.28613996830E+02  0.53655305460E+02  0.26779010787E+03  0.25500000920E-02 0. -1.
       -2    1    3    3    0  502  0.26079472627E+03  0.28613996830E+02 -0.25235171005E+03  0.36402477338E+03  0.25500000920E-02 0.  1.
</event>
<event>
 5   0  0.5819446E-03  0.6007764E+03  0.7818609E-02  0.9903797E-01
        1   -1    0    0  501    0  0.00000000000E+00  0.00000000000E+00  0.15127271927E+03  0.15127271936E+03  0.50400001928E-02 0. -1.
       -1   -1    0    0    0  501  0.00000000000E+00  0.00000000000E+00 -0.59649274769E+03  0.59649274771E+03  0.50400001928E-02 0.  1.
    10030    2    1    2    0    0  0.00000000000E+00  0.00000000000E+00 -0.44522002842E+03  0.74776546707E+03  0.60077643100E+03 0.  0.
        5    1    3    3  502    0 -0.15819846122E+03  0.25486053501E+03 -0.20371959875E+03  0.36263536832E+03  0.46999998093E+01 0. -1.
       -5    1    3    3    0  502  0.15819846122E+03 -0.25486053501E+03 -0.24150042967E+03  0.38513009876E+03  0.46999998093E+01 0.  1.
</event>
<event>
 5   0  0.6078658E-03  0.6000336E+03  0.7818609E-02  0.9905336E-01
        1   -1    0    0  501    0  0.00000000000E+00  0.00000000000E+00  0.75008449466E+03  0.75008449468E+03  0.50400001928E-02 0.  1.
       -1   -1    0    0    0  501  0.00000000000E+00  0.00000000000E+00 -0.11999993060E+03  0.11999993071E+03  0.50400001928E-02 0. -1.
    10030    2    1    2    0    0  0.00000000000E+00  0.00000000000E+00  0.63008456406E+03  0.87008442539E+03  0.60003362359E+03 0.  0.
        2    1    3    3  502    0 -0.19126827980E+02 -0.28910970883E+03  0.42792201117E+03  0.51678574568E+03  0.25500000920E-02 0.  1.
       -2    1    3    3    0  502  0.19126827980E+02  0.28910970883E+03  0.20216255289E+03  0.35329867971E+03  0.25500000920E-02 0. -1.
</event>
<event>
 5   0  0.9162342E-03  0.6003268E+03  0.7818609E-02  0.9904728E-01
       -2   -1    0    0    0  501  0.00000000000E+00  0.00000000000E+00  0.12709129253E+03  0.12709129255E+03  0.25500000920E-02 0.  1.
        2   -1    0    0  501    0  0.00000000000E+00  0.00000000000E+00 -0.70892390248E+03  0.70892390248E+03  0.25500000920E-02 0. -1.
    10030    2    1    2    0    0  0.00000000000E+00  0.00000000000E+00 -0.58183260995E+03  0.83601519504E+03  0.60032676130E+03 0.  0.
        5    1    3    3  502    0 -0.11631158279E+03 -0.23440743118E+03 -0.86243212304E+02  0.27556344052E+03  0.46999998093E+01 0.  1.
       -5    1    3    3    0  502  0.11631158279E+03  0.23440743118E+03 -0.49558939765E+03  0.56045175452E+03  0.46999998093E+01 0. -1.
</event>
<event>
 5   0  0.3806250E-03  0.6016131E+03  0.7818609E-02  0.9902065E-01
       -4   -1    0    0    0  501  0.00000000000E+00  0.00000000000E+00  0.19537580366E+03  0.19537993131E+03  0.12699999809E+01 0.  1.
        4   -1    0    0  501    0  0.00000000000E+00  0.00000000000E+00 -0.46312098599E+03  0.46312272732E+03  0.12699999809E+01 0. -1.
    10030    2    1    2    0    0  0.00000000000E+00  0.00000000000E+00 -0.26774518233E+03  0.65850265863E+03  0.60161305568E+03 0.  0.
        5    1    3    3  502    0 -0.29935512184E+03 -0.98366576203E+01 -0.10385228344E+03  0.31704516331E+03  0.46999998093E+01 0. -1.
       -5    1    3    3    0  502  0.29935512184E+03  0.98366576203E+01 -0.16389289889E+03  0.34145749532E+03  0.46999998093E+01 0.  1.
</event>
<event>
 5   0  0.5790967E-03  0.5976257E+03  0.7818609E-02  0.9910344E-01
       -1   -1    0    0    0  501  0.00000000000E+00  0.00000000000E+00  0.73842388811E+03  0.73842388813E+03  0.50400001928E-02 0.  1.
        1   -1    0    0  501    0  0.00000000000E+00  0.00000000000E+00 -0.12091851884E+03  0.12091851895E+03  0.50400001928E-02 0. -1.
    10030    2    1    2    0    0  0.00000000000E+00  0.00000000000E+00  0.61750536927E+03  0.85934240708E+03  0.59762571190E+03 0.  0.
        3    1    3    3  502    0  0.88158253125E+02  0.17352654589E+03  0.63477168904E+03  0.66394159919E+03  0.10100000352E+00 0.  1.
       -3    1    3    3    0  502 -0.88158253125E+02 -0.17352654589E+03 -0.17266319772E+02  0.19540080789E+03  0.10100000352E+00 0. -1.
</event>
<event>
 5   0  0.5765045E-03  0.5999143E+03  0.7818609E-02  0.9905584E-01
       -1   -1    0    0    0  501  0.00000000000E+00  0.00000000000E+00  0.91190714409E+02  0.91190714549E+02  0.50400001928E-02 0. -1.
        1   -1    0    0  501    0  0.00000000000E+00  0.00000000000E+00 -0.98666070141E+03  0.98666070143E+03  0.50400001928E-02 0.  1.
    10030    2    1    2    0    0  0.00000000000E+00  0.00000000000E+00 -0.89546998701E+03  0.10778514160E+04  0.59991430829E+03 0.  0.
        1    1    3    3  502    0  0.14234907101E+03 -0.72573409153E+02 -0.90383636800E+03  0.91785093445E+03  0.50400001928E-02 0.  1.
       -1    1    3    3    0  502 -0.14234907101E+03  0.72573409153E+02  0.83663809920E+01  0.16000048153E+03  0.50400001928E-02 0. -1.
</event>
<event>
 5   0  0.9028473E-03  0.6004812E+03  0.7818609E-02  0.9904408E-01
        2   -1    0    0  501    0  0.00000000000E+00  0.00000000000E+00  0.71519816536E+03  0.71519816536E+03  0.25500000920E-02 0.  1.
       -2   -1    0    0    0  501  0.00000000000E+00  0.00000000000E+00 -0.12604117410E+03  0.12604117413E+03  0.25500000920E-02 0. -1.
    10030    2    1    2    0    0  0.00000000000E+00  0.00000000000E+00  0.58915699126E+03  0.84123933949E+03  0.60048119534E+03 0.  0.
        1    1    3    3  502    0 -0.14652440976E+03  0.14510055281E+03 -0.11137880851E+02  0.20651301532E+03  0.50400001928E-02 0. -1.
       -1    1    3    3    0  502  0.14652440976E+03 -0.14510055281E+03  0.60029487211E+03  0.63472632417E+03  0.50400001928E-02 0.  1.
</event>
<event>
 5   0  0.3806250E-03  0.6006718E+03  0.7818609E-02  0.9904013E-01
        3   -1    0    0  501    0  0.00000000000E+00  0.00000000000E+00  0.28240347587E+03  0.28240349393E+03  0.10100000352E+00 0. -1.
       -3   -1    0    0    0  501  0.00000000000E+00  0.00000000000E+00 -0.31940699553E+03  0.31940701149E+03  0.10100000352E+00 0.  1.
    10030    2    1    2    0    0  0.00000000000E+00  0.00000000000E+00 -0.37003519656E+02  0.60181050542E+03  0.60067181054E+03 0.  0.
        2    1    3    3  502    0  0.17851038121E+02  0.12619046548E+03  0.25396775585E+03  0.28415192091E+03  0.25500000920E-02 0. -1.
       -2    1    3    3    0  502 -0.17851038121E+02 -0.12619046548E+03 -0.29097127550E+03  0.31765858451E+03  0.25500000920E-02 0.  1.
</event>
<event>
 5   0  0.9822607E-03  0.6006807E+03  0.7818609E-02  0.9903995E-01
        2   -1    0    0  501    0  0.00000000000E+00  0.00000000000E+00  0.91444120317E+02  0.91444120353E+02  0.25500000920E-02 0.  1.
       -2   -1    0    0    0  501  0.00000000000E+00  0.00000000000E+00 -0.98644193389E+03  0.98644193389E+03  0.25500000920E-02 0. -1.
    10030    2    1    2    0    0  0.00000000000E+00  0.00000000000E+00 -0.89499781357E+03  0.10778860542E+04  0.60068066361E+03 0.  0.
        3    1    3    3  502    0 -0.13707772316E+03 -0.14542596193E+03 -0.45186610510E+02  0.20489229502E+03  0.10100000352E+00 0.  1.
       -3    1    3    3    0  502  0.13707772316E+03  0.14542596193E+03 -0.84981120306E+03  0.87299375922E+03  0.10100000352E+00 0. -1.
</event>
<event>
 5   0  0.9162342E-03  0.6002822E+03  0.7818609E-02  0.9904821E-01
        2   -1    0    0  501    0  0.00000000000E+00  0.00000000000E+00  0.11709059097E+04  0.11709059097E+04  0.25500000920E-02 0.  1.
       -2   -1    0    0    0  501  0.00000000000E+00  0.00000000000E+00 -0.76935895284E+02  0.76935895327E+02  0.25500000920E-02 0. -1.
    10030    2    1    2    0    0  0.00000000000E+00  0.00000000000E+00  0.10939700144E+04  0.12478418050E+04  0.60028224856E+03 0.  0.
        5    1    3    3  502    0  0.83698756852E+01 -0.63572325064E+02  0.11564233484E+04  0.11582091979E+04  0.46999998093E+01 0.  1.
       -5    1    3    3    0  502 -0.83698756852E+01  0.63572325064E+02 -0.62453334008E+02  0.89632607125E+02  0.46999998093E+01 0. -1.
</event>
<event>
 5   0  0.9303190E-03  0.5992565E+03  0.7818609E-02  0.9906950E-01
        2   -1    0    0  501    0  0.00000000000E+00  0.00000000000E+00  0.32631282550E+03  0.32631282551E+03  0.25500000920E-02 0.  1.
       -2   -1    0    0    0  501  0.00000000000E+00  0.00000000000E+00 -0.27512582442E+03  0.27512582443E+03  0.25500000920E-02 0. -1.
    10030    2    1    2    0    0  0.00000000000E+00  0.00000000000E+00  0.51187001078E+02  0.60143864994E+03  0.59925648980E+03 0.  0.
        4    1    3    3  502    0 -0.20714272752E+03  0.16790578654E+03  0.16274766646E+03  0.31239218710E+03  0.12699999809E+01 0. -1.
       -4    1    3    3    0  502  0.20714272752E+03 -0.16790578654E+03 -0.11156066538E+03  0.28904646284E+03  0.12699999809E+01 0.  1.
</event>
<event>
 5   0  0.9028473E-03  0.5998385E+03  0.7818609E-02  0.9905741E-01
        2   -1    0    0  501    0  0.00000000000E+00  0.00000000000E+00  0.65117938421E+03  0.65117938422E+03  0.25500000920E-02 0. -1.
       -2   -1    0    0    0  501  0.00000000000E+00  0.00000000000E+00 -0.13813638830E+03  0.13813638832E+03  0.25500000920E-02 0.  1.
    10030    2    1    2    0    0  0.00000000000E+00  0.00000000000E+00  0.51304299592E+03  0.78931577254E+03  0.59983853920E+03 0.  0.
        1    1    3    3  502    0 -0.19462893372E+03  0.17316758722E+03  0.45207094590E+03  0.52176199100E+03  0.50400001928E-02 0. -1.
       -1    1    3    3    0  502  0.19462893372E+03 -0.17316758722E+03  0.60972050014E+02  0.26755378153E+03  0.50400001928E-02 0.  1.
</event>
<event>
 5   0  0.6078658E-03  0.5932835E+03  0.7818609E-02  0.9919439E-01
       -1   -1    0    0    0  501  0.00000000000E+00  0.00000000000E+00  0.15411666149E+03  0.15411666157E+03  0.50400001928E-02 0. -1.
        1   -1    0    0  501    0  0.00000000000E+00  0.00000000000E+00 -0.57097227859E+03  0.57097227861E+03  0.50400001928E-02 0.  1.
    10030    2    1    2    0    0  0.00000000000E+00  0.00000000000E+00 -0.41685561710E+03  0.72508894019E+03  0.59328354576E+03 0.  0.
        2    1    3    3  502    0 -0.23233746816E+03  0.16176730577E+01 -0.43382661349E+03  0.49212686022E+03  0.25500000920E-02 0.  1.
       -2    1    3    3    0  502  0.23233746816E+03 -0.16176730577E+01  0.16970996387E+02  0.23296207996E+03  0.25500000920E-02 0. -1.
</event>
<event>
 5   0  0.5790967E-03  0.6001202E+03  0.7818609E-02  0.9905157E-01
        1   -1    0    0  501    0  0.00000000000E+00  0.00000000000E+00  0.56025220718E+03  0.56025220720E+03  0.50400001928E-02 0. -1.
       -1   -1    0    0    0  501  0.00000000000E+00  0.00000000000E+00 -0.16070633047E+03  0.16070633055E+03  0.50400001928E-02 0.  1.
    10030    2    1    2    0    0  0.00000000000E+00  0.00000000000E+00  0.39954587671E+03  0.72095853775E+03  0.60012024258E+03 0.  0.
        3    1    3    3  502    0 -0.63579392969E+02 -0.29238170913E+03  0.17273138284E+03  0.34549318931E+03  0.10100000352E+00 0. -1.
       -3    1    3    3    0  502  0.63579392969E+02  0.29238170913E+03  0.22681449387E+03  0.37546534843E+03  0.10100000352E+00 0.  1.
</event>
<event>
 5   0  0.3806250E-03  0.6030880E+03  0.7818609E-02  0.9899020E-01
        3   -1    0    0  501    0  0.00000000000E+00  0.00000000000E+00  0.57692818659E+03  0.57692819543E+03  0.10100000352E+00 0. -1.
       -3   -1    0    0    0  501  0.00000000000E+00  0.00000000000E+00 -0.15760844868E+03  0.15760848104E+03  0.10100000352E+00 0.  1.
    10030    2    1    2    0    0  0.00000000000E+00  0.00000000000E+00  0.41931973791E+03  0.73453667647E+03  0.60308795916E+03 0.  0.
        4    1    3    3  502    0  0.26696161861E+03 -0.12835773063E+03  0.27837422110E+03  0.40649481263E+03  0.12699999809E+01 0. -1.
       -4    1    3    3    0  502 -0.26696161861E+03  0.12835773063E+03  0.14094551682E+03  0.32804186384E+03  0.12699999809E+01 0.  1.
</event>
<event>
 5   0  0.9822607E-03  0.5999732E+03  0.7818609E-02  0.9905462E-01
       -2   -1    0    0    0  501  0.00000000000E+00  0.00000000000E+00  0.26378780569E+03  0.26378780570E+03  0.25500000920E-02 0. -1.
        2   -1    0    0  501    0  0.00000000000E+00  0.00000000000E+00 -0.34115281204E+03  0.34115281205E+03  0.25500000920E-02 0.  1.
    10030    2    1    2    0    0  0.00000000000E+00  0.00000000000E+00 -0.77365006354E+02  0.60494061775E+03  0.59997317173E+03 0.  0.
        3    1    3    3  502    0 -0.20548207129E+03 -0.13440172930E+03 -0.21246155008E+03  0.32469466722E+03  0.10100000352E+00 0.  1.
       -3    1    3    3    0  502  0.20548207129E+03  0.13440172930E+03  0.13509654372E+03  0.28024595053E+03  0.10100000352E+00 0. -1.
</event>
<event>
 5   0  0.9822607E-03  0.6008252E+03  0.7818609E-02  0.9903695E-01
       -2   -1    0    0    0  501  0.00000000000E+00  0.00000000000E+00  0.50631083725E+02  0.50631083789E+02  0.25500000920E-02 0. -1.
        2   -1    0    0  501    0  0.00000000000E+00  0.00000000000E+00 -0.17824572891E+04  0.17824572891E+04  0.25500000920E-02 0.  1.
    10030    2    1    2    0    0  0.00000000000E+00  0.00000000000E+00 -0.17318262053E+04  0.18330883728E+04  0.60082524680E+03 0.  0.
        3    1    3    3  502    0 -0.69074258971E+02  0.25963844199E+03 -0.45585393818E+03  0.52913721941E+03  0.10100000352E+00 0. -1.
       -3    1    3    3    0  502  0.69074258971E+02 -0.25963844199E+03 -0.12759722671E+04  0.13039511534E+04  0.10100000352E+00 0.  1.
</event>
<event>
 5   0  0.6078658E-03  0.6004207E+03  0.7818609E-02  0.9904534E-01
       -1   -1    0    0    0  501  0.00000000000E+00  0.00000000000E+00  0.74022318810E+03  0.74022318812E+03  0.50400001928E-02 0. -1.
        1   -1    0    0  501    0  0.00000000000E+00  0.00000000000E+00 -0.12175552223E+03  0.12175552234E+03  0.50400001928E-02 0.  1.
    10030    2    1    2    0    0  0.00000000000E+00  0.00000000000E+00  0.61846766587E+03  0.86197871046E+03  0.60042072212E+03 0.  0.
        2    1    3    3  502    0  0.28595994953E+03  0.87792719439E+02  0.34571131342E+03  0.45716186035E+03  0.25500000920E-02 0.  1.
       -2    1    3    3    0  502 -0.28595994953E+03 -0.87792719439E+02  0.27275635245E+03  0.40481685011E+03  0.25500000920E-02 0. -1.
</event>
<event>
 5   0  0.5765045E-03  0.5993478E+03  0.7818609E-02  0.9906760E-01
        1   -1    0    0  501    0  0.00000000000E+00  0.00000000000E+00  0.95479206908E+03  0.95479206909E+03  0.50400001928E-02 0. -1.
       -1   -1    0    0    0  501  0.00000000000E+00  0.00000000000E+00 -0.94056540351E+02  0.94056540486E+02  0.50400001928E-02 0.  1.
    10030    2    1    2    0    0  0.00000000000E+00  0.00000000000E+00  0.86073552873E+03  0.10488486096E+04  0.59934777500E+03 0.  0.
        1    1    3    3  502    0 -0.17925901129E+03  0.61509943473E+02  0.83660208118E+03  0.85779969021E+03  0.50400001928E-02 0. -1.
       -1    1    3    3    0  502  0.17925901129E+03 -0.61509943473E+02  0.24133447552E+02  0.19104891937E+03  0.50400001928E-02 0.  1.
</event>
<event>
 5   0  0.9162342E-03  0.5989336E+03  0.7818609E-02  0.9907621E-01
       -2   -1    0    0    0  501  0.00000000000E+00  0.00000000000E+00  0.85538963252E+02  0.85538963290E+02  0.25500000920E-02 0. -1.
        2   -1    0    0  501    0  0.00000000000E+00  0.00000000000E+00 -0.10484155187E+04  0.10484155187E+04  0.25500000920E-02 0.  1.
    10030    2    1    2    0    0  0.00000000000E+00  0.00000000000E+00 -0.96287655540E+03  0.11339544819E+04  0.59893364088E+03 0.  0.
        5    1    3    3  502    0 -0.10548716500E+03  0.73873902693E+02 -0.99323387504E+03  0.10015590427E+04  0.46999998093E+01 0.  1.
       -5    1    3    3    0  502  0.10548716500E+03 -0.73873902693E+02  0.30357319643E+02  0.13239543925E+03  0.46999998093E+01 0. -1.
</event>
<event>
 5   0  0.3806250E-03  0.5997976E+03  0.7818609E-02  0.9905826E-01
        3   -1    0    0  501    0  0.00000000000E+00  0.00000000000E+00  0.25980328582E+03  0.25980330546E+03  0.10100000352E+00 0.  1.
       -3   -1    0    0    0  501  0.00000000000E+00  0.00000000000E+00 -0.34618219088E+03  0.34618220561E+03  0.10100000352E+00 0. -1.
    10030    2    1    2    0    0  0.00000000000E+00  0.00000000000E+00 -0.86378905053E+02  0.60598551107E+03  0.59979756950E+03 0.  0.
        5    1    3    3  502    0  0.80497493637E+01  0.96097920715E+02  0.24367215221E+03  0.26210268330E+03  0.46999998093E+01 0.  1.
       -5    1    3    3    0  502 -0.80497493637E+01 -0.96097920715E+02 -0.33005105727E+03  0.34388282777E+03  0.46999998093E+01 0. -1.
</event>
<event>
 5   0  0.5891927E-03  0.5994449E+03  0.7818609E-02  0.9906558E-01
        1   -1    0    0  501    0  0.00000000000E+00  0.00000000000E+00  0.45908808026E+03  0.45908808029E+03  0.50400001928E-02 0. -1.
       -1   -1    0    0    0  501  0.00000000000E+00  0.00000000000E+00 -0.19567824536E+03  0.19567824543E+03  0.50400001928E-02 0.  1.
    10030    2    1    2    0    0  0.00000000000E+00  0.00000000000E+00  0.26340983490E+03  0.65476632572E+03  0.59944491004E+03 0.  0.
        4    1    3    3  502    0  0.63431347904E+02 -0.15576382813E+03 -0.13927498671E+03  0.21836904742E+03  0.12699999809E+01 0.  1.
       -4    1    3    3    0  502 -0.63431347904E+02  0.15576382813E+03  0.40268482161E+03  0.43639727830E+03  0.12699999809E+01 0. -1.
</event>
<event>
 5   0  0.5891927E-03  0.6030385E+03  0.7818609E-02  0.9899122E-01
       -1   -1    0    0    0  501  0.00000000000E+00  0.00000000000E+00  0.29082826247E+03  0.29082826251E+03  0.50400001928E-02 0.  1.
        1   -1    0    0  501    0  0.00000000000E+00  0.00000000000E+00 -0.31260326052E+03  0.31260326056E+03  0.50400001928E-02 0. -1.
    10030    2    1    2    0    0  0.00000000000E+00  0.00000000000E+00 -0.21774998047E+02  0.60343152307E+03  0.60303851660E+03 0.  0.
        4    1    3    3  502    0 -0.48808291963E+02 -0.24961975439E+03  0.15114387411E+03  0.29586881338E+03  0.12699999809E+01 0.  1.
       -4    1    3    3    0  502  0.48808291963E+02  0.24961975439E+03 -0.17291887216E+03  0.30756270970E+03  0.12699999809E+01 0. -1.
</event>
<event>
 5   0  0.9303190E-03  0.6010909E+03  0.7818609E-02  0.9903145E-01
       -2   -1    0    0    0  501  0.00000000000E+00  0.00000000000E+00  0.49087448186E+03  0.49087448187E+03  0.25500000920E-02 0.  1.
        2   -1    0    0  501    0  0.00000000000E+00  0.00000000000E+00 -0.18401359588E+03  0.18401359590E+03  0.25500000920E-02 0. -1.
    10030    2    1    2    0    0  0.00000000000E+00  0.00000000000E+00  0.30686088598E+03  0.67488807777E+03  0.60109093669E+03 0.  0.
        4    1    3    3  502    0 -0.36150769651E+02 -0.29833140941E+03  0.15812164976E+03  0.33957705607E+03  0.12699999809E+01 0.  1.
       -4    1    3    3    0  502  0.36150769651E+02  0.29833140941E+03  0.14873923622E+03  0.33531102170E+03  0.12699999809E+01 0. -1.
</event>
<event>
 5   0  0.5765045E-03  0.6001092E+03  0.7818609E-02  0.9905180E-01
       -1   -1    0    0    0  501  0.00000000000E+00  0.00000000000E+00  0.41494931480E+03  0.41494931484E+03  0.50400001928E-02 0.  1.
        1   -1    0    0  501    0  0.00000000000E+00  0.00000000000E+00 -0.21697289964E+03  0.21697289970E+03  0.50400001928E-02 0. -1.
    10030    2    1    2    0    0  0.00000000000E+00  0.00000000000E+00  0.19797641517E+03  0.63192221453E+03  0.60010917695E+03 0.  0.
        1    1    3    3  502    0 -0.22939385913E+03  0.18380145204E+02 -0.10376347530E+03  0.25244054979E+03  0.50400001928E-02 0. -1.
       -1    1    3    3    0  502  0.22939385913E+03 -0.18380145204E+02  0.30173989047E+03  0.37948166474E+03  0.50400001928E-02 0.  1.
</event>
<event>
 5   0  0.5765045E-03  0.6015820E+03  0.7818609E-02  0.9902129E-01
        1   -1    0    0  501    0  0.00000000000E+00  0.00000000000E+00  0.21193066211E+04  0.21193066211E+04  0.50400001928E-02 0.  1.
       -1   -1    0    0    0  501  0.00000000000E+00  0.00000000000E+00 -0.42690954255E+02  0.42690954553E+02  0.50400001928E-02 0. -1.
    10030    2    1    2    0    0  0.00000000000E+00  0.00000000000E+00  0.20766156668E+04  0.21619975757E+04  0.60158198890E+03 0.  0.
        1    1    3    3  502    0  0.20774004759E+03 -0.12819317548E+03  0.16699045127E+04  0.16876523632E+04  0.50400001928E-02 0.  1.
       -1    1    3    3    0  502 -0.20774004759E+03  0.12819317548E+03  0.40671115418E+03  0.47434521245E+03  0.50400001928E-02 0. -1.
</event>
<event>
 5   0  0.5765045E-03  0.5998743E+03  0.7818609E-02  0.9905667E-01
        1   -1    0    0  501    0  0.00000000000E+00  0.00000000000E+00  0.12218027856E+03  0.12218027866E+03  0.50400001928E-02 0.  1.
       -1   -1    0    0    0  501  0.00000000000E+00  0.00000000000E+00 -0.73630783098E+03  0.73630783100E+03  0.50400001928E-02 0. -1.
    10030    2    1    2    0    0  0.00000000000E+00  0.00000000000E+00 -0.61412755242E+03  0.85848810966E+03  0.59987430665E+03 0.  0.
        1    1    3    3  502    0  0.55660574827E+02 -0.27792892990E+03 -0.44742751533E+03  0.52965457722E+03  0.50400001928E-02 0.  1.
       -1    1    3    3    0  502 -0.55660574827E+02  0.27792892990E+03 -0.16670003709E+03  0.32883353244E+03  0.50400001928E-02 0. -1.
</event>
<event>
 5   0  0.5819446E-03  0.6028548E+03  0.7818609E-02  0.9899501E-01
        1   -1    0    0  501    0  0.00000000000E+00  0.00000000000E+00  0.61363103358E+03  0.61363103360E+03  0.50400001928E-02 0.  1.
       -1   -1    0    0    0  501  0.00000000000E+00  0.00000000000E+00 -0.14806697502E+03  0.14806697511E+03  0.50400001928E-02 0. -1.
    10030    2    1    2    0    0  0.00000000000E+00  0.00000000000E+00  0.46556405855E+03  0.76169800871E+03  0.60285484476E+03 0.  0.
        5    1    3    3  502    0  0.19052607587E+03 -0.15996673266E+03  0.44774853340E+03  0.51224054925E+03  0.46999998093E+01 0.  1.
       -5    1    3    3    0  502 -0.19052607587E+03  0.15996673266E+03  0.17815525158E+02  0.24945745945E+03  0.46999998093E+01 0. -1.
</event>
<event>
 5   0  0.5790967E-03  0.6020926E+03  0.7818609E-02  0.9901074E-01
       -1   -1    0    0    0  501  0.00000000000E+00  0.00000000000E+00  0.47090249374E+02  0.47090249643E+02  0.50400001928E-02 0.  1.
        1   -1    0    0  501    0  0.00000000000E+00  0.00000000000E+00 -0.19245785505E+04  0.19245785505E+04  0.50400001928E-02 0. -1.
    10030    2    1    2    0    0  0.00000000000E+00  0.00000000000E+00 -0.18774883012E+04  0.19716688002E+04  0.60209263127E+03 0.  0.
        3    1    3    3  502    0  0.19663354969E+03 -0.11981466578E+03 -0.15738031060E+04  0.15905585603E+04  0.10100000352E+00 0. -1.
       -3    1    3    3    0  502 -0.19663354969E+03  0.11981466578E+03 -0.30368519513E+03  0.38111023988E+03  0.10100000352E+00 0.  1.
</event>
<event>
 5   0  0.6078658E-03  0.6003866E+03  0.7818609E-02  0.9904604E-01
        1   -1    0    0  501    0  0.00000000000E+00  0.00000000000E+00  0.52977491113E+03  0.52977491115E+03  0.50400001928E-02 0.  1.
       -1   -1    0    0    0  501  0.00000000000E+00  0.00000000000E+00 -0.17010248839E+03  0.17010248846E+03  0.50400001928E-02 0. -1.
    10030    2    1    2    0    0  0.00000000000E+00  0.00000000000E+00  0.35967242274E+03  0.69987739962E+03  0.60038664444E+03 0.  0.
        2    1    3    3  502    0  0.27474125196E+03 -0.21660617472E+02  0.41101438091E+02  0.27864182403E+03  0.25500000920E-02 0. -1.
       -2    1    3    3    0  502 -0.27474125196E+03  0.21660617472E+02  0.31857098465E+03  0.42123557559E+03  0.25500000920E-02 0.  1.
</event>
<event>
 5   0  0.6078658E-03  0.6009874E+03  0.7818609E-02  0.9903360E-01
       -1   -1    0    0    0  501  0.00000000000E+00  0.00000000000E+00  0.19643358212E+03  0.19643358218E+03  0.50400001928E-02 0. -1.
        1   -1    0    0  501    0  0.00000000000E+00  0.00000000000E+00 -0.45967929760E+03  0.45967929762E+03  0.50400001928E-02 0.  1.
    10030    2    1    2    0    0  0.00000000000E+00  0.00000000000E+00 -0.26324571548E+03  0.65611287981E+03  0.60098735788E+03 0.  0.
        2    1    3    3  502    0  0.10242888896E+03  0.32262362839E+02 -0.43801446913E+03  0.45098693165E+03  0.25500000920E-02 0.  1.
       -2    1    3    3    0  502 -0.10242888896E+03 -0.32262362839E+02  0.17476875365E+03  0.20512594816E+03  0.25500000920E-02 0. -1.
</event>
<event>
 5   0  0.3806250E-03  0.5976648E+03  0.7818609E-02  0.9910263E-01
       -4   -1    0    0    0  501  0.00000000000E+00  0.00000000000E+00  0.13666873194E+03  0.13667463258E+03  0.12699999809E+01 0.  1.
        4   -1    0    0  501    0  0.00000000000E+00  0.00000000000E+00 -0.65339008377E+03  0.65339131803E+03  0.12699999809E+01 0. -1.
    10030    2    1    2    0    0  0.00000000000E+00  0.00000000000E+00 -0.51672135183E+03  0.79006595060E+03  0.59766483154E+03 0.  0.
        5    1    3    3  502    0 -0.52487534577E+02 -0.32679497425E+02  0.12807436233E+03  0.14229554850E+03  0.46999998093E+01 0.  1.
       -5    1    3    3    0  502  0.52487534577E+02  0.32679497425E+02 -0.64479571416E+03  0.64777040210E+03  0.46999998093E+01 0. -1.
</event>
<event>
 5   0  0.9162342E-03  0.6001803E+03  0.7818609E-02  0.9905032E-01
       -2   -1    0    0    0  501  0.00000000000E+00  0.00000000000E+00  0.47595753840E+02  0.47595753908E+02  0.25500000920E-02 0.  1.
        2   -1    0    0  501    0  0.00000000000E+00  0.00000000000E+00 -0.18920614762E+04  0.18920614762E+04  0.25500000920E-02 0. -1.
    10030    2    1    2    0    0  0.00000000000E+00  0.00000000000E+00 -0.18444657223E+04  0.19396572301E+04  0.60018028071E+03 0.  0.
        5    1    3    3  502    0  0.16473672840E+02 -0.97230969792E+02 -0.63934748584E+01  0.98935382460E+02  0.46999998093E+01 0.  1.
       -5    1    3    3    0  502 -0.16473672840E+02  0.97230969792E+02 -0.18380722475E+04  0.18407218476E+04  0.46999998093E+01 0. -1.
</event>
<event>
 5   0  0.5765045E-03  0.6009091E+03  0.7818609E-02  0.9903522E-01
       -1   -1    0    0    0  501  0.00000000000E+00  0.00000000000E+00  0.22092044844E+03  0.22092044850E+03  0.50400001928E-02 0.  1.
        1   -1    0    0  501    0  0.00000000000E+00  0.00000000000E+00 -0.40862194845E+03  0.40862194849E+03  0.50400001928E-02 0. -1.
    10030    2    1    2    0    0  0.00000000000E+00  0.00000000000E+00 -0.18770150001E+03  0.62954239698E+03  0.60090912499E+03 0.  0.
        1    1    3    3  502    0  0.29892755897E+03 -0.62108846533E+01 -0.62831049461E+02  0.30552250555E+03  0.50400001928E-02 0.  1.
       -1    1    3    3    0  502 -0.29892755897E+03  0.62108846533E+01 -0.12487045055E+03  0.32401989143E+03  0.50400001928E-02 0. -1.
</event>
<event>
 5   0  0.5819446E-03  0.5997397E+03  0.7818609E-02  0.9905946E-01
        1   -1    0    0  501    0  0.00000000000E+00  0.00000000000E+00  0.91108960875E+03  0.91108960877E+03  0.50400001928E-02 0.  1.
       -1   -1    0    0    0  501  0.00000000000E+00  0.00000000000E+00 -0.98697141020E+02  0.98697141148E+02  0.50400001928E-02 0. -1.
    10030    2    1    2    0    0  0.00000000000E+00  0.00000000000E+00  0.81239246773E+03  0.10097867499E+04  0.59973974245E+03 0.  0.
        5    1    3    3  502    0  0.24935088372E+03 -0.49526726951E+02  0.13853909935E+03  0.28955816677E+03  0.46999998093E+01 0. -1.
       -5    1    3    3    0  502 -0.24935088372E+03  0.49526726951E+02  0.67385336839E+03  0.72022858315E+03  0.46999998093E+01 0.  1.
</event>
<event>
 5   0  0.9822607E-03  0.5995501E+03  0.7818609E-02  0.9906340E-01
       -2   -1    0    0    0  501  0.00000000000E+00  0.00000000000E+00  0.20735345979E+03  0.20735345981E+03  0.25500000920E-02 0.  1.
        2   -1    0    0  501    0  0.00000000000E+00  0.00000000000E+00 -0.43339077100E+03  0.43339077100E+03  0.25500000920E-02 0. -1.
    10030    2    1    2    0    0  0.00000000000E+00  0.00000000000E+00 -0.22603731121E+03  0.64074423081E+03  0.59955008403E+03 0.  0.
        3    1    3    3  502    0 -0.40182616121E+02 -0.18172618534E+03  0.13813013759E+03  0.23177358389E+03  0.10100000352E+00 0.  1.
       -3    1    3    3    0  502  0.40182616121E+02  0.18172618534E+03 -0.36416744880E+03  0.40897064692E+03  0.10100000352E+00 0. -1.
</event>
<event>
 5   0  0.5891927E-03  0.5997559E+03  0.7818609E-02  0.9905913E-01
       -1   -1    0    0    0  501  0.00000000000E+00  0.00000000000E+00  0.19950616091E+03  0.19950616097E+03  0.50400001928E-02 0.  1.
        1   -1    0    0  501    0  0.00000000000E+00  0.00000000000E+00 -0.45074686844E+03  0.45074686847E+03  0.50400001928E-02 0. -1.
    10030    2    1    2    0    0  0.00000000000E+00  0.00000000000E+00 -0.25124070754E+03  0.65025302944E+03  0.59975587465E+03 0.  0.
        4    1    3    3  502    0  0.16903664262E+03 -0.19347495902E+03 -0.29330039140E+03  0.38991368123E+03  0.12699999809E+01 0. -1.
       -4    1    3    3    0  502 -0.16903664262E+03  0.19347495902E+03  0.42059683861E+02  0.26033934821E+03  0.12699999809E+01 0.  1.
</event>
<event>
 5   0  0.9303190E-03  0.6012344E+03  0.7818609E-02  0.9902848E-01
       -2   -1    0    0    0  501  0.00000000000E+00  0.00000000000E+00  0.64077995945E+03  0.64077995945E+03  0.25500000920E-02 0.  1.
        2   -1    0    0  501    0  0.00000000000E+00  0.00000000000E+00 -0.14103234012E+03  0.14103234014E+03  0.25500000920E-02 0. -1.
    10030    2    1    2    0    0  0.00000000000E+00  0.00000000000E+00  0.49974761932E+03  0.78181229959E+03  0.60123438755E+03 0.  0.
        4    1    3    3  502    0  0.24368982595E+03  0.97353447556E+02  0.59176237554E+02  0.26900904263E+03  0.12699999809E+01 0. -1.
       -4    1    3    3    0  502 -0.24368982595E+03 -0.97353447556E+02  0.44057138177E+03  0.51280325697E+03  0.12699999809E+01 0.  1.
</event>
<event>
 5   0  0.9028473E-03  0.5995060E+03  0.7818609E-02  0.9906431E-01
       -2   -1    0    0    0  501  0.00000000000E+00  0.00000000000E+00  0.28651121316E+03  0.28651121317E+03  0.25500000920E-02 0. -1.
        2   -1    0    0  501    0  0.00000000000E+00  0.00000000000E+00 -0.31360678277E+03  0.31360678278E+03  0.25500000920E-02 0.  1.
    10030    2    1    2    0    0  0.00000000000E+00  0.00000000000E+00 -0.27095569609E+02  0.60011799595E+03  0.59950599594E+03 0.  0.
        1    1    3    3  502    0  0.26698936413E+03 -0.13623113703E+03 -0.16652000645E+02  0.30019915457E+03  0.50400001928E-02 0.  1.
       -1    1    3    3    0  502 -0.26698936413E+03  0.13623113703E+03 -0.10443568964E+02  0.29991884138E+03  0.50400001928E-02 0. -1.
</event>
<event>
 5   0  0.5790967E-03  0.5997466E+03  0.7818609E-02  0.9905932E-01
       -1   -1    0    0    0  501  0.00000000000E+00  0.00000000000E+00  0.16870435190E+03  0.16870435198E+03  0.50400001928E-02 0. -1.
        1   -1    0    0  501    0  0.00000000000E+00  0.00000000000E+00 -0.53302713042E+03  0.53302713045E+03  0.50400001928E-02 0.  1.
    10030    2    1    2    0    0  0.00000000000E+00  0.00000000000E+00 -0.36432277852E+03  0.70173148242E+03  0.59974660188E+03 0.  0.
        3    1    3    3  502    0  0.26314625738E+03 -0.27983180049E+02 -0.17126841640E+02  0.26518361571E+03  0.10100000352E+00 0. -1.
       -3    1    3    3    0  502 -0.26314625738E+03  0.27983180049E+02 -0.34719593688E+03  0.43654786671E+03  0.10100000352E+00 0.  1.
</event>
<event>
 5   0  0.9822607E-03  0.6006047E+03  0.7818609E-02  0.9904152E-01
        2   -1    0    0  501    0  0.00000000000E+00  0.00000000000E+00  0.93064064273E+03  0.93064064273E+03  0.25500000920E-02 0.  1.
       -2   -1    0    0    0  501  0.00000000000E+00  0.00000000000E+00 -0.96902587787E+02  0.96902587820E+02  0.25500000920E-02 0. -1.
    10030    2    1    2    0    0  0.00000000000E+00  0.00000000000E+00  0.83373805494E+03  0.10275432305E+04  0.60060465066E+03 0.  0.
        3    1    3    3  502    0  0.23587714452E+03  0.14293173828E+03  0.62012155967E+03  0.67868863854E+03  0.10100000352E+00 0.  1.
       -3    1    3    3    0  502 -0.23587714452E+03 -0.14293173828E+03  0.21361649527E+03  0.34885459201E+03  0.10100000352E+00 0. -1.
</event>
<event>
 5   0  0.5891927E-03  0.6009072E+03  0.7818609E-02  0.9903526E-01
        1   -1    0    0  501    0  0.00000000000E+00  0.00000000000E+00  0.64475480458E+03  0.64475480460E+03  0.50400001928E-02 0. -1.
       -1   -1    0    0    0  501  0.00000000000E+00  0.00000000000E+00 -0.14001035894E+03  0.14001035904E+03  0.50400001928E-02 0.  1.
    10030    2    1    2    0    0  0.00000000000E+00  0.00000000000E+00  0.50474444563E+03  0.78476516363E+03  0.60090715311E+03 0.  0.
        4    1    3    3  502    0 -0.18164528699E+03 -0.11882772334E+03  0.52367324386E+03  0.56687769171E+03  0.12699999809E+01 0. -1.
       -4    1    3    3    0  502  0.18164528699E+03  0.11882772334E+03 -0.18928798225E+02  0.21788747193E+03  0.12699999809E+01 0.  1.
</event>
<event>
 5   0  0.9391405E-03  0.5983335E+03  0.7818609E-02  0.9908870E-01
       -2   -1    0    0    0  501  0.00000000000E+00  0.00000000000E+00  0.16785910606E+03  0.16785910607E+03  0.25500000920E-02 0. -1.
        2   -1    0    0  501    0  0.00000000000E+00  0.00000000000E+00 -0.53318968773E+03  0.53318968773E+03  0.25500000920E-02 0.  1.
    10030    2    1    2    0    0  0.00000000000E+00  0.00000000000E+00 -0.36533058167E+03  0.70104879381E+03  0.59833350014E+03 0.  0.
        2    1    3    3  502    0  0.77098096260E+02 -0.55320170461E+02  0.14975911740E+03  0.17729137305E+03  0.25500000920E-02 0. -1.
       -2    1    3    3    0  502 -0.77098096260E+02  0.55320170461E+02 -0.51508969907E+03  0.52375742076E+03  0.25500000920E-02 0.  1.
</event>
<event>
 5   0  0.5891927E-03  0.6007301E+03  0.7818609E-02  0.9903893E-01
        1   -1    0    0  501    0  0.00000000000E+00  0.00000000000E+00  0.64577448868E+03  0.64577448870E+03  0.50400001928E-02 0. -1.
       -1   -1    0    0    0  501  0.00000000000E+00  0.00000000000E+00 -0.13970689698E+03  0.13970689707E+03  0.50400001928E-02 0.  1.
    10030    2    1    2    0    0  0.00000000000E+00  0.00000000000E+00  0.50606759170E+03  0.78548138577E+03  0.60073005588E+03 0.  0.
        4    1    3    3  502    0 -0.18696682784E+03 -0.10729068443E+03  0.52652529701E+03  0.56894497710E+03  0.12699999809E+01 0. -1.
       -4    1    3    3    0  502  0.18696682784E+03  0.10729068443E+03 -0.20457705308E+02  0.21653640868E+03  0.12699999809E+01 0.  1.
</event>
<event>
 5   0  0.5891927E-03  0.6003448E+03  0.7818609E-02  0.9904691E-01
       -1   -1    0    0    0  501  0.00000000000E+00  0.00000000000E+00  0.36040684371E+03  0.36040684375E+03  0.50400001928E-02 0.  1.
        1   -1    0    0  501    0  0.00000000000E+00  0.00000000000E+00 -0.25000486856E+03  0.25000486861E+03  0.50400001928E-02 0. -1.
    10030    2    1    2    0    0  0.00000000000E+00  0.00000000000E+00  0.11040197515E+03  0.61041171235E+03  0.60034478632E+03 0.  0.
        4    1    3    3  502    0  0.97104964697E+02  0.19982591635E+03  0.26043234726E+03  0.34232497924E+03  0.12699999809E+01 0.  1.
       -4    1    3    3    0  502 -0.97104964697E+02 -0.19982591635E+03 -0.15003037210E+03  0.26808673311E+03  0.12699999809E+01 0. -1.
</event>
<event>
 5   0  0.3806250E-03  0.6020321E+03  0.7818609E-02  0.9901199E-01
       -4   -1    0    0    0  501  0.00000000000E+00  0.00000000000E+00  0.40916049528E+03  0.40916246626E+03  0.12699999809E+01 0.  1.
        4   -1    0    0  501    0  0.00000000000E+00  0.00000000000E+00 -0.22145072107E+03  0.22145436271E+03  0.12699999809E+01 0. -1.
    10030    2    1    2    0    0  0.00000000000E+00  0.00000000000E+00  0.18770977421E+03  0.63061682897E+03  0.60203208025E+03 0.  0.
        5    1    3    3  502    0  0.60808125813E+02 -0.27120190672E+03  0.21483984861E+03  0.35132086890E+03  0.46999998093E+01 0.  1.
       -5    1    3    3    0  502 -0.60808125813E+02  0.27120190672E+03 -0.27130074406E+02  0.27929596007E+03  0.46999998093E+01 0. -1.
</event>
<event>
 5   0  0.9391405E-03  0.5992459E+03  0.7818609E-02  0.9906972E-01
       -2   -1    0    0    0  501  0.00000000000E+00  0.00000000000E+00  0.90421184415E+03  0.90421184415E+03  0.25500000920E-02 0.  1.
        2   -1    0    0  501    0  0.00000000000E+00  0.00000000000E+00 -0.99284164765E+02  0.99284164798E+02  0.25500000920E-02 0. -1.
    10030    2    1    2    0    0  0.00000000000E+00  0.00000000000E+00  0.80492767938E+03  0.10034960090E+04  0.59924591859E+03 0.  0.
        2    1    3    3  502    0  0.99197806144E+02 -0.17735265199E+03  0.33748887293E+02  0.20599309530E+03  0.25500000920E-02 0.  1.
       -2    1    3    3    0  502 -0.99197806144E+02  0.17735265199E+03  0.77117879209E+03  0.79750291365E+03  0.25500000920E-02 0. -1.
</event>
<event>
 5   0  0.9028473E-03  0.5991903E+03  0.7818609E-02  0.9907087E-01
       -2   -1    0    0    0  501  0.00000000000E+00  0.00000000000E+00  0.10645237517E+03  0.10645237520E+03  0.25500000920E-02 0. -1.
        2   -1    0    0  501    0  0.00000000000E+00  0.00000000000E+00 -0.84316804535E+03  0.84316804536E+03  0.25500000920E-02 0.  1.
    10030    2    1    2    0    0  0.00000000000E+00  0.00000000000E+00 -0.73671567018E+03  0.94962042055E+03  0.59919025730E+03 0.  0.
        1    1    3    3  502    0  0.25921836144E+03 -0.12151400745E+03 -0.50830399733E+03  0.58338046474E+03  0.50400001928E-02 0.  1.
       -1    1    3    3    0  502 -0.25921836144E+03  0.12151400745E+03 -0.22841167285E+03  0.36623995581E+03  0.50400001928E-02 0. -1.
</event>
<event>
 5   0  0.9162342E-03  0.6013999E+03  0.7818609E-02  0.9902506E-01
        2   -1    0    0  501    0  0.00000000000E+00  0.00000000000E+00  0.81543533173E+03  0.81543533173E+03  0.25500000920E-02 0. -1.
       -2   -1    0    0    0  501  0.00000000000E+00  0.00000000000E+00 -0.11088612415E+03  0.11088612418E+03  0.25500000920E-02 0.  1.
    10030    2    1    2    0    0  0.00000000000E+00  0.00000000000E+00  0.70454920757E+03  0.92632145592E+03  0.60139991170E+03 0.  0.
        5    1    3    3  502    0  0.14124884647E+03 -0.20963521268E+03  0.10153492941E+03  0.27245107986E+03  0.46999998093E+01 0.  1.
       -5    1    3    3    0  502 -0.14124884647E+03  0.20963521268E+03  0.60301427816E+03  0.65387037606E+03  0.46999998093E+01 0. -1.
</event>
<event>
 5   0  0.9028473E-03  0.5995526E+03  0.7818609E-02  0.9906335E-01
       -2   -1    0    0    0  501  0.00000000000E+00  0.00000000000E+00  0.77904439459E+02  0.77904439501E+02  0.25500000920E-02 0.  1.
        2   -1    0    0  501    0  0.00000000000E+00  0.00000000000E+00 -0.11535393863E+04  0.11535393863E+04  0.25500000920E-02 0. -1.
    10030    2    1    2    0    0  0.00000000000E+00  0.00000000000E+00 -0.10756349469E+04  0.12314438258E+04  0.59955263093E+03 0.  0.
        1    1    3    3  502    0 -0.25377677406E+03 -0.15613152927E+03 -0.60550816608E+03  0.67484801600E+03  0.50400001928E-02 0. -1.
       -1    1    3    3    0  502  0.25377677406E+03  0.15613152927E+03 -0.47012678078E+03  0.55659580982E+03  0.50400001928E-02 0.  1.
</event>
<event>
 5   0  0.5765045E-03  0.5999482E+03  0.7818609E-02  0.9905514E-01
        1   -1    0    0  501    0  0.00000000000E+00  0.00000000000E+00  0.70537243397E+03  0.70537243398E+03  0.50400001928E-02 0.  1.
       -1   -1    0    0    0  501  0.00000000000E+00  0.00000000000E+00 -0.12757012845E+03  0.12757012855E+03  0.50400001928E-02 0. -1.
    10030    2    1    2    0    0  0.00000000000E+00  0.00000000000E+00  0.57780230552E+03  0.83294256253E+03  0.59994817128E+03 0.  0.
        1    1    3    3  502    0 -0.11850905468E+03  0.17171548818E+03 -0.10333691876E+02  0.20889564413E+03  0.50400001928E-02 0. -1.
       -1    1    3    3    0  502  0.11850905468E+03 -0.17171548818E+03  0.58813599739E+03  0.62404691841E+03  0.50400001928E-02 0.  1.
</event>
<event>
 5   0  0.9162342E-03  0.6021581E+03  0.7818609E-02  0.9900939E-01
        2   -1    0    0  501    0  0.00000000000E+00  0.00000000000E+00  0.32151765169E+03  0.32151765170E+03  0.25500000920E-02 0. -1.
       -2   -1    0    0    0  501  0.00000000000E+00  0.00000000000E+00 -0.28193974047E+03  0.28193974048E+03  0.25500000920E-02 0.  1.
    10030    2    1    2    0    0  0.00000000000E+00  0.00000000000E+00  0.39577911218E+02  0.60345739218E+03  0.60215812967E+03 0.  0.
        5    1    3    3  502    0 -0.15939140261E+03  0.14168156108E+03  0.23272618987E+03  0.31569424041E+03  0.46999998093E+01 0. -1.
       -5    1    3    3    0  502  0.15939140261E+03 -0.14168156108E+03 -0.19314827865E+03  0.28776315178E+03  0.46999998093E+01 0.  1.
</event>
<event>
 5   0  0.5819446E-03  0.6098787E+03  0.7818609E-02  0.9885120E-01
       -1   -1    0    0    0  501  0.00000000000E+00  0.00000000000E+00  0.48722957868E+02  0.48722958129E+02  0.50400001928E-02 0. -1.
        1   -1    0    0  501    0  0.00000000000E+00  0.00000000000E+00 -0.19085051557E+04  0.19085051558E+04  0.50400001928E-02 0.  1.
    10030    2    1    2    0    0  0.00000000000E+00  0.00000000000E+00 -0.18597821979E+04  0.19572281139E+04  0.60987873075E+03 0.  0.
        5    1    3    3  502    0  0.15731503417E+03 -0.10635577118E+03 -0.16954495372E+04  0.17060570897E+04  0.46999998093E+01 0.  1.
       -5    1    3    3    0  502 -0.15731503417E+03  0.10635577118E+03 -0.16433266069E+03  0.25117102422E+03  0.46999998093E+01 0. -1.
</event>
<event>
 5   0  0.9303190E-03  0.6008028E+03  0.7818609E-02  0.9903742E-01
        2   -1    0    0  501    0  0.00000000000E+00  0.00000000000E+00  0.13274176727E+04  0.13274176727E+04  0.25500000920E-02 0. -1.
       -2   -1    0    0    0  501  0.00000000000E+00  0.00000000000E+00 -0.67982376304E+02  0.67982376352E+02  0.25500000920E-02 0.  1.
    10030    2    1    2    0    0  0.00000000000E+00  0.00000000000E+00  0.12594352964E+04  0.13954000491E+04  0.60080282215E+03 0.  0.
        4    1    3    3  502    0 -0.16144864931E+03 -0.25296957645E+03  0.66088859744E+03  0.72583374412E+03  0.12699999809E+01 0.  1.
       -4    1    3    3    0  502  0.16144864931E+03  0.25296957645E+03  0.59854669899E+03  0.66956630497E+03  0.12699999809E+01 0. -1.
</event>
<event>
 5   0  0.9303190E-03  0.6004180E+03  0.7818609E-02  0.9904539E-01
       -2   -1    0    0    0  501  0.00000000000E+00  0.00000000000E+00  0.40949560702E+02  0.40949560781E+02  0.25500000920E-02 0. -1.
        2   -1    0    0  501    0  0.00000000000E+00  0.00000000000E+00 -0.22008891212E+04  0.22008891212E+04  0.25500000920E-02 0.  1.
    10030    2    1    2    0    0  0.00000000000E+00  0.00000000000E+00 -0.21599395605E+04  0.22418386820E+04  0.60041799692E+03 0.  0.
        4    1    3    3  502    0 -0.23819797992E+03  0.17591419656E+03 -0.12643961905E+04  0.12986082634E+04  0.12699999809E+01 0.  1.
       -4    1    3    3    0  502  0.23819797992E+03 -0.17591419656E+03 -0.89554336998E+03  0.94323041861E+03  0.12699999809E+01 0. -1.
</event>
<event>
 5   0  0.3806250E-03  0.5968583E+03  0.7818609E-02  0.9911946E-01
       -4   -1    0    0    0  501  0.00000000000E+00  0.00000000000E+00  0.11644293754E+04  0.11644300679E+04  0.12699999809E+01 0.  1.
        4   -1    0    0  501    0  0.00000000000E+00  0.00000000000E+00 -0.76477782680E+02  0.76488326845E+02  0.12699999809E+01 0. -1.
    10030    2    1    2    0    0  0.00000000000E+00  0.00000000000E+00  0.10879515927E+04  0.12409183948E+04  0.59685827001E+03 0.  0.
        1    1    3    3  502    0 -0.14727330715E+03 -0.24074134790E+03  0.34224974528E+03  0.44359972019E+03  0.50400001928E-02 0. -1.
       -1    1    3    3    0  502  0.14727330715E+03  0.24074134790E+03  0.74570184741E+03  0.79731867459E+03  0.50400001928E-02 0.  1.
</event>
<event>
 5   0  0.3806250E-03  0.5990736E+03  0.7818609E-02  0.9907330E-01
        3   -1    0    0  501    0  0.00000000000E+00  0.00000000000E+00  0.95389196248E+03  0.95389196783E+03  0.10100000352E+00 0.  1.
       -3   -1    0    0    0  501  0.00000000000E+00  0.00000000000E+00 -0.94059156231E+02  0.94059210458E+02  0.10100000352E+00 0. -1.
    10030    2    1    2    0    0  0.00000000000E+00  0.00000000000E+00  0.85983280625E+03  0.10479511783E+04  0.59907363268E+03 0.  0.
        3    1    3    3  502    0  0.16507243616E+03  0.21718806987E+03  0.64631042771E+03  0.70152458691E+03  0.10100000352E+00 0.  1.
       -3    1    3    3    0  502 -0.16507243616E+03 -0.21718806987E+03  0.21352237854E+03  0.34642659138E+03  0.10100000352E+00 0. -1.
</event>
<event>
 5   0  0.5765045E-03  0.5963224E+03  0.7818609E-02  0.9913065E-01
        1   -1    0    0  501    0  0.00000000000E+00  0.00000000000E+00  0.19733247124E+03  0.19733247130E+03  0.50400001928E-02 0.  1.
       -1   -1    0    0    0  501  0.00000000000E+00  0.00000000000E+00 -0.45050930494E+03  0.45050930497E+03  0.50400001928E-02 0. -1.
    10030    2    1    2    0    0  0.00000000000E+00  0.00000000000E+00 -0.25317683370E+03  0.64784177627E+03  0.59632244462E+03 0.  0.
        1    1    3    3  502    0  0.22823462853E+03  0.41298393941E+02 -0.33013465264E+03  0.40346684114E+03  0.50400001928E-02 0. -1.
       -1    1    3    3    0  502 -0.22823462853E+03 -0.41298393941E+02  0.76957818935E+02  0.24437493513E+03  0.50400001928E-02 0.  1.
</event>
<event>
 5   0  0.5819446E-03  0.6008761E+03  0.7818609E-02  0.9903590E-01
       -1   -1    0    0    0  501  0.00000000000E+00  0.00000000000E+00  0.11151961598E+03  0.11151961609E+03  0.50400001928E-02 0.  1.
        1   -1    0    0  501    0  0.00000000000E+00  0.00000000000E+00 -0.80939152876E+03  0.80939152877E+03  0.50400001928E-02 0. -1.
    10030    2    1    2    0    0  0.00000000000E+00  0.00000000000E+00 -0.69787191278E+03  0.92091114487E+03  0.60087613540E+03 0.  0.
        5    1    3    3  502    0  0.43848780666E+02 -0.28497223487E+03 -0.21971331080E+03  0.36252988725E+03  0.46999998093E+01 0. -1.
       -5    1    3    3    0  502 -0.43848780666E+02  0.28497223487E+03 -0.47815860198E+03  0.55838125762E+03  0.46999998093E+01 0.  1.
</event>
<event>
 5   0  0.9303190E-03  0.5992032E+03  0.7818609E-02  0.9907061E-01
       -2   -1    0    0    0  501  0.00000000000E+00  0.00000000000E+00  0.50298607341E+03  0.50298607342E+03  0.25500000920E-02 0. -1.
        2   -1    0    0  501    0  0.00000000000E+00  0.00000000000E+00 -0.17845648013E+03  0.17845648015E+03  0.25500000920E-02 0.  1.
    10030    2    1    2    0    0  0.00000000000E+00  0.00000000000E+00  0.32452959328E+03  0.68144255356E+03  0.59920321836E+03 0.  0.
        4    1    3    3  502    0 -0.31234036740E+02 -0.27445259478E+03  0.30325818139E+02  0.27788677546E+03  0.12699999809E+01 0.  1.
       -4    1    3    3    0  502  0.31234036740E+02  0.27445259478E+03  0.29420377514E+03  0.40355577810E+03  0.12699999809E+01 0. -1.
</event>
<event>
 5   0  0.9162342E-03  0.6004949E+03  0.7818609E-02  0.9904380E-01
       -2   -1    0    0    0  501  0.00000000000E+00  0.00000000000E+00  0.55215265715E+03  0.55215265715E+03  0.25500000920E-02 0. -1.
        2   -1    0    0  501    0  0.00000000000E+00  0.00000000000E+00 -0.16326742813E+03  0.16326742815E+03  0.25500000920E-02 0.  1.
    10030    2    1    2    0    0  0.00000000000E+00  0.00000000000E+00  0.38888522902E+03  0.71542008530E+03  0.60049494344E+03 0.  0.
        5    1    3    3  502    0 -0.18795830553E+03  0.10408685414E+03 -0.55362112648E+02  0.22192217406E+03  0.46999998093E+01 0.  1.
       -5    1    3    3    0  502  0.18795830553E+03 -0.10408685414E+03  0.44424734167E+03  0.49349791124E+03  0.46999998093E+01 0. -1.
</event>
<event>
 5   0  0.9028473E-03  0.5994002E+03  0.7818609E-02  0.9906651E-01
        2   -1    0    0  501    0  0.00000000000E+00  0.00000000000E+00  0.56740318603E+03  0.56740318604E+03  0.25500000920E-02 0. -1.
       -2   -1    0    0    0  501  0.00000000000E+00  0.00000000000E+00 -0.15830039148E+03  0.15830039150E+03  0.25500000920E-02 0.  1.
    10030    2    1    2    0    0  0.00000000000E+00  0.00000000000E+00  0.40910279455E+03  0.72570357754E+03  0.59940018848E+03 0.  0.
        1    1    3    3  502    0 -0.14738720637E+03 -0.97214008133E+01 -0.11117094388E+03  0.18486879948E+03  0.50400001928E-02 0.  1.
       -1    1    3    3    0  502  0.14738720637E+03  0.97214008133E+01  0.52027373843E+03  0.54083477806E+03  0.50400001928E-02 0. -1.
</event>
<event>
 5   0  0.9028473E-03  0.5998137E+03  0.7818609E-02  0.9905793E-01
        2   -1    0    0  501    0  0.00000000000E+00  0.00000000000E+00  0.10183351005E+04  0.10183351005E+04  0.25500000920E-02 0. -1.
       -2   -1    0    0    0  501  0.00000000000E+00  0.00000000000E+00 -0.88324664032E+02  0.88324664069E+02  0.25500000920E-02 0.  1.
    10030    2    1    2    0    0  0.00000000000E+00  0.00000000000E+00  0.93001043643E+03  0.11066597645E+04  0.59981365654E+03 0.  0.
        1    1    3    3  502    0 -0.25576196991E+03  0.21069548917E+02  0.75134392685E+03  0.79396209455E+03  0.50400001928E-02 0. -1.
       -1    1    3    3    0  502  0.25576196991E+03 -0.21069548917E+02  0.17866650958E+03  0.31269766999E+03  0.50400001928E-02 0.  1.
</event>
<event>
 5   0  0.5819446E-03  0.5996248E+03  0.7818609E-02  0.9906185E-01
        1   -1    0    0  501    0  0.00000000000E+00  0.00000000000E+00  0.12232653871E+04  0.12232653871E+04  0.50400001928E-02 0. -1.
       -1   -1    0    0    0  501  0.00000000000E+00  0.00000000000E+00 -0.73481590458E+02  0.73481590631E+02  0.50400001928E-02 0.  1.
    10030    2    1    2    0    0  0.00000000000E+00  0.00000000000E+00  0.11497837967E+04  0.12967469777E+04  0.59962483710E+03 0.  0.
        5    1    3    3  502    0  0.36126730780E+02  0.26911024564E+03  0.84963479469E+03  0.89197916979E+03  0.46999998093E+01 0. -1.
       -5    1    3    3    0  502 -0.36126730780E+02 -0.26911024564E+03  0.30014900196E+03  0.40476780796E+03  0.46999998093E+01 0.  1.
</event>
<event>
 5   0  0.5819446E-03  0.6008326E+03  0.7818609E-02  0.9903680E-01
        1   -1    0    0  501    0  0.00000000000E+00  0.00000000000E+00  0.39381290611E+03  0.39381290615E+03  0.50400001928E-02 0.  1.
       -1   -1    0    0    0  501  0.00000000000E+00  0.00000000000E+00 -0.22916960577E+03  0.22916960583E+03  0.50400001928E-02 0. -1.
    10030    2    1    2    0    0  0.00000000000E+00  0.00000000000E+00  0.16464330034E+03  0.62298251198E+03  0.60083258390E+03 0.  0.
        5    1    3    3  502    0  0.21507551401E+03 -0.12850163418E+03  0.25413406796E+03  0.35689825050E+03  0.46999998093E+01 0.  1.
       -5    1    3    3    0  502 -0.21507551401E+03  0.12850163418E+03 -0.89490767621E+02  0.26608426147E+03  0.46999998093E+01 0. -1.
</event>
<event>
 5   0  0.9303190E-03  0.6016334E+03  0.7818609E-02  0.9902023E-01
        2   -1    0    0  501    0  0.00000000000E+00  0.00000000000E+00  0.80597789277E+03  0.80597789277E+03  0.25500000920E-02 0. -1.
       -2   -1    0    0    0  501  0.00000000000E+00  0.00000000000E+00 -0.11227438929E+03  0.11227438932E+03  0.25500000920E-02 0.  1.
    10030    2    1    2    0    0  0.00000000000E+00  0.00000000000E+00  0.69370350347E+03  0.91825228209E+03  0.60163336247E+03 0.  0.
        4    1    3    3  502    0 -0.21767162242E+03 -0.11795151760E+03  0.86063175817E+02  0.26211062330E+03  0.12699999809E+01 0.  1.
       -4    1    3    3    0  502  0.21767162242E+03  0.11795151760E+03  0.60764032766E+03  0.65614165879E+03  0.12699999809E+01 0. -1.
</event>
<event>
 5   0  0.5891927E-03  0.5993800E+03  0.7818609E-02  0.9906693E-01
       -1   -1    0    0    0  501  0.00000000000E+00  0.00000000000E+00  0.12021589661E+03  0.12021589671E+03  0.50400001928E-02 0. -1.
        1   -1    0    0  501    0  0.00000000000E+00  0.00000000000E+00 -0.74710661294E+03  0.74710661296E+03  0.50400001928E-02 0.  1.
    10030    2    1    2    0    0  0.00000000000E+00  0.00000000000E+00 -0.62689071633E+03  0.86732250967E+03  0.59937998428E+03 0.  0.
        4    1    3    3  502    0 -0.23526839857E+03 -0.16073015570E+03 -0.17904197581E+03  0.33651603872E+03  0.12699999809E+01 0.  1.
       -4    1    3    3    0  502  0.23526839857E+03  0.16073015570E+03 -0.44784874052E+03  0.53080647095E+03  0.12699999809E+01 0. -1.
</event>
<event>
 5   0  0.9303190E-03  0.6001678E+03  0.7818609E-02  0.9905058E-01
       -2   -1    0    0    0  501  0.00000000000E+00  0.00000000000E+00  0.97473152190E+02  0.97473152223E+02  0.25500000920E-02 0. -1.
        2   -1    0    0  501    0  0.00000000000E+00  0.00000000000E+00 -0.92384758634E+03  0.92384758635E+03  0.25500000920E-02 0.  1.
    10030    2    1    2    0    0  0.00000000000E+00  0.00000000000E+00 -0.82637443415E+03  0.10213207386E+04  0.60016776455E+03 0.  0.
        4    1    3    3  502    0 -0.28489160837E+01  0.94034886189E+02  0.71724053039E+02  0.11830734900E+03  0.12699999809E+01 0. -1.
       -4    1    3    3    0  502  0.28489160837E+01 -0.94034886189E+02 -0.89809848719E+03  0.90301338957E+03  0.12699999809E+01 0.  1.
</event>
<event>
 5   0  0.5790967E-03  0.6000576E+03  0.7818609E-02  0.9905287E-01
       -1   -1    0    0    0  501  0.00000000000E+00  0.00000000000E+00  0.54499950267E+03  0.54499950269E+03  0.50400001928E-02 0. -1.
        1   -1    0    0  501    0  0.00000000000E+00  0.00000000000E+00 -0.16516945385E+03  0.16516945392E+03  0.50400001928E-02 0.  1.
    10030    2    1    2    0    0  0.00000000000E+00  0.00000000000E+00  0.37983004882E+03  0.71016895661E+03  0.60005756470E+03 0.  0.
        3    1    3    3  502    0 -0.85382314926E+02 -0.28046653270E+03  0.11445212932E+03  0.31472355453E+03  0.10100000352E+00 0.  1.
       -3    1    3    3    0  502  0.85382314926E+02  0.28046653270E+03  0.26537791951E+03  0.39544540209E+03  0.10100000352E+00 0. -1.
</event>
<event>
 5   0  0.5891927E-03  0.5995658E+03  0.7818609E-02  0.9906307E-01
        1   -1    0    0  501    0  0.00000000000E+00  0.00000000000E+00  0.64633231524E+03  0.64633231526E+03  0.50400001928E-02 0.  1.
       -1   -1    0    0    0  501  0.00000000000E+00  0.00000000000E+00 -0.13904580448E+03  0.13904580457E+03  0.50400001928E-02 0. -1.
    10030    2    1    2    0    0  0.00000000000E+00  0.00000000000E+00  0.50728651076E+03  0.78537811983E+03  0.59956583218E+03 0.  0.
        4    1    3    3  502    0 -0.15348555057E+03 -0.65037945231E+02 -0.72733559089E+02  0.18187779433E+03  0.12699999809E+01 0. -1.
       -4    1    3    3    0  502  0.15348555057E+03  0.65037945231E+02  0.58002006985E+03  0.60350032550E+03  0.12699999809E+01 0.  1.
</event>
<event>
 5   0  0.6078658E-03  0.5960183E+03  0.7818609E-02  0.9913701E-01
        1   -1    0    0  501    0  0.00000000000E+00  0.00000000000E+00  0.51402105067E+03  0.51402105070E+03  0.50400001928E-02 0. -1.
       -1   -1    0    0    0  501  0.00000000000E+00  0.00000000000E+00 -0.17277397162E+03  0.17277397170E+03  0.50400001928E-02 0.  1.
    10030    2    1    2    0    0  0.00000000000E+00  0.00000000000E+00  0.34124707905E+03  0.68679502239E+03  0.59601831669E+03 0.  0.
        2    1    3    3  502    0 -0.28467841754E+02 -0.29274003493E+03  0.22591393004E+03  0.37086958605E+03  0.25500000920E-02 0. -1.
       -2    1    3    3    0  502  0.28467841754E+02  0.29274003493E+03  0.11533314901E+03  0.31592543635E+03  0.25500000920E-02 0.  1.
</event>
<event>
 5   0  0.9028473E-03  0.5980806E+03  0.7818609E-02  0.9909396E-01
       -2   -1    0    0    0  501  0.00000000000E+00  0.00000000000E+00  0.21679281491E+03  0.21679281492E+03  0.25500000920E-02 0. -1.
        2   -1    0    0  501    0  0.00000000000E+00  0.00000000000E+00 -0.41249112606E+03  0.41249112607E+03  0.25500000920E-02 0.  1.
    10030    2    1    2    0    0  0.00000000000E+00  0.00000000000E+00 -0.19569831116E+03  0.62928394099E+03  0.59808063787E+03 0.  0.
        1    1    3    3  502    0 -0.22131254144E+03 -0.19456144382E+03 -0.15141409315E+03  0.33129990047E+03  0.50400001928E-02 0.  1.
       -1    1    3    3    0  502  0.22131254144E+03  0.19456144382E+03 -0.44284218003E+02  0.29798404052E+03  0.50400001928E-02 0. -1.
</event>
<event>
 5   0  0.5765045E-03  0.5995071E+03  0.7818609E-02  0.9906429E-01
       -1   -1    0    0    0  501  0.00000000000E+00  0.00000000000E+00  0.81691929600E+02  0.81691929755E+02  0.50400001928E-02 0. -1.
        1   -1    0    0  501    0  0.00000000000E+00  0.00000000000E+00 -0.10998907354E+04  0.10998907354E+04  0.50400001928E-02 0.  1.
    10030    2    1    2    0    0  0.00000000000E+00  0.00000000000E+00 -0.10181988058E+04  0.11815826652E+04  0.59950711964E+03 0.  0.
        1    1    3    3  502    0 -0.15976692328E+03 -0.97751374694E+02 -0.47838474024E+02  0.19331146021E+03  0.50400001928E-02 0. -1.
       -1    1    3    3    0  502  0.15976692328E+03  0.97751374694E+02 -0.97036033179E+03  0.98827120496E+03  0.50400001928E-02 0.  1.
</event>
<event>
 5   0  0.9028473E-03  0.6008047E+03  0.7818609E-02  0.9903738E-01
       -2   -1    0    0    0  501  0.00000000000E+00  0.00000000000E+00  0.92949720253E+02  0.92949720288E+02  0.25500000920E-02 0.  1.
        2   -1    0    0  501    0  0.00000000000E+00  0.00000000000E+00 -0.97086435352E+03  0.97086435352E+03  0.25500000920E-02 0. -1.
    10030    2    1    2    0    0  0.00000000000E+00  0.00000000000E+00 -0.87791463327E+03  0.10638140738E+04  0.60080469400E+03 0.  0.
        1    1    3    3  502    0  0.29352964880E+03  0.61495249643E+02 -0.40827602501E+03  0.50658724133E+03  0.50400001928E-02 0. -1.
       -1    1    3    3    0  502 -0.29352964880E+03 -0.61495249643E+02 -0.46963860825E+03  0.55722683248E+03  0.50400001928E-02 0.  1.
</event>
<event>
 5   0  0.9391405E-03  0.6001460E+03  0.7818609E-02  0.9905103E-01
       -2   -1    0    0    0  501  0.00000000000E+00  0.00000000000E+00  0.93180433869E+02  0.93180433904E+02  0.25500000920E-02 0.  1.
        2   -1    0    0  501    0  0.00000000000E+00  0.00000000000E+00 -0.96633812625E+03  0.96633812626E+03  0.25500000920E-02 0. -1.
    10030    2    1    2    0    0  0.00000000000E+00  0.00000000000E+00 -0.87315769238E+03  0.10595185602E+04  0.60014600187E+03 0.  0.
        2    1    3    3  502    0 -0.15173006326E+03  0.23699916353E+03 -0.62049943987E+03  0.68132970763E+03  0.25500000920E-02 0. -1.
       -2    1    3    3    0  502  0.15173006326E+03 -0.23699916353E+03 -0.25265825251E+03  0.37818885253E+03  0.25500000920E-02 0.  1.
</event>
<event>
 5   0  0.9303190E-03  0.6001493E+03  0.7818609E-02  0.9905096E-01
        2   -1    0    0  501    0  0.00000000000E+00  0.00000000000E+00  0.67794360519E+03  0.67794360519E+03  0.25500000920E-02 0.  1.
       -2   -1    0    0    0  501  0.00000000000E+00  0.00000000000E+00 -0.13282047749E+03  0.13282047751E+03  0.25500000920E-02 0. -1.
    10030    2    1    2    0    0  0.00000000000E+00  0.00000000000E+00  0.54512312770E+03  0.81076408271E+03  0.60014929263E+03 0.  0.
        4    1    3    3  502    0  0.20922951983E+03  0.35295223091E+02 -0.14080583978E+02  0.21265610851E+03  0.12699999809E+01 0. -1.
       -4    1    3    3    0  502 -0.20922951983E+03 -0.35295223091E+02  0.55920371168E+03  0.59810797420E+03  0.12699999809E+01 0.  1.
</event>
<event>
 5   0  0.6078658E-03  0.6031381E+03  0.7818609E-02  0.9898917E-01
       -1   -1    0    0    0  501  0.00000000000E+00  0.00000000000E+00  0.52421715196E+02  0.52421715438E+02  0.50400001928E-02 0. -1.
        1   -1    0    0  501    0  0.00000000000E+00  0.00000000000E+00 -0.17348517312E+04  0.17348517312E+04  0.50400001928E-02 0.  1.
    10030    2    1    2    0    0  0.00000000000E+00  0.00000000000E+00 -0.16824300160E+04  0.17872734466E+04  0.60313813868E+03 0.  0.
        2    1    3    3  502    0  0.25047419708E+03  0.14766996221E+03 -0.60414876890E+03  0.67047705114E+03  0.25500000920E-02 0. -1.
       -2    1    3    3    0  502 -0.25047419708E+03 -0.14766996221E+03 -0.10782812471E+04  0.11167963955E+04  0.25500000920E-02 0.  1.
</event>
<event>
 5   0  0.5765045E-03  0.6012525E+03  0.7818609E-02  0.9902811E-01
       -1   -1    0    0    0  501  0.00000000000E+00  0.00000000000E+00  0.34533817322E+03  0.34533817325E+03  0.50400001928E-02 0. -1.
        1   -1    0    0  501    0  0.00000000000E+00  0.00000000000E+00 -0.26170327967E+03  0.26170327972E+03  0.50400001928E-02 0.  1.
    10030    2    1    2    0    0  0.00000000000E+00  0.00000000000E+00  0.83634893546E+02  0.60704145297E+03  0.60125246794E+03 0.  0.
        1    1    3    3  502    0  0.75313893878E+02 -0.20385017859E+02  0.33493740098E+03  0.34390521101E+03  0.50400001928E-02 0. -1.
       -1    1    3    3    0  502 -0.75313893878E+02  0.20385017859E+02 -0.25130250743E+03  0.26313624196E+03  0.50400001928E-02 0.  1.
</event>
<event>
 5   0  0.9303190E-03  0.5999150E+03  0.7818609E-02  0.9905582E-01
       -2   -1    0    0    0  501  0.00000000000E+00  0.00000000000E+00  0.14696139027E+03  0.14696139029E+03  0.25500000920E-02 0. -1.
        2   -1    0    0  501    0  0.00000000000E+00  0.00000000000E+00 -0.61223234022E+03  0.61223234023E+03  0.25500000920E-02 0.  1.
    10030    2    1    2    0    0  0.00000000000E+00  0.00000000000E+00 -0.46527094995E+03  0.75919373052E+03  0.59991504698E+03 0.  0.
        4    1    3    3  502    0  0.10875635218E+03 -0.68473537526E+02 -0.57562233445E+03  0.58979594293E+03  0.12699999809E+01 0.  1.
       -4    1    3    3    0  502 -0.10875635218E+03  0.68473537526E+02  0.11035138450E+03  0.16939778759E+03  0.12699999809E+01 0. -1.
</event>
<event>
 5   0  0.9822607E-03  0.6002726E+03  0.7818609E-02  0.9904841E-01
        2   -1    0    0  501    0  0.00000000000E+00  0.00000000000E+00  0.12209504779E+04  0.12209504779E+04  0.25500000920E-02 0. -1.
       -2   -1    0    0    0  501  0.00000000000E+00  0.00000000000E+00 -0.73780055312E+02  0.73780055356E+02  0.25500000920E-02 0.  1.
    10030    2    1    2    0    0  0.00000000000E+00  0.00000000000E+00  0.11471704226E+04  0.12947305333E+04  0.60027258417E+03 0.  0.
        3    1    3    3  502    0  0.16689605793E+03  0.19206762084E+03  0.91691613410E+03  0.95156685120E+03  0.10100000352E+00 0. -1.
       -3    1    3    3    0  502 -0.16689605793E+03 -0.19206762084E+03  0.23025428853E+03  0.34316368210E+03  0.10100000352E+00 0.  1.
</event>
<event>
 5   0  0.3806250E-03  0.6008175E+03  0.7818609E-02  0.9903711E-01
       -4   -1    0    0    0  501  0.00000000000E+00  0.00000000000E+00  0.34888105759E+03  0.34888336911E+03  0.12699999809E+01 0.  1.
        4   -1    0    0  501    0  0.00000000000E+00  0.00000000000E+00 -0.25866632755E+03  0.25866944525E+03  0.12699999809E+01 0. -1.
    10030    2    1    2    0    0  0.00000000000E+00  0.00000000000E+00  0.90214730036E+02  0.60755281437E+03  0.60081754695E+03 0.  0.
        1    1    3    3  502    0 -0.71678527258E+02  0.23863215179E+03  0.21480493092E+03  0.32897457882E+03  0.50400001928E-02 0.  1.
       -1    1    3    3    0  502  0.71678527258E+02 -0.23863215179E+03 -0.12459020088E+03  0.27857823555E+03  0.50400001928E-02 0. -1.
</event>
<event>
 5   0  0.3806250E-03  0.6004726E+03  0.7818609E-02  0.9904426E-01
       -3   -1    0    0    0  501  0.00000000000E+00  0.00000000000E+00  0.51002952171E+03  0.51002953171E+03  0.10100000352E+00 0. -1.
        3   -1    0    0  501    0  0.00000000000E+00  0.00000000000E+00 -0.17673843782E+03  0.17673846668E+03  0.10100000352E+00 0.  1.
    10030    2    1    2    0    0  0.00000000000E+00  0.00000000000E+00  0.33329108389E+03  0.68676799838E+03  0.60047259471E+03 0.  0.
        2    1    3    3  502    0 -0.65612395204E+02  0.12338362669E+03  0.47056618568E+03  0.49087782681E+03  0.25500000920E-02 0. -1.
       -2    1    3    3    0  502  0.65612395204E+02 -0.12338362669E+03 -0.13727510179E+03  0.19589017157E+03  0.25500000920E-02 0.  1.
</event>
<event>
 5   0  0.5790967E-03  0.6010404E+03  0.7818609E-02  0.9903250E-01
       -1   -1    0    0    0  501  0.00000000000E+00  0.00000000000E+00  0.44428600670E+03  0.44428600673E+03  0.50400001928E-02 0.  1.
        1   -1    0    0  501    0  0.00000000000E+00  0.00000000000E+00 -0.20327534429E+03  0.20327534435E+03  0.50400001928E-02 0. -1.
    10030    2    1    2    0    0  0.00000000000E+00  0.00000000000E+00  0.24101066241E+03  0.64756135107E+03  0.60104040131E+03 0.  0.
        3    1    3    3  502    0 -0.23438636540E+03 -0.18624468558E+03  0.92238607087E+02  0.31326031033E+03  0.10100000352E+00 0. -1.
       -3    1    3    3    0  502  0.23438636540E+03  0.18624468558E+03  0.14877205532E+03  0.33430104074E+03  0.10100000352E+00 0.  1.
</event>
<event>
 5   0  0.9391405E-03  0.5990636E+03  0.7818609E-02  0.9907351E-01
        2   -1    0    0  501    0  0.00000000000E+00  0.00000000000E+00  0.11711142820E+03  0.11711142823E+03  0.25500000920E-02 0. -1.
       -2   -1    0    0    0  501  0.00000000000E+00  0.00000000000E+00 -0.76610198860E+03  0.76610198860E+03  0.25500000920E-02 0.  1.
    10030    2    1    2    0    0  0.00000000000E+00  0.00000000000E+00 -0.64899056039E+03  0.88321341683E+03  0.59906359612E+03 0.  0.
        2    1    3    3  502    0  0.91650775332E+02 -0.22162488093E+03 -0.59929841341E+02  0.24720242385E+03  0.25500000920E-02 0. -1.
       -2    1    3    3    0  502 -0.91650775332E+02  0.22162488093E+03 -0.58906071905E+03  0.63601099299E+03  0.25500000920E-02 0.  1.
</event>
<event>
 5   0  0.9303190E-03  0.5988488E+03  0.7818609E-02  0.9907797E-01
       -2   -1    0    0    0  501  0.00000000000E+00  0.00000000000E+00  0.14492250241E+03  0.14492250243E+03  0.25500000920E-02 0. -1.
        2   -1    0    0  501    0  0.00000000000E+00  0.00000000000E+00 -0.61864074768E+03  0.61864074769E+03  0.25500000920E-02 0.  1.
    10030    2    1    2    0    0  0.00000000000E+00  0.00000000000E+00 -0.47371824527E+03  0.76356325012E+03  0.59884877977E+03 0.  0.
        4    1    3    3  502    0  0.16324872429E+03  0.84877675660E+02 -0.53804943887E+03  0.56864151922E+03  0.12699999809E+01 0.  1.
       -4    1    3    3    0  502 -0.16324872429E+03 -0.84877675660E+02  0.64331193599E+02  0.19492173090E+03  0.12699999809E+01 0. -1.
</event>
<event>
 5   0  0.5765045E-03  0.5975991E+03  0.7818609E-02  0.9910400E-01
        1   -1    0    0  501    0  0.00000000000E+00  0.00000000000E+00  0.25136160325E+04  0.25136160325E+04  0.50400001928E-02 0.  1.
       -1   -1    0    0    0  501  0.00000000000E+00  0.00000000000E+00 -0.35519022728E+02  0.35519023086E+02  0.50400001928E-02 0. -1.
    10030    2    1    2    0    0  0.00000000000E+00  0.00000000000E+00  0.24780970097E+04  0.25491350555E+04  0.59759914809E+03 0.  0.
        1    1    3    3  502    0 -0.25032639387E+03  0.17372176267E+02  0.54706848857E+03  0.60187127128E+03  0.50400001928E-02 0. -1.
       -1    1    3    3    0  502  0.25032639387E+03 -0.17372176267E+02  0.19310285212E+04  0.19472637843E+04  0.50400001928E-02 0.  1.
</event>
<event>
 5   0  0.5765045E-03  0.5975294E+03  0.7818609E-02  0.9910545E-01
       -1   -1    0    0    0  501  0.00000000000E+00  0.00000000000E+00  0.41433090737E+03  0.41433090740E+03  0.50400001928E-02 0.  1.
        1   -1    0    0  501    0  0.00000000000E+00  0.00000000000E+00 -0.21543252324E+03  0.21543252330E+03  0.50400001928E-02 0. -1.
    10030    2    1    2    0    0  0.00000000000E+00  0.00000000000E+00  0.19889838413E+03  0.62976343070E+03  0.59752942307E+03 0.  0.
        1    1    3    3  502    0 -0.17858745264E+03 -0.13711480243E+03  0.30642649566E+03  0.38025142281E+03  0.50400001928E-02 0.  1.
       -1    1    3    3    0  502  0.17858745264E+03  0.13711480243E+03 -0.10752811153E+03  0.24951200789E+03  0.50400001928E-02 0. -1.
</event>
<event>
 5   0  0.9822607E-03  0.6001015E+03  0.7818609E-02  0.9905195E-01
        2   -1    0    0  501    0  0.00000000000E+00  0.00000000000E+00  0.39522571142E+03  0.39522571143E+03  0.25500000920E-02 0. -1.
       -2   -1    0    0    0  501  0.00000000000E+00  0.00000000000E+00 -0.22779504140E+03  0.22779504142E+03  0.25500000920E-02 0.  1.
    10030    2    1    2    0    0  0.00000000000E+00  0.00000000000E+00  0.16743067002E+03  0.62302075285E+03  0.60010151576E+03 0.  0.
        3    1    3    3  502    0 -0.84964138009E+02  0.17241302583E+02 -0.21450849701E+03  0.23136566891E+03  0.10100000352E+00 0.  1.
       -3    1    3    3    0  502  0.84964138009E+02 -0.17241302583E+02  0.38193916703E+03  0.39165508394E+03  0.10100000352E+00 0. -1.
</event>
<event>
 5   0  0.5891927E-03  0.5989507E+03  0.7818609E-02  0.9907585E-01
       -1   -1    0    0    0  501  0.00000000000E+00  0.00000000000E+00  0.17765563030E+03  0.17765563037E+03  0.50400001928E-02 0.  1.
        1   -1    0    0  501    0  0.00000000000E+00  0.00000000000E+00 -0.50482774413E+03  0.50482774415E+03  0.50400001928E-02 0. -1.
    10030    2    1    2    0    0  0.00000000000E+00  0.00000000000E+00 -0.32717211383E+03  0.68248337453E+03  0.59895071954E+03 0.  0.
        4    1    3    3  502    0 -0.35366749381E+02 -0.27733114682E+03 -0.28588896037E+03  0.39987183262E+03  0.12699999809E+01 0. -1.
       -4    1    3    3    0  502  0.35366749381E+02  0.27733114682E+03 -0.41283153464E+02  0.28261154191E+03  0.12699999809E+01 0.  1.
</event>
<event>
 5   0  0.5765045E-03  0.5990295E+03  0.7818609E-02  0.9907422E-01
       -1   -1    0    0    0  501  0.00000000000E+00  0.00000000000E+00  0.10113389997E+03  0.10113390010E+03  0.50400001928E-02 0.  1.
        1   -1    0    0  501    0  0.00000000000E+00  0.00000000000E+00 -0.88703289232E+03  0.88703289233E+03  0.50400001928E-02 0. -1.
    10030    2    1    2    0    0  0.00000000000E+00  0.00000000000E+00 -0.78589899235E+03  0.98816679243E+03  0.59902953474E+03 0.  0.
        1    1    3    3  502    0  0.16975871767E+03  0.23714297834E+03 -0.28040912571E+03  0.40457890727E+03  0.50400001928E-02 0.  1.
       -1    1    3    3    0  502 -0.16975871767E+03 -0.23714297834E+03 -0.50548986664E+03  0.58358788516E+03  0.50400001928E-02 0. -1.
</event>
<event>
 5   0  0.3806250E-03  0.5994193E+03  0.7818609E-02  0.9906611E-01
        3   -1    0    0  501    0  0.00000000000E+00  0.00000000000E+00  0.16148005738E+04  0.16148005769E+04  0.10100000352E+00 0.  1.
       -3   -1    0    0    0  501  0.00000000000E+00  0.00000000000E+00 -0.55626564057E+02  0.55626655749E+02  0.10100000352E+00 0. -1.
    10030    2    1    2    0    0  0.00000000000E+00  0.00000000000E+00  0.15591740097E+04  0.16704272327E+04  0.59941934162E+03 0.  0.
        4    1    3    3  502    0 -0.20177510848E+03  0.18900340870E+03  0.45713321176E+03  0.53423578044E+03  0.12699999809E+01 0. -1.
       -4    1    3    3    0  502  0.20177510848E+03 -0.18900340870E+03  0.11020407980E+04  0.11361914523E+04  0.12699999809E+01 0.  1.
</event>
<event>
 5   0  0.5765045E-03  0.6005264E+03  0.7818609E-02  0.9904315E-01
       -1   -1    0    0    0  501  0.00000000000E+00  0.00000000000E+00  0.34902995705E+03  0.34902995709E+03  0.50400001928E-02 0.  1.
        1   -1    0    0  501    0  0.00000000000E+00  0.00000000000E+00 -0.25831016557E+03  0.25831016562E+03  0.50400001928E-02 0. -1.
    10030    2    1    2    0    0  0.00000000000E+00  0.00000000000E+00  0.90719791480E+02  0.60734012271E+03  0.60052638917E+03 0.  0.
        1    1    3    3  502    0  0.16250629606E+03  0.21467890710E+03  0.17976875302E+03  0.32374702161E+03  0.50400001928E-02 0.  1.
       -1    1    3    3    0  502 -0.16250629606E+03 -0.21467890710E+03 -0.89048961538E+02  0.28359310110E+03  0.50400001928E-02 0. -1.
</event>
<event>
 5   0  0.5790967E-03  0.5994913E+03  0.7818609E-02  0.9906462E-01
       -1   -1    0    0    0  501  0.00000000000E+00  0.00000000000E+00  0.10208552178E+03  0.10208552190E+03  0.50400001928E-02 0. -1.
        1   -1    0    0  501    0  0.00000000000E+00  0.00000000000E+00 -0.88011959249E+03  0.88011959251E+03  0.50400001928E-02 0.  1.
    10030    2    1    2    0    0  0.00000000000E+00  0.00000000000E+00 -0.77803407072E+03  0.98220511441E+03  0.59949134404E+03 0.  0.
        3    1    3    3  502    0 -0.19185002492E+03 -0.18789580737E+02 -0.12941538890E+02  0.19320189967E+03  0.10100000352E+00 0. -1.
       -3    1    3    3    0  502  0.19185002492E+03  0.18789580737E+02 -0.76509253183E+03  0.78900321474E+03  0.10100000352E+00 0.  1.
</event>
<event>
 5   0  0.9162342E-03  0.6007608E+03  0.7818609E-02  0.9903829E-01
       -2   -1    0    0    0  501  0.00000000000E+00  0.00000000000E+00  0.95056877568E+02  0.95056877602E+02  0.25500000920E-02 0. -1.
        2   -1    0    0  501    0  0.00000000000E+00  0.00000000000E+00 -0.94920406970E+03  0.94920406970E+03  0.25500000920E-02 0.  1.
    10030    2    1    2    0    0  0.00000000000E+00  0.00000000000E+00 -0.85414719213E+03  0.10442609473E+04  0.60076076789E+03 0.  0.
        5    1    3    3  502    0  0.22132305325E+03  0.10871611699E+03 -0.72513431896E+03  0.76592751519E+03  0.46999998093E+01 0.  1.
       -5    1    3    3    0  502 -0.22132305325E+03 -0.10871611699E+03 -0.12901287317E+03  0.27833343212E+03  0.46999998093E+01 0. -1.
</event>
<event>
 5   0  0.5891927E-03  0.5959082E+03  0.7818609E-02  0.9913932E-01
        1   -1    0    0  501    0  0.00000000000E+00  0.00000000000E+00  0.57695522080E+03  0.57695522082E+03  0.50400001928E-02 0.  1.
       -1   -1    0    0    0  501  0.00000000000E+00  0.00000000000E+00 -0.15387096683E+03  0.15387096691E+03  0.50400001928E-02 0. -1.
    10030    2    1    2    0    0  0.00000000000E+00  0.00000000000E+00  0.42308425397E+03  0.73082618774E+03  0.59590824019E+03 0.  0.
        4    1    3    3  502    0  0.54658788245E+02 -0.13245598321E+03  0.53192062793E+03  0.55088414202E+03  0.12699999809E+01 0.  1.
       -4    1    3    3    0  502 -0.54658788245E+02  0.13245598321E+03 -0.10883637396E+03  0.17994204571E+03  0.12699999809E+01 0. -1.
</event>
<event>
 5   0  0.5765045E-03  0.5987893E+03  0.7818609E-02  0.9907921E-01
       -1   -1    0    0    0  501  0.00000000000E+00  0.00000000000E+00  0.36223463972E+03  0.36223463975E+03  0.50400001928E-02 0. -1.
        1   -1    0    0  501    0  0.00000000000E+00  0.00000000000E+00 -0.24745606862E+03  0.24745606867E+03  0.50400001928E-02 0.  1.
    10030    2    1    2    0    0  0.00000000000E+00  0.00000000000E+00  0.11477857110E+03  0.60969070842E+03  0.59878931149E+03 0.  0.
        1    1    3    3  502    0 -0.13681214112E+03  0.43652992556E+02 -0.21009863914E+03  0.25448886795E+03  0.50400001928E-02 0.  1.
       -1    1    3    3    0  502  0.13681214112E+03 -0.43652992556E+02  0.32487721024E+03  0.35520184047E+03  0.50400001928E-02 0. -1.
</event>
<event>
 5   0  0.5765045E-03  0.6000519E+03  0.7818609E-02  0.9905298E-01
       -1   -1    0    0    0  501  0.00000000000E+00  0.00000000000E+00  0.20683729293E+03  0.20683729299E+03  0.50400001928E-02 0. -1.
        1   -1    0    0  501    0  0.00000000000E+00  0.00000000000E+00 -0.43519988769E+03  0.43519988772E+03  0.50400001928E-02 0.  1.
    10030    2    1    2    0    0  0.00000000000E+00  0.00000000000E+00 -0.22836259476E+03  0.64203718070E+03  0.60005188669E+03 0.  0.
        1    1    3    3  502    0  0.12051579764E+03 -0.88945813793E+01  0.17964640692E+03  0.21650866634E+03  0.50400001928E-02 0. -1.
       -1    1    3    3    0  502 -0.12051579764E+03  0.88945813793E+01 -0.40800900168E+03  0.42552851436E+03  0.50400001928E-02 0.  1.
</event>
<event>
 5   0  0.9162342E-03  0.5957459E+03  0.7818609E-02  0.9914271E-01
       -2   -1    0    0    0  501  0.00000000000E+00  0.00000000000E+00  0.90609410300E+02  0.90609410336E+02  0.25500000920E-02 0.  1.
        2   -1    0    0  501    0  0.00000000000E+00  0.00000000000E+00 -0.97923929146E+03  0.97923929146E+03  0.25500000920E-02 0. -1.
    10030    2    1    2    0    0  0.00000000000E+00  0.00000000000E+00 -0.88862988116E+03  0.10698487018E+04  0.59574590141E+03 0.  0.
        5    1    3    3  502    0  0.67679276630E+02 -0.31918926627E+02 -0.96201694745E+03  0.96493419441E+03  0.46999998093E+01 0. -1.
       -5    1    3    3    0  502 -0.67679276630E+02  0.31918926627E+02  0.73387066295E+02  0.10491450738E+03  0.46999998093E+01 0.  1.
</event>
<event>
 5   0  0.3806250E-03  0.6003182E+03  0.7818609E-02  0.9904746E-01
       -3   -1    0    0    0  501  0.00000000000E+00  0.00000000000E+00  0.26831200180E+03  0.26831202081E+03  0.10100000352E+00 0. -1.
        3   -1    0    0  501    0  0.00000000000E+00  0.00000000000E+00 -0.33578626065E+03  0.33578627584E+03  0.10100000352E+00 0.  1.
    10030    2    1    2    0    0  0.00000000000E+00  0.00000000000E+00 -0.67474258849E+02  0.60409829665E+03  0.60031822928E+03 0.  0.
        5    1    3    3  502    0  0.27828256969E+03  0.61943141852E+02 -0.12811072187E+03  0.31259012856E+03  0.46999998093E+01 0.  1.
       -5    1    3    3    0  502 -0.27828256969E+03 -0.61943141852E+02  0.60636463017E+02  0.29150816809E+03  0.46999998093E+01 0. -1.
</event>
<event>
 5   0  0.9303190E-03  0.6019020E+03  0.7818609E-02  0.9901468E-01
       -2   -1    0    0    0  501  0.00000000000E+00  0.00000000000E+00  0.49742533311E+02  0.49742533377E+02  0.25500000920E-02 0.  1.
        2   -1    0    0  501    0  0.00000000000E+00  0.00000000000E+00 -0.18208061904E+04  0.18208061904E+04  0.25500000920E-02 0. -1.
    10030    2    1    2    0    0  0.00000000000E+00  0.00000000000E+00 -0.17710636571E+04  0.18705487238E+04  0.60190202739E+03 0.  0.
        4    1    3    3  502    0 -0.20827730400E+03 -0.55245998326E+02 -0.23262496094E+03  0.31709232259E+03  0.12699999809E+01 0.  1.
       -4    1    3    3    0  502  0.20827730400E+03  0.55245998326E+02 -0.15384386962E+04  0.15534564012E+04  0.12699999809E+01 0. -1.
</event>
<event>
 5   0  0.5819446E-03  0.5989072E+03  0.7818609E-02  0.9907676E-01
       -1   -1    0    0    0  501  0.00000000000E+00  0.00000000000E+00  0.43914219331E+02  0.43914219620E+02  0.50400001928E-02 0.  1.
        1   -1    0    0  501    0  0.00000000000E+00  0.00000000000E+00 -0.20419911425E+04  0.20419911425E+04  0.50400001928E-02 0. -1.
    10030    2    1    2    0    0  0.00000000000E+00  0.00000000000E+00 -0.19980769232E+04  0.20859053622E+04  0.59890716213E+03 0.  0.
        5    1    3    3  502    0 -0.34816470219E+02 -0.17009116135E+03 -0.14942823174E+03  0.22911585761E+03  0.46999998093E+01 0.  1.
       -5    1    3    3    0  502  0.34816470219E+02  0.17009116135E+03 -0.18486486915E+04  0.18567895045E+04  0.46999998093E+01 0. -1.
</event>
<event>
 5   0  0.9303190E-03  0.5997870E+03  0.7818609E-02  0.9905848E-01
       -2   -1    0    0    0  501  0.00000000000E+00  0.00000000000E+00  0.18627483406E+03  0.18627483408E+03  0.25500000920E-02 0.  1.
        2   -1    0    0  501    0  0.00000000000E+00  0.00000000000E+00 -0.48281404172E+03  0.48281404172E+03  0.25500000920E-02 0. -1.
    10030    2    1    2    0    0  0.00000000000E+00  0.00000000000E+00 -0.29653920766E+03  0.66908887580E+03  0.59978698055E+03 0.  0.
        4    1    3    3  502    0 -0.64566888321E+02 -0.23240266784E+03 -0.34705760341E+03  0.42264698753E+03  0.12699999809E+01 0. -1.
       -4    1    3    3    0  502  0.64566888321E+02  0.23240266784E+03  0.50518395751E+02  0.24644188827E+03  0.12699999809E+01 0.  1.
</event>
<event>
 5   0  0.5790967E-03  0.6040310E+03  0.7818609E-02  0.9897078E-01
        1   -1    0    0  501    0  0.00000000000E+00  0.00000000000E+00  0.51361958553E+03  0.51361958555E+03  0.50400001928E-02 0. -1.
       -1   -1    0    0    0  501  0.00000000000E+00  0.00000000000E+00 -0.17758932175E+03  0.17758932182E+03  0.50400001928E-02 0.  1.
    10030    2    1    2    0    0  0.00000000000E+00  0.00000000000E+00  0.33603026378E+03  0.69120890737E+03  0.60403097226E+03 0.  0.
        3    1    3    3  502    0  0.10710915571E+03  0.30525744706E+02  0.48926166055E+03  0.50177801368E+03  0.10100000352E+00 0. -1.
       -3    1    3    3    0  502 -0.10710915571E+03 -0.30525744706E+02 -0.15323139677E+03  0.18943089369E+03  0.10100000352E+00 0.  1.
</event>
<event>
 5   0  0.9391405E-03  0.6000969E+03  0.7818609E-02  0.9905205E-01
       -2   -1    0    0    0  501  0.00000000000E+00  0.00000000000E+00  0.58662447269E+02  0.58662447324E+02  0.25500000920E-02 0. -1.
        2   -1    0    0  501    0  0.00000000000E+00  0.00000000000E+00 -0.15346967938E+04  0.15346967938E+04  0.25500000920E-02 0.  1.
    10030    2    1    2    0    0  0.00000000000E+00  0.00000000000E+00 -0.14760343466E+04  0.15933592412E+04  0.60009689147E+03 0.  0.
        2    1    3    3  502    0  0.20810611790E+02 -0.15738415241E+03 -0.14140498135E+04  0.14229334939E+04  0.25500000920E-02 0.  1.
       -2    1    3    3    0  502 -0.20810611790E+02  0.15738415241E+03 -0.61984533102E+02  0.17042574730E+03  0.25500000920E-02 0. -1.
</event>
<event>
 5   0  0.9028473E-03  0.5998493E+03  0.7818609E-02  0.9905719E-01
       -2   -1    0    0    0  501  0.00000000000E+00  0.00000000000E+00  0.13647933688E+04  0.13647933688E+04  0.25500000920E-02 0.  1.
        2   -1    0    0  501    0  0.00000000000E+00  0.00000000000E+00 -0.65910933607E+02  0.65910933656E+02  0.25500000920E-02 0. -1.
    10030    2    1    2    0    0  0.00000000000E+00  0.00000000000E+00  0.12988824352E+04  0.14307043025E+04  0.59984933160E+03 0.  0.
        1    1    3    3  502    0  0.17353404063E+03  0.43643363473E+02  0.12235338227E+04  0.12365491587E+04  0.50400001928E-02 0.  1.
       -1    1    3    3    0  502 -0.17353404063E+03 -0.43643363473E+02  0.75348612471E+02  0.19415514379E+03  0.50400001928E-02 0. -1.
</event>
<event>
 5   0  0.3806250E-03  0.6012910E+03  0.7818609E-02  0.9902731E-01
       -3   -1    0    0    0  501  0.00000000000E+00  0.00000000000E+00  0.15210419026E+04  0.15210419060E+04  0.10100000352E+00 0. -1.
        3   -1    0    0  501    0  0.00000000000E+00  0.00000000000E+00 -0.59424830449E+02  0.59424916280E+02  0.10100000352E+00 0.  1.
    10030    2    1    2    0    0  0.00000000000E+00  0.00000000000E+00  0.14616170722E+04  0.15804668223E+04  0.60129103651E+03 0.  0.
        3    1    3    3  502    0  0.15089536854E+03  0.11314024216E+00  0.47317610332E+02  0.15814041703E+03  0.10100000352E+00 0.  1.
       -3    1    3    3    0  502 -0.15089536854E+03 -0.11314024216E+00  0.14142994619E+04  0.14223264052E+04  0.10100000352E+00 0. -1.
</event>
<event>
 5   0  0.5891927E-03  0.6004224E+03  0.7818609E-02  0.9904530E-01
        1   -1    0    0  501    0  0.00000000000E+00  0.00000000000E+00  0.23120920017E+03  0.23120920022E+03  0.50400001928E-02 0. -1.
       -1   -1    0    0    0  501  0.00000000000E+00  0.00000000000E+00 -0.38980607252E+03  0.38980607255E+03  0.50400001928E-02 0.  1.
    10030    2    1    2    0    0  0.00000000000E+00  0.00000000000E+00 -0.15859687235E+03  0.62101527277E+03  0.60042235226E+03 0.  0.
        4    1    3    3  502    0  0.27122920276E+03  0.11806568260E+03 -0.26353404983E+02  0.29698636449E+03  0.12699999809E+01 0.  1.
       -4    1    3    3    0  502 -0.27122920276E+03 -0.11806568260E+03 -0.13224346737E+03  0.32402890828E+03  0.12699999809E+01 0. -1.
</event>
<event>
 5   0  0.9028473E-03  0.6006489E+03  0.7818609E-02  0.9904061E-01
       -2   -1    0    0    0  501  0.00000000000E+00  0.00000000000E+00  0.28899604641E+03  0.28899604642E+03  0.25500000920E-02 0. -1.
        2   -1    0    0  501    0  0.00000000000E+00  0.00000000000E+00 -0.31209688672E+03  0.31209688673E+03  0.25500000920E-02 0.  1.
    10030    2    1    2    0    0  0.00000000000E+00  0.00000000000E+00 -0.23100840316E+02  0.60109293315E+03  0.60064887036E+03 0.  0.
        1    1    3    3  502    0 -0.25096162425E+02 -0.10579418921E+03  0.26860750634E+03  0.28977960647E+03  0.50400001928E-02 0. -1.
       -1    1    3    3    0  502  0.25096162425E+02  0.10579418921E+03 -0.29170834665E+03  0.31131332668E+03  0.50400001928E-02 0.  1.
</event>
<event>
 5   0  0.3806250E-03  0.5990746E+03  0.7818609E-02  0.9907328E-01
       -4   -1    0    0    0  501  0.00000000000E+00  0.00000000000E+00  0.25072934486E+03  0.25073256126E+03  0.12699999809E+01 0. -1.
        4   -1    0    0  501    0  0.00000000000E+00  0.00000000000E+00 -0.35783982119E+03  0.35784207484E+03  0.12699999809E+01 0.  1.
    10030    2    1    2    0    0  0.00000000000E+00  0.00000000000E+00 -0.10711047633E+03  0.60857463610E+03  0.59907464774E+03 0.  0.
        4    1    3    3  502    0  0.65588319739E+02  0.15315793848E+03 -0.30642387524E+03  0.34879275511E+03  0.12699999809E+01 0.  1.
       -4    1    3    3    0  502 -0.65588319739E+02 -0.15315793848E+03  0.19931339891E+03  0.25978188099E+03  0.12699999809E+01 0. -1.
</event>
<event>
 5   0  0.9303190E-03  0.6000085E+03  0.7818609E-02  0.9905388E-01
       -2   -1    0    0    0  501  0.00000000000E+00  0.00000000000E+00  0.68160034308E+02  0.68160034356E+02  0.25500000920E-02 0. -1.
        2   -1    0    0  501    0  0.00000000000E+00  0.00000000000E+00 -0.13204593279E+04  0.13204593279E+04  0.25500000920E-02 0.  1.
    10030    2    1    2    0    0  0.00000000000E+00  0.00000000000E+00 -0.12522992936E+04  0.13886193623E+04  0.60000851037E+03 0.  0.
        4    1    3    3  502    0  0.29378781603E+03  0.66183781754E+01 -0.48640808624E+03  0.56828647972E+03  0.12699999809E+01 0. -1.
       -4    1    3    3    0  502 -0.29378781603E+03 -0.66183781754E+01 -0.76589120737E+03  0.82033288256E+03  0.12699999809E+01 0.  1.
</event>
<event>
 5   0  0.9822607E-03  0.6004256E+03  0.7818609E-02  0.9904524E-01
        2   -1    0    0  501    0  0.00000000000E+00  0.00000000000E+00  0.85033229155E+03  0.85033229156E+03  0.25500000920E-02 0.  1.
       -2   -1    0    0    0  501  0.00000000000E+00  0.00000000000E+00 -0.10599117214E+03  0.10599117217E+03  0.25500000920E-02 0. -1.
    10030    2    1    2    0    0  0.00000000000E+00  0.00000000000E+00  0.74434111941E+03  0.95632346373E+03  0.60042557010E+03 0.  0.
        3    1    3    3  502    0 -0.31475250248E+02 -0.63765237669E+02  0.83672479601E+03  0.83974108592E+03  0.10100000352E+00 0.  1.
       -3    1    3    3    0  502  0.31475250248E+02  0.63765237669E+02 -0.92383676600E+02  0.11658237781E+03  0.10100000352E+00 0. -1.
</event>
<event>
 5   0  0.6078658E-03  0.5993073E+03  0.7818609E-02  0.9906844E-01
       -1   -1    0    0    0  501  0.00000000000E+00  0.00000000000E+00  0.15546283445E+04  0.15546283445E+04  0.50400001928E-02 0. -1.
        1   -1    0    0  501    0  0.00000000000E+00  0.00000000000E+00 -0.57758061419E+02  0.57758061639E+02  0.50400001928E-02 0.  1.
    10030    2    1    2    0    0  0.00000000000E+00  0.00000000000E+00  0.14968702831E+04  0.16123864061E+04  0.59930733214E+03 0.  0.
        2    1    3    3  502    0 -0.24293621507E+03  0.62096742410E+02  0.11898464231E+04  0.12159804771E+04  0.25500000920E-02 0. -1.
       -2    1    3    3    0  502  0.24293621507E+03 -0.62096742410E+02  0.30702385996E+03  0.39640592907E+03  0.25500000920E-02 0.  1.
</event>
<event>
 5   0  0.5891927E-03  0.6006334E+03  0.7818609E-02  0.9904093E-01
       -1   -1    0    0    0  501  0.00000000000E+00  0.00000000000E+00  0.96287929374E+03  0.96287929375E+03  0.50400001928E-02 0. -1.
        1   -1    0    0  501    0  0.00000000000E+00  0.00000000000E+00 -0.93667107641E+02  0.93667107776E+02  0.50400001928E-02 0.  1.
    10030    2    1    2    0    0  0.00000000000E+00  0.00000000000E+00  0.86921218610E+03  0.10565464015E+04  0.60063339411E+03 0.  0.
        4    1    3    3  502    0 -0.19723503651E+03  0.12048702549E+03  0.77191225730E+03  0.80577225616E+03  0.12699999809E+01 0. -1.
       -4    1    3    3    0  502  0.19723503651E+03 -0.12048702549E+03  0.97299928800E+02  0.25077414536E+03  0.12699999809E+01 0.  1.
</event>
<event>
 5   0  0.5790967E-03  0.5941389E+03  0.7818609E-02  0.9917641E-01
       -1   -1    0    0    0  501  0.00000000000E+00  0.00000000000E+00  0.92918456359E+02  0.92918456496E+02  0.50400001928E-02 0.  1.
        1   -1    0    0  501    0  0.00000000000E+00  0.00000000000E+00 -0.94976020067E+03  0.94976020068E+03  0.50400001928E-02 0. -1.
    10030    2    1    2    0    0  0.00000000000E+00  0.00000000000E+00 -0.85684174431E+03  0.10426786572E+04  0.59413887883E+03 0.  0.
        3    1    3    3  502    0  0.47638997382E+02  0.11231469987E+03  0.46925794231E+02  0.13071383341E+03  0.10100000352E+00 0.  1.
       -3    1    3    3    0  502 -0.47638997382E+02 -0.11231469987E+03 -0.90376753854E+03  0.91196482377E+03  0.10100000352E+00 0. -1.
</event>
<event>
 5   0  0.5790967E-03  0.6004639E+03  0.7818609E-02  0.9904444E-01
       -1   -1    0    0    0  501  0.00000000000E+00  0.00000000000E+00  0.25463897952E+03  0.25463897957E+03  0.50400001928E-02 0. -1.
        1   -1    0    0  501    0  0.00000000000E+00  0.00000000000E+00 -0.35398825923E+03  0.35398825926E+03  0.50400001928E-02 0.  1.
    10030    2    1    2    0    0  0.00000000000E+00  0.00000000000E+00 -0.99349279703E+02  0.60862723884E+03  0.60046385110E+03 0.  0.
        3    1    3    3  502    0 -0.78570068555E+02 -0.28539475485E+02  0.24260556919E+03  0.25660325355E+03  0.10100000352E+00 0. -1.
       -3    1    3    3    0  502  0.78570068555E+02  0.28539475485E+02 -0.34195484889E+03  0.35202398528E+03  0.10100000352E+00 0.  1.
</event>
<event>
 5   0  0.9028473E-03  0.6002299E+03  0.7818609E-02  0.9904929E-01
        2   -1    0    0  501    0  0.00000000000E+00  0.00000000000E+00  0.47356504308E+03  0.47356504308E+03  0.25500000920E-02 0.  1.
       -2   -1    0    0    0  501  0.00000000000E+00  0.00000000000E+00 -0.19019347130E+03  0.19019347131E+03  0.25500000920E-02 0. -1.
    10030    2    1    2    0    0  0.00000000000E+00  0.00000000000E+00  0.28337157178E+03  0.66375851440E+03  0.60022988741E+03 0.  0.
        1    1    3    3  502    0  0.83148462183E+02  0.14481272927E+03 -0.13407585997E+03  0.21415118392E+03  0.50400001928E-02 0. -1.
       -1    1    3    3    0  502 -0.83148462183E+02 -0.14481272927E+03  0.41744743175E+03  0.44960733048E+03  0.50400001928E-02 0.  1.
</event>
<event>
 5   0  0.9162342E-03  0.6006116E+03  0.7818609E-02  0.9904138E-01
        2   -1    0    0  501    0  0.00000000000E+00  0.00000000000E+00  0.81376177232E+02  0.81376177272E+02  0.25500000920E-02 0. -1.
       -2   -1    0    0    0  501  0.00000000000E+00  0.00000000000E+00 -0.11082305419E+04  0.11082305419E+04  0.25500000920E-02 0.  1.
    10030    2    1    2    0    0  0.00000000000E+00  0.00000000000E+00 -0.10268543647E+04  0.11896067192E+04  0.60061157172E+03 0.  0.
        5    1    3    3  502    0 -0.23079027572E+02  0.67526348467E+01  0.79393142498E+02  0.83087909258E+02  0.46999998093E+01 0. -1.
       -5    1    3    3    0  502  0.23079027572E+02 -0.67526348467E+01 -0.11062475072E+04  0.11065188100E+04  0.46999998093E+01 0.  1.
</event>
<event>
 5   0  0.9391405E-03  0.5998327E+03  0.7818609E-02  0.9905753E-01
        2   -1    0    0  501    0  0.00000000000E+00  0.00000000000E+00  0.81016585378E+03  0.81016585378E+03  0.25500000920E-02 0.  1.
       -2   -1    0    0    0  501  0.00000000000E+00  0.00000000000E+00 -0.11102643510E+03  0.11102643513E+03  0.25500000920E-02 0. -1.
    10030    2    1    2    0    0  0.00000000000E+00  0.00000000000E+00  0.69913941867E+03  0.92119228891E+03  0.59983273203E+03 0.  0.
        2    1    3    3  502    0  0.76964720249E+02 -0.31103374147E+02 -0.93031972597E+02  0.12468334283E+03  0.25500000920E-02 0. -1.
       -2    1    3    3    0  502 -0.76964720249E+02  0.31103374147E+02  0.79217139127E+03  0.79650894609E+03  0.25500000920E-02 0.  1.
</event>
<event>
 5   0  0.5765045E-03  0.5998783E+03  0.7818609E-02  0.9905659E-01
        1   -1    0    0  501    0  0.00000000000E+00  0.00000000000E+00  0.12280443542E+04  0.12280443542E+04  0.50400001928E-02 0. -1.
       -1   -1    0    0    0  501  0.00000000000E+00  0.00000000000E+00 -0.73257532264E+02  0.73257532438E+02  0.50400001928E-02 0.  1.
    10030    2    1    2    0    0  0.00000000000E+00  0.00000000000E+00  0.11547868220E+04  0.13013018867E+04  0.59987831773E+03 0.  0.
        1    1    3    3  502    0 -0.25494632433E+03 -0.12732973982E+03  0.37444130659E+03  0.47054944802E+03  0.50400001928E-02 0.  1.
       -1    1    3    3    0  502  0.25494632433E+03  0.12732973982E+03  0.78034551537E+03  0.83075243864E+03  0.50400001928E-02 0. -1.
</event>
<event>
 5   0  0.9391405E-03  0.6019494E+03  0.7818609E-02  0.9901370E-01
       -2   -1    0    0    0  501  0.00000000000E+00  0.00000000000E+00  0.45044841440E+02  0.45044841512E+02  0.25500000920E-02 0. -1.
        2   -1    0    0  501    0  0.00000000000E+00  0.00000000000E+00 -0.20110133611E+04  0.20110133611E+04  0.25500000920E-02 0.  1.
    10030    2    1    2    0    0  0.00000000000E+00  0.00000000000E+00 -0.19659685196E+04  0.20560582026E+04  0.60194942664E+03 0.  0.
        2    1    3    3  502    0  0.25974924858E+03 -0.14810404590E+03 -0.11003807310E+04  0.11402816466E+04  0.25500000920E-02 0.  1.
       -2    1    3    3    0  502 -0.25974924858E+03  0.14810404590E+03 -0.86558778864E+03  0.91577655593E+03  0.25500000920E-02 0. -1.
</event>
<event>
 5   0  0.5765045E-03  0.6004578E+03  0.7818609E-02  0.9904457E-01
       -1   -1    0    0    0  501  0.00000000000E+00  0.00000000000E+00  0.50262322388E+02  0.50262322641E+02  0.50400001928E-02 0. -1.
        1   -1    0    0  501    0  0.00000000000E+00  0.00000000000E+00 -0.17933392635E+04  0.17933392635E+04  0.50400001928E-02 0.  1.
    10030    2    1    2    0    0  0.00000000000E+00  0.00000000000E+00 -0.17430769411E+04  0.18436015861E+04  0.60045781351E+03 0.  0.
        1    1    3    3  502    0  0.22662823721E+03  0.12204667213E+02 -0.26809560132E+03  0.35126138882E+03  0.50400001928E-02 0. -1.
       -1    1    3    3    0  502 -0.22662823721E+03 -0.12204667213E+02 -0.14749813398E+04  0.14923401973E+04  0.50400001928E-02 0.  1.
</event>
<event>
 5   0  0.5819446E-03  0.5999956E+03  0.7818609E-02  0.9905415E-01
       -1   -1    0    0    0  501  0.00000000000E+00  0.00000000000E+00  0.57242684011E+02  0.57242684233E+02  0.50400001928E-02 0.  1.
        1   -1    0    0  501    0  0.00000000000E+00  0.00000000000E+00 -0.15722300674E+04  0.15722300674E+04  0.50400001928E-02 0. -1.
    10030    2    1    2    0    0  0.00000000000E+00  0.00000000000E+00 -0.15149873833E+04  0.16294727516E+04  0.59999556374E+03 0.  0.
        5    1    3    3  502    0 -0.66718772116E+02 -0.12046307068E+03 -0.14812136358E+04  0.14876083728E+04  0.46999998093E+01 0. -1.
       -5    1    3    3    0  502  0.66718772116E+02  0.12046307068E+03 -0.33773747549E+02  0.14186437880E+03  0.46999998093E+01 0.  1.
</event>
<event>
 5   0  0.9303190E-03  0.6047113E+03  0.7818609E-02  0.9895679E-01
        2   -1    0    0  501    0  0.00000000000E+00  0.00000000000E+00  0.38510700702E+03  0.38510700703E+03  0.25500000920E-02 0. -1.
       -2   -1    0    0    0  501  0.00000000000E+00  0.00000000000E+00 -0.23738582579E+03  0.23738582581E+03  0.25500000920E-02 0.  1.
    10030    2    1    2    0    0  0.00000000000E+00  0.00000000000E+00  0.14772118123E+03  0.62249283284E+03  0.60471131919E+03 0.  0.
        4    1    3    3  502    0 -0.62353157296E+02  0.29487988049E+03  0.98550688789E+02  0.31710552077E+03  0.12699999809E+01 0. -1.
       -4    1    3    3    0  502  0.62353157296E+02 -0.29487988049E+03  0.49170492444E+02  0.30538731207E+03  0.12699999809E+01 0.  1.
</event>
<event>
 5   0  0.5765045E-03  0.5996982E+03  0.7818609E-02  0.9906032E-01
        1   -1    0    0  501    0  0.00000000000E+00  0.00000000000E+00  0.14331171321E+04  0.14331171321E+04  0.50400001928E-02 0.  1.
       -1   -1    0    0    0  501  0.00000000000E+00  0.00000000000E+00 -0.62736999171E+02  0.62736999374E+02  0.50400001928E-02 0. -1.
    10030    2    1    2    0    0  0.00000000000E+00  0.00000000000E+00  0.13703801329E+04  0.14958541315E+04  0.59969815236E+03 0.  0.
        1    1    3    3  502    0  0.17034210074E+03 -0.17524135980E+03  0.25183751790E+03  0.35092463709E+03  0.50400001928E-02 0. -1.
       -1    1    3    3    0  502 -0.17034210074E+03  0.17524135980E+03  0.11185426150E+04  0.11449294944E+04  0.50400001928E-02 0.  1.
</event>
<event>
 5   0  0.5819446E-03  0.5980277E+03  0.7818609E-02  0.9909506E-01
        1   -1    0    0  501    0  0.00000000000E+00  0.00000000000E+00  0.49522832463E+03  0.49522832466E+03  0.50400001928E-02 0.  1.
       -1   -1    0    0    0  501  0.00000000000E+00  0.00000000000E+00 -0.18054151229E+03  0.18054151236E+03  0.50400001928E-02 0. -1.
    10030    2    1    2    0    0  0.00000000000E+00  0.00000000000E+00  0.31468681235E+03  0.67576983701E+03  0.59802766052E+03 0.  0.
        5    1    3    3  502    0  0.21962518464E+03 -0.15864767702E+03  0.30020153682E+03  0.40440989090E+03  0.46999998093E+01 0. -1.
       -5    1    3    3    0  502 -0.21962518464E+03  0.15864767702E+03  0.14485275530E+02  0.27135994612E+03  0.46999998093E+01 0.  1.
</event>
<event>
 5   0  0.5765045E-03  0.5998662E+03  0.7818609E-02  0.9905684E-01
       -1   -1    0    0    0  501  0.00000000000E+00  0.00000000000E+00  0.60847676132E+02  0.60847676341E+02  0.50400001928E-02 0. -1.
        1   -1    0    0  501    0  0.00000000000E+00  0.00000000000E+00 -0.14784439047E+04  0.14784439047E+04  0.50400001928E-02 0.  1.
    10030    2    1    2    0    0  0.00000000000E+00  0.00000000000E+00 -0.14175962286E+04  0.15392915811E+04  0.59986623863E+03 0.  0.
        1    1    3    3  502    0 -0.19300493588E+03 -0.11472400459E+03 -0.12190977956E+04  0.12396015238E+04  0.50400001928E-02 0.  1.
       -1    1    3    3    0  502  0.19300493588E+03  0.11472400459E+03 -0.19849843294E+03  0.29969005724E+03  0.50400001928E-02 0. -1.
</event>
<event>
 5   0  0.6078658E-03  0.5978029E+03  0.7818609E-02  0.9909975E-01
        1   -1    0    0  501    0  0.00000000000E+00  0.00000000000E+00  0.41204175318E+03  0.41204175321E+03  0.50400001928E-02 0.  1.
       -1   -1    0    0    0  501  0.00000000000E+00  0.00000000000E+00 -0.21682770486E+03  0.21682770492E+03  0.50400001928E-02 0. -1.
    10030    2    1    2    0    0  0.00000000000E+00  0.00000000000E+00  0.19521404831E+03  0.62886945813E+03  0.59780286944E+03 0.  0.
        2    1    3    3  502    0  0.15485630909E+03  0.47080535548E+02  0.36195259680E+03  0.39649304613E+03  0.25500000920E-02 0.  1.
       -2    1    3    3    0  502 -0.15485630909E+03 -0.47080535548E+02 -0.16673854849E+03  0.23237641200E+03  0.25500000920E-02 0. -1.
</event>
<event>
 5   0  0.6078658E-03  0.6006509E+03  0.7818609E-02  0.9904057E-01
       -1   -1    0    0    0  501  0.00000000000E+00  0.00000000000E+00  0.10441686706E+03  0.10441686719E+03  0.50400001928E-02 0. -1.
        1   -1    0    0  501    0  0.00000000000E+00  0.00000000000E+00 -0.86380086922E+03  0.86380086923E+03  0.50400001928E-02 0.  1.
    10030    2    1    2    0    0  0.00000000000E+00  0.00000000000E+00 -0.75938400215E+03  0.96821773642E+03  0.60065091558E+03 0.  0.
        2    1    3    3  502    0  0.19277061297E+03  0.19850525545E+03 -0.56788668032E+03  0.63171206048E+03  0.25500000920E-02 0. -1.
       -2    1    3    3    0  502 -0.19277061297E+03 -0.19850525545E+03 -0.19149732183E+03  0.33650567594E+03  0.25500000920E-02 0.  1.
</event>
<event>
 5   0  0.3806250E-03  0.6009517E+03  0.7818609E-02  0.9903433E-01
        3   -1    0    0  501    0  0.00000000000E+00  0.00000000000E+00  0.18250582739E+03  0.18250585534E+03  0.10100000352E+00 0.  1.
       -3   -1    0    0    0  501  0.00000000000E+00  0.00000000000E+00 -0.49470057613E+03  0.49470058644E+03  0.10100000352E+00 0. -1.
    10030    2    1    2    0    0  0.00000000000E+00  0.00000000000E+00 -0.31219474874E+03  0.67720644178E+03  0.60095174819E+03 0.  0.
        3    1    3    3  502    0 -0.22040794391E+03  0.12363662556E+03 -0.33926487048E+03  0.42304413417E+03  0.10100000352E+00 0. -1.
       -3    1    3    3    0  502  0.22040794391E+03 -0.12363662556E+03  0.27070121740E+02  0.25416230761E+03  0.10100000352E+00 0.  1.
</event>
<event>
 5   0  0.3806250E-03  0.5992610E+03  0.7818609E-02  0.9906941E-01
       -3   -1    0    0    0  501  0.00000000000E+00  0.00000000000E+00  0.44409606940E+03  0.44409608089E+03  0.10100000352E+00 0. -1.
        3   -1    0    0  501    0  0.00000000000E+00  0.00000000000E+00 -0.20215989228E+03  0.20215991751E+03  0.10100000352E+00 0.  1.
    10030    2    1    2    0    0  0.00000000000E+00  0.00000000000E+00  0.24193617712E+03  0.64625599840E+03  0.59926096291E+03 0.  0.
        5    1    3    3  502    0 -0.73463240561E+02  0.23574826402E+03 -0.61989708535E+02  0.25463484770E+03  0.46999998093E+01 0. -1.
       -5    1    3    3    0  502  0.73463240561E+02 -0.23574826402E+03  0.30392588566E+03  0.39162115070E+03  0.46999998093E+01 0.  1.
</event>
<event>
 5   0  0.5819446E-03  0.5998604E+03  0.7818609E-02  0.9905696E-01
        1   -1    0    0  501    0  0.00000000000E+00  0.00000000000E+00  0.50544525297E+03  0.50544525300E+03  0.50400001928E-02 0. -1.
       -1   -1    0    0    0  501  0.00000000000E+00  0.00000000000E+00 -0.17797795455E+03  0.17797795462E+03  0.50400001928E-02 0.  1.
    10030    2    1    2    0    0  0.00000000000E+00  0.00000000000E+00  0.32746729842E+03  0.68342320762E+03  0.59986035806E+03 0.  0.
        5    1    3    3  502    0  0.11657392091E+03  0.99934654617E+02 -0.12975510595E+03  0.20108429016E+03  0.46999998093E+01 0.  1.
       -5    1    3    3    0  502 -0.11657392091E+03 -0.99934654617E+02  0.45722240438E+03  0.48233891746E+03  0.46999998093E+01 0. -1.
</event>
<event>
 5   0  0.9028473E-03  0.6005445E+03  0.7818609E-02  0.9904277E-01
        2   -1    0    0  501    0  0.00000000000E+00  0.00000000000E+00  0.27222347081E+03  0.27222347082E+03  0.25500000920E-02 0. -1.
       -2   -1    0    0    0  501  0.00000000000E+00  0.00000000000E+00 -0.33121105858E+03  0.33121105859E+03  0.25500000920E-02 0.  1.
    10030    2    1    2    0    0  0.00000000000E+00  0.00000000000E+00 -0.58987587770E+02  0.60343452941E+03  0.60054449941E+03 0.  0.
        1    1    3    3  502    0  0.23195387903E+03 -0.10591219991E+02 -0.22080079787E+03  0.32041811482E+03  0.50400001928E-02 0.  1.
       -1    1    3    3    0  502 -0.23195387903E+03  0.10591219991E+02  0.16181321010E+03  0.28301641459E+03  0.50400001928E-02 0. -1.
</event>
<event>
 5   0  0.6078658E-03  0.6015144E+03  0.7818609E-02  0.9902269E-01
       -1   -1    0    0    0  501  0.00000000000E+00  0.00000000000E+00  0.35940654043E+03  0.35940654046E+03  0.50400001928E-02 0.  1.
        1   -1    0    0  501    0  0.00000000000E+00  0.00000000000E+00 -0.25167844991E+03  0.25167844996E+03  0.50400001928E-02 0. -1.
    10030    2    1    2    0    0  0.00000000000E+00  0.00000000000E+00  0.10772809052E+03  0.61108499043E+03  0.60151435896E+03 0.  0.
        2    1    3    3  502    0  0.25288452171E+03  0.99411602494E+01  0.21894713683E+03  0.33464497115E+03  0.25500000920E-02 0.  1.
       -2    1    3    3    0  502 -0.25288452171E+03 -0.99411602494E+01 -0.11121904631E+03  0.27644001927E+03  0.25500000920E-02 0. -1.
</event>
<event>
 5   0  0.9822607E-03  0.6000930E+03  0.7818609E-02  0.9905213E-01
        2   -1    0    0  501    0  0.00000000000E+00  0.00000000000E+00  0.98814755318E+03  0.98814755318E+03  0.25500000920E-02 0. -1.
       -2   -1    0    0    0  501  0.00000000000E+00  0.00000000000E+00 -0.91107747664E+02  0.91107747700E+02  0.25500000920E-02 0.  1.
    10030    2    1    2    0    0  0.00000000000E+00  0.00000000000E+00  0.89703980551E+03  0.10792553009E+04  0.60009298596E+03 0.  0.
        3    1    3    3  502    0 -0.27439465310E+03  0.99125542357E+02  0.32250317268E+03  0.43488688804E+03  0.10100000352E+00 0. -1.
       -3    1    3    3    0  502  0.27439465310E+03 -0.99125542357E+02  0.57453663284E+03  0.64436841284E+03  0.10100000352E+00 0.  1.
</event>
<event>
 5   0  0.5891927E-03  0.5996296E+03  0.7818609E-02  0.9906175E-01
       -1   -1    0    0    0  501  0.00000000000E+00  0.00000000000E+00  0.47218189184E+03  0.47218189187E+03  0.50400001928E-02 0.  1.
        1   -1    0    0  501    0  0.00000000000E+00  0.00000000000E+00 -0.19036926281E+03  0.19036926288E+03  0.50400001928E-02 0. -1.
    10030    2    1    2    0    0  0.00000000000E+00  0.00000000000E+00  0.28181262903E+03  0.66255115475E+03  0.59962961466E+03 0.  0.
        4    1    3    3  502    0 -0.27852193279E+03 -0.11094372548E+03  0.13860748719E+03  0.33029778333E+03  0.12699999809E+01 0. -1.
       -4    1    3    3    0  502  0.27852193279E+03  0.11094372548E+03  0.14320514184E+03  0.33225337142E+03  0.12699999809E+01 0.  1.
</event>
<event>
 5   0  0.9028473E-03  0.6005682E+03  0.7818609E-02  0.9904228E-01
       -2   -1    0    0    0  501  0.00000000000E+00  0.00000000000E+00  0.16229908126E+03  0.16229908128E+03  0.25500000920E-02 0.  1.
        2   -1    0    0  501    0  0.00000000000E+00  0.00000000000E+00 -0.55558264909E+03  0.55558264909E+03  0.25500000920E-02 0. -1.
    10030    2    1    2    0    0  0.00000000000E+00  0.00000000000E+00 -0.39328356782E+03  0.71788173038E+03  0.60056824266E+03 0.  0.
        1    1    3    3  502    0  0.18967833897E+03 -0.10229315890E+03 -0.44660394567E+03  0.49587987149E+03  0.50400001928E-02 0. -1.
       -1    1    3    3    0  502 -0.18967833897E+03  0.10229315890E+03  0.53320377848E+02  0.22200185889E+03  0.50400001928E-02 0.  1.
</event>
<event>
 5   0  0.5765045E-03  0.5997689E+03  0.7818609E-02  0.9905886E-01
        1   -1    0    0  501    0  0.00000000000E+00  0.00000000000E+00  0.19042282730E+03  0.19042282736E+03  0.50400001928E-02 0.  1.
       -1   -1    0    0    0  501  0.00000000000E+00  0.00000000000E+00 -0.47226847420E+03  0.47226847423E+03  0.50400001928E-02 0. -1.
    10030    2    1    2    0    0  0.00000000000E+00  0.00000000000E+00 -0.28184564691E+03  0.66269130159E+03  0.59976894928E+03 0.  0.
        1    1    3    3  502    0  0.27451216690E+03 -0.10707387896E+03 -0.79315214368E+02  0.30514365238E+03  0.50400001928E-02 0. -1.
       -1    1    3    3    0  502 -0.27451216690E+03  0.10707387896E+03 -0.20253043254E+03  0.35754764922E+03  0.50400001928E-02 0.  1.
</event>
<event>
 5   0  0.9303190E-03  0.5993366E+03  0.7818609E-02  0.9906783E-01
       -2   -1    0    0    0  501  0.00000000000E+00  0.00000000000E+00  0.13118282949E+03  0.13118282952E+03  0.25500000920E-02 0. -1.
        2   -1    0    0  501    0  0.00000000000E+00  0.00000000000E+00 -0.68454913009E+03  0.68454913009E+03  0.25500000920E-02 0.  1.
    10030    2    1    2    0    0  0.00000000000E+00  0.00000000000E+00 -0.55336630060E+03  0.81573195961E+03  0.59933660601E+03 0.  0.
        4    1    3    3  502    0 -0.64871235784E+02  0.29115409277E+03 -0.23769659217E+03  0.38141875386E+03  0.12699999809E+01 0.  1.
       -4    1    3    3    0  502  0.64871235784E+02 -0.29115409277E+03 -0.31566970843E+03  0.43431320575E+03  0.12699999809E+01 0. -1.
</event>
<event>
 5   0  0.3806250E-03  0.6003188E+03  0.7818609E-02  0.9904745E-01
        3   -1    0    0  501    0  0.00000000000E+00  0.00000000000E+00  0.51507045295E+03  0.51507046285E+03  0.10100000352E+00 0.  1.
       -3   -1    0    0    0  501  0.00000000000E+00  0.00000000000E+00 -0.17491908800E+03  0.17491911716E+03  0.10100000352E+00 0. -1.
    10030    2    1    2    0    0  0.00000000000E+00  0.00000000000E+00  0.34015136495E+03  0.68998958001E+03  0.60031880650E+03 0.  0.
        2    1    3    3  502    0 -0.12919035505E+03 -0.16995973937E+03  0.41258827301E+03  0.46454875296E+03  0.25500000920E-02 0.  1.
       -2    1    3    3    0  502  0.12919035505E+03  0.16995973937E+03 -0.72436908057E+02  0.22544082705E+03  0.25500000920E-02 0. -1.
</event>
<event>
 5   0  0.9303190E-03  0.6005663E+03  0.7818609E-02  0.9904232E-01
       -2   -1    0    0    0  501  0.00000000000E+00  0.00000000000E+00  0.15123645698E+03  0.15123645700E+03  0.25500000920E-02 0. -1.
        2   -1    0    0  501    0  0.00000000000E+00  0.00000000000E+00 -0.59621856639E+03  0.59621856639E+03  0.25500000920E-02 0.  1.
    10030    2    1    2    0    0  0.00000000000E+00  0.00000000000E+00 -0.44498210941E+03  0.74745502339E+03  0.60056634463E+03 0.  0.
        4    1    3    3  502    0 -0.92317992224E+02  0.10734188245E+03  0.10708511494E+03  0.17752105835E+03  0.12699999809E+01 0. -1.
       -4    1    3    3    0  502  0.92317992224E+02 -0.10734188245E+03 -0.55206722434E+03  0.56993396504E+03  0.12699999809E+01 0.  1.
</event>
<event>
 5   0  0.9162342E-03  0.5995683E+03  0.7818609E-02  0.9906302E-01
        2   -1    0    0  501    0  0.00000000000E+00  0.00000000000E+00  0.40582248296E+03  0.40582248297E+03  0.25500000920E-02 0. -1.
       -2   -1    0    0    0  501  0.00000000000E+00  0.00000000000E+00 -0.22145282251E+03  0.22145282252E+03  0.25500000920E-02 0.  1.
    10030    2    1    2    0    0  0.00000000000E+00  0.00000000000E+00  0.18436966045E+03  0.62727530550E+03  0.59956829235E+03 0.  0.
        5    1    3    3  502    0  0.59908257553E+02 -0.18368136383E+03 -0.14757939261E+03  0.24316580735E+03  0.46999998093E+01 0.  1.
       -5    1    3    3    0  502 -0.59908257553E+02  0.18368136383E+03  0.33194905306E+03  0.38410949815E+03  0.46999998093E+01 0. -1.
</event>
<event>
 5   0  0.9391405E-03  0.5991265E+03  0.7818609E-02  0.9907220E-01
        2   -1    0    0  501    0  0.00000000000E+00  0.00000000000E+00  0.41547502020E+03  0.41547502021E+03  0.25500000920E-02 0. -1.
       -2   -1    0    0    0  501  0.00000000000E+00  0.00000000000E+00 -0.21598925453E+03  0.21598925454E+03  0.25500000920E-02 0.  1.
    10030    2    1    2    0    0  0.00000000000E+00  0.00000000000E+00  0.19948576567E+03  0.63146427475E+03  0.59912649714E+03 0.  0.
        2    1    3    3  502    0  0.27368127718E+03 -0.41676578809E+02  0.22037472145E+03  0.35384091986E+03  0.25500000920E-02 0.  1.
       -2    1    3    3    0  502 -0.27368127718E+03  0.41676578809E+02 -0.20888955784E+02  0.27762335489E+03  0.25500000920E-02 0. -1.
</event>
<event>
 5   0  0.9822607E-03  0.6002430E+03  0.7818609E-02  0.9904902E-01
       -2   -1    0    0    0  501  0.00000000000E+00  0.00000000000E+00  0.64984357369E+02  0.64984357419E+02  0.25500000920E-02 0.  1.
        2   -1    0    0  501    0  0.00000000000E+00  0.00000000000E+00 -0.13860705828E+04  0.13860705828E+04  0.25500000920E-02 0. -1.
    10030    2    1    2    0    0  0.00000000000E+00  0.00000000000E+00 -0.13210862254E+04  0.14510549402E+04  0.60024297123E+03 0.  0.
        3    1    3    3  502    0  0.89900100249E+02  0.26334615210E+03 -0.93232760719E+03  0.97296865375E+03  0.10100000352E+00 0.  1.
       -3    1    3    3    0  502 -0.89900100249E+02 -0.26334615210E+03 -0.38875861820E+03  0.47808628643E+03  0.10100000352E+00 0. -1.
</event>
<event>
 5   0  0.9822607E-03  0.6004606E+03  0.7818609E-02  0.9904451E-01
        2   -1    0    0  501    0  0.00000000000E+00  0.00000000000E+00  0.18898723836E+04  0.18898723836E+04  0.25500000920E-02 0. -1.
       -2   -1    0    0    0  501  0.00000000000E+00  0.00000000000E+00 -0.47695402767E+02  0.47695402836E+02  0.25500000920E-02 0.  1.
    10030    2    1    2    0    0  0.00000000000E+00  0.00000000000E+00  0.18421769808E+04  0.19375677864E+04  0.60046057183E+03 0.  0.
        3    1    3    3  502    0  0.16801416300E+02  0.15473177716E+03  0.92648115304E+02  0.18112949490E+03  0.10100000352E+00 0.  1.
       -3    1    3    3    0  502 -0.16801416300E+02 -0.15473177716E+03  0.17495288655E+04  0.17564382915E+04  0.10100000352E+00 0. -1.
</event>
<event>
 5   0  0.9391405E-03  0.5993574E+03  0.7818609E-02  0.9906740E-01
        2   -1    0    0  501    0  0.00000000000E+00  0.00000000000E+00  0.13228740216E+04  0.13228740217E+04  0.25500000920E-02 0.  1.
       -2   -1    0    0    0  501  0.00000000000E+00  0.00000000000E+00 -0.67888037362E+02  0.67888037410E+02  0.25500000920E-02 0. -1.
    10030    2    1    2    0    0  0.00000000000E+00  0.00000000000E+00  0.12549859843E+04  0.13907620591E+04  0.59935739269E+03 0.  0.
        2    1    3    3  502    0  0.24025438797E+03  0.10291589733E+03  0.28730403084E+03  0.38840373197E+03  0.25500000920E-02 0. -1.
       -2    1    3    3    0  502 -0.24025438797E+03 -0.10291589733E+03  0.96768195344E+03  0.10023583271E+04  0.25500000920E-02 0.  1.
</event>
<event>
 5   0  0.5819446E-03  0.6002538E+03  0.7818609E-02  0.9904880E-01
       -1   -1    0    0    0  501  0.00000000000E+00  0.00000000000E+00  0.40298612888E+03  0.40298612891E+03  0.50400001928E-02 0.  1.
        1   -1    0    0  501    0  0.00000000000E+00  0.00000000000E+00 -0.22352172506E+03  0.22352172512E+03  0.50400001928E-02 0. -1.
    10030    2    1    2    0    0  0.00000000000E+00  0.00000000000E+00  0.17946440382E+03  0.62650785403E+03  0.60025379543E+03 0.  0.
        5    1    3    3  502    0 -0.57015428428E+02 -0.26312999798E+03 -0.48601159248E+02  0.27362806434E+03  0.46999998093E+01 0.  1.
       -5    1    3    3    0  502  0.57015428428E+02  0.26312999798E+03  0.22806556307E+03  0.35287978969E+03  0.46999998093E+01 0. -1.
</event>
<event>
 5   0  0.9162342E-03  0.6049488E+03  0.7818609E-02  0.9895192E-01
       -2   -1    0    0    0  501  0.00000000000E+00  0.00000000000E+00  0.11151395378E+03  0.11151395381E+03  0.25500000920E-02 0. -1.
        2   -1    0    0  501    0  0.00000000000E+00  0.00000000000E+00 -0.82044225579E+03  0.82044225580E+03  0.25500000920E-02 0.  1.
    10030    2    1    2    0    0  0.00000000000E+00  0.00000000000E+00 -0.70892830201E+03  0.93195620961E+03  0.60494879058E+03 0.  0.
        5    1    3    3  502    0 -0.23417874131E+03 -0.10820336629E+03 -0.59766203219E+03  0.65097591820E+03  0.46999998093E+01 0.  1.
       -5    1    3    3    0  502  0.23417874131E+03  0.10820336629E+03 -0.11126626982E+03  0.28098029141E+03  0.46999998093E+01 0. -1.
</event>
<event>
 5   0  0.9822607E-03  0.6040573E+03  0.7818609E-02  0.9897024E-01
       -2   -1    0    0    0  501  0.00000000000E+00  0.00000000000E+00  0.10116870693E+03  0.10116870696E+03  0.25500000920E-02 0.  1.
        2   -1    0    0  501    0  0.00000000000E+00  0.00000000000E+00 -0.90167499315E+03  0.90167499316E+03  0.25500000920E-02 0. -1.
    10030    2    1    2    0    0  0.00000000000E+00  0.00000000000E+00 -0.80050628622E+03  0.10028437001E+04  0.60405725935E+03 0.  0.
        3    1    3    3  502    0  0.21418712517E+03  0.14902671228E+03 -0.65277625527E+03  0.70299497524E+03  0.10100000352E+00 0. -1.
       -3    1    3    3    0  502 -0.21418712517E+03 -0.14902671228E+03 -0.14773003095E+03  0.29984872488E+03  0.10100000352E+00 0.  1.
</event>
<event>
 5   0  0.5891927E-03  0.5999311E+03  0.7818609E-02  0.9905549E-01
       -1   -1    0    0    0  501  0.00000000000E+00  0.00000000000E+00  0.16886050563E+03  0.16886050571E+03  0.50400001928E-02 0. -1.
        1   -1    0    0  501    0  0.00000000000E+00  0.00000000000E+00 -0.53286197239E+03  0.53286197241E+03  0.50400001928E-02 0.  1.
    10030    2    1    2    0    0  0.00000000000E+00  0.00000000000E+00 -0.36400146675E+03  0.70172247812E+03  0.59993113646E+03 0.  0.
        4    1    3    3  502    0 -0.20988258463E+03 -0.61603263728E+02  0.58087222010E+02  0.22632145213E+03  0.12699999809E+01 0. -1.
       -4    1    3    3    0  502  0.20988258463E+03  0.61603263728E+02 -0.42208868876E+03  0.47540102599E+03  0.12699999809E+01 0.  1.
</event>
<event>
 5   0  0.9028473E-03  0.5999919E+03  0.7818609E-02  0.9905423E-01
       -2   -1    0    0    0  501  0.00000000000E+00  0.00000000000E+00  0.32098853238E+03  0.32098853239E+03  0.25500000920E-02 0.  1.
        2   -1    0    0  501    0  0.00000000000E+00  0.00000000000E+00 -0.28037630864E+03  0.28037630865E+03  0.25500000920E-02 0. -1.
    10030    2    1    2    0    0  0.00000000000E+00  0.00000000000E+00  0.40612223743E+02  0.60136484104E+03  0.59999193271E+03 0.  0.
        1    1    3    3  502    0 -0.41666028537E+02 -0.31598006602E+02  0.31638532006E+03  0.32067766172E+03  0.50400001928E-02 0.  1.
       -1    1    3    3    0  502  0.41666028537E+02  0.31598006602E+02 -0.27577309632E+03  0.28068717932E+03  0.50400001928E-02 0. -1.
</event>
<event>
 5   0  0.9391405E-03  0.5944397E+03  0.7818609E-02  0.9917010E-01
       -2   -1    0    0    0  501  0.00000000000E+00  0.00000000000E+00  0.37933456339E+03  0.37933456339E+03  0.25500000920E-02 0. -1.
        2   -1    0    0  501    0  0.00000000000E+00  0.00000000000E+00 -0.23288052372E+03  0.23288052374E+03  0.25500000920E-02 0.  1.
    10030    2    1    2    0    0  0.00000000000E+00  0.00000000000E+00  0.14645403966E+03  0.61221508713E+03  0.59443967497E+03 0.  0.
        2    1    3    3  502    0 -0.59336624601E+02 -0.29040452222E+03  0.95885121208E+02  0.31152781260E+03  0.25500000920E-02 0. -1.
       -2    1    3    3    0  502  0.59336624601E+02  0.29040452222E+03  0.50568918455E+02  0.30068727453E+03  0.25500000920E-02 0.  1.
</event>
<event>
 5   0  0.6078658E-03  0.6000383E+03  0.7818609E-02  0.9905327E-01
        1   -1    0    0  501    0  0.00000000000E+00  0.00000000000E+00  0.58418841587E+03  0.58418841590E+03  0.50400001928E-02 0. -1.
       -1   -1    0    0    0  501  0.00000000000E+00  0.00000000000E+00 -0.15407956336E+03  0.15407956344E+03  0.50400001928E-02 0.  1.
    10030    2    1    2    0    0  0.00000000000E+00  0.00000000000E+00  0.43010885252E+03  0.73826797934E+03  0.60003831903E+03 0.  0.
        2    1    3    3  502    0  0.12698886488E+03  0.98888078070E+02  0.52657446339E+03  0.55062300105E+03  0.25500000920E-02 0. -1.
       -2    1    3    3    0  502 -0.12698886488E+03 -0.98888078070E+02 -0.96465610874E+02  0.18764497828E+03  0.25500000920E-02 0.  1.
</event>
<event>
 5   0  0.9162342E-03  0.5980542E+03  0.7818609E-02  0.9909451E-01
        2   -1    0    0  501    0  0.00000000000E+00  0.00000000000E+00  0.74776550309E+03  0.74776550310E+03  0.25500000920E-02 0. -1.
       -2   -1    0    0    0  501  0.00000000000E+00  0.00000000000E+00 -0.11957921316E+03  0.11957921318E+03  0.25500000920E-02 0.  1.
    10030    2    1    2    0    0  0.00000000000E+00  0.00000000000E+00  0.62818628994E+03  0.86734471628E+03  0.59805421326E+03 0.  0.
        5    1    3    3  502    0 -0.23526695189E+03 -0.22539386250E+02  0.48503935745E+02  0.24131573584E+03  0.46999998093E+01 0.  1.
       -5    1    3    3    0  502  0.23526695189E+03  0.22539386250E+02  0.57968235419E+03  0.62602898044E+03  0.46999998093E+01 0. -1.
</event>
<event>
 5   0  0.5790967E-03  0.6143431E+03  0.7818609E-02  0.9876087E-01
       -1   -1    0    0    0  501  0.00000000000E+00  0.00000000000E+00  0.19393908375E+03  0.19393908382E+03  0.50400001928E-02 0. -1.
        1   -1    0    0  501    0  0.00000000000E+00  0.00000000000E+00 -0.48651551723E+03  0.48651551725E+03  0.50400001928E-02 0.  1.
    10030    2    1    2    0    0  0.00000000000E+00  0.00000000000E+00 -0.29257643348E+03  0.68045460107E+03  0.61434314083E+03 0.  0.
        3    1    3    3  502    0 -0.12678267848E+03  0.85899459608E+02 -0.44121673431E+03  0.46703830845E+03  0.10100000352E+00 0.  1.
       -3    1    3    3    0  502  0.12678267848E+03 -0.85899459608E+02  0.14864030083E+03  0.21341629262E+03  0.10100000352E+00 0. -1.
</event>
<event>
 5   0  0.5790967E-03  0.6003778E+03  0.7818609E-02  0.9904623E-01
       -1   -1    0    0    0  501  0.00000000000E+00  0.00000000000E+00  0.21003066306E+03  0.21003066312E+03  0.50400001928E-02 0. -1.
        1   -1    0    0  501    0  0.00000000000E+00  0.00000000000E+00 -0.42904864925E+03  0.42904864928E+03  0.50400001928E-02 0.  1.
    10030    2    1    2    0    0  0.00000000000E+00  0.00000000000E+00 -0.21901798619E+03  0.63907931240E+03  0.60037778878E+03 0.  0.
        3    1    3    3  502    0 -0.12518466469E+03 -0.26453309250E+03 -0.18063229753E+03  0.34391422537E+03  0.10100000352E+00 0.  1.
       -3    1    3    3    0  502  0.12518466469E+03  0.26453309250E+03 -0.38385688662E+02  0.29516508702E+03  0.10100000352E+00 0. -1.
</event>
<event>
 5   0  0.6078658E-03  0.5998397E+03  0.7818609E-02  0.9905739E-01
        1   -1    0    0  501    0  0.00000000000E+00  0.00000000000E+00  0.52543547849E+03  0.52543547852E+03  0.50400001928E-02 0.  1.
       -1   -1    0    0    0  501  0.00000000000E+00  0.00000000000E+00 -0.17119498370E+03  0.17119498377E+03  0.50400001928E-02 0. -1.
    10030    2    1    2    0    0  0.00000000000E+00  0.00000000000E+00  0.35424049480E+03  0.69663046229E+03  0.59983970595E+03 0.  0.
        2    1    3    3  502    0  0.21086137195E+03  0.51718746530E+02 -0.63184887498E+02  0.22611872310E+03  0.25500000920E-02 0. -1.
       -2    1    3    3    0  502 -0.21086137195E+03 -0.51718746530E+02  0.41742538230E+03  0.47051173919E+03  0.25500000920E-02 0.  1.
</event>
<event>
 5   0  0.9303190E-03  0.5993990E+03  0.7818609E-02  0.9906654E-01
       -2   -1    0    0    0  501  0.00000000000E+00  0.00000000000E+00  0.15822840219E+03  0.15822840221E+03  0.25500000920E-02 0.  1.
        2   -1    0    0  501    0  0.00000000000E+00  0.00000000000E+00 -0.56765906469E+03  0.56765906469E+03  0.25500000920E-02 0. -1.
    10030    2    1    2    0    0  0.00000000000E+00  0.00000000000E+00 -0.40943066250E+03  0.72588746691E+03  0.59939898834E+03 0.  0.
        4    1    3    3  502    0 -0.27429933043E+03  0.58902909558E+02 -0.77077042693E+02  0.29095044052E+03  0.12699999809E+01 0.  1.
       -4    1    3    3    0  502  0.27429933043E+03 -0.58902909558E+02 -0.33235361980E+03  0.43493702639E+03  0.12699999809E+01 0. -1.
</event>
<event>
 5   0  0.9391405E-03  0.5999348E+03  0.7818609E-02  0.9905541E-01
       -2   -1    0    0    0  501  0.00000000000E+00  0.00000000000E+00  0.10844693439E+03  0.10844693442E+03  0.25500000920E-02 0.  1.
        2   -1    0    0  501    0  0.00000000000E+00  0.00000000000E+00 -0.82971850195E+03  0.82971850196E+03  0.25500000920E-02 0. -1.
    10030    2    1    2    0    0  0.00000000000E+00  0.00000000000E+00 -0.72127156756E+03  0.93816543638E+03  0.59993475633E+03 0.  0.
        2    1    3    3  502    0 -0.24457285851E+03  0.77594240720E+02 -0.60361947589E+03  0.65589116551E+03  0.25500000920E-02 0.  1.
       -2    1    3    3    0  502  0.24457285851E+03 -0.77594240720E+02 -0.11765209167E+03  0.28227427087E+03  0.25500000920E-02 0. -1.
</event>
<event>
 5   0  0.9303190E-03  0.6013792E+03  0.7818609E-02  0.9902549E-01
        2   -1    0    0  501    0  0.00000000000E+00  0.00000000000E+00  0.30101676259E+03  0.30101676260E+03  0.25500000920E-02 0. -1.
       -2   -1    0    0    0  501  0.00000000000E+00  0.00000000000E+00 -0.30036275595E+03  0.30036275596E+03  0.25500000920E-02 0.  1.
    10030    2    1    2    0    0  0.00000000000E+00  0.00000000000E+00  0.65400664466E+00  0.60137951856E+03  0.60137916294E+03 0.  0.
        4    1    3    3  502    0 -0.38524396578E+02  0.27454986673E+03  0.11673520353E+03  0.30081635444E+03  0.12699999809E+01 0. -1.
       -4    1    3    3    0  502  0.38524396578E+02 -0.27454986673E+03 -0.11608119689E+03  0.30056316412E+03  0.12699999809E+01 0.  1.
</event>
<event>
 5   0  0.9028473E-03  0.5993655E+03  0.7818609E-02  0.9906723E-01
       -2   -1    0    0    0  501  0.00000000000E+00  0.00000000000E+00  0.51229720979E+02  0.51229721043E+02  0.25500000920E-02 0. -1.
        2   -1    0    0  501    0  0.00000000000E+00  0.00000000000E+00 -0.17530790245E+04  0.17530790245E+04  0.25500000920E-02 0.  1.
    10030    2    1    2    0    0  0.00000000000E+00  0.00000000000E+00 -0.17018493035E+04  0.18043087455E+04  0.59936549563E+03 0.  0.
        1    1    3    3  502    0  0.20216053442E+03 -0.64717561059E+02 -0.14877609231E+04  0.15028272717E+04  0.50400001928E-02 0.  1.
       -1    1    3    3    0  502 -0.20216053442E+03  0.64717561059E+02 -0.21408838045E+03  0.30148147382E+03  0.50400001928E-02 0. -1.
</event>
<event>
 5   0  0.9822607E-03  0.6004028E+03  0.7818609E-02  0.9904571E-01
        2   -1    0    0  501    0  0.00000000000E+00  0.00000000000E+00  0.99402326686E+03  0.99402326686E+03  0.25500000920E-02 0.  1.
       -2   -1    0    0    0  501  0.00000000000E+00  0.00000000000E+00 -0.90662737604E+02  0.90662737640E+02  0.25500000920E-02 0. -1.
    10030    2    1    2    0    0  0.00000000000E+00  0.00000000000E+00  0.90336052925E+03  0.10846860045E+04  0.60040276694E+03 0.  0.
        3    1    3    3  502    0 -0.24126840809E+03  0.39537670450E+02  0.13696299028E+03  0.28023658404E+03  0.10100000352E+00 0. -1.
       -3    1    3    3    0  502  0.24126840809E+03 -0.39537670450E+02  0.76639753898E+03  0.80444942046E+03  0.10100000352E+00 0.  1.
</event>
<event>
 5   0  0.5765045E-03  0.6046735E+03  0.7818609E-02  0.9895757E-01
        1   -1    0    0  501    0  0.00000000000E+00  0.00000000000E+00  0.67334411758E+03  0.67334411760E+03  0.50400001928E-02 0. -1.
       -1   -1    0    0    0  501  0.00000000000E+00  0.00000000000E+00 -0.13575154600E+03  0.13575154609E+03  0.50400001928E-02 0.  1.
    10030    2    1    2    0    0  0.00000000000E+00  0.00000000000E+00  0.53759257158E+03  0.80909566369E+03  0.60467348212E+03 0.  0.
        1    1    3    3  502    0  0.67328574440E+02  0.29296640713E+03  0.31205244641E+03  0.43328879743E+03  0.50400001928E-02 0.  1.
       -1    1    3    3    0  502 -0.67328574440E+02 -0.29296640713E+03  0.22554012518E+03  0.37580686626E+03  0.50400001928E-02 0. -1.
</event>
<event>
 5   0  0.9391405E-03  0.5998208E+03  0.7818609E-02  0.9905778E-01
        2   -1    0    0  501    0  0.00000000000E+00  0.00000000000E+00  0.10799871080E+04  0.10799871080E+04  0.25500000920E-02 0. -1.
       -2   -1    0    0    0  501  0.00000000000E+00  0.00000000000E+00 -0.83284556136E+02  0.83284556175E+02  0.25500000920E-02 0.  1.
    10030    2    1    2    0    0  0.00000000000E+00  0.00000000000E+00  0.99670255190E+03  0.11632716642E+04  0.59982079640E+03 0.  0.
        2    1    3    3  502    0 -0.12048101086E+03  0.19974081745E+03  0.86393156506E+03  0.89486860334E+03  0.25500000920E-02 0. -1.
       -2    1    3    3    0  502  0.12048101086E+03 -0.19974081745E+03  0.13277098684E+03  0.26840306087E+03  0.25500000920E-02 0.  1.
</event>
<event>
 5   0  0.6078658E-03  0.6040028E+03  0.7818609E-02  0.9897136E-01
       -1   -1    0    0    0  501  0.00000000000E+00  0.00000000000E+00  0.29464622408E+03  0.29464622412E+03  0.50400001928E-02 0.  1.
        1   -1    0    0  501    0  0.00000000000E+00  0.00000000000E+00 -0.30954013787E+03  0.30954013792E+03  0.50400001928E-02 0. -1.
    10030    2    1    2    0    0  0.00000000000E+00  0.00000000000E+00 -0.14893913793E+02  0.60418636204E+03  0.60400275778E+03 0.  0.
        2    1    3    3  502    0  0.11354765910E+03  0.17980844836E+03 -0.22194320965E+03  0.30738076925E+03  0.25500000920E-02 0. -1.
       -2    1    3    3    0  502 -0.11354765910E+03 -0.17980844836E+03  0.20704929586E+03  0.29680559279E+03  0.25500000920E-02 0.  1.
</event>
<event>
 5   0  0.9391405E-03  0.5957641E+03  0.7818609E-02  0.9914233E-01
        2   -1    0    0  501    0  0.00000000000E+00  0.00000000000E+00  0.54861519394E+03  0.54861519394E+03  0.25500000920E-02 0.  1.
       -2   -1    0    0    0  501  0.00000000000E+00  0.00000000000E+00 -0.16174125719E+03  0.16174125721E+03  0.25500000920E-02 0. -1.
    10030    2    1    2    0    0  0.00000000000E+00  0.00000000000E+00  0.38687393674E+03  0.71035645116E+03  0.59576408483E+03 0.  0.
        2    1    3    3  502    0  0.11134815254E+03  0.26759365368E+03  0.11144265050E+03  0.31052252562E+03  0.25500000920E-02 0.  1.
       -2    1    3    3    0  502 -0.11134815254E+03 -0.26759365368E+03  0.27543128624E+03  0.39983392553E+03  0.25500000920E-02 0. -1.
</event>
<event>
 5   0  0.9303190E-03  0.5993447E+03  0.7818609E-02  0.9906767E-01
       -2   -1    0    0    0  501  0.00000000000E+00  0.00000000000E+00  0.16318876531E+03  0.16318876533E+03  0.25500000920E-02 0. -1.
        2   -1    0    0  501    0  0.00000000000E+00  0.00000000000E+00 -0.55030449990E+03  0.55030449990E+03  0.25500000920E-02 0.  1.
    10030    2    1    2    0    0  0.00000000000E+00  0.00000000000E+00 -0.38711573459E+03  0.71349326523E+03  0.59934468176E+03 0.  0.
        4    1    3    3  502    0  0.25445149386E+03  0.10584202029E+03 -0.33367709212E+03  0.43277027473E+03  0.12699999809E+01 0.  1.
       -4    1    3    3    0  502 -0.25445149386E+03 -0.10584202029E+03 -0.53438642470E+02  0.28072299050E+03  0.12699999809E+01 0. -1.
</event>
<event>
 5   0  0.5891927E-03  0.5995991E+03  0.7818609E-02  0.9906238E-01
       -1   -1    0    0    0  501  0.00000000000E+00  0.00000000000E+00  0.17982842168E+03  0.17982842175E+03  0.50400001928E-02 0. -1.
        1   -1    0    0  501    0  0.00000000000E+00  0.00000000000E+00 -0.49980843775E+03  0.49980843777E+03  0.50400001928E-02 0.  1.
    10030    2    1    2    0    0  0.00000000000E+00  0.00000000000E+00 -0.31998001607E+03  0.67963685953E+03  0.59959907450E+03 0.  0.
        4    1    3    3  502    0 -0.15783681065E+03 -0.73421389044E+02 -0.43665102013E+03  0.47007327668E+03  0.12699999809E+01 0.  1.
       -4    1    3    3    0  502  0.15783681065E+03  0.73421389044E+02  0.11667100406E+03  0.20956358285E+03  0.12699999809E+01 0. -1.
</event>
<event>
 5   0  0.5790967E-03  0.6003728E+03  0.7818609E-02  0.9904633E-01
        1   -1    0    0  501    0  0.00000000000E+00  0.00000000000E+00  0.44536966454E+03  0.44536966457E+03  0.50400001928E-02 0. -1.
       -1   -1    0    0    0  501  0.00000000000E+00  0.00000000000E+00 -0.20233053769E+03  0.20233053775E+03  0.50400001928E-02 0.  1.
    10030    2    1    2    0    0  0.00000000000E+00  0.00000000000E+00  0.24303912685E+03  0.64770020232E+03  0.60037282992E+03 0.  0.
        3    1    3    3  502    0 -0.64992076864E+02 -0.27829029431E+03  0.22393840935E+02  0.28665476147E+03  0.10100000352E+00 0.  1.
       -3    1    3    3    0  502  0.64992076864E+02  0.27829029431E+03  0.22064528592E+03  0.36104544085E+03  0.10100000352E+00 0. -1.
</event>
<event>
 5   0  0.9822607E-03  0.6093092E+03  0.7818609E-02  0.9886278E-01
        2   -1    0    0  501    0  0.00000000000E+00  0.00000000000E+00  0.16755061792E+03  0.16755061794E+03  0.25500000920E-02 0.  1.
       -2   -1    0    0    0  501  0.00000000000E+00  0.00000000000E+00 -0.55394853419E+03  0.55394853420E+03  0.25500000920E-02 0. -1.
    10030    2    1    2    0    0  0.00000000000E+00  0.00000000000E+00 -0.38639791627E+03  0.72149915214E+03  0.60930918001E+03 0.  0.
        3    1    3    3  502    0  0.24312493382E+03  0.58646925993E+02  0.12802348781E+02  0.25042584872E+03  0.10100000352E+00 0.  1.
       -3    1    3    3    0  502 -0.24312493382E+03 -0.58646925993E+02 -0.39920026505E+03  0.47107330342E+03  0.10100000352E+00 0. -1.
</event>
<event>
 5   0  0.5819446E-03  0.5979131E+03  0.7818609E-02  0.9909745E-01
       -1   -1    0    0    0  501  0.00000000000E+00  0.00000000000E+00  0.11614067902E+03  0.11614067913E+03  0.50400001928E-02 0. -1.
        1   -1    0    0  501    0  0.00000000000E+00  0.00000000000E+00 -0.76954096036E+03  0.76954096038E+03  0.50400001928E-02 0.  1.
    10030    2    1    2    0    0  0.00000000000E+00  0.00000000000E+00 -0.65340028134E+03  0.88568163951E+03  0.59791306969E+03 0.  0.
        5    1    3    3  502    0  0.26869839116E+03  0.12542104531E+03 -0.27080911465E+03  0.40160793144E+03  0.46999998093E+01 0. -1.
       -5    1    3    3    0  502 -0.26869839116E+03 -0.12542104531E+03 -0.38259116669E+03  0.48407370807E+03  0.46999998093E+01 0.  1.
</event>
<event>
 5   0  0.5891927E-03  0.6010819E+03  0.7818609E-02  0.9903164E-01
        1   -1    0    0  501    0  0.00000000000E+00  0.00000000000E+00  0.25643587264E+03  0.25643587269E+03  0.50400001928E-02 0. -1.
       -1   -1    0    0    0  501  0.00000000000E+00  0.00000000000E+00 -0.35223182308E+03  0.35223182312E+03  0.50400001928E-02 0.  1.
    10030    2    1    2    0    0  0.00000000000E+00  0.00000000000E+00 -0.95795950445E+02  0.60866769580E+03  0.60108194100E+03 0.  0.
        4    1    3    3  502    0 -0.54848810093E+02  0.16555560887E+03  0.19994835713E+03  0.26532623318E+03  0.12699999809E+01 0. -1.
       -4    1    3    3    0  502  0.54848810093E+02 -0.16555560887E+03 -0.29574430757E+03  0.34334146262E+03  0.12699999809E+01 0.  1.
</event>
<event>
 5   0  0.9303190E-03  0.6002302E+03  0.7818609E-02  0.9904929E-01
       -2   -1    0    0    0  501  0.00000000000E+00  0.00000000000E+00  0.11634260559E+03  0.11634260562E+03  0.25500000920E-02 0.  1.
        2   -1    0    0  501    0  0.00000000000E+00  0.00000000000E+00 -0.77417089563E+03  0.77417089563E+03  0.25500000920E-02 0. -1.
    10030    2    1    2    0    0  0.00000000000E+00  0.00000000000E+00 -0.65782829004E+03  0.89051350125E+03  0.60023015313E+03 0.  0.
        4    1    3    3  502    0 -0.55900479679E+02  0.14089963986E+03 -0.71319715877E+03  0.72912918768E+03  0.12699999809E+01 0. -1.
       -4    1    3    3    0  502  0.55900479679E+02 -0.14089963986E+03  0.55368868733E+02  0.16138431357E+03  0.12699999809E+01 0.  1.
</event>
<event>
 5   0  0.9028473E-03  0.5999127E+03  0.7818609E-02  0.9905587E-01
       -2   -1    0    0    0  501  0.00000000000E+00  0.00000000000E+00  0.11656454720E+03  0.11656454723E+03  0.25500000920E-02 0. -1.
        2   -1    0    0  501    0  0.00000000000E+00  0.00000000000E+00 -0.77187966409E+03  0.77187966410E+03  0.25500000920E-02 0.  1.
    10030    2    1    2    0    0  0.00000000000E+00  0.00000000000E+00 -0.65531511689E+03  0.88844421133E+03  0.59991267215E+03 0.  0.
        1    1    3    3  502    0 -0.35906001515E+02 -0.29728503397E+03 -0.35357095039E+03  0.46333578467E+03  0.50400001928E-02 0.  1.
       -1    1    3    3    0  502  0.35906001515E+02  0.29728503397E+03 -0.30174416650E+03  0.42510842666E+03  0.50400001928E-02 0. -1.
</event>
<event>
 5   0  0.6078658E-03  0.6007997E+03  0.7818609E-02  0.9903748E-01
        1   -1    0    0  501    0  0.00000000000E+00  0.00000000000E+00  0.69443417878E+03  0.69443417880E+03  0.50400001928E-02 0. -1.
       -1   -1    0    0    0  501  0.00000000000E+00  0.00000000000E+00 -0.12994762243E+03  0.12994762253E+03  0.50400001928E-02 0.  1.
    10030    2    1    2    0    0  0.00000000000E+00  0.00000000000E+00  0.56448655635E+03  0.82438180133E+03  0.60079970211E+03 0.  0.
        2    1    3    3  502    0 -0.93799982767E+01 -0.11354533155E+03 -0.99151512623E+02  0.15103492691E+03  0.25500000920E-02 0.  1.
       -2    1    3    3    0  502  0.93799982767E+01  0.11354533155E+03  0.66363806898E+03  0.67334687442E+03  0.25500000920E-02 0. -1.
</event>
<event>
 5   0  0.9391405E-03  0.5999218E+03  0.7818609E-02  0.9905568E-01
       -2   -1    0    0    0  501  0.00000000000E+00  0.00000000000E+00  0.32029347457E+03  0.32029347458E+03  0.25500000920E-02 0.  1.
        2   -1    0    0  501    0  0.00000000000E+00  0.00000000000E+00 -0.28091902714E+03  0.28091902715E+03  0.25500000920E-02 0. -1.
    10030    2    1    2    0    0  0.00000000000E+00  0.00000000000E+00  0.39374447431E+02  0.60121250173E+03  0.59992176583E+03 0.  0.
        2    1    3    3  502    0 -0.24013542261E+02 -0.29640681138E+03 -0.19676838813E+02  0.29802823027E+03  0.25500000920E-02 0. -1.
       -2    1    3    3    0  502  0.24013542261E+02  0.29640681138E+03  0.59051286244E+02  0.30318427146E+03  0.25500000920E-02 0.  1.
</event>
<event>
 5   0  0.3806250E-03  0.5999498E+03  0.7818609E-02  0.9905510E-01
        3   -1    0    0  501    0  0.00000000000E+00  0.00000000000E+00  0.52736091176E+03  0.52736092143E+03  0.10100000352E+00 0.  1.
       -3   -1    0    0    0  501  0.00000000000E+00  0.00000000000E+00 -0.17063252890E+03  0.17063255879E+03  0.10100000352E+00 0. -1.
    10030    2    1    2    0    0  0.00000000000E+00  0.00000000000E+00  0.35672838286E+03  0.69799348023E+03  0.59994979732E+03 0.  0.
        4    1    3    3  502    0 -0.45030354207E+02 -0.29647584014E+03  0.18719931657E+03  0.35351216897E+03  0.12699999809E+01 0.  1.
       -4    1    3    3    0  502  0.45030354207E+02  0.29647584014E+03  0.16952906629E+03  0.34448131125E+03  0.12699999809E+01 0. -1.
</event>
<event>
 5   0  0.9028473E-03  0.5993474E+03  0.7818609E-02  0.9906761E-01
        2   -1    0    0  501    0  0.00000000000E+00  0.00000000000E+00  0.61716178056E+03  0.61716178056E+03  0.25500000920E-02 0. -1.
       -2   -1    0    0    0  501  0.00000000000E+00  0.00000000000E+00 -0.14551180419E+03  0.14551180421E+03  0.25500000920E-02 0.  1.
    10030    2    1    2    0    0  0.00000000000E+00  0.00000000000E+00  0.47164997637E+03  0.76267358477E+03  0.59934739234E+03 0.  0.
        1    1    3    3  502    0 -0.28134420007E+03 -0.87143920233E+02  0.30616713401E+03  0.42483754038E+03  0.50400001928E-02 0.  1.
       -1    1    3    3    0  502  0.28134420007E+03  0.87143920233E+02  0.16548284237E+03  0.33783604439E+03  0.50400001928E-02 0. -1.
</event>
<event>
 5   0  0.9822607E-03  0.6011340E+03  0.7818609E-02  0.9903056E-01
        2   -1    0    0  501    0  0.00000000000E+00  0.00000000000E+00  0.20287732229E+04  0.20287732229E+04  0.25500000920E-02 0. -1.
       -2   -1    0    0    0  501  0.00000000000E+00  0.00000000000E+00 -0.44529630633E+02  0.44529630706E+02  0.25500000920E-02 0.  1.
    10030    2    1    2    0    0  0.00000000000E+00  0.00000000000E+00  0.19842435923E+04  0.20733028536E+04  0.60113400281E+03 0.  0.
        3    1    3    3  502    0  0.23351177683E+03  0.14572759629E+03  0.57571859858E+03  0.63813493650E+03  0.10100000352E+00 0.  1.
       -3    1    3    3    0  502 -0.23351177683E+03 -0.14572759629E+03  0.14085249937E+04  0.14351679171E+04  0.10100000352E+00 0. -1.
</event>
<event>
 5   0  0.9391405E-03  0.5990915E+03  0.7818609E-02  0.9907293E-01
        2   -1    0    0  501    0  0.00000000000E+00  0.00000000000E+00  0.56843533219E+03  0.56843533219E+03  0.25500000920E-02 0.  1.
       -2   -1    0    0    0  501  0.00000000000E+00  0.00000000000E+00 -0.15785024165E+03  0.15785024167E+03  0.25500000920E-02 0. -1.
    10030    2    1    2    0    0  0.00000000000E+00  0.00000000000E+00  0.41058509053E+03  0.72628557387E+03  0.59909149405E+03 0.  0.
        2    1    3    3  502    0  0.84700464906E+02 -0.13887252644E+02  0.55320829922E+03  0.55982715803E+03  0.25500000920E-02 0.  1.
       -2    1    3    3    0  502 -0.84700464906E+02  0.13887252644E+02 -0.14262320868E+03  0.16645841584E+03  0.25500000920E-02 0. -1.
</event>
<event>
 5   0  0.5819446E-03  0.6003403E+03  0.7818609E-02  0.9904700E-01
       -1   -1    0    0    0  501  0.00000000000E+00  0.00000000000E+00  0.11762989286E+03  0.11762989297E+03  0.50400001928E-02 0.  1.
        1   -1    0    0  501    0  0.00000000000E+00  0.00000000000E+00 -0.76597968321E+03  0.76597968323E+03  0.50400001928E-02 0. -1.
    10030    2    1    2    0    0  0.00000000000E+00  0.00000000000E+00 -0.64834979035E+03  0.88360957620E+03  0.60034026394E+03 0.  0.
        5    1    3    3  502    0 -0.20812957513E+03 -0.15875055058E+03 -0.10805688813E+03  0.28322789132E+03  0.46999998093E+01 0.  1.
       -5    1    3    3    0  502  0.20812957513E+03  0.15875055058E+03 -0.54029290221E+03  0.60038168487E+03  0.46999998093E+01 0. -1.
</event>
<event>
 5   0  0.9303190E-03  0.6019235E+03  0.7818609E-02  0.9901423E-01
       -2   -1    0    0    0  501  0.00000000000E+00  0.00000000000E+00  0.25044406875E+03  0.25044406877E+03  0.25500000920E-02 0. -1.
        2   -1    0    0  501    0  0.00000000000E+00  0.00000000000E+00 -0.36166946806E+03  0.36166946807E+03  0.25500000920E-02 0.  1.
    10030    2    1    2    0    0  0.00000000000E+00  0.00000000000E+00 -0.11122539931E+03  0.61211353684E+03  0.60192349392E+03 0.  0.
        4    1    3    3  502    0  0.28139745063E+03 -0.89631845714E+02 -0.11454167869E+03  0.31676458458E+03  0.12699999809E+01 0.  1.
       -4    1    3    3    0  502 -0.28139745063E+03  0.89631845714E+02  0.33162793769E+01  0.29534895225E+03  0.12699999809E+01 0. -1.
</event>
<event>
 5   0  0.5790967E-03  0.6050186E+03  0.7818609E-02  0.9895048E-01
       -1   -1    0    0    0  501  0.00000000000E+00  0.00000000000E+00  0.31231282257E+03  0.31231282261E+03  0.50400001928E-02 0.  1.
        1   -1    0    0  501    0  0.00000000000E+00  0.00000000000E+00 -0.29301350443E+03  0.29301350448E+03  0.50400001928E-02 0. -1.
    10030    2    1    2    0    0  0.00000000000E+00  0.00000000000E+00  0.19299318139E+02  0.60532632709E+03  0.60501859359E+03 0.  0.
        3    1    3    3  502    0  0.59163895449E+02  0.41275577490E+02  0.30358102057E+03  0.31203443091E+03  0.10100000352E+00 0.  1.
       -3    1    3    3    0  502 -0.59163895449E+02 -0.41275577490E+02 -0.28428170243E+03  0.29329189617E+03  0.10100000352E+00 0. -1.
</event>
<event>
 5   0  0.5765045E-03  0.6008175E+03  0.7818609E-02  0.9903711E-01
        1   -1    0    0  501    0  0.00000000000E+00  0.00000000000E+00  0.31727273764E+03  0.31727273768E+03  0.50400001928E-02 0.  1.
       -1   -1    0    0    0  501  0.00000000000E+00  0.00000000000E+00 -0.28444112681E+03  0.28444112685E+03  0.50400001928E-02 0. -1.
    10030    2    1    2    0    0  0.00000000000E+00  0.00000000000E+00  0.32831610838E+02  0.60171386454E+03  0.60081749317E+03 0.  0.
        1    1    3    3  502    0  0.14578743094E+03 -0.25810285969E+03  0.65215844069E+02  0.30351963288E+03  0.50400001928E-02 0.  1.
       -1    1    3    3    0  502 -0.14578743094E+03  0.25810285969E+03 -0.32384233231E+02  0.29819423165E+03  0.50400001928E-02 0. -1.
</event>
<event>
 5   0  0.9822607E-03  0.6001736E+03  0.7818609E-02  0.9905046E-01
       -2   -1    0    0    0  501  0.00000000000E+00  0.00000000000E+00  0.34142199882E+03  0.34142199883E+03  0.25500000920E-02 0.  1.
        2   -1    0    0  501    0  0.00000000000E+00  0.00000000000E+00 -0.26375598662E+03  0.26375598663E+03  0.25500000920E-02 0. -1.
    10030    2    1    2    0    0  0.00000000000E+00  0.00000000000E+00  0.77666012206E+02  0.60517798546E+03  0.60017362874E+03 0.  0.
        3    1    3    3  502    0  0.56167618929E+02  0.25707718872E+03 -0.10662166772E+03  0.28392194809E+03  0.10100000352E+00 0. -1.
       -3    1    3    3    0  502 -0.56167618929E+02 -0.25707718872E+03  0.18428767993E+03  0.32125603738E+03  0.10100000352E+00 0.  1.
</event>
<event>
 5   0  0.5819446E-03  0.6015881E+03  0.7818609E-02  0.9902117E-01
        1   -1    0    0  501    0  0.00000000000E+00  0.00000000000E+00  0.68629366867E+03  0.68629366869E+03  0.50400001928E-02 0. -1.
       -1   -1    0    0    0  501  0.00000000000E+00  0.00000000000E+00 -0.13183430061E+03  0.13183430070E+03  0.50400001928E-02 0.  1.
    10030    2    1    2    0    0  0.00000000000E+00  0.00000000000E+00  0.55445936806E+03  0.81812796939E+03  0.60158805131E+03 0.  0.
        5    1    3    3  502    0  0.99732030643E+02 -0.68107098130E+02 -0.97360849108E+02  0.15519755053E+03  0.46999998093E+01 0.  1.
       -5    1    3    3    0  502 -0.99732030643E+02  0.68107098130E+02  0.65182021717E+03  0.66293041887E+03  0.46999998093E+01 0. -1.
</event>
<event>
 5   0  0.5790967E-03  0.6043775E+03  0.7818609E-02  0.9896366E-01
       -1   -1    0    0    0  501  0.00000000000E+00  0.00000000000E+00  0.35126237237E+03  0.35126237240E+03  0.50400001928E-02 0. -1.
        1   -1    0    0  501    0  0.00000000000E+00  0.00000000000E+00 -0.25997100792E+03  0.25997100797E+03  0.50400001928E-02 0.  1.
    10030    2    1    2    0    0  0.00000000000E+00  0.00000000000E+00  0.91291364448E+02  0.61123338037E+03  0.60437747481E+03 0.  0.
        3    1    3    3  502    0 -0.17192632493E+03  0.78425745991E+02 -0.19284445031E+03  0.26999676120E+03  0.10100000352E+00 0.  1.
       -3    1    3    3    0  502  0.17192632493E+03 -0.78425745991E+02  0.28413581476E+03  0.34123661918E+03  0.10100000352E+00 0. -1.
</event>
<event>
 5   0  0.5891927E-03  0.6011403E+03  0.7818609E-02  0.9903043E-01
       -1   -1    0    0    0  501  0.00000000000E+00  0.00000000000E+00  0.49873191804E+03  0.49873191807E+03  0.50400001928E-02 0. -1.
        1   -1    0    0  501    0  0.00000000000E+00  0.00000000000E+00 -0.18114424416E+03  0.18114424423E+03  0.50400001928E-02 0.  1.
    10030    2    1    2    0    0  0.00000000000E+00  0.00000000000E+00  0.31758767388E+03  0.67987616230E+03  0.60114030430E+03 0.  0.
        4    1    3    3  502    0  0.13018354150E+03 -0.59959740994E+02 -0.14000236896E+03  0.20036267425E+03  0.12699999809E+01 0.  1.
       -4    1    3    3    0  502 -0.13018354150E+03  0.59959740994E+02  0.45759004284E+03  0.47951348805E+03  0.12699999809E+01 0. -1.
</event>
<event>
 5   0  0.5819446E-03  0.6003921E+03  0.7818609E-02  0.9904593E-01
       -1   -1    0    0    0  501  0.00000000000E+00  0.00000000000E+00  0.48759773306E+03  0.48759773308E+03  0.50400001928E-02 0. -1.
        1   -1    0    0  501    0  0.00000000000E+00  0.00000000000E+00 -0.18481972420E+03  0.18481972427E+03  0.50400001928E-02 0.  1.
    10030    2    1    2    0    0  0.00000000000E+00  0.00000000000E+00  0.30277800886E+03  0.67241745735E+03  0.60039213378E+03 0.  0.
        5    1    3    3  502    0  0.29390232483E+02 -0.22673218694E+03  0.36920488532E+03  0.43428747127E+03  0.46999998093E+01 0. -1.
       -5    1    3    3    0  502 -0.29390232483E+02  0.22673218694E+03 -0.66426876465E+02  0.23812998609E+03  0.46999998093E+01 0.  1.
</event>
<event>
 5   0  0.5891927E-03  0.5993739E+03  0.7818609E-02  0.9906706E-01
       -1   -1    0    0    0  501  0.00000000000E+00  0.00000000000E+00  0.14038544260E+03  0.14038544269E+03  0.50400001928E-02 0. -1.
        1   -1    0    0  501    0  0.00000000000E+00  0.00000000000E+00 -0.63975491962E+03  0.63975491964E+03  0.50400001928E-02 0.  1.
    10030    2    1    2    0    0  0.00000000000E+00  0.00000000000E+00 -0.49936947703E+03  0.78014036233E+03  0.59937393199E+03 0.  0.
        4    1    3    3  502    0  0.38688781535E+02 -0.13160281014E+03 -0.59649136077E+03  0.61206182516E+03  0.12699999809E+01 0.  1.
       -4    1    3    3    0  502 -0.38688781535E+02  0.13160281014E+03  0.97121883740E+02  0.16807853716E+03  0.12699999809E+01 0. -1.
</event>
<event>
 5   0  0.9028473E-03  0.6011906E+03  0.7818609E-02  0.9902939E-01
        2   -1    0    0  501    0  0.00000000000E+00  0.00000000000E+00  0.72719420996E+03  0.72719420996E+03  0.25500000920E-02 0. -1.
       -2   -1    0    0    0  501  0.00000000000E+00  0.00000000000E+00 -0.12425502132E+03  0.12425502135E+03  0.25500000920E-02 0.  1.
    10030    2    1    2    0    0  0.00000000000E+00  0.00000000000E+00  0.60293918864E+03  0.85144923131E+03  0.60119059233E+03 0.  0.
        1    1    3    3  502    0  0.15855432993E+03 -0.24485974791E+03  0.19873608717E+03  0.35297564230E+03  0.50400001928E-02 0.  1.
       -1    1    3    3    0  502 -0.15855432993E+03  0.24485974791E+03  0.40420310147E+03  0.49847358902E+03  0.50400001928E-02 0. -1.
</event>
<event>
 5   0  0.5891927E-03  0.5981159E+03  0.7818609E-02  0.9909323E-01
       -1   -1    0    0    0  501  0.00000000000E+00  0.00000000000E+00  0.36860010029E+03  0.36860010033E+03  0.50400001928E-02 0.  1.
        1   -1    0    0  501    0  0.00000000000E+00  0.00000000000E+00 -0.24263600137E+03  0.24263600142E+03  0.50400001928E-02 0. -1.
    10030    2    1    2    0    0  0.00000000000E+00  0.00000000000E+00  0.12596409892E+03  0.61123610175E+03  0.59811589000E+03 0.  0.
        4    1    3    3  502    0  0.20329160321E+03 -0.20853019284E+03  0.13245658861E+03  0.31993542790E+03  0.12699999809E+01 0.  1.
       -4    1    3    3    0  502 -0.20329160321E+03  0.20853019284E+03 -0.64924896935E+01  0.29130067385E+03  0.12699999809E+01 0. -1.
</event>
<event>
 5   0  0.9822607E-03  0.5987359E+03  0.7818609E-02  0.9908032E-01
        2   -1    0    0  501    0  0.00000000000E+00  0.00000000000E+00  0.85527717747E+03  0.85527717748E+03  0.25500000920E-02 0. -1.
       -2   -1    0    0    0  501  0.00000000000E+00  0.00000000000E+00 -0.10478611210E+03  0.10478611213E+03  0.25500000920E-02 0.  1.
    10030    2    1    2    0    0  0.00000000000E+00  0.00000000000E+00  0.75049106537E+03  0.96006328961E+03  0.59873590243E+03 0.  0.
        3    1    3    3  502    0 -0.21036038451E+03  0.53793940672E+02  0.44772703507E+02  0.22169773252E+03  0.10100000352E+00 0.  1.
       -3    1    3    3    0  502  0.21036038451E+03 -0.53793940672E+02  0.70571836186E+03  0.73836555709E+03  0.10100000352E+00 0. -1.
</event>
<event>
 5   0  0.9303190E-03  0.6001726E+03  0.7818609E-02  0.9905048E-01
        2   -1    0    0  501    0  0.00000000000E+00  0.00000000000E+00  0.31902032583E+03  0.31902032584E+03  0.25500000920E-02 0.  1.
       -2   -1    0    0    0  501  0.00000000000E+00  0.00000000000E+00 -0.28227597763E+03  0.28227597764E+03  0.25500000920E-02 0. -1.
    10030    2    1    2    0    0  0.00000000000E+00  0.00000000000E+00  0.36744348201E+02  0.60129630349E+03  0.60017255640E+03 0.  0.
        4    1    3    3  502    0 -0.14357781338E+03  0.99677341131E+02 -0.22601076650E+03  0.28571426339E+03  0.12699999809E+01 0. -1.
       -4    1    3    3    0  502  0.14357781338E+03 -0.99677341131E+02  0.26275511470E+03  0.31558204010E+03  0.12699999809E+01 0.  1.
</event>
<event>
 5   0  0.5891927E-03  0.5992663E+03  0.7818609E-02  0.9906929E-01
       -1   -1    0    0    0  501  0.00000000000E+00  0.00000000000E+00  0.60885649429E+03  0.60885649431E+03  0.50400001928E-02 0. -1.
        1   -1    0    0  501    0  0.00000000000E+00  0.00000000000E+00 -0.14745679140E+03  0.14745679149E+03  0.50400001928E-02 0.  1.
    10030    2    1    2    0    0  0.00000000000E+00  0.00000000000E+00  0.46139970289E+03  0.75631328581E+03  0.59926630179E+03 0.  0.
        4    1    3    3  502    0  0.77317292385E+02 -0.12431207967E+03 -0.99245078349E+02  0.17686903440E+03  0.12699999809E+01 0.  1.
       -4    1    3    3    0  502 -0.77317292385E+02  0.12431207967E+03  0.56064478124E+03  0.57944425140E+03  0.12699999809E+01 0. -1.
</event>
<event>
 5   0  0.5765045E-03  0.5892247E+03  0.7818609E-02  0.9928017E-01
        1   -1    0    0  501    0  0.00000000000E+00  0.00000000000E+00  0.39516684758E+03  0.39516684761E+03  0.50400001928E-02 0. -1.
       -1   -1    0    0    0  501  0.00000000000E+00  0.00000000000E+00 -0.21964501453E+03  0.21964501459E+03  0.50400001928E-02 0.  1.
    10030    2    1    2    0    0  0.00000000000E+00  0.00000000000E+00  0.17552183305E+03  0.61481186220E+03  0.58922467024E+03 0.  0.
        1    1    3    3  502    0  0.20047405338E+03  0.21350557768E+03  0.54404746156E+02  0.29788312172E+03  0.50400001928E-02 0. -1.
       -1    1    3    3    0  502 -0.20047405338E+03 -0.21350557768E+03  0.12111708689E+03  0.31692874048E+03  0.50400001928E-02 0.  1.
</event>
<event>
 5   0  0.9391405E-03  0.5984940E+03  0.7818609E-02  0.9908535E-01
        2   -1    0    0  501    0  0.00000000000E+00  0.00000000000E+00  0.52531324895E+03  0.52531324895E+03  0.25500000920E-02 0. -1.
       -2   -1    0    0    0  501  0.00000000000E+00  0.00000000000E+00 -0.17046737770E+03  0.17046737772E+03  0.25500000920E-02 0.  1.
    10030    2    1    2    0    0  0.00000000000E+00  0.00000000000E+00  0.35484587125E+03  0.69578062667E+03  0.59849401677E+03 0.  0.
        2    1    3    3  502    0 -0.92074195810E+02 -0.23471879673E+03  0.36480026937E+03  0.44345214805E+03  0.25500000920E-02 0. -1.
       -2    1    3    3    0  502  0.92074195810E+02  0.23471879673E+03 -0.99543981189E+01  0.25232847862E+03  0.25500000920E-02 0.  1.
</event>
<event>
 5   0  0.9822607E-03  0.5997625E+03  0.7818609E-02  0.9905899E-01
       -2   -1    0    0    0  501  0.00000000000E+00  0.00000000000E+00  0.24187230342E+03  0.24187230344E+03  0.25500000920E-02 0.  1.
        2   -1    0    0  501    0  0.00000000000E+00  0.00000000000E+00 -0.37180269525E+03  0.37180269526E+03  0.25500000920E-02 0. -1.
    10030    2    1    2    0    0  0.00000000000E+00  0.00000000000E+00 -0.12993039183E+03  0.61367499870E+03  0.59976253410E+03 0.  0.
        3    1    3    3  502    0 -0.55246952313E+02 -0.22839215038E+03 -0.25560285652E+03  0.34720027442E+03  0.10100000352E+00 0. -1.
       -3    1    3    3    0  502  0.55246952313E+02  0.22839215038E+03  0.12567246469E+03  0.26647472428E+03  0.10100000352E+00 0.  1.
</event>
<event>
 5   0  0.5891927E-03  0.6003880E+03  0.7818609E-02  0.9904601E-01
       -1   -1    0    0    0  501  0.00000000000E+00  0.00000000000E+00  0.80839258541E+02  0.80839258699E+02  0.50400001928E-02 0.  1.
        1   -1    0    0  501    0  0.00000000000E+00  0.00000000000E+00 -0.11147606729E+04  0.11147606729E+04  0.50400001928E-02 0. -1.
    10030    2    1    2    0    0  0.00000000000E+00  0.00000000000E+00 -0.10339214144E+04  0.11955999316E+04  0.60038796240E+03 0.  0.
        4    1    3    3  502    0  0.19548226726E+03 -0.49315068004E+02 -0.95987812225E+03  0.98082257072E+03  0.12699999809E+01 0. -1.
       -4    1    3    3    0  502 -0.19548226726E+03  0.49315068004E+02 -0.74043292101E+02  0.21477736089E+03  0.12699999809E+01 0.  1.
</event>
<event>
 5   0  0.6078658E-03  0.5992599E+03  0.7818609E-02  0.9906943E-01
       -1   -1    0    0    0  501  0.00000000000E+00  0.00000000000E+00  0.73099024831E+02  0.73099025004E+02  0.50400001928E-02 0. -1.
        1   -1    0    0  501    0  0.00000000000E+00  0.00000000000E+00 -0.12281712371E+04  0.12281712371E+04  0.50400001928E-02 0.  1.
    10030    2    1    2    0    0  0.00000000000E+00  0.00000000000E+00 -0.11550722123E+04  0.13012702621E+04  0.59925994319E+03 0.  0.
        2    1    3    3  502    0  0.97212565066E+02  0.16271177780E+03 -0.73622534029E+02  0.20333637885E+03  0.25500000920E-02 0. -1.
       -2    1    3    3    0  502 -0.97212565066E+02 -0.16271177780E+03 -0.10814496783E+04  0.10979338833E+04  0.25500000920E-02 0.  1.
</event>
<event>
 5   0  0.5765045E-03  0.6002282E+03  0.7818609E-02  0.9904933E-01
        1   -1    0    0  501    0  0.00000000000E+00  0.00000000000E+00  0.36523373051E+03  0.36523373055E+03  0.50400001928E-02 0.  1.
       -1   -1    0    0    0  501  0.00000000000E+00  0.00000000000E+00 -0.24660504039E+03  0.24660504044E+03  0.50400001928E-02 0. -1.
    10030    2    1    2    0    0  0.00000000000E+00  0.00000000000E+00  0.11862869012E+03  0.61183877099E+03  0.60022821957E+03 0.  0.
        1    1    3    3  502    0 -0.19987940869E+03  0.19053682175E+03  0.17911397550E+03  0.32914719306E+03  0.50400001928E-02 0.  1.
       -1    1    3    3    0  502  0.19987940869E+03 -0.19053682175E+03 -0.60485285374E+02  0.28269157792E+03  0.50400001928E-02 0. -1.
</event>
<event>
 5   0  0.9391405E-03  0.5965486E+03  0.7818609E-02  0.9912593E-01
       -2   -1    0    0    0  501  0.00000000000E+00  0.00000000000E+00  0.76606141913E+03  0.76606141913E+03  0.25500000920E-02 0.  1.
        2   -1    0    0  501    0  0.00000000000E+00  0.00000000000E+00 -0.11613631322E+03  0.11613631325E+03  0.25500000920E-02 0. -1.
    10030    2    1    2    0    0  0.00000000000E+00  0.00000000000E+00  0.64992510591E+03  0.88219773238E+03  0.59654856946E+03 0.  0.
        2    1    3    3  502    0  0.13038935139E+03  0.24754025208E+03  0.17206210096E+03  0.32845536370E+03  0.25500000920E-02 0.  1.
       -2    1    3    3    0  502 -0.13038935139E+03 -0.24754025208E+03  0.47786300496E+03  0.55374236867E+03  0.25500000920E-02 0. -1.
</event>
<event>
 5   0  0.3806250E-03  0.6000722E+03  0.7818609E-02  0.9905256E-01
        3   -1    0    0  501    0  0.00000000000E+00  0.00000000000E+00  0.67005262182E+03  0.67005262943E+03  0.10100000352E+00 0.  1.
       -3   -1    0    0    0  501  0.00000000000E+00  0.00000000000E+00 -0.13435009237E+03  0.13435013034E+03  0.10100000352E+00 0. -1.
    10030    2    1    2    0    0  0.00000000000E+00  0.00000000000E+00  0.53570252944E+03  0.80440275977E+03  0.60007216222E+03 0.  0.
        1    1    3    3  502    0  0.53456669363E+02  0.27356573911E+03  0.41667698639E+03  0.50131381402E+03  0.50400001928E-02 0. -1.
       -1    1    3    3    0  502 -0.53456669363E+02 -0.27356573911E+03  0.11902554305E+03  0.30308894575E+03  0.50400001928E-02 0.  1.
</event>
<event>
 5   0  0.5790967E-03  0.6010840E+03  0.7818609E-02  0.9903160E-01
        1   -1    0    0  501    0  0.00000000000E+00  0.00000000000E+00  0.20041191672E+03  0.20041191678E+03  0.50400001928E-02 0. -1.
       -1   -1    0    0    0  501  0.00000000000E+00  0.00000000000E+00 -0.45069923504E+03  0.45069923507E+03  0.50400001928E-02 0.  1.
    10030    2    1    2    0    0  0.00000000000E+00  0.00000000000E+00 -0.25028731832E+03  0.65111115185E+03  0.60108401272E+03 0.  0.
        3    1    3    3  502    0 -0.85813500691E+02  0.28557873921E+03 -0.84521674546E+02  0.30994047309E+03  0.10100000352E+00 0.  1.
       -3    1    3    3    0  502  0.85813500691E+02 -0.28557873921E+03 -0.16576564377E+03  0.34117067876E+03  0.10100000352E+00 0. -1.
</event>
<event>
 5   0  0.5765045E-03  0.6002940E+03  0.7818609E-02  0.9904796E-01
        1   -1    0    0  501    0  0.00000000000E+00  0.00000000000E+00  0.12638278045E+04  0.12638278046E+04  0.50400001928E-02 0. -1.
       -1   -1    0    0    0  501  0.00000000000E+00  0.00000000000E+00 -0.71282037182E+02  0.71282037360E+02  0.50400001928E-02 0.  1.
    10030    2    1    2    0    0  0.00000000000E+00  0.00000000000E+00  0.11925457674E+04  0.13351098419E+04  0.60029399691E+03 0.  0.
        1    1    3    3  502    0  0.16986242359E+03  0.71836104804E+02  0.69606131972E+02  0.19712605747E+03  0.50400001928E-02 0.  1.
       -1    1    3    3    0  502 -0.16986242359E+03 -0.71836104804E+02  0.11229396354E+04  0.11379837844E+04  0.50400001928E-02 0. -1.
</event>
<event>
 5   0  0.9822607E-03  0.5995009E+03  0.7818609E-02  0.9906442E-01
        2   -1    0    0  501    0  0.00000000000E+00  0.00000000000E+00  0.36041170024E+03  0.36041170025E+03  0.25500000920E-02 0.  1.
       -2   -1    0    0    0  501  0.00000000000E+00  0.00000000000E+00 -0.24929915569E+03  0.24929915570E+03  0.25500000920E-02 0. -1.
    10030    2    1    2    0    0  0.00000000000E+00  0.00000000000E+00  0.11111254456E+03  0.60971085595E+03  0.59950090101E+03 0.  0.
        3    1    3    3  502    0  0.19869501931E+03  0.16704789312E+03 -0.96881721707E+02  0.27707541843E+03  0.10100000352E+00 0. -1.
       -3    1    3    3    0  502 -0.19869501931E+03 -0.16704789312E+03  0.20799426626E+03  0.33263543752E+03  0.10100000352E+00 0.  1.
</event>
<event>
 5   0  0.9822607E-03  0.6006396E+03  0.7818609E-02  0.9904080E-01
       -2   -1    0    0    0  501  0.00000000000E+00  0.00000000000E+00  0.10764529446E+04  0.10764529446E+04  0.25500000920E-02 0. -1.
        2   -1    0    0  501    0  0.00000000000E+00  0.00000000000E+00 -0.83786264443E+02  0.83786264481E+02  0.25500000920E-02 0.  1.
    10030    2    1    2    0    0  0.00000000000E+00  0.00000000000E+00  0.99266668016E+03  0.11602392091E+04  0.60063956280E+03 0.  0.
        3    1    3    3  502    0  0.14190330269E+03  0.18295178266E+03  0.12686302893E+03  0.26401162929E+03  0.10100000352E+00 0.  1.
       -3    1    3    3    0  502 -0.14190330269E+03 -0.18295178266E+03  0.86580365123E+03  0.89622757979E+03  0.10100000352E+00 0. -1.
</event>
<event>
 5   0  0.5765045E-03  0.5964679E+03  0.7818609E-02  0.9912761E-01
        1   -1    0    0  501    0  0.00000000000E+00  0.00000000000E+00  0.19131052921E+03  0.19131052928E+03  0.50400001928E-02 0.  1.
       -1   -1    0    0    0  501  0.00000000000E+00  0.00000000000E+00 -0.46491690419E+03  0.46491690422E+03  0.50400001928E-02 0. -1.
    10030    2    1    2    0    0  0.00000000000E+00  0.00000000000E+00 -0.27360637498E+03  0.65622743349E+03  0.59646793379E+03 0.  0.
        1    1    3    3  502    0  0.52159399299E+02 -0.18749554192E+03  0.11182081710E+03  0.22445283767E+03  0.50400001928E-02 0.  1.
       -1    1    3    3    0  502 -0.52159399299E+02  0.18749554192E+03 -0.38542719208E+03  0.43177459582E+03  0.50400001928E-02 0. -1.
</event>
<event>
 5   0  0.3806250E-03  0.6006959E+03  0.7818609E-02  0.9903963E-01
       -3   -1    0    0    0  501  0.00000000000E+00  0.00000000000E+00  0.35555294478E+03  0.35555295913E+03  0.10100000352E+00 0. -1.
        3   -1    0    0  501    0  0.00000000000E+00  0.00000000000E+00 -0.25371437732E+03  0.25371439742E+03  0.10100000352E+00 0.  1.
    10030    2    1    2    0    0  0.00000000000E+00  0.00000000000E+00  0.10183856746E+03  0.60926735655E+03  0.60069594467E+03 0.  0.
        5    1    3    3  502    0 -0.16933517080E+03 -0.10365163819E+03 -0.17761504995E+03  0.26643434114E+03  0.46999998093E+01 0.  1.
       -5    1    3    3    0  502  0.16933517080E+03  0.10365163819E+03  0.27945361742E+03  0.34283301541E+03  0.46999998093E+01 0. -1.
</event>
<event>
 5   0  0.9028473E-03  0.6006812E+03  0.7818609E-02  0.9903994E-01
       -2   -1    0    0    0  501  0.00000000000E+00  0.00000000000E+00  0.27593234432E+03  0.27593234433E+03  0.25500000920E-02 0. -1.
        2   -1    0    0  501    0  0.00000000000E+00  0.00000000000E+00 -0.32690796088E+03  0.32690796089E+03  0.25500000920E-02 0.  1.
    10030    2    1    2    0    0  0.00000000000E+00  0.00000000000E+00 -0.50975616562E+02  0.60284030522E+03  0.60068121338E+03 0.  0.
        1    1    3    3  502    0 -0.20030280895E+02 -0.12021520774E+02 -0.32599479500E+03  0.32683074443E+03  0.50400001928E-02 0.  1.
       -1    1    3    3    0  502  0.20030280895E+02  0.12021520774E+02  0.27501917843E+03  0.27600956079E+03  0.50400001928E-02 0. -1.
</event>
<event>
 5   0  0.6078658E-03  0.5996895E+03  0.7818609E-02  0.9906051E-01
        1   -1    0    0  501    0  0.00000000000E+00  0.00000000000E+00  0.76791808927E+03  0.76791808928E+03  0.50400001928E-02 0.  1.
       -1   -1    0    0    0  501  0.00000000000E+00  0.00000000000E+00 -0.11707871448E+03  0.11707871459E+03  0.50400001928E-02 0. -1.
    10030    2    1    2    0    0  0.00000000000E+00  0.00000000000E+00  0.65083937478E+03  0.88499680387E+03  0.59968946222E+03 0.  0.
        2    1    3    3  502    0  0.24341005024E+03  0.14367441868E+03  0.17772529872E+03  0.33388182483E+03  0.25500000920E-02 0.  1.
       -2    1    3    3    0  502 -0.24341005024E+03 -0.14367441868E+03  0.47311407606E+03  0.55111497904E+03  0.25500000920E-02 0. -1.
</event>
<event>
 5   0  0.5765045E-03  0.6008918E+03  0.7818609E-02  0.9903557E-01
       -1   -1    0    0    0  501  0.00000000000E+00  0.00000000000E+00  0.27627901014E+03  0.27627901018E+03  0.50400001928E-02 0. -1.
        1   -1    0    0  501    0  0.00000000000E+00  0.00000000000E+00 -0.32672677922E+03  0.32672677926E+03  0.50400001928E-02 0.  1.
    10030    2    1    2    0    0  0.00000000000E+00  0.00000000000E+00 -0.50447769085E+02  0.60300578944E+03  0.60089184109E+03 0.  0.
        1    1    3    3  502    0  0.11357822384E+03  0.22619905014E+03  0.13721505328E+03  0.28791317109E+03  0.50400001928E-02 0. -1.
       -1    1    3    3    0  502 -0.11357822384E+03 -0.22619905014E+03 -0.18766282236E+03  0.31509261835E+03  0.50400001928E-02 0.  1.
</event>
<event>
 5   0  0.9162342E-03  0.5998244E+03  0.7818609E-02  0.9905770E-01
        2   -1    0    0  501    0  0.00000000000E+00  0.00000000000E+00  0.61699876140E+03  0.61699876140E+03  0.25500000920E-02 0.  1.
       -2   -1    0    0    0  501  0.00000000000E+00  0.00000000000E+00 -0.14578202145E+03  0.14578202147E+03  0.25500000920E-02 0. -1.
    10030    2    1    2    0    0  0.00000000000E+00  0.00000000000E+00  0.47121673994E+03  0.76278078288E+03  0.59982439657E+03 0.  0.
        5    1    3    3  502    0 -0.54631538627E+02  0.13298782366E+03 -0.99049296053E+02  0.17465170855E+03  0.46999998093E+01 0. -1.
       -5    1    3    3    0  502  0.54631538627E+02 -0.13298782366E+03  0.57026603600E+03  0.58812907432E+03  0.46999998093E+01 0.  1.
</event>
<event>
 5   0  0.9028473E-03  0.5995981E+03  0.7818609E-02  0.9906240E-01
       -2   -1    0    0    0  501  0.00000000000E+00  0.00000000000E+00  0.23433199762E+03  0.23433199763E+03  0.25500000920E-02 0.  1.
        2   -1    0    0  501    0  0.00000000000E+00  0.00000000000E+00 -0.38355614159E+03  0.38355614160E+03  0.25500000920E-02 0. -1.
    10030    2    1    2    0    0  0.00000000000E+00  0.00000000000E+00 -0.14922414397E+03  0.61788813923E+03  0.59959812163E+03 0.  0.
        1    1    3    3  502    0  0.60624651131E+01 -0.21020544781E+03  0.14557934909E+03  0.25576635955E+03  0.50400001928E-02 0.  1.
       -1    1    3    3    0  502 -0.60624651131E+01  0.21020544781E+03 -0.29480349306E+03  0.36212177968E+03  0.50400001928E-02 0. -1.
</event>
<event>
 5   0  0.6078658E-03  0.5997999E+03  0.7818609E-02  0.9905821E-01
       -1   -1    0    0    0  501  0.00000000000E+00  0.00000000000E+00  0.63980564875E+02  0.63980565073E+02  0.50400001928E-02 0. -1.
        1   -1    0    0  501    0  0.00000000000E+00  0.00000000000E+00 -0.14057391463E+04  0.14057391463E+04  0.50400001928E-02 0.  1.
    10030    2    1    2    0    0  0.00000000000E+00  0.00000000000E+00 -0.13417585814E+04  0.14697197114E+04  0.59979991597E+03 0.  0.
        2    1    3    3  502    0  0.14665262749E+03  0.12356062781E+03 -0.10588489068E+03  0.21905668667E+03  0.25500000920E-02 0. -1.
       -2    1    3    3    0  502 -0.14665262749E+03 -0.12356062781E+03 -0.12358736908E+04  0.12506630247E+04  0.25500000920E-02 0.  1.
</event>
<event>
 5   0  0.6078658E-03  0.6010886E+03  0.7818609E-02  0.9903150E-01
        1   -1    0    0  501    0  0.00000000000E+00  0.00000000000E+00  0.61363008160E+03  0.61363008162E+03  0.50400001928E-02 0. -1.
       -1   -1    0    0    0  501  0.00000000000E+00  0.00000000000E+00 -0.14720085846E+03  0.14720085855E+03  0.50400001928E-02 0.  1.
    10030    2    1    2    0    0  0.00000000000E+00  0.00000000000E+00  0.46642922313E+03  0.76083094017E+03  0.60108859524E+03 0.  0.
        2    1    3    3  502    0  0.95243060731E+02 -0.28499923688E+03  0.24026989764E+03  0.38474073004E+03  0.25500000920E-02 0. -1.
       -2    1    3    3    0  502 -0.95243060731E+02  0.28499923688E+03  0.22615932550E+03  0.37609021013E+03  0.25500000920E-02 0.  1.
</event>
<event>
 5   0  0.9391405E-03  0.5992071E+03  0.7818609E-02  0.9907052E-01
       -2   -1    0    0    0  501  0.00000000000E+00  0.00000000000E+00  0.77603264823E+02  0.77603264865E+02  0.25500000920E-02 0. -1.
        2   -1    0    0  501    0  0.00000000000E+00  0.00000000000E+00 -0.11566819839E+04  0.11566819839E+04  0.25500000920E-02 0.  1.
    10030    2    1    2    0    0  0.00000000000E+00  0.00000000000E+00 -0.10790787191E+04  0.12342852488E+04  0.59920713728E+03 0.  0.
        2    1    3    3  502    0  0.71880840198E+02 -0.25112006947E+03 -0.84181452448E+03  0.88140787274E+03  0.25500000920E-02 0.  1.
       -2    1    3    3    0  502 -0.71880840198E+02  0.25112006947E+03 -0.23726419461E+03  0.35287737606E+03  0.25500000920E-02 0. -1.
</event>
<event>
 5   0  0.3806250E-03  0.6007314E+03  0.7818609E-02  0.9903890E-01
       -3   -1    0    0    0  501  0.00000000000E+00  0.00000000000E+00  0.13685608437E+03  0.13685612164E+03  0.10100000352E+00 0.  1.
        3   -1    0    0  501    0  0.00000000000E+00  0.00000000000E+00 -0.65922923186E+03  0.65922923959E+03  0.10100000352E+00 0. -1.
    10030    2    1    2    0    0  0.00000000000E+00  0.00000000000E+00 -0.52237314749E+03  0.79608536123E+03  0.60073138519E+03 0.  0.
        2    1    3    3  502    0  0.18752910298E+03  0.22109750185E+03 -0.36526514881E+03  0.46633667959E+03  0.25500000920E-02 0. -1.
       -2    1    3    3    0  502 -0.18752910298E+03 -0.22109750185E+03 -0.15710799868E+03  0.32974868164E+03  0.25500000920E-02 0.  1.
</event>
<event>
 5   0  0.5790967E-03  0.5997940E+03  0.7818609E-02  0.9905834E-01
        1   -1    0    0  501    0  0.00000000000E+00  0.00000000000E+00  0.70966662195E+03  0.70966662197E+03  0.50400001928E-02 0.  1.
       -1   -1    0    0    0  501  0.00000000000E+00  0.00000000000E+00 -0.12673304884E+03  0.12673304894E+03  0.50400001928E-02 0. -1.
    10030    2    1    2    0    0  0.00000000000E+00  0.00000000000E+00  0.58293357311E+03  0.83639967091E+03  0.59979401368E+03 0.  0.
        3    1    3    3  502    0  0.15755273690E+03  0.72726435882E+02 -0.49614155811E+02  0.18048150609E+03  0.10100000352E+00 0. -1.
       -3    1    3    3    0  502 -0.15755273690E+03 -0.72726435882E+02  0.63254772892E+03  0.65591816482E+03  0.10100000352E+00 0.  1.
</event>
<event>
 5   0  0.9162342E-03  0.5984016E+03  0.7818609E-02  0.9908728E-01
        2   -1    0    0  501    0  0.00000000000E+00  0.00000000000E+00  0.15486675563E+04  0.15486675563E+04  0.25500000920E-02 0. -1.
       -2   -1    0    0    0  501  0.00000000000E+00  0.00000000000E+00 -0.57805255764E+02  0.57805255820E+02  0.25500000920E-02 0.  1.
    10030    2    1    2    0    0  0.00000000000E+00  0.00000000000E+00  0.14908623005E+04  0.16064728121E+04  0.59840161841E+03 0.  0.
        5    1    3    3  502    0 -0.18123040676E+03 -0.31067520788E+02  0.13789606232E+04  0.13911736561E+04  0.46999998093E+01 0. -1.
       -5    1    3    3    0  502  0.18123040676E+03  0.31067520788E+02  0.11190167735E+03  0.21529915600E+03  0.46999998093E+01 0.  1.
</event>
<event>
 5   0  0.5790967E-03  0.6062738E+03  0.7818609E-02  0.9892475E-01
       -1   -1    0    0    0  501  0.00000000000E+00  0.00000000000E+00  0.37155878998E+03  0.37155879002E+03  0.50400001928E-02 0.  1.
        1   -1    0    0  501    0  0.00000000000E+00  0.00000000000E+00 -0.24731476999E+03  0.24731477005E+03  0.50400001928E-02 0. -1.
    10030    2    1    2    0    0  0.00000000000E+00  0.00000000000E+00  0.12424401999E+03  0.61887356006E+03  0.60627378868E+03 0.  0.
        3    1    3    3  502    0  0.12280005992E+03 -0.10669248630E+03  0.32322851845E+03  0.36185608560E+03  0.10100000352E+00 0.  1.
       -3    1    3    3    0  502 -0.12280005992E+03  0.10669248630E+03 -0.19898449846E+03  0.25701747446E+03  0.10100000352E+00 0. -1.
</event>
<event>
 5   0  0.9391405E-03  0.6002681E+03  0.7818609E-02  0.9904850E-01
       -2   -1    0    0    0  501  0.00000000000E+00  0.00000000000E+00  0.32141855395E+03  0.32141855396E+03  0.25500000920E-02 0. -1.
        2   -1    0    0  501    0  0.00000000000E+00  0.00000000000E+00 -0.28025898264E+03  0.28025898266E+03  0.25500000920E-02 0.  1.
    10030    2    1    2    0    0  0.00000000000E+00  0.00000000000E+00  0.41159571306E+02  0.60167753662E+03  0.60026806325E+03 0.  0.
        2    1    3    3  502    0  0.20827223800E+03  0.13639679046E+03  0.18860103263E+03  0.31233276979E+03  0.25500000920E-02 0. -1.
       -2    1    3    3    0  502 -0.20827223800E+03 -0.13639679046E+03 -0.14744146133E+03  0.28934476683E+03  0.25500000920E-02 0.  1.
</event>
<event>
 5   0  0.9391405E-03  0.6002148E+03  0.7818609E-02  0.9904961E-01
       -2   -1    0    0    0  501  0.00000000000E+00  0.00000000000E+00  0.61240616305E+02  0.61240616358E+02  0.25500000920E-02 0.  1.
        2   -1    0    0  501    0  0.00000000000E+00  0.00000000000E+00 -0.14706652090E+04  0.14706652090E+04  0.25500000920E-02 0. -1.
    10030    2    1    2    0    0  0.00000000000E+00  0.00000000000E+00 -0.14094245927E+04  0.15319058253E+04  0.60021477428E+03 0.  0.
        2    1    3    3  502    0 -0.13784061206E+03 -0.26105850805E+03 -0.56696421637E+03  0.63921827384E+03  0.25500000920E-02 0.  1.
       -2    1    3    3    0  502  0.13784061206E+03  0.26105850805E+03 -0.84246037628E+03  0.89268755148E+03  0.25500000920E-02 0. -1.
</event>
<event>
 5   0  0.5765045E-03  0.5991955E+03  0.7818609E-02  0.9907077E-01
       -1   -1    0    0    0  501  0.00000000000E+00  0.00000000000E+00  0.10752382244E+03  0.10752382256E+03  0.50400001928E-02 0.  1.
        1   -1    0    0  501    0  0.00000000000E+00  0.00000000000E+00 -0.83478063340E+03  0.83478063342E+03  0.50400001928E-02 0. -1.
    10030    2    1    2    0    0  0.00000000000E+00  0.00000000000E+00 -0.72725681096E+03  0.94230445598E+03  0.59919547618E+03 0.  0.
        1    1    3    3  502    0  0.24515395228E+03  0.14411482067E+03 -0.51189919207E+03  0.58558545467E+03  0.50400001928E-02 0. -1.
       -1    1    3    3    0  502 -0.24515395228E+03 -0.14411482067E+03 -0.21535761889E+03  0.35671900131E+03  0.50400001928E-02 0.  1.
</event>
<event>
 5   0  0.9822607E-03  0.5992052E+03  0.7818609E-02  0.9907056E-01
        2   -1    0    0  501    0  0.00000000000E+00  0.00000000000E+00  0.11678776555E+04  0.11678776555E+04  0.25500000920E-02 0.  1.
       -2   -1    0    0    0  501  0.00000000000E+00  0.00000000000E+00 -0.76858846119E+02  0.76858846162E+02  0.25500000920E-02 0. -1.
    10030    2    1    2    0    0  0.00000000000E+00  0.00000000000E+00  0.10910188093E+04  0.12447365016E+04  0.59920523708E+03 0.  0.
        3    1    3    3  502    0 -0.25945027677E+03 -0.99760366432E+02  0.77771486233E+03  0.82589768986E+03  0.10100000352E+00 0.  1.
       -3    1    3    3    0  502  0.25945027677E+03  0.99760366432E+02  0.31330394700E+03  0.41883881175E+03  0.10100000352E+00 0. -1.
</event>
<event>
 5   0  0.9391405E-03  0.5984762E+03  0.7818609E-02  0.9908573E-01
       -2   -1    0    0    0  501  0.00000000000E+00  0.00000000000E+00  0.12265232180E+03  0.12265232183E+03  0.25500000920E-02 0.  1.
        2   -1    0    0  501    0  0.00000000000E+00  0.00000000000E+00 -0.73005906882E+03  0.73005906882E+03  0.25500000920E-02 0. -1.
    10030    2    1    2    0    0  0.00000000000E+00  0.00000000000E+00 -0.60740674702E+03  0.85271139065E+03  0.59847619788E+03 0.  0.
        2    1    3    3  502    0 -0.97292556942E+02 -0.58476251108E+02 -0.69819181381E+03  0.70735925982E+03  0.25500000920E-02 0. -1.
       -2    1    3    3    0  502  0.97292556942E+02  0.58476251108E+02  0.90785066788E+02  0.14535213083E+03  0.25500000920E-02 0.  1.
</event>
<event>
 5   0  0.5790967E-03  0.5999414E+03  0.7818609E-02  0.9905528E-01
        1   -1    0    0  501    0  0.00000000000E+00  0.00000000000E+00  0.46439700897E+03  0.46439700899E+03  0.50400001928E-02 0. -1.
       -1   -1    0    0    0  501  0.00000000000E+00  0.00000000000E+00 -0.19376185754E+03  0.19376185760E+03  0.50400001928E-02 0.  1.
    10030    2    1    2    0    0  0.00000000000E+00  0.00000000000E+00  0.27063515143E+03  0.65815886659E+03  0.59994142088E+03 0.  0.
        3    1    3    3  502    0 -0.92553367674E+02  0.74768198333E+01  0.44823402614E+03  0.45775078492E+03  0.10100000352E+00 0. -1.
       -3    1    3    3    0  502  0.92553367674E+02 -0.74768198333E+01 -0.17759887471E+03  0.20040808168E+03  0.10100000352E+00 0.  1.
</event>
<event>
 5   0  0.5790967E-03  0.5980565E+03  0.7818609E-02  0.9909446E-01
        1   -1    0    0  501    0  0.00000000000E+00  0.00000000000E+00  0.59621013985E+03  0.59621013987E+03  0.50400001928E-02 0.  1.
       -1   -1    0    0    0  501  0.00000000000E+00  0.00000000000E+00 -0.14997715978E+03  0.14997715986E+03  0.50400001928E-02 0. -1.
    10030    2    1    2    0    0  0.00000000000E+00  0.00000000000E+00  0.44623298008E+03  0.74618729973E+03  0.59805653059E+03 0.  0.
        3    1    3    3  502    0  0.24015418306E+03  0.42743002044E+02  0.73103028739E+01  0.24403779747E+03  0.10100000352E+00 0. -1.
       -3    1    3    3    0  502 -0.24015418306E+03 -0.42743002044E+02  0.43892267720E+03  0.50214950227E+03  0.10100000352E+00 0.  1.
</event>
<event>
 5   0  0.5891927E-03  0.5994311E+03  0.7818609E-02  0.9906587E-01
        1   -1    0    0  501    0  0.00000000000E+00  0.00000000000E+00  0.15817833724E+03  0.15817833732E+03  0.50400001928E-02 0. -1.
       -1   -1    0    0    0  501  0.00000000000E+00  0.00000000000E+00 -0.56789965668E+03  0.56789965671E+03  0.50400001928E-02 0.  1.
    10030    2    1    2    0    0  0.00000000000E+00  0.00000000000E+00 -0.40972131945E+03  0.72607799402E+03  0.59943114183E+03 0.  0.
        4    1    3    3  502    0 -0.18203280686E+03  0.21439134826E+03 -0.33032137486E+03  0.43383570228E+03  0.12699999809E+01 0. -1.
       -4    1    3    3    0  502  0.18203280686E+03 -0.21439134826E+03 -0.79399944583E+02  0.29224229174E+03  0.12699999809E+01 0.  1.
</event>
<event>
 5   0  0.9822607E-03  0.6037924E+03  0.7818609E-02  0.9897569E-01
        2   -1    0    0  501    0  0.00000000000E+00  0.00000000000E+00  0.28010286278E+03  0.28010286279E+03  0.25500000920E-02 0.  1.
       -2   -1    0    0    0  501  0.00000000000E+00  0.00000000000E+00 -0.32538512730E+03  0.32538512731E+03  0.25500000920E-02 0. -1.
    10030    2    1    2    0    0  0.00000000000E+00  0.00000000000E+00 -0.45282264513E+02  0.60548799010E+03  0.60379236719E+03 0.  0.
        3    1    3    3  502    0 -0.11336741097E+02  0.16772458982E+03 -0.27410665455E+03  0.32155019514E+03  0.10100000352E+00 0. -1.
       -3    1    3    3    0  502  0.11336741097E+02 -0.16772458982E+03  0.22882439003E+03  0.28393779496E+03  0.10100000352E+00 0.  1.
</event>
<event>
 5   0  0.9391405E-03  0.5995779E+03  0.7818609E-02  0.9906282E-01
        2   -1    0    0  501    0  0.00000000000E+00  0.00000000000E+00  0.67262916208E+03  0.67262916209E+03  0.25500000920E-02 0. -1.
       -2   -1    0    0    0  501  0.00000000000E+00  0.00000000000E+00 -0.13361511635E+03  0.13361511637E+03  0.25500000920E-02 0.  1.
    10030    2    1    2    0    0  0.00000000000E+00  0.00000000000E+00  0.53901404573E+03  0.80624427846E+03  0.59957793076E+03 0.  0.
        2    1    3    3  502    0  0.12537436806E+03 -0.21594088984E+03  0.49259622282E+03  0.55226826707E+03  0.25500000920E-02 0. -1.
       -2    1    3    3    0  502 -0.12537436806E+03  0.21594088984E+03  0.46417822914E+02  0.25397601139E+03  0.25500000920E-02 0.  1.
</event>
<event>
 5   0  0.9303190E-03  0.6000053E+03  0.7818609E-02  0.9905395E-01
        2   -1    0    0  501    0  0.00000000000E+00  0.00000000000E+00  0.76511872278E+03  0.76511872279E+03  0.25500000920E-02 0. -1.
       -2   -1    0    0    0  501  0.00000000000E+00  0.00000000000E+00 -0.11763089274E+03  0.11763089276E+03  0.25500000920E-02 0.  1.
    10030    2    1    2    0    0  0.00000000000E+00  0.00000000000E+00  0.64748783005E+03  0.88274961555E+03  0.60000532806E+03 0.  0.
        4    1    3    3  502    0 -0.10621420322E+03 -0.12490988591E+03 -0.45873420803E+02  0.17026426578E+03  0.12699999809E+01 0.  1.
       -4    1    3    3    0  502  0.10621420322E+03  0.12490988591E+03  0.69336125085E+03  0.71248534978E+03  0.12699999809E+01 0. -1.
</event>
<event>
 5   0  0.6078658E-03  0.5968497E+03  0.7818609E-02  0.9911963E-01
        1   -1    0    0  501    0  0.00000000000E+00  0.00000000000E+00  0.21227792783E+04  0.21227792783E+04  0.50400001928E-02 0.  1.
       -1   -1    0    0    0  501  0.00000000000E+00  0.00000000000E+00 -0.41953208625E+02  0.41953208928E+02  0.50400001928E-02 0. -1.
    10030    2    1    2    0    0  0.00000000000E+00  0.00000000000E+00  0.20808260697E+04  0.21647324872E+04  0.59684973741E+03 0.  0.
        2    1    3    3  502    0 -0.29223552938E+03 -0.56730426280E+02  0.96455412579E+03  0.10094476745E+04  0.25500000920E-02 0.  1.
       -2    1    3    3    0  502  0.29223552938E+03  0.56730426280E+02  0.11162719439E+04  0.11552848128E+04  0.25500000920E-02 0. -1.
</event>
<event>
 5   0  0.5819446E-03  0.6005346E+03  0.7818609E-02  0.9904298E-01
       -1   -1    0    0    0  501  0.00000000000E+00  0.00000000000E+00  0.14679960449E+04  0.14679960449E+04  0.50400001928E-02 0.  1.
        1   -1    0    0  501    0  0.00000000000E+00  0.00000000000E+00 -0.61417370943E+02  0.61417371150E+02  0.50400001928E-02 0. -1.
    10030    2    1    2    0    0  0.00000000000E+00  0.00000000000E+00  0.14065786740E+04  0.15294134161E+04  0.60053462114E+03 0.  0.
        5    1    3    3  502    0 -0.61823868803E+02  0.29174226966E+03  0.79160789806E+03  0.84593196945E+03  0.46999998093E+01 0. -1.
       -5    1    3    3    0  502  0.61823868803E+02 -0.29174226966E+03  0.61497077590E+03  0.68348144661E+03  0.46999998093E+01 0.  1.
</event>
<event>
 5   0  0.9028473E-03  0.5999428E+03  0.7818609E-02  0.9905525E-01
       -2   -1    0    0    0  501  0.00000000000E+00  0.00000000000E+00  0.30889524044E+03  0.30889524045E+03  0.25500000920E-02 0. -1.
        2   -1    0    0  501    0  0.00000000000E+00  0.00000000000E+00 -0.29130537549E+03  0.29130537550E+03  0.25500000920E-02 0.  1.
    10030    2    1    2    0    0  0.00000000000E+00  0.00000000000E+00  0.17589864954E+02  0.60020061596E+03  0.59994281064E+03 0.  0.
        1    1    3    3  502    0 -0.20749175404E+03 -0.76872573552E+02  0.21141745214E+03  0.30603849375E+03  0.50400001928E-02 0. -1.
       -1    1    3    3    0  502  0.20749175404E+03  0.76872573552E+02 -0.19382758719E+03  0.29416212221E+03  0.50400001928E-02 0.  1.
</event>
<event>
 5   0  0.9391405E-03  0.6003818E+03  0.7818609E-02  0.9904614E-01
       -2   -1    0    0    0  501  0.00000000000E+00  0.00000000000E+00  0.71198720539E+02  0.71198720584E+02  0.25500000920E-02 0.  1.
        2   -1    0    0  501    0  0.00000000000E+00  0.00000000000E+00 -0.12656769827E+04  0.12656769827E+04  0.25500000920E-02 0. -1.
    10030    2    1    2    0    0  0.00000000000E+00  0.00000000000E+00 -0.11944782622E+04  0.13368757033E+04  0.60038181790E+03 0.  0.
        2    1    3    3  502    0 -0.22255970384E+03 -0.91588661136E+02 -0.99676609349E+03  0.10254091621E+04  0.25500000920E-02 0. -1.
       -2    1    3    3    0  502  0.22255970384E+03  0.91588661136E+02 -0.19771216868E+03  0.31146654117E+03  0.25500000920E-02 0.  1.
</event>
<event>
 5   0  0.5765045E-03  0.6010989E+03  0.7818609E-02  0.9903129E-01
       -1   -1    0    0    0  501  0.00000000000E+00  0.00000000000E+00  0.16774102370E+03  0.16774102378E+03  0.50400001928E-02 0.  1.
        1   -1    0    0  501    0  0.00000000000E+00  0.00000000000E+00 -0.53850858999E+03  0.53850859001E+03  0.50400001928E-02 0. -1.
    10030    2    1    2    0    0  0.00000000000E+00  0.00000000000E+00 -0.37076756629E+03  0.70624961379E+03  0.60109893426E+03 0.  0.
        1    1    3    3  502    0 -0.18320663093E+03 -0.71367108859E+02 -0.45246300621E+03  0.49333630097E+03  0.50400001928E-02 0. -1.
       -1    1    3    3    0  502  0.18320663093E+03  0.71367108859E+02  0.81695439918E+02  0.21291331282E+03  0.50400001928E-02 0.  1.
</event>
<event>
 5   0  0.5790967E-03  0.6000608E+03  0.7818609E-02  0.9905280E-01
       -1   -1    0    0    0  501  0.00000000000E+00  0.00000000000E+00  0.13833468078E+03  0.13833468087E+03  0.50400001928E-02 0. -1.
        1   -1    0    0  501    0  0.00000000000E+00  0.00000000000E+00 -0.65072802425E+03  0.65072802427E+03  0.50400001928E-02 0.  1.
    10030    2    1    2    0    0  0.00000000000E+00  0.00000000000E+00 -0.51239334347E+03  0.78906270513E+03  0.60006084208E+03 0.  0.
        3    1    3    3  502    0  0.23111082276E+03 -0.13563267211E+03 -0.78749562931E+02  0.27930259219E+03  0.10100000352E+00 0. -1.
       -3    1    3    3    0  502 -0.23111082276E+03  0.13563267211E+03 -0.43364378054E+03  0.50976011294E+03  0.10100000352E+00 0.  1.
</event>
<event>
 5   0  0.5891927E-03  0.5995506E+03  0.7818609E-02  0.9906339E-01
        1   -1    0    0  501    0  0.00000000000E+00  0.00000000000E+00  0.37320143738E+03  0.37320143742E+03  0.50400001928E-02 0. -1.
       -1   -1    0    0    0  501  0.00000000000E+00  0.00000000000E+00 -0.24079554215E+03  0.24079554220E+03  0.50400001928E-02 0.  1.
    10030    2    1    2    0    0  0.00000000000E+00  0.00000000000E+00  0.13240589524E+03  0.61399697962E+03  0.59955063997E+03 0.  0.
        4    1    3    3  502    0 -0.27407079128E+03 -0.65694949646E+02 -0.38400274357E+02  0.28444124000E+03  0.12699999809E+01 0.  1.
       -4    1    3    3    0  502  0.27407079128E+03  0.65694949646E+02  0.17080616959E+03  0.32955573962E+03  0.12699999809E+01 0. -1.
</event>
<event>
 5   0  0.3806250E-03  0.5993660E+03  0.7818609E-02  0.9906722E-01
       -3   -1    0    0    0  501  0.00000000000E+00  0.00000000000E+00  0.21518555282E+03  0.21518557653E+03  0.10100000352E+00 0. -1.
        3   -1    0    0  501    0  0.00000000000E+00  0.00000000000E+00 -0.41736028682E+03  0.41736029904E+03  0.10100000352E+00 0.  1.
    10030    2    1    2    0    0  0.00000000000E+00  0.00000000000E+00 -0.20217473400E+03  0.63254587556E+03  0.59936604978E+03 0.  0.
        2    1    3    3  502    0 -0.67634266330E+02  0.11204375870E+03 -0.38560715722E+03  0.40721134261E+03  0.25500000920E-02 0.  1.
       -2    1    3    3    0  502  0.67634266330E+02 -0.11204375870E+03  0.18343242322E+03  0.22533453295E+03  0.25500000920E-02 0. -1.
</event>
<event>
 5   0  0.5765045E-03  0.5989648E+03  0.7818609E-02  0.9907556E-01
        1   -1    0    0  501    0  0.00000000000E+00  0.00000000000E+00  0.23374978967E+03  0.23374978973E+03  0.50400001928E-02 0. -1.
       -1   -1    0    0    0  501  0.00000000000E+00  0.00000000000E+00 -0.38369960695E+03  0.38369960698E+03  0.50400001928E-02 0.  1.
    10030    2    1    2    0    0  0.00000000000E+00  0.00000000000E+00 -0.14994981727E+03  0.61744939670E+03  0.59896478176E+03 0.  0.
        1    1    3    3  502    0  0.22254217123E+03 -0.16937931948E+03  0.35453976102E+02  0.28190664463E+03  0.50400001928E-02 0. -1.
       -1    1    3    3    0  502 -0.22254217123E+03  0.16937931948E+03 -0.18540379338E+03  0.33554275207E+03  0.50400001928E-02 0.  1.
</event>
<event>
 5   0  0.9822607E-03  0.5996423E+03  0.7818609E-02  0.9906148E-01
       -2   -1    0    0    0  501  0.00000000000E+00  0.00000000000E+00  0.17797908679E+03  0.17797908680E+03  0.25500000920E-02 0. -1.
        2   -1    0    0  501    0  0.00000000000E+00  0.00000000000E+00 -0.50507469963E+03  0.50507469964E+03  0.25500000920E-02 0.  1.
    10030    2    1    2    0    0  0.00000000000E+00  0.00000000000E+00 -0.32709561285E+03  0.68305378644E+03  0.59964233943E+03 0.  0.
        3    1    3    3  502    0  0.23998274518E+03 -0.15545897692E+03 -0.26627884350E+03  0.39072195252E+03  0.10100000352E+00 0.  1.
       -3    1    3    3    0  502 -0.23998274518E+03  0.15545897692E+03 -0.60816769346E+02  0.29233183392E+03  0.10100000352E+00 0. -1.
</event>
<event>
 5   0  0.6078658E-03  0.5997325E+03  0.7818609E-02  0.9905961E-01
       -1   -1    0    0    0  501  0.00000000000E+00  0.00000000000E+00  0.81092831014E+02  0.81092831170E+02  0.50400001928E-02 0.  1.
        1   -1    0    0  501    0  0.00000000000E+00  0.00000000000E+00 -0.11088496141E+04  0.11088496141E+04  0.50400001928E-02 0. -1.
    10030    2    1    2    0    0  0.00000000000E+00  0.00000000000E+00 -0.10277567830E+04  0.11899424452E+04  0.59973245526E+03 0.  0.
        2    1    3    3  502    0  0.10885566946E+03 -0.50488768493E+02 -0.10591369685E+04  0.10659126562E+04  0.25500000920E-02 0. -1.
       -2    1    3    3    0  502 -0.10885566946E+03  0.50488768493E+02  0.31380185502E+02  0.12402978903E+03  0.25500000920E-02 0.  1.
</event>
<event>
 5   0  0.3806250E-03  0.6000886E+03  0.7818609E-02  0.9905222E-01
        3   -1    0    0  501    0  0.00000000000E+00  0.00000000000E+00  0.50632614571E+03  0.50632615578E+03  0.10100000352E+00 0. -1.
       -3   -1    0    0    0  501  0.00000000000E+00  0.00000000000E+00 -0.17780350228E+03  0.17780353097E+03  0.10100000352E+00 0.  1.
    10030    2    1    2    0    0  0.00000000000E+00  0.00000000000E+00  0.32852264343E+03  0.68412968675E+03  0.60008857767E+03 0.  0.
        5    1    3    3  502    0  0.38080410175E+02  0.28332778373E+03  0.26799774831E+03  0.39187961643E+03  0.46999998093E+01 0. -1.
       -5    1    3    3    0  502 -0.38080410175E+02 -0.28332778373E+03  0.60524895119E+02  0.29225007032E+03  0.46999998093E+01 0.  1.
</event>
<event>
 5   0  0.9028473E-03  0.5976909E+03  0.7818609E-02  0.9910208E-01
        2   -1    0    0  501    0  0.00000000000E+00  0.00000000000E+00  0.63226168754E+03  0.63226168754E+03  0.25500000920E-02 0. -1.
       -2   -1    0    0    0  501  0.00000000000E+00  0.00000000000E+00 -0.14125258114E+03  0.14125258116E+03  0.25500000920E-02 0.  1.
    10030    2    1    2    0    0  0.00000000000E+00  0.00000000000E+00  0.49100910640E+03  0.77351426871E+03  0.59769087439E+03 0.  0.
        1    1    3    3  502    0 -0.13934651646E+03  0.22733321984E+03  0.42014934156E+03  0.49761763808E+03  0.50400001928E-02 0. -1.
       -1    1    3    3    0  502  0.13934651646E+03 -0.22733321984E+03  0.70859764838E+02  0.27589663063E+03  0.50400001928E-02 0.  1.
</event>
<event>
 5   0  0.6078658E-03  0.6000168E+03  0.7818609E-02  0.9905371E-01
        1   -1    0    0  501    0  0.00000000000E+00  0.00000000000E+00  0.11586227775E+04  0.11586227775E+04  0.50400001928E-02 0. -1.
       -1   -1    0    0    0  501  0.00000000000E+00  0.00000000000E+00 -0.77682794106E+02  0.77682794269E+02  0.50400001928E-02 0.  1.
    10030    2    1    2    0    0  0.00000000000E+00  0.00000000000E+00  0.10809399834E+04  0.12363055718E+04  0.60001684902E+03 0.  0.
        2    1    3    3  502    0 -0.17352314682E+02 -0.29458758406E+03  0.65185082357E+03  0.71553647266E+03  0.25500000920E-02 0.  1.
       -2    1    3    3    0  502  0.17352314682E+02  0.29458758406E+03  0.42908915980E+03  0.52076909910E+03  0.25500000920E-02 0. -1.
</event>
<event>
 5   0  0.5790967E-03  0.5990410E+03  0.7818609E-02  0.9907398E-01
       -1   -1    0    0    0  501  0.00000000000E+00  0.00000000000E+00  0.15236562925E+03  0.15236562933E+03  0.50400001928E-02 0.  1.
        1   -1    0    0  501    0  0.00000000000E+00  0.00000000000E+00 -0.58879760267E+03  0.58879760269E+03  0.50400001928E-02 0. -1.
    10030    2    1    2    0    0  0.00000000000E+00  0.00000000000E+00 -0.43643197342E+03  0.74116323202E+03  0.59904095776E+03 0.  0.
        3    1    3    3  502    0  0.46679890598E+02  0.10344044118E+03 -0.56116760445E+03  0.57252775264E+03  0.10100000352E+00 0. -1.
       -3    1    3    3    0  502 -0.46679890598E+02 -0.10344044118E+03  0.12473563103E+03  0.16863547938E+03  0.10100000352E+00 0.  1.
</event>
<event>
 5   0  0.9303190E-03  0.5999303E+03  0.7818609E-02  0.9905551E-01
        2   -1    0    0  501    0  0.00000000000E+00  0.00000000000E+00  0.87009824676E+03  0.87009824676E+03  0.25500000920E-02 0. -1.
       -2   -1    0    0    0  501  0.00000000000E+00  0.00000000000E+00 -0.10341255460E+03  0.10341255463E+03  0.25500000920E-02 0.  1.
    10030    2    1    2    0    0  0.00000000000E+00  0.00000000000E+00  0.76668569216E+03  0.97351080140E+03  0.59993027085E+03 0.  0.
        4    1    3    3  502    0  0.13889407702E+03 -0.10150677153E+02 -0.47768697073E+02  0.14723471805E+03  0.12699999809E+01 0.  1.
       -4    1    3    3    0  502 -0.13889407702E+03  0.10150677153E+02  0.81445438923E+03  0.82627608335E+03  0.12699999809E+01 0. -1.
</event>
<event>
 5   0  0.5891927E-03  0.6065975E+03  0.7818609E-02  0.9891812E-01
        1   -1    0    0  501    0  0.00000000000E+00  0.00000000000E+00  0.82129995597E+03  0.82129995599E+03  0.50400001928E-02 0.  1.
       -1   -1    0    0    0  501  0.00000000000E+00  0.00000000000E+00 -0.11200553090E+03  0.11200553102E+03  0.50400001928E-02 0. -1.
    10030    2    1    2    0    0  0.00000000000E+00  0.00000000000E+00  0.70929442507E+03  0.93330548700E+03  0.60659751948E+03 0.  0.
        4    1    3    3  502    0 -0.84785611537E+02  0.27152184407E+03  0.51657112802E+03  0.58971184059E+03  0.12699999809E+01 0.  1.
       -4    1    3    3    0  502  0.84785611537E+02 -0.27152184407E+03  0.19272329704E+03  0.34359364641E+03  0.12699999809E+01 0. -1.
</event>
<event>
 5   0  0.9391405E-03  0.6005273E+03  0.7818609E-02  0.9904313E-01
       -2   -1    0    0    0  501  0.00000000000E+00  0.00000000000E+00  0.17355495129E+03  0.17355495131E+03  0.25500000920E-02 0.  1.
        2   -1    0    0  501    0  0.00000000000E+00  0.00000000000E+00 -0.51947958113E+03  0.51947958113E+03  0.25500000920E-02 0. -1.
    10030    2    1    2    0    0  0.00000000000E+00  0.00000000000E+00 -0.34592462984E+03  0.69303453244E+03  0.60052727967E+03 0.  0.
        2    1    3    3  502    0 -0.90701723982E+02 -0.28388443157E+03 -0.13070036742E+03  0.32542243203E+03  0.25500000920E-02 0. -1.
       -2    1    3    3    0  502  0.90701723982E+02  0.28388443157E+03 -0.21522426242E+03  0.36761210040E+03  0.25500000920E-02 0.  1.
</event>
<event>
 5   0  0.5790967E-03  0.5986581E+03  0.7818609E-02  0.9908194E-01
       -1   -1    0    0    0  501  0.00000000000E+00  0.00000000000E+00  0.24635198079E+03  0.24635198084E+03  0.50400001928E-02 0.  1.
        1   -1    0    0  501    0  0.00000000000E+00  0.00000000000E+00 -0.36369865240E+03  0.36369865244E+03  0.50400001928E-02 0. -1.
    10030    2    1    2    0    0  0.00000000000E+00  0.00000000000E+00 -0.11734667161E+03  0.61005063328E+03  0.59865811097E+03 0.  0.
        3    1    3    3  502    0  0.35156129989E+02  0.15857081522E+03  0.19754174906E+03  0.25574090353E+03  0.10100000352E+00 0.  1.
       -3    1    3    3    0  502 -0.35156129989E+02 -0.15857081522E+03 -0.31488842068E+03  0.35430972975E+03  0.10100000352E+00 0. -1.
</event>
<event>
 5   0  0.9822607E-03  0.6022208E+03  0.7818609E-02  0.9900809E-01
       -2   -1    0    0    0  501  0.00000000000E+00  0.00000000000E+00  0.79158740421E+03  0.79158740421E+03  0.25500000920E-02 0.  1.
        2   -1    0    0  501    0  0.00000000000E+00  0.00000000000E+00 -0.11453878529E+03  0.11453878532E+03  0.25500000920E-02 0. -1.
    10030    2    1    2    0    0  0.00000000000E+00  0.00000000000E+00  0.67704861892E+03  0.90612618953E+03  0.60222075601E+03 0.  0.
        3    1    3    3  502    0 -0.89086825596E+01  0.28465599556E+03  0.48563367064E+03  0.56298176941E+03  0.10100000352E+00 0.  1.
       -3    1    3    3    0  502  0.89086825596E+01 -0.28465599556E+03  0.19141494829E+03  0.34314442012E+03  0.10100000352E+00 0. -1.
</event>
<event>
 5   0  0.6078658E-03  0.6010622E+03  0.7818609E-02  0.9903205E-01
        1   -1    0    0  501    0  0.00000000000E+00  0.00000000000E+00  0.62486035903E+03  0.62486035905E+03  0.50400001928E-02 0. -1.
       -1   -1    0    0    0  501  0.00000000000E+00  0.00000000000E+00 -0.14454261777E+03  0.14454261786E+03  0.50400001928E-02 0.  1.
    10030    2    1    2    0    0  0.00000000000E+00  0.00000000000E+00  0.48031774125E+03  0.76940297691E+03  0.60106223331E+03 0.  0.
        2    1    3    3  502    0 -0.29481123006E+03  0.21627245749E+02  0.30953774874E+03  0.42801287017E+03  0.25500000920E-02 0.  1.
       -2    1    3    3    0  502  0.29481123006E+03 -0.21627245749E+02  0.17077999251E+03  0.34139010674E+03  0.25500000920E-02 0. -1.
</event>
<event>
 5   0  0.9391405E-03  0.6000779E+03  0.7818609E-02  0.9905245E-01
        2   -1    0    0  501    0  0.00000000000E+00  0.00000000000E+00  0.10931014483E+04  0.10931014483E+04  0.25500000920E-02 0. -1.
       -2   -1    0    0    0  501  0.00000000000E+00  0.00000000000E+00 -0.82355902867E+02  0.82355902907E+02  0.25500000920E-02 0.  1.
    10030    2    1    2    0    0  0.00000000000E+00  0.00000000000E+00  0.10107455454E+04  0.11754573512E+04  0.60007785070E+03 0.  0.
        2    1    3    3  502    0 -0.18015032678E+03  0.21458952836E+03  0.71562272264E+03  0.76851720026E+03  0.25500000920E-02 0.  1.
       -2    1    3    3    0  502  0.18015032678E+03 -0.21458952836E+03  0.29512282280E+03  0.40694015096E+03  0.25500000920E-02 0. -1.
</event>
<event>
 5   0  0.9028473E-03  0.5990726E+03  0.7818609E-02  0.9907332E-01
       -2   -1    0    0    0  501  0.00000000000E+00  0.00000000000E+00  0.98623171899E+02  0.98623171932E+02  0.25500000920E-02 0. -1.
        2   -1    0    0  501    0  0.00000000000E+00  0.00000000000E+00 -0.90974547929E+03  0.90974547929E+03  0.25500000920E-02 0.  1.
    10030    2    1    2    0    0  0.00000000000E+00  0.00000000000E+00 -0.81112230739E+03  0.10083686512E+04  0.59907256591E+03 0.  0.
        1    1    3    3  502    0 -0.11137453236E+03 -0.42930384332E+01 -0.87354147882E+03  0.88062332009E+03  0.50400001928E-02 0.  1.
       -1    1    3    3    0  502  0.11137453236E+03  0.42930384332E+01  0.62419171435E+02  0.12774533113E+03  0.50400001928E-02 0. -1.
</event>
<event>
 5   0  0.5765045E-03  0.5996713E+03  0.7818609E-02  0.9906088E-01
       -1   -1    0    0    0  501  0.00000000000E+00  0.00000000000E+00  0.26253474987E+03  0.26253474992E+03  0.50400001928E-02 0.  1.
        1   -1    0    0  501    0  0.00000000000E+00  0.00000000000E+00 -0.34243623469E+03  0.34243623473E+03  0.50400001928E-02 0. -1.
    10030    2    1    2    0    0  0.00000000000E+00  0.00000000000E+00 -0.79901484818E+02  0.60497098465E+03  0.59967128078E+03 0.  0.
        1    1    3    3  502    0 -0.10033598728E+03 -0.17344308567E+03  0.18507116828E+03  0.27276574503E+03  0.50400001928E-02 0.  1.
       -1    1    3    3    0  502  0.10033598728E+03  0.17344308567E+03 -0.26497265310E+03  0.33220523961E+03  0.50400001928E-02 0. -1.
</event>
<event>
 5   0  0.6078658E-03  0.6010884E+03  0.7818609E-02  0.9903150E-01
        1   -1    0    0  501    0  0.00000000000E+00  0.00000000000E+00  0.35101233793E+03  0.35101233796E+03  0.50400001928E-02 0.  1.
       -1   -1    0    0    0  501  0.00000000000E+00  0.00000000000E+00 -0.25733234491E+03  0.25733234496E+03  0.50400001928E-02 0. -1.
    10030    2    1    2    0    0  0.00000000000E+00  0.00000000000E+00  0.93679993021E+02  0.60834468292E+03  0.60108843954E+03 0.  0.
        2    1    3    3  502    0  0.62076605366E+02 -0.10572704722E+03 -0.23087206376E+03  0.26140700694E+03  0.25500000920E-02 0. -1.
       -2    1    3    3    0  502 -0.62076605366E+02  0.10572704722E+03  0.32455205678E+03  0.34693767598E+03  0.25500000920E-02 0.  1.
</event>
<event>
 5   0  0.9391405E-03  0.5996895E+03  0.7818609E-02  0.9906051E-01
        2   -1    0    0  501    0  0.00000000000E+00  0.00000000000E+00  0.56931187475E+03  0.56931187475E+03  0.25500000920E-02 0. -1.
       -2   -1    0    0    0  501  0.00000000000E+00  0.00000000000E+00 -0.15792198268E+03  0.15792198270E+03  0.25500000920E-02 0.  1.
    10030    2    1    2    0    0  0.00000000000E+00  0.00000000000E+00  0.41138989207E+03  0.72723385746E+03  0.59968945308E+03 0.  0.
        2    1    3    3  502    0 -0.23538964293E+03 -0.17321476470E+03  0.12438882944E+03  0.31762276305E+03  0.25500000920E-02 0.  1.
       -2    1    3    3    0  502  0.23538964293E+03  0.17321476470E+03  0.28700106263E+03  0.40961109441E+03  0.25500000920E-02 0. -1.
</event>
<event>
 5   0  0.9303190E-03  0.5995884E+03  0.7818609E-02  0.9906260E-01
        2   -1    0    0  501    0  0.00000000000E+00  0.00000000000E+00  0.88377125054E+03  0.88377125054E+03  0.25500000920E-02 0. -1.
       -2   -1    0    0    0  501  0.00000000000E+00  0.00000000000E+00 -0.10169665162E+03  0.10169665165E+03  0.25500000920E-02 0.  1.
    10030    2    1    2    0    0  0.00000000000E+00  0.00000000000E+00  0.78207459892E+03  0.98546790219E+03  0.59958844883E+03 0.  0.
        4    1    3    3  502    0  0.14918101837E+03  0.24684835882E+03  0.25664686074E+03  0.38608070726E+03  0.12699999809E+01 0.  1.
       -4    1    3    3    0  502 -0.14918101837E+03 -0.24684835882E+03  0.52542773818E+03  0.59938719493E+03  0.12699999809E+01 0. -1.
</event>
<event>
 5   0  0.9822607E-03  0.6033046E+03  0.7818609E-02  0.9898574E-01
        2   -1    0    0  501    0  0.00000000000E+00  0.00000000000E+00  0.32151787527E+03  0.32151787528E+03  0.25500000920E-02 0. -1.
       -2   -1    0    0    0  501  0.00000000000E+00  0.00000000000E+00 -0.28301415310E+03  0.28301415311E+03  0.25500000920E-02 0.  1.
    10030    2    1    2    0    0  0.00000000000E+00  0.00000000000E+00  0.38503722164E+02  0.60453202839E+03  0.60330459698E+03 0.  0.
        3    1    3    3  502    0  0.59786843660E+02  0.24648295047E+02 -0.27598650697E+03  0.28346175642E+03  0.10100000352E+00 0.  1.
       -3    1    3    3    0  502 -0.59786843660E+02 -0.24648295047E+02  0.31449022913E+03  0.32107027197E+03  0.10100000352E+00 0. -1.
</event>
<event>
 5   0  0.9162342E-03  0.5987738E+03  0.7818609E-02  0.9907953E-01
       -2   -1    0    0    0  501  0.00000000000E+00  0.00000000000E+00  0.32652671006E+03  0.32652671007E+03  0.25500000920E-02 0. -1.
        2   -1    0    0  501    0  0.00000000000E+00  0.00000000000E+00 -0.27450284135E+03  0.27450284137E+03  0.25500000920E-02 0.  1.
    10030    2    1    2    0    0  0.00000000000E+00  0.00000000000E+00  0.52023868704E+02  0.60102955143E+03  0.59877377930E+03 0.  0.
        5    1    3    3  502    0 -0.76532306434E+01  0.28008403668E+02  0.32507290986E+03  0.32640087214E+03  0.46999998093E+01 0. -1.
       -5    1    3    3    0  502  0.76532306434E+01 -0.28008403668E+02 -0.27304904115E+03  0.27462867929E+03  0.46999998093E+01 0.  1.
</event>
<event>
 5   0  0.5891927E-03  0.6005399E+03  0.7818609E-02  0.9904286E-01
       -1   -1    0    0    0  501  0.00000000000E+00  0.00000000000E+00  0.32028915373E+03  0.32028915377E+03  0.50400001928E-02 0.  1.
        1   -1    0    0  501    0  0.00000000000E+00  0.00000000000E+00 -0.28150205244E+03  0.28150205249E+03  0.50400001928E-02 0. -1.
    10030    2    1    2    0    0  0.00000000000E+00  0.00000000000E+00  0.38787101284E+02  0.60179120626E+03  0.60053993764E+03 0.  0.
        4    1    3    3  502    0  0.28274487423E+03 -0.86420863171E+02  0.71916609749E+02  0.30428085900E+03  0.12699999809E+01 0.  1.
       -4    1    3    3    0  502 -0.28274487423E+03  0.86420863171E+02 -0.33129508465E+02  0.29751034726E+03  0.12699999809E+01 0. -1.
</event>
<event>
 5   0  0.5790967E-03  0.5948764E+03  0.7818609E-02  0.9916093E-01
        1   -1    0    0  501    0  0.00000000000E+00  0.00000000000E+00  0.38608744327E+03  0.38608744330E+03  0.50400001928E-02 0.  1.
       -1   -1    0    0    0  501  0.00000000000E+00  0.00000000000E+00 -0.22914367630E+03  0.22914367635E+03  0.50400001928E-02 0. -1.
    10030    2    1    2    0    0  0.00000000000E+00  0.00000000000E+00  0.15694376697E+03  0.61523111966E+03  0.59487644482E+03 0.  0.
        3    1    3    3  502    0 -0.25673837787E+03  0.35248315752E+02  0.22945493048E+03  0.34613091997E+03  0.10100000352E+00 0.  1.
       -3    1    3    3    0  502  0.25673837787E+03 -0.35248315752E+02 -0.72511163514E+02  0.26910019969E+03  0.10100000352E+00 0. -1.
</event>
<event>
 5   0  0.5891927E-03  0.6004044E+03  0.7818609E-02  0.9904567E-01
        1   -1    0    0  501    0  0.00000000000E+00  0.00000000000E+00  0.23350587785E+04  0.23350587785E+04  0.50400001928E-02 0.  1.
       -1   -1    0    0    0  501  0.00000000000E+00  0.00000000000E+00 -0.38594898219E+02  0.38594898548E+02  0.50400001928E-02 0. -1.
    10030    2    1    2    0    0  0.00000000000E+00  0.00000000000E+00  0.22964638803E+04  0.23736536771E+04  0.60040438469E+03 0.  0.
        4    1    3    3  502    0 -0.18212289129E+03 -0.15063256011E+03  0.18799982730E+04  0.18947965683E+04  0.12699999809E+01 0.  1.
       -4    1    3    3    0  502  0.18212289129E+03  0.15063256011E+03  0.41646560727E+03  0.47885710878E+03  0.12699999809E+01 0. -1.
</event>
<event>
 5   0  0.9303190E-03  0.5993910E+03  0.7818609E-02  0.9906670E-01
        2   -1    0    0  501    0  0.00000000000E+00  0.00000000000E+00  0.58711708327E+03  0.58711708327E+03  0.25500000920E-02 0.  1.
       -2   -1    0    0    0  501  0.00000000000E+00  0.00000000000E+00 -0.15298038767E+03  0.15298038769E+03  0.25500000920E-02 0. -1.
    10030    2    1    2    0    0  0.00000000000E+00  0.00000000000E+00  0.43413669560E+03  0.74009747097E+03  0.59939102101E+03 0.  0.
        4    1    3    3  502    0  0.28050734657E+03 -0.47478094403E+02  0.10073136533E+03  0.30180616592E+03  0.12699999809E+01 0. -1.
       -4    1    3    3    0  502 -0.28050734657E+03  0.47478094403E+02  0.33340533027E+03  0.43829130505E+03  0.12699999809E+01 0.  1.
</event>
<event>
 5   0  0.9303190E-03  0.6006584E+03  0.7818609E-02  0.9904041E-01
        2   -1    0    0  501    0  0.00000000000E+00  0.00000000000E+00  0.11075284583E+04  0.11075284584E+04  0.25500000920E-02 0. -1.
       -2   -1    0    0    0  501  0.00000000000E+00  0.00000000000E+00 -0.81440452729E+02  0.81440452768E+02  0.25500000920E-02 0.  1.
    10030    2    1    2    0    0  0.00000000000E+00  0.00000000000E+00  0.10260880056E+04  0.11889689111E+04  0.60065836907E+03 0.  0.
        4    1    3    3  502    0 -0.61628115324E+02  0.22149239984E+03  0.13054978001E+03  0.26438942064E+03  0.12699999809E+01 0.  1.
       -4    1    3    3    0  502  0.61628115324E+02 -0.22149239984E+03  0.89553822561E+03  0.92457949048E+03  0.12699999809E+01 0. -1.
</event>
<event>
 5   0  0.5819446E-03  0.6024643E+03  0.7818609E-02  0.9900307E-01
       -1   -1    0    0    0  501  0.00000000000E+00  0.00000000000E+00  0.18732981789E+03  0.18732981796E+03  0.50400001928E-02 0.  1.
        1   -1    0    0  501    0  0.00000000000E+00  0.00000000000E+00 -0.48439059214E+03  0.48439059217E+03  0.50400001928E-02 0. -1.
    10030    2    1    2    0    0  0.00000000000E+00  0.00000000000E+00 -0.29706077425E+03  0.67172041013E+03  0.60246427760E+03 0.  0.
        5    1    3    3  502    0 -0.11520465634E+03 -0.17369883859E+03  0.93892961356E+02  0.22865121378E+03  0.46999998093E+01 0.  1.
       -5    1    3    3    0  502  0.11520465634E+03  0.17369883859E+03 -0.39095373561E+03  0.44306919635E+03  0.46999998093E+01 0. -1.
</event>
<event>
 5   0  0.9391405E-03  0.6002981E+03  0.7818609E-02  0.9904788E-01
       -2   -1    0    0    0  501  0.00000000000E+00  0.00000000000E+00  0.11285126771E+03  0.11285126774E+03  0.25500000920E-02 0. -1.
        2   -1    0    0  501    0  0.00000000000E+00  0.00000000000E+00 -0.79830255977E+03  0.79830255977E+03  0.25500000920E-02 0.  1.
    10030    2    1    2    0    0  0.00000000000E+00  0.00000000000E+00 -0.68545129206E+03  0.91115382751E+03  0.60029811227E+03 0.  0.
        2    1    3    3  502    0 -0.11627832594E+03 -0.25018447966E+03 -0.16328350081E+03  0.32058450459E+03  0.25500000920E-02 0.  1.
       -2    1    3    3    0  502  0.11627832594E+03  0.25018447966E+03 -0.52216779125E+03  0.59056932292E+03  0.25500000920E-02 0. -1.
</event>
<event>
 5   0  0.6078658E-03  0.6007349E+03  0.7818609E-02  0.9903883E-01
       -1   -1    0    0    0  501  0.00000000000E+00  0.00000000000E+00  0.17975192170E+03  0.17975192178E+03  0.50400001928E-02 0. -1.
        1   -1    0    0  501    0  0.00000000000E+00  0.00000000000E+00 -0.50191727607E+03  0.50191727610E+03  0.50400001928E-02 0.  1.
    10030    2    1    2    0    0  0.00000000000E+00  0.00000000000E+00 -0.32216535437E+03  0.68166919787E+03  0.60073486645E+03 0.  0.
        2    1    3    3  502    0  0.15805612304E+03  0.60277055087E+02  0.12056144550E+03  0.20772607816E+03  0.25500000920E-02 0. -1.
       -2    1    3    3    0  502 -0.15805612304E+03 -0.60277055087E+02 -0.44272679987E+03  0.47394311972E+03  0.25500000920E-02 0.  1.
</event>
<event>
 5   0  0.5790967E-03  0.5999470E+03  0.7818609E-02  0.9905516E-01
       -1   -1    0    0    0  501  0.00000000000E+00  0.00000000000E+00  0.31599171439E+03  0.31599171443E+03  0.50400001928E-02 0. -1.
        1   -1    0    0  501    0  0.00000000000E+00  0.00000000000E+00 -0.28476732004E+03  0.28476732009E+03  0.50400001928E-02 0.  1.
    10030    2    1    2    0    0  0.00000000000E+00  0.00000000000E+00  0.31224394345E+02  0.60075903452E+03  0.59994704329E+03 0.  0.
        3    1    3    3  502    0 -0.25452887494E+03 -0.35194453129E+02  0.17061351263E+03  0.30843569606E+03  0.10100000352E+00 0. -1.
       -3    1    3    3    0  502  0.25452887494E+03  0.35194453129E+02 -0.13938911828E+03  0.29232333846E+03  0.10100000352E+00 0.  1.
</event>
<event>
 5   0  0.9162342E-03  0.6007910E+03  0.7818609E-02  0.9903766E-01
        2   -1    0    0  501    0  0.00000000000E+00  0.00000000000E+00  0.58555725956E+03  0.58555725956E+03  0.25500000920E-02 0. -1.
       -2   -1    0    0    0  501  0.00000000000E+00  0.00000000000E+00 -0.15410528998E+03  0.15410529000E+03  0.25500000920E-02 0.  1.
    10030    2    1    2    0    0  0.00000000000E+00  0.00000000000E+00  0.43145196958E+03  0.73966254956E+03  0.60079104951E+03 0.  0.
        5    1    3    3  502    0 -0.19737776418E+02  0.14074628621E+03  0.54149494838E+03  0.55985530811E+03  0.46999998093E+01 0. -1.
       -5    1    3    3    0  502  0.19737776418E+02 -0.14074628621E+03 -0.11004297880E+03  0.17980724145E+03  0.46999998093E+01 0.  1.
</event>
<event>
 5   0  0.9028473E-03  0.6006614E+03  0.7818609E-02  0.9904035E-01
       -2   -1    0    0    0  501  0.00000000000E+00  0.00000000000E+00  0.13381835261E+03  0.13381835263E+03  0.25500000920E-02 0. -1.
        2   -1    0    0  501    0  0.00000000000E+00  0.00000000000E+00 -0.67403701422E+03  0.67403701422E+03  0.25500000920E-02 0.  1.
    10030    2    1    2    0    0  0.00000000000E+00  0.00000000000E+00 -0.54021866161E+03  0.80785536686E+03  0.60066137832E+03 0.  0.
        1    1    3    3  502    0  0.15385282211E+03  0.19986190684E+03 -0.50825650531E+02  0.25729111811E+03  0.50400001928E-02 0. -1.
       -1    1    3    3    0  502 -0.15385282211E+03 -0.19986190684E+03 -0.48939301108E+03  0.55056424875E+03  0.50400001928E-02 0.  1.
</event>
<event>
 5   0  0.5891927E-03  0.5999903E+03  0.7818609E-02  0.9905426E-01
       -1   -1    0    0    0  501  0.00000000000E+00  0.00000000000E+00  0.11258028254E+03  0.11258028266E+03  0.50400001928E-02 0. -1.
        1   -1    0    0  501    0  0.00000000000E+00  0.00000000000E+00 -0.79940365671E+03  0.79940365673E+03  0.50400001928E-02 0.  1.
    10030    2    1    2    0    0  0.00000000000E+00  0.00000000000E+00 -0.68682337417E+03  0.91198393938E+03  0.59999029858E+03 0.  0.
        4    1    3    3  502    0 -0.97702093189E+02  0.25443689052E+03 -0.53393749444E+03  0.59947868280E+03  0.12699999809E+01 0.  1.
       -4    1    3    3    0  502  0.97702093189E+02 -0.25443689052E+03 -0.15288587973E+03  0.31250525658E+03  0.12699999809E+01 0. -1.
</event>
<event>
 5   0  0.6078658E-03  0.6000199E+03  0.7818609E-02  0.9905365E-01
        1   -1    0    0  501    0  0.00000000000E+00  0.00000000000E+00  0.39735992566E+03  0.39735992569E+03  0.50400001928E-02 0. -1.
       -1   -1    0    0    0  501  0.00000000000E+00  0.00000000000E+00 -0.22650994160E+03  0.22650994165E+03  0.50400001928E-02 0.  1.
    10030    2    1    2    0    0  0.00000000000E+00  0.00000000000E+00  0.17084998406E+03  0.62386986734E+03  0.60001991161E+03 0.  0.
        2    1    3    3  502    0 -0.87282843309E+02  0.63213310880E+02  0.37653929535E+03  0.39165808859E+03  0.25500000920E-02 0. -1.
       -2    1    3    3    0  502  0.87282843309E+02 -0.63213310880E+02 -0.20568931129E+03  0.23221177876E+03  0.25500000920E-02 0.  1.
</event>
<event>
 5   0  0.5790967E-03  0.6018085E+03  0.7818609E-02  0.9901661E-01
        1   -1    0    0  501    0  0.00000000000E+00  0.00000000000E+00  0.72724601773E+03  0.72724601774E+03  0.50400001928E-02 0. -1.
       -1   -1    0    0    0  501  0.00000000000E+00  0.00000000000E+00 -0.12450170872E+03  0.12450170883E+03  0.50400001928E-02 0.  1.
    10030    2    1    2    0    0  0.00000000000E+00  0.00000000000E+00  0.60274430900E+03  0.85174772657E+03  0.60180851413E+03 0.  0.
        3    1    3    3  502    0  0.49289118956E+02  0.27558046572E+02  0.71967930929E+03  0.72189139183E+03  0.10100000352E+00 0. -1.
       -3    1    3    3    0  502 -0.49289118956E+02 -0.27558046572E+02 -0.11693500029E+03  0.12985633474E+03  0.10100000352E+00 0.  1.
</event>
<event>
 5   0  0.9303190E-03  0.6009865E+03  0.7818609E-02  0.9903362E-01
        2   -1    0    0  501    0  0.00000000000E+00  0.00000000000E+00  0.37625453712E+03  0.37625453713E+03  0.25500000920E-02 0.  1.
       -2   -1    0    0    0  501  0.00000000000E+00  0.00000000000E+00 -0.23998697678E+03  0.23998697680E+03  0.25500000920E-02 0. -1.
    10030    2    1    2    0    0  0.00000000000E+00  0.00000000000E+00  0.13626756034E+03  0.61624151393E+03  0.60098648528E+03 0.  0.
        4    1    3    3  502    0 -0.18654580087E+03 -0.14489136863E+03 -0.12232749650E+03  0.26600465001E+03  0.12699999809E+01 0. -1.
       -4    1    3    3    0  502  0.18654580087E+03  0.14489136863E+03  0.25859505683E+03  0.35023686392E+03  0.12699999809E+01 0.  1.
</event>
<event>
 5   0  0.5819446E-03  0.5999241E+03  0.7818609E-02  0.9905564E-01
        1   -1    0    0  501    0  0.00000000000E+00  0.00000000000E+00  0.35182351873E+03  0.35182351876E+03  0.50400001928E-02 0.  1.
       -1   -1    0    0    0  501  0.00000000000E+00  0.00000000000E+00 -0.25574533854E+03  0.25574533859E+03  0.50400001928E-02 0. -1.
    10030    2    1    2    0    0  0.00000000000E+00  0.00000000000E+00  0.96078180183E+02  0.60756885736E+03  0.59992407830E+03 0.  0.
        5    1    3    3  502    0  0.23654523337E+03 -0.10495423144E+03 -0.10550454831E+03  0.27950373493E+03  0.46999998093E+01 0. -1.
       -5    1    3    3    0  502 -0.23654523337E+03  0.10495423144E+03  0.20158272849E+03  0.32806512243E+03  0.46999998093E+01 0.  1.
</event>
<event>
 5   0  0.9822607E-03  0.6011525E+03  0.7818609E-02  0.9903018E-01
        2   -1    0    0  501    0  0.00000000000E+00  0.00000000000E+00  0.46756630141E+03  0.46756630142E+03  0.25500000920E-02 0.  1.
       -2   -1    0    0    0  501  0.00000000000E+00  0.00000000000E+00 -0.19322625471E+03  0.19322625472E+03  0.25500000920E-02 0. -1.
    10030    2    1    2    0    0  0.00000000000E+00  0.00000000000E+00  0.27434004671E+03  0.66079255614E+03  0.60115251062E+03 0.  0.
        3    1    3    3  502    0 -0.19994034612E+02 -0.15365526315E+03  0.42028076040E+03  0.44793484915E+03  0.10100000352E+00 0.  1.
       -3    1    3    3    0  502  0.19994034612E+02  0.15365526315E+03 -0.14594071370E+03  0.21285770700E+03  0.10100000352E+00 0. -1.
</event>
<event>
 5   0  0.9822607E-03  0.5994952E+03  0.7818609E-02  0.9906454E-01
       -2   -1    0    0    0  501  0.00000000000E+00  0.00000000000E+00  0.17817893004E+03  0.17817893006E+03  0.25500000920E-02 0.  1.
        2   -1    0    0  501    0  0.00000000000E+00  0.00000000000E+00 -0.50426061009E+03  0.50426061009E+03  0.25500000920E-02 0. -1.
    10030    2    1    2    0    0  0.00000000000E+00  0.00000000000E+00 -0.32608168005E+03  0.68243954015E+03  0.59949517421E+03 0.  0.
        3    1    3    3  502    0 -0.27612981584E+03 -0.11005000790E+03 -0.20698092464E+03  0.36221511951E+03  0.10100000352E+00 0. -1.
       -3    1    3    3    0  502  0.27612981584E+03  0.11005000790E+03 -0.11910075541E+03  0.32022442064E+03  0.10100000352E+00 0.  1.
</event>
<event>
 5   0  0.5819446E-03  0.6017223E+03  0.7818609E-02  0.9901839E-01
       -1   -1    0    0    0  501  0.00000000000E+00  0.00000000000E+00  0.31105731561E+03  0.31105731565E+03  0.50400001928E-02 0.  1.
        1   -1    0    0  501    0  0.00000000000E+00  0.00000000000E+00 -0.29099923503E+03  0.29099923508E+03  0.50400001928E-02 0. -1.
    10030    2    1    2    0    0  0.00000000000E+00  0.00000000000E+00  0.20058080572E+02  0.60205655073E+03  0.60172233104E+03 0.  0.
        5    1    3    3  502    0  0.61484463511E+02 -0.20052571436E+03 -0.20573964282E+03  0.29383973863E+03  0.46999998093E+01 0. -1.
       -5    1    3    3    0  502 -0.61484463511E+02  0.20052571436E+03  0.22579772339E+03  0.30821681210E+03  0.46999998093E+01 0.  1.
</event>
<event>
 5   0  0.3806250E-03  0.5998784E+03  0.7818609E-02  0.9905658E-01
        3   -1    0    0  501    0  0.00000000000E+00  0.00000000000E+00  0.76607370279E+02  0.76607436859E+02  0.10100000352E+00 0.  1.
       -3   -1    0    0    0  501  0.00000000000E+00  0.00000000000E+00 -0.11743450625E+04  0.11743450669E+04  0.10100000352E+00 0. -1.
    10030    2    1    2    0    0  0.00000000000E+00  0.00000000000E+00 -0.10977376923E+04  0.12509525037E+04  0.59987842569E+03 0.  0.
        3    1    3    3  502    0 -0.24258313720E+03 -0.10461119816E+03 -0.84505691335E+03  0.88538764292E+03  0.10100000352E+00 0. -1.
       -3    1    3    3    0  502  0.24258313720E+03  0.10461119816E+03 -0.25268077891E+03  0.36556486082E+03  0.10100000352E+00 0.  1.
</event>
<event>
 5   0  0.3806250E-03  0.6051341E+03  0.7818609E-02  0.9894811E-01
       -3   -1    0    0    0  501  0.00000000000E+00  0.00000000000E+00  0.45956303537E+03  0.45956304647E+03  0.10100000352E+00 0.  1.
        3   -1    0    0  501    0  0.00000000000E+00  0.00000000000E+00 -0.19920401587E+03  0.19920404147E+03  0.10100000352E+00 0. -1.
    10030    2    1    2    0    0  0.00000000000E+00  0.00000000000E+00  0.26035901950E+03  0.65876708794E+03  0.60513408194E+03 0.  0.
        1    1    3    3  502    0  0.64601895672E+02  0.52980533317E+02 -0.18639751083E+03  0.20426544961E+03  0.50400001928E-02 0. -1.
       -1    1    3    3    0  502 -0.64601895672E+02 -0.52980533317E+02  0.44675653033E+03  0.45450163834E+03  0.50400001928E-02 0.  1.
</event>
<event>
 5   0  0.5819446E-03  0.6000553E+03  0.7818609E-02  0.9905291E-01
       -1   -1    0    0    0  501  0.00000000000E+00  0.00000000000E+00  0.20499084861E+03  0.20499084868E+03  0.50400001928E-02 0.  1.
        1   -1    0    0  501    0  0.00000000000E+00  0.00000000000E+00 -0.43912494762E+03  0.43912494765E+03  0.50400001928E-02 0. -1.
    10030    2    1    2    0    0  0.00000000000E+00  0.00000000000E+00 -0.23413409901E+03  0.64411579633E+03  0.60005531642E+03 0.  0.
        5    1    3    3  502    0 -0.45323443453E+02  0.14133190425E+03 -0.39691181547E+03  0.42378060472E+03  0.46999998093E+01 0. -1.
       -5    1    3    3    0  502  0.45323443453E+02 -0.14133190425E+03  0.16277771646E+03  0.22033519160E+03  0.46999998093E+01 0.  1.
</event>
<event>
 5   0  0.9822607E-03  0.5994617E+03  0.7818609E-02  0.9906524E-01
       -2   -1    0    0    0  501  0.00000000000E+00  0.00000000000E+00  0.38033171527E+03  0.38033171528E+03  0.25500000920E-02 0. -1.
        2   -1    0    0  501    0  0.00000000000E+00  0.00000000000E+00 -0.23621108998E+03  0.23621109000E+03  0.25500000920E-02 0.  1.
    10030    2    1    2    0    0  0.00000000000E+00  0.00000000000E+00  0.14412062529E+03  0.61654280528E+03  0.59946165524E+03 0.  0.
        3    1    3    3  502    0  0.29511637702E+03  0.32776594645E+02  0.11409764642E+03  0.31809788472E+03  0.10100000352E+00 0.  1.
       -3    1    3    3    0  502 -0.29511637702E+03 -0.32776594645E+02  0.30022978870E+02  0.29844492056E+03  0.10100000352E+00 0. -1.
</event>
<event>
 5   0  0.5819446E-03  0.6024876E+03  0.7818609E-02  0.9900258E-01
        1   -1    0    0  501    0  0.00000000000E+00  0.00000000000E+00  0.37215688396E+03  0.37215688399E+03  0.50400001928E-02 0.  1.
       -1   -1    0    0    0  501  0.00000000000E+00  0.00000000000E+00 -0.24384295593E+03  0.24384295599E+03  0.50400001928E-02 0. -1.
    10030    2    1    2    0    0  0.00000000000E+00  0.00000000000E+00  0.12831392802E+03  0.61599983998E+03  0.60248762538E+03 0.  0.
        5    1    3    3  502    0 -0.34701331625E+02 -0.28953511993E+03 -0.12973486472E+02  0.29193350174E+03  0.46999998093E+01 0. -1.
       -5    1    3    3    0  502  0.34701331625E+02  0.28953511993E+03  0.14128741450E+03  0.32406633824E+03  0.46999998093E+01 0.  1.
</event>
<event>
 5   0  0.9391405E-03  0.5985502E+03  0.7818609E-02  0.9908419E-01
        2   -1    0    0  501    0  0.00000000000E+00  0.00000000000E+00  0.86061845326E+03  0.86061845326E+03  0.25500000920E-02 0. -1.
       -2   -1    0    0    0  501  0.00000000000E+00  0.00000000000E+00 -0.10407117449E+03  0.10407117452E+03  0.25500000920E-02 0.  1.
    10030    2    1    2    0    0  0.00000000000E+00  0.00000000000E+00  0.75654727877E+03  0.96468962778E+03  0.59855015908E+03 0.  0.
        2    1    3    3  502    0 -0.20032699319E+03 -0.12823251660E+03  0.67101588197E+03  0.71192471258E+03  0.25500000920E-02 0. -1.
       -2    1    3    3    0  502  0.20032699319E+03  0.12823251660E+03  0.85531396798E+02  0.25276491520E+03  0.25500000920E-02 0.  1.
</event>
<event>
 5   0  0.9028473E-03  0.5997082E+03  0.7818609E-02  0.9906012E-01
        2   -1    0    0  501    0  0.00000000000E+00  0.00000000000E+00  0.47146928954E+03  0.47146928954E+03  0.25500000920E-02 0.  1.
       -2   -1    0    0    0  501  0.00000000000E+00  0.00000000000E+00 -0.19070697907E+03  0.19070697909E+03  0.25500000920E-02 0. -1.
    10030    2    1    2    0    0  0.00000000000E+00  0.00000000000E+00  0.28076231047E+03  0.66217626863E+03  0.59970820885E+03 0.  0.
        1    1    3    3  502    0  0.17936589250E+03  0.15204891875E+03  0.34583131160E+03  0.41819886800E+03  0.50400001928E-02 0.  1.
       -1    1    3    3    0  502 -0.17936589250E+03 -0.15204891875E+03 -0.65069001132E+02  0.24397740063E+03  0.50400001928E-02 0. -1.
</event>
<event>
 5   0  0.5765045E-03  0.6000723E+03  0.7818609E-02  0.9905256E-01
        1   -1    0    0  501    0  0.00000000000E+00  0.00000000000E+00  0.78255260513E+03  0.78255260515E+03  0.50400001928E-02 0. -1.
       -1   -1    0    0    0  501  0.00000000000E+00  0.00000000000E+00 -0.11503594744E+03  0.11503594755E+03  0.50400001928E-02 0.  1.
    10030    2    1    2    0    0  0.00000000000E+00  0.00000000000E+00  0.66751665769E+03  0.89758855269E+03  0.60007226368E+03 0.  0.
        1    1    3    3  502    0 -0.57174413352E+01 -0.27060048390E+03  0.14008609483E+03  0.30476454029E+03  0.50400001928E-02 0.  1.
       -1    1    3    3    0  502  0.57174413352E+01  0.27060048390E+03  0.52743056286E+03  0.59282401241E+03  0.50400001928E-02 0. -1.
</event>
<event>
 5   0  0.9303190E-03  0.5998237E+03  0.7818609E-02  0.9905772E-01
        2   -1    0    0  501    0  0.00000000000E+00  0.00000000000E+00  0.21831347361E+04  0.21831347361E+04  0.25500000920E-02 0.  1.
       -2   -1    0    0    0  501  0.00000000000E+00  0.00000000000E+00 -0.41200896052E+02  0.41200896131E+02  0.25500000920E-02 0. -1.
    10030    2    1    2    0    0  0.00000000000E+00  0.00000000000E+00  0.21419338401E+04  0.22243356322E+04  0.59982366548E+03 0.  0.
        4    1    3    3  502    0  0.29318078310E+02  0.73937769052E+02 -0.13659034984E+01  0.79560178485E+02  0.12699999809E+01 0. -1.
       -4    1    3    3    0  502 -0.29318078310E+02 -0.73937769052E+02  0.21432997436E+04  0.21447754538E+04  0.12699999809E+01 0.  1.
</event>
<event>
 5   0  0.9303190E-03  0.5965815E+03  0.7818609E-02  0.9912524E-01
        2   -1    0    0  501    0  0.00000000000E+00  0.00000000000E+00  0.91834144601E+03  0.91834144601E+03  0.25500000920E-02 0. -1.
       -2   -1    0    0    0  501  0.00000000000E+00  0.00000000000E+00 -0.96889188612E+02  0.96889188645E+02  0.25500000920E-02 0.  1.
    10030    2    1    2    0    0  0.00000000000E+00  0.00000000000E+00  0.82145225740E+03  0.10152306347E+04  0.59658145325E+03 0.  0.
        4    1    3    3  502    0  0.17229912574E+02 -0.45657243887E+02  0.91149761976E+03  0.91280390968E+03  0.12699999809E+01 0. -1.
       -4    1    3    3    0  502 -0.17229912574E+02  0.45657243887E+02 -0.90045362361E+02  0.10242672498E+03  0.12699999809E+01 0.  1.
</event>
<event>
 5   0  0.9822607E-03  0.6025222E+03  0.7818609E-02  0.9900187E-01
        2   -1    0    0  501    0  0.00000000000E+00  0.00000000000E+00  0.32406343569E+03  0.32406343570E+03  0.25500000920E-02 0. -1.
       -2   -1    0    0    0  501  0.00000000000E+00  0.00000000000E+00 -0.28006324564E+03  0.28006324565E+03  0.25500000920E-02 0.  1.
    10030    2    1    2    0    0  0.00000000000E+00  0.00000000000E+00  0.44000190057E+02  0.60412668135E+03  0.60252222399E+03 0.  0.
        3    1    3    3  502    0 -0.90301916198E+02 -0.27932093498E+03 -0.45882676018E+02  0.29711925375E+03  0.10100000352E+00 0.  1.
       -3    1    3    3    0  502  0.90301916198E+02  0.27932093498E+03  0.89882866074E+02  0.30700742760E+03  0.10100000352E+00 0. -1.
</event>
<event>
 5   0  0.3806250E-03  0.6024547E+03  0.7818609E-02  0.9900326E-01
       -3   -1    0    0    0  501  0.00000000000E+00  0.00000000000E+00  0.15689015374E+03  0.15689018625E+03  0.10100000352E+00 0. -1.
        3   -1    0    0  501    0  0.00000000000E+00  0.00000000000E+00 -0.57835297603E+03  0.57835298485E+03  0.10100000352E+00 0.  1.
    10030    2    1    2    0    0  0.00000000000E+00  0.00000000000E+00 -0.42146282229E+03  0.73524317110E+03  0.60245465396E+03 0.  0.
        5    1    3    3  502    0  0.20719251718E+03  0.13703394095E+03 -0.41859159684E+03  0.48677310432E+03  0.46999998093E+01 0.  1.
       -5    1    3    3    0  502 -0.20719251718E+03 -0.13703394095E+03 -0.28712254536E+01  0.24847006678E+03  0.46999998093E+01 0. -1.
</event>
<event>
 5   0  0.5891927E-03  0.6022676E+03  0.7818609E-02  0.9900713E-01
        1   -1    0    0  501    0  0.00000000000E+00  0.00000000000E+00  0.51945306947E+03  0.51945306950E+03  0.50400001928E-02 0.  1.
       -1   -1    0    0    0  501  0.00000000000E+00  0.00000000000E+00 -0.17457125282E+03  0.17457125289E+03  0.50400001928E-02 0. -1.
    10030    2    1    2    0    0  0.00000000000E+00  0.00000000000E+00  0.34488181666E+03  0.69402432239E+03  0.60226762540E+03 0.  0.
        4    1    3    3  502    0 -0.23822288244E+03  0.17922231500E+03  0.12342623618E+03  0.32265527826E+03  0.12699999809E+01 0. -1.
       -4    1    3    3    0  502  0.23822288244E+03 -0.17922231500E+03  0.22145558048E+03  0.37136904413E+03  0.12699999809E+01 0.  1.
</event>
<event>
 5   0  0.6078658E-03  0.5956647E+03  0.7818609E-02  0.9914441E-01
       -1   -1    0    0    0  501  0.00000000000E+00  0.00000000000E+00  0.26118992771E+03  0.26118992776E+03  0.50400001928E-02 0. -1.
        1   -1    0    0  501    0  0.00000000000E+00  0.00000000000E+00 -0.33961535812E+03  0.33961535815E+03  0.50400001928E-02 0.  1.
    10030    2    1    2    0    0  0.00000000000E+00  0.00000000000E+00 -0.78425430404E+02  0.60080528592E+03  0.59566470724E+03 0.  0.
        2    1    3    3  502    0 -0.19570759763E+03 -0.20767586732E+03  0.46807406197E+02  0.28917410486E+03  0.25500000920E-02 0. -1.
       -2    1    3    3    0  502  0.19570759763E+03  0.20767586732E+03 -0.12523283660E+03  0.31163118106E+03  0.25500000920E-02 0.  1.
</event>
<event>
 5   0  0.9822607E-03  0.5997277E+03  0.7818609E-02  0.9905971E-01
       -2   -1    0    0    0  501  0.00000000000E+00  0.00000000000E+00  0.21264018345E+03  0.21264018346E+03  0.25500000920E-02 0. -1.
        2   -1    0    0  501    0  0.00000000000E+00  0.00000000000E+00 -0.42286605569E+03  0.42286605570E+03  0.25500000920E-02 0.  1.
    10030    2    1    2    0    0  0.00000000000E+00  0.00000000000E+00 -0.21022587224E+03  0.63550623916E+03  0.59972765707E+03 0.  0.
        3    1    3    3  502    0 -0.52099726159E+02  0.10965816301E+03 -0.39565836445E+03  0.41386573396E+03  0.10100000352E+00 0.  1.
       -3    1    3    3    0  502  0.52099726159E+02 -0.10965816301E+03  0.18543249221E+03  0.22164050521E+03  0.10100000352E+00 0. -1.
</event>
<event>
 5   0  0.9303190E-03  0.5994887E+03  0.7818609E-02  0.9906467E-01
        2   -1    0    0  501    0  0.00000000000E+00  0.00000000000E+00  0.99840464121E+03  0.99840464121E+03  0.25500000920E-02 0. -1.
       -2   -1    0    0    0  501  0.00000000000E+00  0.00000000000E+00 -0.89990253170E+02  0.89990253206E+02  0.25500000920E-02 0.  1.
    10030    2    1    2    0    0  0.00000000000E+00  0.00000000000E+00  0.90841438804E+03  0.10883948944E+04  0.59948873701E+03 0.  0.
        4    1    3    3  502    0  0.13478067120E+03  0.19243521276E+03  0.11626366582E+03  0.26213735584E+03  0.12699999809E+01 0.  1.
       -4    1    3    3    0  502 -0.13478067120E+03 -0.19243521276E+03  0.79215072222E+03  0.82625753858E+03  0.12699999809E+01 0. -1.
</event>
<event>
 5   0  0.9303190E-03  0.6000690E+03  0.7818609E-02  0.9905263E-01
        2   -1    0    0  501    0  0.00000000000E+00  0.00000000000E+00  0.27166510679E+03  0.27166510680E+03  0.25500000920E-02 0.  1.
       -2   -1    0    0    0  501  0.00000000000E+00  0.00000000000E+00 -0.33136640565E+03  0.33136640566E+03  0.25500000920E-02 0. -1.
    10030    2    1    2    0    0  0.00000000000E+00  0.00000000000E+00 -0.59701298864E+02  0.60303151246E+03  0.60006896264E+03 0.  0.
        4    1    3    3  502    0  0.24042232904E+02 -0.24986379086E+03  0.13530528141E+03  0.28516499614E+03  0.12699999809E+01 0.  1.
       -4    1    3    3    0  502 -0.24042232904E+02  0.24986379086E+03 -0.19500658028E+03  0.31786651632E+03  0.12699999809E+01 0. -1.
</event>
<event>
 5   0  0.5790967E-03  0.6004838E+03  0.7818609E-02  0.9904403E-01
        1   -1    0    0  501    0  0.00000000000E+00  0.00000000000E+00  0.17194515161E+03  0.17194515168E+03  0.50400001928E-02 0. -1.
       -1   -1    0    0    0  501  0.00000000000E+00  0.00000000000E+00 -0.52426718872E+03  0.52426718875E+03  0.50400001928E-02 0.  1.
    10030    2    1    2    0    0  0.00000000000E+00  0.00000000000E+00 -0.35232203711E+03  0.69621234043E+03  0.60048380922E+03 0.  0.
        3    1    3    3  502    0 -0.37209700741E+02 -0.18353837809E+03  0.95930422213E+02  0.21041281845E+03  0.10100000352E+00 0. -1.
       -3    1    3    3    0  502  0.37209700741E+02  0.18353837809E+03 -0.44825245933E+03  0.48579952198E+03  0.10100000352E+00 0.  1.
</event>
<event>
 5   0  0.5765045E-03  0.6003276E+03  0.7818609E-02  0.9904727E-01
       -1   -1    0    0    0  501  0.00000000000E+00  0.00000000000E+00  0.17089585252E+03  0.17089585259E+03  0.50400001928E-02 0.  1.
        1   -1    0    0  501    0  0.00000000000E+00  0.00000000000E+00 -0.52721174681E+03  0.52721174684E+03  0.50400001928E-02 0. -1.
    10030    2    1    2    0    0  0.00000000000E+00  0.00000000000E+00 -0.35631589429E+03  0.69810759943E+03  0.60032758046E+03 0.  0.
        1    1    3    3  502    0 -0.52151705924E+02  0.26889938612E+03 -0.32092041495E+03  0.42192012638E+03  0.50400001928E-02 0. -1.
       -1    1    3    3    0  502  0.52151705924E+02 -0.26889938612E+03 -0.35395479343E+02  0.27618747305E+03  0.50400001928E-02 0.  1.
</event>
<event>
 5   0  0.6078658E-03  0.5989434E+03  0.7818609E-02  0.9907601E-01
        1   -1    0    0  501    0  0.00000000000E+00  0.00000000000E+00  0.14753588693E+03  0.14753588701E+03  0.50400001928E-02 0.  1.
       -1   -1    0    0    0  501  0.00000000000E+00  0.00000000000E+00 -0.60787446415E+03  0.60787446417E+03  0.50400001928E-02 0. -1.
    10030    2    1    2    0    0  0.00000000000E+00  0.00000000000E+00 -0.46033857722E+03  0.75541035118E+03  0.59894339716E+03 0.  0.
        2    1    3    3  502    0 -0.16432230996E+03  0.21354555386E+03 -0.65338552273E+02  0.27725917756E+03  0.25500000920E-02 0.  1.
       -2    1    3    3    0  502  0.16432230996E+03 -0.21354555386E+03 -0.39500002495E+03  0.47815117362E+03  0.25500000920E-02 0. -1.
</event>
<event>
 5   0  0.9028473E-03  0.6003955E+03  0.7818609E-02  0.9904586E-01
       -2   -1    0    0    0  501  0.00000000000E+00  0.00000000000E+00  0.62896245838E+02  0.62896245890E+02  0.25500000920E-02 0. -1.
        2   -1    0    0  501    0  0.00000000000E+00  0.00000000000E+00 -0.14328152578E+04  0.14328152578E+04  0.25500000920E-02 0.  1.
    10030    2    1    2    0    0  0.00000000000E+00  0.00000000000E+00 -0.13699190120E+04  0.14957115037E+04  0.60039553875E+03 0.  0.
        1    1    3    3  502    0 -0.10933654651E+03  0.17059240012E+03 -0.13315529826E+03  0.24245944168E+03  0.50400001928E-02 0. -1.
       -1    1    3    3    0  502  0.10933654651E+03 -0.17059240012E+03 -0.12367637137E+04  0.12532520620E+04  0.50400001928E-02 0.  1.
</event>
<event>
 5   0  0.9303190E-03  0.5995630E+03  0.7818609E-02  0.9906313E-01
        2   -1    0    0  501    0  0.00000000000E+00  0.00000000000E+00  0.28885478673E+04  0.28885478673E+04  0.25500000920E-02 0.  1.
       -2   -1    0    0    0  501  0.00000000000E+00  0.00000000000E+00 -0.31112150192E+02  0.31112150296E+02  0.25500000920E-02 0. -1.
    10030    2    1    2    0    0  0.00000000000E+00  0.00000000000E+00  0.28574357171E+04  0.29196600176E+04  0.59956295828E+03 0.  0.
        4    1    3    3  502    0 -0.22988630221E+03 -0.17532811725E+03  0.18146097140E+04  0.18374976701E+04  0.12699999809E+01 0.  1.
       -4    1    3    3    0  502  0.22988630221E+03  0.17532811725E+03  0.10428260031E+04  0.10821623474E+04  0.12699999809E+01 0. -1.
</event>
<event>
 5   0  0.5819446E-03  0.6002180E+03  0.7818609E-02  0.9904954E-01
        1   -1    0    0  501    0  0.00000000000E+00  0.00000000000E+00  0.46701795276E+03  0.46701795278E+03  0.50400001928E-02 0.  1.
       -1   -1    0    0    0  501  0.00000000000E+00  0.00000000000E+00 -0.19285217158E+03  0.19285217165E+03  0.50400001928E-02 0. -1.
    10030    2    1    2    0    0  0.00000000000E+00  0.00000000000E+00  0.27416578118E+03  0.65987012443E+03  0.60021804834E+03 0.  0.
        5    1    3    3  502    0 -0.28800626218E+03 -0.45096374180E+01  0.44607817247E+02  0.29151310646E+03  0.46999998093E+01 0.  1.
       -5    1    3    3    0  502  0.28800626218E+03  0.45096374180E+01  0.22955796393E+03  0.36835701797E+03  0.46999998093E+01 0. -1.
</event>
<event>
 5   0  0.9028473E-03  0.6006816E+03  0.7818609E-02  0.9903993E-01
        2   -1    0    0  501    0  0.00000000000E+00  0.00000000000E+00  0.39762534015E+03  0.39762534016E+03  0.25500000920E-02 0.  1.
       -2   -1    0    0    0  501  0.00000000000E+00  0.00000000000E+00 -0.22685830261E+03  0.22685830263E+03  0.25500000920E-02 0. -1.
    10030    2    1    2    0    0  0.00000000000E+00  0.00000000000E+00  0.17076703754E+03  0.62448364279E+03  0.60068164530E+03 0.  0.
        1    1    3    3  502    0  0.21136841284E+03 -0.20089277385E+03  0.16013607694E+03  0.33268314609E+03  0.50400001928E-02 0.  1.
       -1    1    3    3    0  502 -0.21136841284E+03  0.20089277385E+03  0.10630960602E+02  0.29180049670E+03  0.50400001928E-02 0. -1.
</event>
<event>
 5   0  0.5765045E-03  0.5969517E+03  0.7818609E-02  0.9911750E-01
       -1   -1    0    0    0  501  0.00000000000E+00  0.00000000000E+00  0.23780919394E+03  0.23780919399E+03  0.50400001928E-02 0. -1.
        1   -1    0    0  501    0  0.00000000000E+00  0.00000000000E+00 -0.37461902115E+03  0.37461902118E+03  0.50400001928E-02 0.  1.
    10030    2    1    2    0    0  0.00000000000E+00  0.00000000000E+00 -0.13680982721E+03  0.61242821518E+03  0.59695174840E+03 0.  0.
        1    1    3    3  502    0  0.23974534007E+03  0.17667286268E+03 -0.47970722867E+02  0.30164933080E+03  0.50400001928E-02 0. -1.
       -1    1    3    3    0  502 -0.23974534007E+03 -0.17667286268E+03 -0.88839104341E+02  0.31077888438E+03  0.50400001928E-02 0.  1.
</event>
<event>
 5   0  0.5819446E-03  0.6047517E+03  0.7818609E-02  0.9895596E-01
        1   -1    0    0  501    0  0.00000000000E+00  0.00000000000E+00  0.81967954810E+02  0.81967954965E+02  0.50400001928E-02 0. -1.
       -1   -1    0    0    0  501  0.00000000000E+00  0.00000000000E+00 -0.11154501762E+04  0.11154501762E+04  0.50400001928E-02 0.  1.
    10030    2    1    2    0    0  0.00000000000E+00  0.00000000000E+00 -0.10334822214E+04  0.11974181312E+04  0.60475174984E+03 0.  0.
        5    1    3    3  502    0 -0.12764975724E+03  0.26747354537E+03 -0.39839441509E+03  0.49656495846E+03  0.46999998093E+01 0. -1.
       -5    1    3    3    0  502  0.12764975724E+03 -0.26747354537E+03 -0.63508780629E+03  0.70085317270E+03  0.46999998093E+01 0.  1.
</event>
<event>
 5   0  0.5819446E-03  0.5983165E+03  0.7818609E-02  0.9908905E-01
       -1   -1    0    0    0  501  0.00000000000E+00  0.00000000000E+00  0.78337574792E+02  0.78337574954E+02  0.50400001928E-02 0.  1.
        1   -1    0    0  501    0  0.00000000000E+00  0.00000000000E+00 -0.11424358223E+04  0.11424358223E+04  0.50400001928E-02 0. -1.
    10030    2    1    2    0    0  0.00000000000E+00  0.00000000000E+00 -0.10640982475E+04  0.12207733973E+04  0.59831647740E+03 0.  0.
        5    1    3    3  502    0  0.30591880584E+02  0.16873388160E+03 -0.31990949451E+02  0.17450643771E+03  0.46999998093E+01 0.  1.
       -5    1    3    3    0  502 -0.30591880584E+02 -0.16873388160E+03 -0.10321072981E+04  0.10462669596E+04  0.46999998093E+01 0. -1.
</event>
<event>
 5   0  0.9162342E-03  0.5999903E+03  0.7818609E-02  0.9905426E-01
        2   -1    0    0  501    0  0.00000000000E+00  0.00000000000E+00  0.27850574504E+03  0.27850574505E+03  0.25500000920E-02 0. -1.
       -2   -1    0    0    0  501  0.00000000000E+00  0.00000000000E+00 -0.32314266727E+03  0.32314266728E+03  0.25500000920E-02 0.  1.
    10030    2    1    2    0    0  0.00000000000E+00  0.00000000000E+00 -0.44636922227E+02  0.60164841233E+03  0.59999029762E+03 0.  0.
        5    1    3    3  502    0 -0.54765016174E+02  0.29460175012E+03 -0.86572605738E+01  0.29981066747E+03  0.46999998093E+01 0. -1.
       -5    1    3    3    0  502  0.54765016174E+02 -0.29460175012E+03 -0.35979661653E+02  0.30183774486E+03  0.46999998093E+01 0.  1.
</event>
<event>
 5   0  0.9162342E-03  0.6002692E+03  0.7818609E-02  0.9904848E-01
        2   -1    0    0  501    0  0.00000000000E+00  0.00000000000E+00  0.93175832503E+03  0.93175832503E+03  0.25500000920E-02 0.  1.
       -2   -1    0    0    0  501  0.00000000000E+00  0.00000000000E+00 -0.96678260977E+02  0.96678261011E+02  0.25500000920E-02 0. -1.
    10030    2    1    2    0    0  0.00000000000E+00  0.00000000000E+00  0.83508006405E+03  0.10284365860E+04  0.60026918806E+03 0.  0.
        5    1    3    3  502    0 -0.63706201996E+02  0.10658860316E+03  0.88561410733E+03  0.89428968886E+03  0.46999998093E+01 0.  1.
       -5    1    3    3    0  502  0.63706201996E+02 -0.10658860316E+03 -0.50534043279E+02  0.13414689719E+03  0.46999998093E+01 0. -1.
</event>
<event>
 5   0  0.9303190E-03  0.6001080E+03  0.7818609E-02  0.9905182E-01
        2   -1    0    0  501    0  0.00000000000E+00  0.00000000000E+00  0.13261383334E+04  0.13261383334E+04  0.25500000920E-02 0.  1.
       -2   -1    0    0    0  501  0.00000000000E+00  0.00000000000E+00 -0.67890649193E+02  0.67890649241E+02  0.25500000920E-02 0. -1.
    10030    2    1    2    0    0  0.00000000000E+00  0.00000000000E+00  0.12582476842E+04  0.13940289826E+04  0.60010796498E+03 0.  0.
        4    1    3    3  502    0 -0.22396790051E+03  0.17640634634E+03  0.84641669725E+03  0.89314257415E+03  0.12699999809E+01 0.  1.
       -4    1    3    3    0  502  0.22396790051E+03 -0.17640634634E+03  0.41183098694E+03  0.50088640847E+03  0.12699999809E+01 0. -1.
</event>
<event>
 5   0  0.5765045E-03  0.5989196E+03  0.7818609E-02  0.9907650E-01
        1   -1    0    0  501    0  0.00000000000E+00  0.00000000000E+00  0.13421609981E+04  0.13421609981E+04  0.50400001928E-02 0. -1.
       -1   -1    0    0    0  501  0.00000000000E+00  0.00000000000E+00 -0.66814756792E+02  0.66814756983E+02  0.50400001928E-02 0.  1.
    10030    2    1    2    0    0  0.00000000000E+00  0.00000000000E+00  0.12753462413E+04  0.14089757551E+04  0.59891956323E+03 0.  0.
        1    1    3    3  502    0  0.60077295526E+01 -0.18030239696E+03  0.11999773702E+04  0.12134622928E+04  0.50400001928E-02 0. -1.
       -1    1    3    3    0  502 -0.60077295526E+01  0.18030239696E+03  0.75368871131E+02  0.19551346226E+03  0.50400001928E-02 0.  1.
</event>
<event>
 5   0  0.9162342E-03  0.6002400E+03  0.7818609E-02  0.9904908E-01
        2   -1    0    0  501    0  0.00000000000E+00  0.00000000000E+00  0.22278006681E+03  0.22278006683E+03  0.25500000920E-02 0. -1.
       -2   -1    0    0    0  501  0.00000000000E+00  0.00000000000E+00 -0.40430908870E+03  0.40430908871E+03  0.25500000920E-02 0.  1.
    10030    2    1    2    0    0  0.00000000000E+00  0.00000000000E+00 -0.18152902188E+03  0.62708915554E+03  0.60023997135E+03 0.  0.
        5    1    3    3  502    0  0.28266513955E+03 -0.18219653943E+02 -0.19428451290E+03  0.34351142464E+03  0.46999998093E+01 0. -1.
       -5    1    3    3    0  502 -0.28266513955E+03  0.18219653943E+02  0.12755491016E+02  0.28357773089E+03  0.46999998093E+01 0.  1.
</event>
<event>
 5   0  0.5790967E-03  0.6029649E+03  0.7818609E-02  0.9899274E-01
        1   -1    0    0  501    0  0.00000000000E+00  0.00000000000E+00  0.85255228402E+03  0.85255228403E+03  0.50400001928E-02 0.  1.
       -1   -1    0    0    0  501  0.00000000000E+00  0.00000000000E+00 -0.10661125099E+03  0.10661125111E+03  0.50400001928E-02 0. -1.
    10030    2    1    2    0    0  0.00000000000E+00  0.00000000000E+00  0.74594103303E+03  0.95916353515E+03  0.60296489317E+03 0.  0.
        3    1    3    3  502    0  0.83689245978E+02  0.28397745280E+03  0.46358118365E+03  0.55004964106E+03  0.10100000352E+00 0.  1.
       -3    1    3    3    0  502 -0.83689245978E+02 -0.28397745280E+03  0.28235984937E+03  0.40911389409E+03  0.10100000352E+00 0. -1.
</event>
<event>
 5   0  0.9822607E-03  0.6023066E+03  0.7818609E-02  0.9900632E-01
        2   -1    0    0  501    0  0.00000000000E+00  0.00000000000E+00  0.79157482861E+03  0.79157482861E+03  0.25500000920E-02 0. -1.
       -2   -1    0    0    0  501  0.00000000000E+00  0.00000000000E+00 -0.11457327483E+03  0.11457327486E+03  0.25500000920E-02 0.  1.
    10030    2    1    2    0    0  0.00000000000E+00  0.00000000000E+00  0.67700155378E+03  0.90614810348E+03  0.60230663421E+03 0.  0.
        3    1    3    3  502    0 -0.20875303908E+03  0.13037691556E+03  0.77411018699E+02  0.25800861896E+03  0.10100000352E+00 0.  1.
       -3    1    3    3    0  502  0.20875303908E+03 -0.13037691556E+03  0.59959053508E+03  0.64813948452E+03  0.10100000352E+00 0. -1.
</event>
<event>
 5   0  0.9162342E-03  0.5996461E+03  0.7818609E-02  0.9906140E-01
        2   -1    0    0  501    0  0.00000000000E+00  0.00000000000E+00  0.12458769748E+04  0.12458769748E+04  0.25500000920E-02 0. -1.
       -2   -1    0    0    0  501  0.00000000000E+00  0.00000000000E+00 -0.72153090849E+02  0.72153090894E+02  0.25500000920E-02 0.  1.
    10030    2    1    2    0    0  0.00000000000E+00  0.00000000000E+00  0.11737238839E+04  0.13180300656E+04  0.59964614425E+03 0.  0.
        5    1    3    3  502    0  0.22579315554E+03  0.13090170905E+03  0.91105194212E+03  0.94771068252E+03  0.46999998093E+01 0. -1.
       -5    1    3    3    0  502 -0.22579315554E+03 -0.13090170905E+03  0.26267194178E+03  0.37031938313E+03  0.46999998093E+01 0.  1.
</event>
<event>
 5   0  0.5891927E-03  0.5983559E+03  0.7818609E-02  0.9908823E-01
        1   -1    0    0  501    0  0.00000000000E+00  0.00000000000E+00  0.92601465782E+03  0.92601465783E+03  0.50400001928E-02 0.  1.
       -1   -1    0    0    0  501  0.00000000000E+00  0.00000000000E+00 -0.96658781868E+02  0.96658781999E+02  0.50400001928E-02 0. -1.
    10030    2    1    2    0    0  0.00000000000E+00  0.00000000000E+00  0.82935587595E+03  0.10226734398E+04  0.59835591044E+03 0.  0.
        4    1    3    3  502    0  0.25022288066E+02 -0.10733341869E+03  0.89004987518E+03  0.89684835445E+03  0.12699999809E+01 0.  1.
       -4    1    3    3    0  502 -0.25022288066E+02  0.10733341869E+03 -0.60693999230E+02  0.12582508538E+03  0.12699999809E+01 0. -1.
</event>
<event>
 5   0  0.9822607E-03  0.5977646E+03  0.7818609E-02  0.9910055E-01
       -2   -1    0    0    0  501  0.00000000000E+00  0.00000000000E+00  0.54427169658E+02  0.54427169717E+02  0.25500000920E-02 0.  1.
        2   -1    0    0  501    0  0.00000000000E+00  0.00000000000E+00 -0.16412871534E+04  0.16412871534E+04  0.25500000920E-02 0. -1.
    10030    2    1    2    0    0  0.00000000000E+00  0.00000000000E+00 -0.15868599837E+04  0.16957143231E+04  0.59776455033E+03 0.  0.
        3    1    3    3  502    0  0.29104223508E+03 -0.16794997578E+02 -0.98037545503E+03  0.10228018858E+04  0.10100000352E+00 0. -1.
       -3    1    3    3    0  502 -0.29104223508E+03  0.16794997578E+02 -0.60648452872E+03  0.67291243734E+03  0.10100000352E+00 0.  1.
</event>
<event>
 5   0  0.9391405E-03  0.5998169E+03  0.7818609E-02  0.9905786E-01
        2   -1    0    0  501    0  0.00000000000E+00  0.00000000000E+00  0.39488972229E+03  0.39488972230E+03  0.25500000920E-02 0. -1.
       -2   -1    0    0    0  501  0.00000000000E+00  0.00000000000E+00 -0.22777262813E+03  0.22777262815E+03  0.25500000920E-02 0.  1.
    10030    2    1    2    0    0  0.00000000000E+00  0.00000000000E+00  0.16711709416E+03  0.62266235045E+03  0.59981687164E+03 0.  0.
        2    1    3    3  502    0 -0.12610494247E+03  0.15810905006E+03 -0.14633537962E+03  0.24962966883E+03  0.25500000920E-02 0.  1.
       -2    1    3    3    0  502  0.12610494247E+03 -0.15810905006E+03  0.31345247378E+03  0.37303268161E+03  0.25500000920E-02 0. -1.
</event>
<event>
 5   0  0.9303190E-03  0.5995652E+03  0.7818609E-02  0.9906309E-01
       -2   -1    0    0    0  501  0.00000000000E+00  0.00000000000E+00  0.49382842414E+03  0.49382842414E+03  0.25500000920E-02 0. -1.
        2   -1    0    0  501    0  0.00000000000E+00  0.00000000000E+00 -0.18198548586E+03  0.18198548588E+03  0.25500000920E-02 0.  1.
    10030    2    1    2    0    0  0.00000000000E+00  0.00000000000E+00  0.31184293827E+03  0.67581391002E+03  0.59956519481E+03 0.  0.
        4    1    3    3  502    0 -0.63105098716E+02  0.16712629203E+03 -0.11543142070E+03  0.21269573751E+03  0.12699999809E+01 0.  1.
       -4    1    3    3    0  502  0.63105098716E+02 -0.16712629203E+03  0.42727435897E+03  0.46311817251E+03  0.12699999809E+01 0. -1.
</event>
<event>
 5   0  0.9822607E-03  0.6003197E+03  0.7818609E-02  0.9904743E-01
        2   -1    0    0  501    0  0.00000000000E+00  0.00000000000E+00  0.33965204358E+03  0.33965204359E+03  0.25500000920E-02 0. -1.
       -2   -1    0    0    0  501  0.00000000000E+00  0.00000000000E+00 -0.26525948298E+03  0.26525948300E+03  0.25500000920E-02 0.  1.
    10030    2    1    2    0    0  0.00000000000E+00  0.00000000000E+00  0.74392560593E+02  0.60491152658E+03  0.60031966644E+03 0.  0.
        3    1    3    3  502    0 -0.19136387251E+03  0.44392942458E+02  0.26587944651E+03  0.33057942361E+03  0.10100000352E+00 0. -1.
       -3    1    3    3    0  502  0.19136387251E+03 -0.44392942458E+02 -0.19148688591E+03  0.27433210297E+03  0.10100000352E+00 0.  1.
</event>
<event>
 5   0  0.9028473E-03  0.6004123E+03  0.7818609E-02  0.9904551E-01
       -2   -1    0    0    0  501  0.00000000000E+00  0.00000000000E+00  0.11887468258E+03  0.11887468261E+03  0.25500000920E-02 0. -1.
        2   -1    0    0  501    0  0.00000000000E+00  0.00000000000E+00 -0.75814079766E+03  0.75814079766E+03  0.25500000920E-02 0.  1.
    10030    2    1    2    0    0  0.00000000000E+00  0.00000000000E+00 -0.63926611507E+03  0.87701548027E+03  0.60041234727E+03 0.  0.
        1    1    3    3  502    0 -0.26333071481E+03  0.14116051032E+03 -0.27693716112E+03  0.40738623721E+03  0.50400001928E-02 0. -1.
       -1    1    3    3    0  502  0.26333071481E+03 -0.14116051032E+03 -0.36232895395E+03  0.46962924306E+03  0.50400001928E-02 0.  1.
</event>
<event>
 5   0  0.9028473E-03  0.5990071E+03  0.7818609E-02  0.9907468E-01
        2   -1    0    0  501    0  0.00000000000E+00  0.00000000000E+00  0.39944588434E+03  0.39944588435E+03  0.25500000920E-02 0. -1.
       -2   -1    0    0    0  501  0.00000000000E+00  0.00000000000E+00 -0.22456704089E+03  0.22456704090E+03  0.25500000920E-02 0.  1.
    10030    2    1    2    0    0  0.00000000000E+00  0.00000000000E+00  0.17487884345E+03  0.62401292525E+03  0.59900711264E+03 0.  0.
        1    1    3    3  502    0 -0.23247905769E+03 -0.10536660764E+03  0.25067712855E+03  0.35775362622E+03  0.50400001928E-02 0. -1.
       -1    1    3    3    0  502  0.23247905769E+03  0.10536660764E+03 -0.75798285097E+02  0.26625929903E+03  0.50400001928E-02 0.  1.
</event>
<event>
 5   0  0.5765045E-03  0.5991530E+03  0.7818609E-02  0.9907165E-01
       -1   -1    0    0    0  501  0.00000000000E+00  0.00000000000E+00  0.49460869629E+03  0.49460869631E+03  0.50400001928E-02 0.  1.
        1   -1    0    0  501    0  0.00000000000E+00  0.00000000000E+00 -0.18144861859E+03  0.18144861866E+03  0.50400001928E-02 0. -1.
    10030    2    1    2    0    0  0.00000000000E+00  0.00000000000E+00  0.31316007770E+03  0.67605731497E+03  0.59915295114E+03 0.  0.
        1    1    3    3  502    0  0.27381914932E+02 -0.29760836196E+03  0.13330312747E+03  0.32724643649E+03  0.50400001928E-02 0. -1.
       -1    1    3    3    0  502 -0.27381914932E+02  0.29760836196E+03  0.17985695023E+03  0.34881087848E+03  0.50400001928E-02 0.  1.
</event>
<event>
 5   0  0.6078658E-03  0.6022584E+03  0.7818609E-02  0.9900732E-01
        1   -1    0    0  501    0  0.00000000000E+00  0.00000000000E+00  0.75216234687E+03  0.75216234689E+03  0.50400001928E-02 0.  1.
       -1   -1    0    0    0  501  0.00000000000E+00  0.00000000000E+00 -0.12055747008E+03  0.12055747019E+03  0.50400001928E-02 0. -1.
    10030    2    1    2    0    0  0.00000000000E+00  0.00000000000E+00  0.63160487679E+03  0.87271981708E+03  0.60225838204E+03 0.  0.
        2    1    3    3  502    0 -0.73769766687E+02 -0.10044698253E+03  0.71303828224E+03  0.72384747476E+03  0.25500000920E-02 0.  1.
       -2    1    3    3    0  502  0.73769766687E+02  0.10044698253E+03 -0.81433405449E+02  0.14887234231E+03  0.25500000920E-02 0. -1.
</event>
<event>
 5   0  0.9028473E-03  0.6040733E+03  0.7818609E-02  0.9896991E-01
        2   -1    0    0  501    0  0.00000000000E+00  0.00000000000E+00  0.56500776154E+03  0.56500776155E+03  0.25500000920E-02 0.  1.
       -2   -1    0    0    0  501  0.00000000000E+00  0.00000000000E+00 -0.16145998251E+03  0.16145998253E+03  0.25500000920E-02 0. -1.
    10030    2    1    2    0    0  0.00000000000E+00  0.00000000000E+00  0.40354777903E+03  0.72646774407E+03  0.60407331775E+03 0.  0.
        1    1    3    3  502    0 -0.13396503733E+03  0.14772239724E+03 -0.71030572224E+02  0.21169289098E+03  0.50400001928E-02 0. -1.
       -1    1    3    3    0  502  0.13396503733E+03 -0.14772239724E+03  0.47457835126E+03  0.51477485310E+03  0.50400001928E-02 0.  1.
</event>
<event>
 5   0  0.5790967E-03  0.5999056E+03  0.7818609E-02  0.9905602E-01
       -1   -1    0    0    0  501  0.00000000000E+00  0.00000000000E+00  0.21142349958E+03  0.21142349964E+03  0.50400001928E-02 0. -1.
        1   -1    0    0  501    0  0.00000000000E+00  0.00000000000E+00 -0.42555188137E+03  0.42555188140E+03  0.50400001928E-02 0.  1.
    10030    2    1    2    0    0  0.00000000000E+00  0.00000000000E+00 -0.21412838178E+03  0.63697538104E+03  0.59990555270E+03 0.  0.
        3    1    3    3  502    0 -0.18877685201E+03  0.44828841034E+02  0.13581805268E+03  0.23683935162E+03  0.10100000352E+00 0. -1.
       -3    1    3    3    0  502  0.18877685201E+03 -0.44828841034E+02 -0.34994643446E+03  0.40013602941E+03  0.10100000352E+00 0.  1.
</event>
<event>
 5   0  0.9162342E-03  0.6004010E+03  0.7818609E-02  0.9904574E-01
       -2   -1    0    0    0  501  0.00000000000E+00  0.00000000000E+00  0.68371626111E+02  0.68371626159E+02  0.25500000920E-02 0. -1.
        2   -1    0    0  501    0  0.00000000000E+00  0.00000000000E+00 -0.13180957458E+04  0.13180957458E+04  0.25500000920E-02 0.  1.
    10030    2    1    2    0    0  0.00000000000E+00  0.00000000000E+00 -0.12497241197E+04  0.13864673720E+04  0.60040103114E+03 0.  0.
        5    1    3    3  502    0 -0.37546326705E+02 -0.26234840204E+03 -0.29941671748E+03  0.39988607304E+03  0.46999998093E+01 0. -1.
       -5    1    3    3    0  502  0.37546326705E+02  0.26234840204E+03 -0.95030740223E+03  0.98658129895E+03  0.46999998093E+01 0.  1.
</event>
<event>
 5   0  0.5790967E-03  0.6013873E+03  0.7818609E-02  0.9902532E-01
        1   -1    0    0  501    0  0.00000000000E+00  0.00000000000E+00  0.49282033459E+03  0.49282033462E+03  0.50400001928E-02 0.  1.
       -1   -1    0    0    0  501  0.00000000000E+00  0.00000000000E+00 -0.18346781581E+03  0.18346781588E+03  0.50400001928E-02 0. -1.
    10030    2    1    2    0    0  0.00000000000E+00  0.00000000000E+00  0.30935251878E+03  0.67628815050E+03  0.60138729753E+03 0.  0.
        3    1    3    3  502    0  0.75954364370E+02  0.16852353039E+03  0.42137981723E+03  0.46014150685E+03  0.10100000352E+00 0.  1.
       -3    1    3    3    0  502 -0.75954364370E+02 -0.16852353039E+03 -0.11202729845E+03  0.21614664365E+03  0.10100000352E+00 0. -1.
</event>
<event>
 5   0  0.9391405E-03  0.6025851E+03  0.7818609E-02  0.9900057E-01
        2   -1    0    0  501    0  0.00000000000E+00  0.00000000000E+00  0.14737493059E+04  0.14737493059E+04  0.25500000920E-02 0. -1.
       -2   -1    0    0    0  501  0.00000000000E+00  0.00000000000E+00 -0.61596103953E+02  0.61596104006E+02  0.25500000920E-02 0.  1.
    10030    2    1    2    0    0  0.00000000000E+00  0.00000000000E+00  0.14121532019E+04  0.15353454099E+04  0.60258514913E+03 0.  0.
        2    1    3    3  502    0  0.27133466641E+03  0.12774637110E+03  0.77972807069E+03  0.83541456819E+03  0.25500000920E-02 0.  1.
       -2    1    3    3    0  502 -0.27133466641E+03 -0.12774637110E+03  0.63242513124E+03  0.69993084169E+03  0.25500000920E-02 0. -1.
</event>
<event>
 5   0  0.5891927E-03  0.5995668E+03  0.7818609E-02  0.9906305E-01
        1   -1    0    0  501    0  0.00000000000E+00  0.00000000000E+00  0.83098208213E+03  0.83098208215E+03  0.50400001928E-02 0.  1.
       -1   -1    0    0    0  501  0.00000000000E+00  0.00000000000E+00 -0.10814924255E+03  0.10814924267E+03  0.50400001928E-02 0. -1.
    10030    2    1    2    0    0  0.00000000000E+00  0.00000000000E+00  0.72283283958E+03  0.93913132482E+03  0.59956678633E+03 0.  0.
        4    1    3    3  502    0 -0.16032886493E+03  0.16011262794E+03  0.53968358518E+02  0.23292830480E+03  0.12699999809E+01 0. -1.
       -4    1    3    3    0  502  0.16032886493E+03 -0.16011262794E+03  0.66886448106E+03  0.70620302002E+03  0.12699999809E+01 0.  1.
</event>
<event>
 5   0  0.5819446E-03  0.5991994E+03  0.7818609E-02  0.9907068E-01
       -1   -1    0    0    0  501  0.00000000000E+00  0.00000000000E+00  0.15959586282E+03  0.15959586290E+03  0.50400001928E-02 0.  1.
        1   -1    0    0  501    0  0.00000000000E+00  0.00000000000E+00 -0.56242052817E+03  0.56242052819E+03  0.50400001928E-02 0. -1.
    10030    2    1    2    0    0  0.00000000000E+00  0.00000000000E+00 -0.40282466535E+03  0.72201639109E+03  0.59919943090E+03 0.  0.
        5    1    3    3  502    0 -0.24145772593E+02  0.59163482980E+02  0.15124337542E+03  0.16425585121E+03  0.46999998093E+01 0.  1.
       -5    1    3    3    0  502  0.24145772593E+02 -0.59163482980E+02 -0.55406804076E+03  0.55776053988E+03  0.46999998093E+01 0. -1.
</event>
<event>
 5   0  0.5765045E-03  0.6000660E+03  0.7818609E-02  0.9905269E-01
        1   -1    0    0  501    0  0.00000000000E+00  0.00000000000E+00  0.59506705402E+03  0.59506705404E+03  0.50400001928E-02 0.  1.
       -1   -1    0    0    0  501  0.00000000000E+00  0.00000000000E+00 -0.15127674017E+03  0.15127674026E+03  0.50400001928E-02 0. -1.
    10030    2    1    2    0    0  0.00000000000E+00  0.00000000000E+00  0.44379031384E+03  0.74634379429E+03  0.60006601022E+03 0.  0.
        1    1    3    3  502    0  0.23432642553E+03 -0.99111399963E+01  0.45462533306E+03  0.51155771706E+03  0.50400001928E-02 0.  1.
       -1    1    3    3    0  502 -0.23432642553E+03  0.99111399963E+01 -0.10835019217E+02  0.23478607723E+03  0.50400001928E-02 0. -1.
</event>
<event>
 5   0  0.6078658E-03  0.6022396E+03  0.7818609E-02  0.9900770E-01
        1   -1    0    0  501    0  0.00000000000E+00  0.00000000000E+00  0.71276904700E+02  0.71276904878E+02  0.50400001928E-02 0. -1.
       -1   -1    0    0    0  501  0.00000000000E+00  0.00000000000E+00 -0.12721249843E+04  0.12721249844E+04  0.50400001928E-02 0.  1.
    10030    2    1    2    0    0  0.00000000000E+00  0.00000000000E+00 -0.12008480796E+04  0.13434018892E+04  0.60223959153E+03 0.  0.
        2    1    3    3  502    0  0.84292725292E+02  0.10127672547E+03 -0.12044017426E+04  0.12115881298E+04  0.25500000920E-02 0.  1.
       -2    1    3    3    0  502 -0.84292725292E+02 -0.10127672547E+03  0.35536629316E+01  0.13181375947E+03  0.25500000920E-02 0. -1.
</event>
<event>
 5   0  0.9822607E-03  0.5995185E+03  0.7818609E-02  0.9906406E-01
       -2   -1    0    0    0  501  0.00000000000E+00  0.00000000000E+00  0.11416992169E+03  0.11416992172E+03  0.25500000920E-02 0.  1.
        2   -1    0    0  501    0  0.00000000000E+00  0.00000000000E+00 -0.78703388213E+03  0.78703388213E+03  0.25500000920E-02 0. -1.
    10030    2    1    2    0    0  0.00000000000E+00  0.00000000000E+00 -0.67286396043E+03  0.90120380385E+03  0.59951846246E+03 0.  0.
        3    1    3    3  502    0  0.23558325831E+03 -0.23312437417E+02 -0.61284597514E+03  0.65698031993E+03  0.10100000352E+00 0. -1.
       -3    1    3    3    0  502 -0.23558325831E+03  0.23312437417E+02 -0.60017985295E+02  0.24422348392E+03  0.10100000352E+00 0.  1.
</event>
<event>
 5   0  0.9028473E-03  0.5965032E+03  0.7818609E-02  0.9912688E-01
        2   -1    0    0  501    0  0.00000000000E+00  0.00000000000E+00  0.48660298397E+03  0.48660298398E+03  0.25500000920E-02 0. -1.
       -2   -1    0    0    0  501  0.00000000000E+00  0.00000000000E+00 -0.18280613358E+03  0.18280613360E+03  0.25500000920E-02 0.  1.
    10030    2    1    2    0    0  0.00000000000E+00  0.00000000000E+00  0.30379685039E+03  0.66940911757E+03  0.59650317718E+03 0.  0.
        1    1    3    3  502    0 -0.49509641789E+02 -0.36177800022E+02  0.47945271843E+03  0.48335799060E+03  0.50400001928E-02 0. -1.
       -1    1    3    3    0  502  0.49509641789E+02  0.36177800022E+02 -0.17565586804E+03  0.18605112697E+03  0.50400001928E-02 0.  1.
</event>
<event>
 5   0  0.3806250E-03  0.5985422E+03  0.7818609E-02  0.9908435E-01
        4   -1    0    0  501    0  0.00000000000E+00  0.00000000000E+00  0.10123316811E+03  0.10124113406E+03  0.12699999809E+01 0. -1.
       -4   -1    0    0    0  501  0.00000000000E+00  0.00000000000E+00 -0.88467868719E+03  0.88467959876E+03  0.12699999809E+01 0.  1.
    10030    2    1    2    0    0  0.00000000000E+00  0.00000000000E+00 -0.78344551908E+03  0.98592073282E+03  0.59854223747E+03 0.  0.
        3    1    3    3  502    0  0.12320966110E+03  0.27268300089E+03 -0.38323482742E+03  0.48621557226E+03  0.10100000352E+00 0. -1.
       -3    1    3    3    0  502 -0.12320966110E+03 -0.27268300089E+03 -0.40021069166E+03  0.49970516055E+03  0.10100000352E+00 0.  1.
</event>
<event>
 5   0  0.6078658E-03  0.5957626E+03  0.7818609E-02  0.9914236E-01
        1   -1    0    0  501    0  0.00000000000E+00  0.00000000000E+00  0.75787234865E+02  0.75787235032E+02  0.50400001928E-02 0. -1.
       -1   -1    0    0    0  501  0.00000000000E+00  0.00000000000E+00 -0.11708208931E+04  0.11708208931E+04  0.50400001928E-02 0.  1.
    10030    2    1    2    0    0  0.00000000000E+00  0.00000000000E+00 -0.10950336582E+04  0.12466081281E+04  0.59576263098E+03 0.  0.
        2    1    3    3  502    0 -0.47132238896E+02  0.71989032356E+02 -0.11442504464E+04  0.11474811340E+04  0.25500000920E-02 0.  1.
       -2    1    3    3    0  502  0.47132238896E+02 -0.71989032356E+02  0.49216788189E+02  0.99126994149E+02  0.25500000920E-02 0. -1.
</event>
<event>
 5   0  0.5790967E-03  0.6004236E+03  0.7818609E-02  0.9904528E-01
        1   -1    0    0  501    0  0.00000000000E+00  0.00000000000E+00  0.38426218527E+03  0.38426218530E+03  0.50400001928E-02 0. -1.
       -1   -1    0    0    0  501  0.00000000000E+00  0.00000000000E+00 -0.23454592960E+03  0.23454592966E+03  0.50400001928E-02 0.  1.
    10030    2    1    2    0    0  0.00000000000E+00  0.00000000000E+00  0.14971625566E+03  0.61880811496E+03  0.60042362206E+03 0.  0.
        3    1    3    3  502    0  0.20973751545E+03 -0.73987270766E+02  0.28268365841E+03  0.35968597770E+03  0.10100000352E+00 0. -1.
       -3    1    3    3    0  502 -0.20973751545E+03  0.73987270766E+02 -0.13296740274E+03  0.25912213726E+03  0.10100000352E+00 0.  1.
</event>
<event>
 5   0  0.5891927E-03  0.6020937E+03  0.7818609E-02  0.9901072E-01
        1   -1    0    0  501    0  0.00000000000E+00  0.00000000000E+00  0.42047070666E+03  0.42047070669E+03  0.50400001928E-02 0.  1.
       -1   -1    0    0    0  501  0.00000000000E+00  0.00000000000E+00 -0.21554228648E+03  0.21554228654E+03  0.50400001928E-02 0. -1.
    10030    2    1    2    0    0  0.00000000000E+00  0.00000000000E+00  0.20492842018E+03  0.63601299322E+03  0.60209373868E+03 0.  0.
        4    1    3    3  502    0 -0.27223130913E+03 -0.57967730401E+02 -0.18703786194E+02  0.27896520922E+03  0.12699999809E+01 0. -1.
       -4    1    3    3    0  502  0.27223130913E+03  0.57967730401E+02  0.22363220637E+03  0.35704778400E+03  0.12699999809E+01 0.  1.
</event>
<event>
 5   0  0.9391405E-03  0.6020618E+03  0.7818609E-02  0.9901138E-01
        2   -1    0    0  501    0  0.00000000000E+00  0.00000000000E+00  0.13401868895E+04  0.13401868895E+04  0.25500000920E-02 0. -1.
       -2   -1    0    0    0  501  0.00000000000E+00  0.00000000000E+00 -0.67617137724E+02  0.67617137773E+02  0.25500000920E-02 0.  1.
    10030    2    1    2    0    0  0.00000000000E+00  0.00000000000E+00  0.12725697518E+04  0.14078040273E+04  0.60206179589E+03 0.  0.
        2    1    3    3  502    0 -0.11699565787E+03  0.18761340467E+03  0.15860159517E+03  0.27210519946E+03  0.25500000920E-02 0.  1.
       -2    1    3    3    0  502  0.11699565787E+03 -0.18761340467E+03  0.11139681566E+04  0.11356988278E+04  0.25500000920E-02 0. -1.
</event>
<event>
 5   0  0.9028473E-03  0.5992863E+03  0.7818609E-02  0.9906888E-01
       -2   -1    0    0    0  501  0.00000000000E+00  0.00000000000E+00  0.59434911877E+02  0.59434911931E+02  0.25500000920E-02 0. -1.
        2   -1    0    0  501    0  0.00000000000E+00  0.00000000000E+00 -0.15106612649E+04  0.15106612649E+04  0.25500000920E-02 0.  1.
    10030    2    1    2    0    0  0.00000000000E+00  0.00000000000E+00 -0.14512263530E+04  0.15700961768E+04  0.59928630619E+03 0.  0.
        1    1    3    3  502    0 -0.20898974913E+03  0.73108289569E+02 -0.12545853975E+04  0.12739725495E+04  0.50400001928E-02 0.  1.
       -1    1    3    3    0  502  0.20898974913E+03 -0.73108289569E+02 -0.19664095552E+03  0.29612362732E+03  0.50400001928E-02 0. -1.
</event>
<event>
 5   0  0.3806250E-03  0.6014569E+03  0.7818609E-02  0.9902388E-01
       -3   -1    0    0    0  501  0.00000000000E+00  0.00000000000E+00  0.78861577881E+02  0.78861642557E+02  0.10100000352E+00 0. -1.
        3   -1    0    0  501    0  0.00000000000E+00  0.00000000000E+00 -0.11467884533E+04  0.11467884577E+04  0.10100000352E+00 0.  1.
    10030    2    1    2    0    0  0.00000000000E+00  0.00000000000E+00 -0.10679268754E+04  0.12256501003E+04  0.60145686223E+03 0.  0.
        4    1    3    3  502    0  0.90814759189E+02 -0.24282752731E+03 -0.22341784523E+03  0.34224212917E+03  0.12699999809E+01 0. -1.
       -4    1    3    3    0  502 -0.90814759189E+02  0.24282752731E+03 -0.84450903016E+03  0.88340797111E+03  0.12699999809E+01 0.  1.
</event>
<event>
 5   0  0.5765045E-03  0.5962622E+03  0.7818609E-02  0.9913191E-01
        1   -1    0    0  501    0  0.00000000000E+00  0.00000000000E+00  0.56981332776E+03  0.56981332778E+03  0.50400001928E-02 0.  1.
       -1   -1    0    0    0  501  0.00000000000E+00  0.00000000000E+00 -0.15598467671E+03  0.15598467679E+03  0.50400001928E-02 0. -1.
    10030    2    1    2    0    0  0.00000000000E+00  0.00000000000E+00  0.41382865105E+03  0.72579800458E+03  0.59626218312E+03 0.  0.
        1    1    3    3  502    0 -0.89909505990E+02 -0.84678389549E+02 -0.12337915563E+03  0.17457538484E+03  0.50400001928E-02 0. -1.
       -1    1    3    3    0  502  0.89909505990E+02  0.84678389549E+02  0.53720780668E+03  0.55122261973E+03  0.50400001928E-02 0.  1.
</event>
<event>
 5   0  0.9391405E-03  0.6010573E+03  0.7818609E-02  0.9903215E-01
       -2   -1    0    0    0  501  0.00000000000E+00  0.00000000000E+00  0.52168016557E+02  0.52168016619E+02  0.25500000920E-02 0. -1.
        2   -1    0    0  501    0  0.00000000000E+00  0.00000000000E+00 -0.17312804507E+04  0.17312804507E+04  0.25500000920E-02 0.  1.
    10030    2    1    2    0    0  0.00000000000E+00  0.00000000000E+00 -0.16791124341E+04  0.17834484673E+04  0.60105729268E+03 0.  0.
        2    1    3    3  502    0  0.13719292318E+03  0.27448599695E+02 -0.50362168654E+02  0.14869993891E+03  0.25500000920E-02 0. -1.
       -2    1    3    3    0  502 -0.13719292318E+03 -0.27448599695E+02 -0.16287502655E+04  0.16347485284E+04  0.25500000920E-02 0.  1.
</event>
<event>
 5   0  0.5765045E-03  0.5999755E+03  0.7818609E-02  0.9905457E-01
       -1   -1    0    0    0  501  0.00000000000E+00  0.00000000000E+00  0.22542797134E+03  0.22542797139E+03  0.50400001928E-02 0.  1.
        1   -1    0    0  501    0  0.00000000000E+00  0.00000000000E+00 -0.39920795021E+03  0.39920795024E+03  0.50400001928E-02 0. -1.
    10030    2    1    2    0    0  0.00000000000E+00  0.00000000000E+00 -0.17377997887E+03  0.62463592163E+03  0.59997546078E+03 0.  0.
        1    1    3    3  502    0  0.16818855859E+03 -0.15284565805E+02  0.17123546273E+03  0.24050487087E+03  0.50400001928E-02 0.  1.
       -1    1    3    3    0  502 -0.16818855859E+03  0.15284565805E+02 -0.34501544160E+03  0.38413105076E+03  0.50400001928E-02 0. -1.
</event>
<event>
 5   0  0.9028473E-03  0.6005116E+03  0.7818609E-02  0.9904345E-01
        2   -1    0    0  501    0  0.00000000000E+00  0.00000000000E+00  0.12683810441E+04  0.12683810441E+04  0.25500000920E-02 0. -1.
       -2   -1    0    0    0  501  0.00000000000E+00  0.00000000000E+00 -0.71077655606E+02  0.71077655652E+02  0.25500000920E-02 0.  1.
    10030    2    1    2    0    0  0.00000000000E+00  0.00000000000E+00  0.11973033885E+04  0.13394586998E+04  0.60051161875E+03 0.  0.
        1    1    3    3  502    0 -0.75070747211E+02 -0.18102188241E+03  0.11060616033E+04  0.11232883910E+04  0.50400001928E-02 0. -1.
       -1    1    3    3    0  502  0.75070747211E+02  0.18102188241E+03  0.91241785171E+02  0.21617030875E+03  0.50400001928E-02 0.  1.
</event>
<event>
 5   0  0.5790967E-03  0.5988230E+03  0.7818609E-02  0.9907851E-01
        1   -1    0    0  501    0  0.00000000000E+00  0.00000000000E+00  0.10239572334E+04  0.10239572334E+04  0.50400001928E-02 0.  1.
       -1   -1    0    0    0  501  0.00000000000E+00  0.00000000000E+00 -0.87549806535E+02  0.87549806680E+02  0.50400001928E-02 0. -1.
    10030    2    1    2    0    0  0.00000000000E+00  0.00000000000E+00  0.93640742683E+03  0.11115070401E+04  0.59882303820E+03 0.  0.
        3    1    3    3  502    0  0.33081972735E+02 -0.10925921957E+03  0.98197678650E+03  0.98859011395E+03  0.10100000352E+00 0.  1.
       -3    1    3    3    0  502 -0.33081972735E+02  0.10925921957E+03 -0.45569359669E+02  0.12291692611E+03  0.10100000352E+00 0. -1.
</event>
<event>
 5   0  0.9162342E-03  0.5995465E+03  0.7818609E-02  0.9906347E-01
        2   -1    0    0  501    0  0.00000000000E+00  0.00000000000E+00  0.80689388675E+03  0.80689388675E+03  0.25500000920E-02 0. -1.
       -2   -1    0    0    0  501  0.00000000000E+00  0.00000000000E+00 -0.11137029917E+03  0.11137029920E+03  0.25500000920E-02 0.  1.
    10030    2    1    2    0    0  0.00000000000E+00  0.00000000000E+00  0.69552358758E+03  0.91826418595E+03  0.59954654058E+03 0.  0.
        5    1    3    3  502    0  0.21701897047E+03 -0.40420136023E+02  0.65830587132E+03  0.69434842201E+03  0.46999998093E+01 0. -1.
       -5    1    3    3    0  502 -0.21701897047E+03  0.40420136023E+02  0.37217716254E+02  0.22391576394E+03  0.46999998093E+01 0.  1.
</event>
<event>
 5   0  0.9028473E-03  0.5996430E+03  0.7818609E-02  0.9906147E-01
       -2   -1    0    0    0  501  0.00000000000E+00  0.00000000000E+00  0.12831669082E+03  0.12831669084E+03  0.25500000920E-02 0. -1.
        2   -1    0    0  501    0  0.00000000000E+00  0.00000000000E+00 -0.70055522908E+03  0.70055522909E+03  0.25500000920E-02 0.  1.
    10030    2    1    2    0    0  0.00000000000E+00  0.00000000000E+00 -0.57223853826E+03  0.82887191993E+03  0.59964298960E+03 0.  0.
        1    1    3    3  502    0  0.31079982951E+02  0.21154760928E+03  0.44039471611E+01  0.21386386116E+03  0.50400001928E-02 0. -1.
       -1    1    3    3    0  502 -0.31079982951E+02 -0.21154760928E+03 -0.57664248542E+03  0.61500805877E+03  0.50400001928E-02 0.  1.
</event>
<event>
 5   0  0.6078658E-03  0.6000547E+03  0.7818609E-02  0.9905293E-01
       -1   -1    0    0    0  501  0.00000000000E+00  0.00000000000E+00  0.88798098151E+02  0.88798098294E+02  0.50400001928E-02 0. -1.
        1   -1    0    0  501    0  0.00000000000E+00  0.00000000000E+00 -0.10137199240E+04  0.10137199240E+04  0.50400001928E-02 0.  1.
    10030    2    1    2    0    0  0.00000000000E+00  0.00000000000E+00 -0.92492182585E+03  0.11025180223E+04  0.60005466882E+03 0.  0.
        2    1    3    3  502    0 -0.18843882452E+03 -0.20159858593E+03 -0.67881159844E+03  0.73275941933E+03  0.25500000920E-02 0. -1.
       -2    1    3    3    0  502  0.18843882452E+03  0.20159858593E+03 -0.24611022741E+03  0.36975860298E+03  0.25500000920E-02 0.  1.
</event>
<event>
 5   0  0.9391405E-03  0.5992629E+03  0.7818609E-02  0.9906936E-01
       -2   -1    0    0    0  501  0.00000000000E+00  0.00000000000E+00  0.92255221101E+02  0.92255221136E+02  0.25500000920E-02 0. -1.
        2   -1    0    0  501    0  0.00000000000E+00  0.00000000000E+00 -0.97315916482E+03  0.97315916482E+03  0.25500000920E-02 0.  1.
    10030    2    1    2    0    0  0.00000000000E+00  0.00000000000E+00 -0.88090394372E+03  0.10654143860E+04  0.59926292706E+03 0.  0.
        2    1    3    3  502    0  0.81863160322E+02  0.39212454540E+02 -0.94812725588E+03  0.95246232837E+03  0.25500000920E-02 0.  1.
       -2    1    3    3    0  502 -0.81863160322E+02 -0.39212454540E+02  0.67223312164E+02  0.11295205759E+03  0.25500000920E-02 0. -1.
</event>
<event>
 5   0  0.9028473E-03  0.6037786E+03  0.7818609E-02  0.9897597E-01
        2   -1    0    0  501    0  0.00000000000E+00  0.00000000000E+00  0.69155235571E+03  0.69155235572E+03  0.25500000920E-02 0.  1.
       -2   -1    0    0    0  501  0.00000000000E+00  0.00000000000E+00 -0.13178634864E+03  0.13178634866E+03  0.25500000920E-02 0. -1.
    10030    2    1    2    0    0  0.00000000000E+00  0.00000000000E+00  0.55976600707E+03  0.82333870438E+03  0.60377863448E+03 0.  0.
        1    1    3    3  502    0  0.25870237114E+02 -0.17151311162E+03 -0.57053210148E+02  0.18259541461E+03  0.50400001928E-02 0. -1.
       -1    1    3    3    0  502 -0.25870237114E+02  0.17151311162E+03  0.61681921722E+03  0.64074328977E+03  0.50400001928E-02 0.  1.
</event>
<event>
 5   0  0.6078658E-03  0.6004430E+03  0.7818609E-02  0.9904487E-01
       -1   -1    0    0    0  501  0.00000000000E+00  0.00000000000E+00  0.12322760120E+03  0.12322760130E+03  0.50400001928E-02 0. -1.
        1   -1    0    0  501    0  0.00000000000E+00  0.00000000000E+00 -0.73143473555E+03  0.73143473557E+03  0.50400001928E-02 0.  1.
    10030    2    1    2    0    0  0.00000000000E+00  0.00000000000E+00 -0.60820713436E+03  0.85466233687E+03  0.60044299629E+03 0.  0.
        2    1    3    3  502    0 -0.79397591535E+02  0.55586134579E+02  0.10034646514E+03  0.13951060523E+03  0.25500000920E-02 0. -1.
       -2    1    3    3    0  502  0.79397591535E+02 -0.55586134579E+02 -0.70855359950E+03  0.71515173164E+03  0.25500000920E-02 0.  1.
</event>
<event>
 5   0  0.5891927E-03  0.5992576E+03  0.7818609E-02  0.9906948E-01
       -1   -1    0    0    0  501  0.00000000000E+00  0.00000000000E+00  0.19697603536E+03  0.19697603542E+03  0.50400001928E-02 0. -1.
        1   -1    0    0  501    0  0.00000000000E+00  0.00000000000E+00 -0.45577833008E+03  0.45577833011E+03  0.50400001928E-02 0.  1.
    10030    2    1    2    0    0  0.00000000000E+00  0.00000000000E+00 -0.25880229472E+03  0.65275436553E+03  0.59925756897E+03 0.  0.
        4    1    3    3  502    0  0.56828975503E+02 -0.26195073563E+03 -0.27525002451E+03  0.38420295320E+03  0.12699999809E+01 0. -1.
       -4    1    3    3    0  502 -0.56828975503E+02  0.26195073563E+03  0.16447729786E+02  0.26855141234E+03  0.12699999809E+01 0.  1.
</event>
<event>
 5   0  0.9162342E-03  0.6001072E+03  0.7818609E-02  0.9905184E-01
       -2   -1    0    0    0  501  0.00000000000E+00  0.00000000000E+00  0.76632058882E+02  0.76632058925E+02  0.25500000920E-02 0. -1.
        2   -1    0    0  501    0  0.00000000000E+00  0.00000000000E+00 -0.11748627214E+04  0.11748627214E+04  0.25500000920E-02 0.  1.
    10030    2    1    2    0    0  0.00000000000E+00  0.00000000000E+00 -0.10982306625E+04  0.12514947803E+04  0.60010715468E+03 0.  0.
        5    1    3    3  502    0 -0.95756819306E+01  0.24423072500E+02 -0.11723895507E+04  0.11726924272E+04  0.46999998093E+01 0.  1.
       -5    1    3    3    0  502  0.95756819306E+01 -0.24423072500E+02  0.74158888227E+02  0.78802353112E+02  0.46999998093E+01 0. -1.
</event>
<event>
 5   0  0.5790967E-03  0.6015635E+03  0.7818609E-02  0.9902168E-01
       -1   -1    0    0    0  501  0.00000000000E+00  0.00000000000E+00  0.26266759794E+03  0.26266759799E+03  0.50400001928E-02 0.  1.
        1   -1    0    0  501    0  0.00000000000E+00  0.00000000000E+00 -0.34442637827E+03  0.34442637831E+03  0.50400001928E-02 0. -1.
    10030    2    1    2    0    0  0.00000000000E+00  0.00000000000E+00 -0.81758780328E+02  0.60709397630E+03  0.60156346124E+03 0.  0.
        3    1    3    3  502    0 -0.56636372573E+02 -0.19764345295E+03  0.18068175731E+03  0.27370882488E+03  0.10100000352E+00 0.  1.
       -3    1    3    3    0  502  0.56636372573E+02  0.19764345295E+03 -0.26244053764E+03  0.33338515142E+03  0.10100000352E+00 0. -1.
</event>
<event>
 5   0  0.5765045E-03  0.5980200E+03  0.7818609E-02  0.9909523E-01
        1   -1    0    0  501    0  0.00000000000E+00  0.00000000000E+00  0.71324340357E+03  0.71324340358E+03  0.50400001928E-02 0. -1.
       -1   -1    0    0    0  501  0.00000000000E+00  0.00000000000E+00 -0.12535267888E+03  0.12535267898E+03  0.50400001928E-02 0.  1.
    10030    2    1    2    0    0  0.00000000000E+00  0.00000000000E+00  0.58789072469E+03  0.83859608256E+03  0.59801997083E+03 0.  0.
        1    1    3    3  502    0  0.19286822096E+03  0.13959886267E+03  0.40286359237E+02  0.24147253236E+03  0.50400001928E-02 0.  1.
       -1    1    3    3    0  502 -0.19286822096E+03 -0.13959886267E+03  0.54760436545E+03  0.59712355020E+03  0.50400001928E-02 0. -1.
</event>
<event>
 5   0  0.9822607E-03  0.5990611E+03  0.7818609E-02  0.9907356E-01
       -2   -1    0    0    0  501  0.00000000000E+00  0.00000000000E+00  0.26195367167E+03  0.26195367169E+03  0.25500000920E-02 0.  1.
        2   -1    0    0  501    0  0.00000000000E+00  0.00000000000E+00 -0.34249782903E+03  0.34249782904E+03  0.25500000920E-02 0. -1.
    10030    2    1    2    0    0  0.00000000000E+00  0.00000000000E+00 -0.80544157352E+02  0.60445150072E+03  0.59906114499E+03 0.  0.
        3    1    3    3  502    0  0.18206381776E+03  0.72498047405E+02  0.18829515311E+03  0.27176879052E+03  0.10100000352E+00 0.  1.
       -3    1    3    3    0  502 -0.18206381776E+03 -0.72498047405E+02 -0.26883931047E+03  0.33268271020E+03  0.10100000352E+00 0. -1.
</event>
<event>
 5   0  0.9162342E-03  0.6007014E+03  0.7818609E-02  0.9903952E-01
        2   -1    0    0  501    0  0.00000000000E+00  0.00000000000E+00  0.82505870174E+03  0.82505870175E+03  0.25500000920E-02 0. -1.
       -2   -1    0    0    0  501  0.00000000000E+00  0.00000000000E+00 -0.10933834107E+03  0.10933834110E+03  0.25500000920E-02 0.  1.
    10030    2    1    2    0    0  0.00000000000E+00  0.00000000000E+00  0.71572036068E+03  0.93439704284E+03  0.60070142249E+03 0.  0.
        5    1    3    3  502    0  0.14818940052E+03 -0.20930184779E+03  0.11477673304E+03  0.28100382623E+03  0.46999998093E+01 0.  1.
       -5    1    3    3    0  502 -0.14818940052E+03  0.20930184779E+03  0.60094362764E+03  0.65339321661E+03  0.46999998093E+01 0. -1.
</event>
<event>
 5   0  0.5819446E-03  0.6006053E+03  0.7818609E-02  0.9904151E-01
        1   -1    0    0  501    0  0.00000000000E+00  0.00000000000E+00  0.25774480185E+03  0.25774480190E+03  0.50400001928E-02 0.  1.
       -1   -1    0    0    0  501  0.00000000000E+00  0.00000000000E+00 -0.34988745189E+03  0.34988745193E+03  0.50400001928E-02 0. -1.
    10030    2    1    2    0    0  0.00000000000E+00  0.00000000000E+00 -0.92142650047E+02  0.60763225383E+03  0.60060526799E+03 0.  0.
        5    1    3    3  502    0  0.23544798100E+03 -0.53094354031E+02  0.13463769450E+03  0.27641302604E+03  0.46999998093E+01 0.  1.
       -5    1    3    3    0  502 -0.23544798100E+03  0.53094354031E+02 -0.22678034454E+03  0.33121922779E+03  0.46999998093E+01 0. -1.
</event>
<event>
 5   0  0.6078658E-03  0.6037452E+03  0.7818609E-02  0.9897666E-01
        1   -1    0    0  501    0  0.00000000000E+00  0.00000000000E+00  0.68903665548E+03  0.68903665550E+03  0.50400001928E-02 0. -1.
       -1   -1    0    0    0  501  0.00000000000E+00  0.00000000000E+00 -0.13225286874E+03  0.13225286884E+03  0.50400001928E-02 0.  1.
    10030    2    1    2    0    0  0.00000000000E+00  0.00000000000E+00  0.55678378674E+03  0.82128952434E+03  0.60374522574E+03 0.  0.
        2    1    3    3  502    0  0.53106743039E+02 -0.47511769262E+02 -0.12064812032E+03  0.14012017455E+03  0.25500000920E-02 0.  1.
       -2    1    3    3    0  502 -0.53106743039E+02  0.47511769262E+02  0.67743190706E+03  0.68116934978E+03  0.25500000920E-02 0. -1.
</event>
<event>
 5   0  0.9303190E-03  0.6003403E+03  0.7818609E-02  0.9904700E-01
        2   -1    0    0  501    0  0.00000000000E+00  0.00000000000E+00  0.13326300316E+04  0.13326300316E+04  0.25500000920E-02 0. -1.
       -2   -1    0    0    0  501  0.00000000000E+00  0.00000000000E+00 -0.67612252818E+02  0.67612252866E+02  0.25500000920E-02 0.  1.
    10030    2    1    2    0    0  0.00000000000E+00  0.00000000000E+00  0.12650177788E+04  0.14002422845E+04  0.60034029897E+03 0.  0.
        4    1    3    3  502    0  0.10073796482E+03  0.19447139043E+03  0.15374856429E+03  0.26759576449E+03  0.12699999809E+01 0.  1.
       -4    1    3    3    0  502 -0.10073796482E+03 -0.19447139043E+03  0.11112692145E+04  0.11326465200E+04  0.12699999809E+01 0. -1.
</event>
<event>
 5   0  0.9162342E-03  0.6002634E+03  0.7818609E-02  0.9904860E-01
        2   -1    0    0  501    0  0.00000000000E+00  0.00000000000E+00  0.18607850500E+03  0.18607850502E+03  0.25500000920E-02 0.  1.
       -2   -1    0    0    0  501  0.00000000000E+00  0.00000000000E+00 -0.48409165819E+03  0.48409165819E+03  0.25500000920E-02 0. -1.
    10030    2    1    2    0    0  0.00000000000E+00  0.00000000000E+00 -0.29801315318E+03  0.67017016321E+03  0.60026344899E+03 0.  0.
        5    1    3    3  502    0  0.28697922511E+02 -0.28136106559E+03 -0.26103900157E+03  0.38490397546E+03  0.46999998093E+01 0. -1.
       -5    1    3    3    0  502 -0.28697922511E+02  0.28136106559E+03 -0.36974151618E+02  0.28526618775E+03  0.46999998093E+01 0.  1.
</event>
<event>
 5   0  0.5891927E-03  0.6026017E+03  0.7818609E-02  0.9900023E-01
        1   -1    0    0  501    0  0.00000000000E+00  0.00000000000E+00  0.76372977974E+03  0.76372977976E+03  0.50400001928E-02 0. -1.
       -1   -1    0    0    0  501  0.00000000000E+00  0.00000000000E+00 -0.11886691898E+03  0.11886691909E+03  0.50400001928E-02 0.  1.
    10030    2    1    2    0    0  0.00000000000E+00  0.00000000000E+00  0.64486286076E+03  0.88259669885E+03  0.60260171227E+03 0.  0.
        4    1    3    3  502    0 -0.19939890085E+03 -0.61708378846E+02  0.64067641918E+03  0.67382173657E+03  0.12699999809E+01 0. -1.
       -4    1    3    3    0  502  0.19939890085E+03  0.61708378846E+02  0.41864415761E+01  0.20877496228E+03  0.12699999809E+01 0.  1.
</event>
<event>
 5   0  0.9391405E-03  0.6030112E+03  0.7818609E-02  0.9899178E-01
       -2   -1    0    0    0  501  0.00000000000E+00  0.00000000000E+00  0.11195106788E+03  0.11195106790E+03  0.25500000920E-02 0.  1.
        2   -1    0    0  501    0  0.00000000000E+00  0.00000000000E+00 -0.81201218744E+03  0.81201218744E+03  0.25500000920E-02 0. -1.
    10030    2    1    2    0    0  0.00000000000E+00  0.00000000000E+00 -0.70006111956E+03  0.92396325534E+03  0.60301121557E+03 0.  0.
        2    1    3    3  502    0 -0.17181041046E+03  0.10936597168E+03 -0.93819683107E+01  0.20388171629E+03  0.25500000920E-02 0.  1.
       -2    1    3    3    0  502  0.17181041046E+03 -0.10936597168E+03 -0.69067915125E+03  0.72008153905E+03  0.25500000920E-02 0. -1.
</event>
<event>
 5   0  0.3806250E-03  0.5989630E+03  0.7818609E-02  0.9907560E-01
        3   -1    0    0  501    0  0.00000000000E+00  0.00000000000E+00  0.82565343419E+03  0.82565344037E+03  0.10100000352E+00 0. -1.
       -3   -1    0    0    0  501  0.00000000000E+00  0.00000000000E+00 -0.10862806849E+03  0.10862811544E+03  0.10100000352E+00 0.  1.
    10030    2    1    2    0    0  0.00000000000E+00  0.00000000000E+00  0.71702536571E+03  0.93428155581E+03  0.59896297921E+03 0.  0.
        1    1    3    3  502    0 -0.54893092726E+02  0.26797407779E+03  0.16832954659E+03  0.32118249372E+03  0.50400001928E-02 0.  1.
       -1    1    3    3    0  502  0.54893092726E+02 -0.26797407779E+03  0.54869581911E+03  0.61309906209E+03  0.50400001928E-02 0. -1.
</event>
<event>
 5   0  0.6078658E-03  0.6024570E+03  0.7818609E-02  0.9900322E-01
       -1   -1    0    0    0  501  0.00000000000E+00  0.00000000000E+00  0.13622584765E+03  0.13622584775E+03  0.50400001928E-02 0.  1.
        1   -1    0    0  501    0  0.00000000000E+00  0.00000000000E+00 -0.66608958458E+03  0.66608958460E+03  0.50400001928E-02 0. -1.
    10030    2    1    2    0    0  0.00000000000E+00  0.00000000000E+00 -0.52986373693E+03  0.80231543234E+03  0.60245703022E+03 0.  0.
        2    1    3    3  502    0  0.39795726545E+02  0.27336745499E+03 -0.42488004135E+03  0.50679040524E+03  0.25500000920E-02 0. -1.
       -2    1    3    3    0  502 -0.39795726545E+02 -0.27336745499E+03 -0.10498369558E+03  0.29552502710E+03  0.25500000920E-02 0.  1.
</event>
<event>
 5   0  0.9028473E-03  0.5990660E+03  0.7818609E-02  0.9907346E-01
       -2   -1    0    0    0  501  0.00000000000E+00  0.00000000000E+00  0.53152362138E+03  0.53152362138E+03  0.25500000920E-02 0. -1.
        2   -1    0    0  501    0  0.00000000000E+00  0.00000000000E+00 -0.16879780111E+03  0.16879780113E+03  0.25500000920E-02 0.  1.
    10030    2    1    2    0    0  0.00000000000E+00  0.00000000000E+00  0.36272582027E+03  0.70032142251E+03  0.59906600148E+03 0.  0.
        1    1    3    3  502    0  0.14848206357E+03 -0.19854623581E+03 -0.15131900169E+02  0.24838781247E+03  0.50400001928E-02 0.  1.
       -1    1    3    3    0  502 -0.14848206357E+03  0.19854623581E+03  0.37785772044E+03  0.45193361003E+03  0.50400001928E-02 0. -1.
</event>
<event>
 5   0  0.5765045E-03  0.6001703E+03  0.7818609E-02  0.9905053E-01
       -1   -1    0    0    0  501  0.00000000000E+00  0.00000000000E+00  0.22203777477E+03  0.22203777483E+03  0.50400001928E-02 0.  1.
        1   -1    0    0  501    0  0.00000000000E+00  0.00000000000E+00 -0.40556655680E+03  0.40556655684E+03  0.50400001928E-02 0. -1.
    10030    2    1    2    0    0  0.00000000000E+00  0.00000000000E+00 -0.18352878203E+03  0.62760433166E+03  0.60017029524E+03 0.  0.
        1    1    3    3  502    0  0.20336128388E+02 -0.28874236300E+03 -0.89920317641E+01  0.28959724959E+03  0.50400001928E-02 0.  1.
       -1    1    3    3    0  502 -0.20336128388E+02  0.28874236300E+03 -0.17453675027E+03  0.33800708207E+03  0.50400001928E-02 0. -1.
</event>
<event>
 5   0  0.5790967E-03  0.6018406E+03  0.7818609E-02  0.9901595E-01
       -1   -1    0    0    0  501  0.00000000000E+00  0.00000000000E+00  0.11214059013E+03  0.11214059024E+03  0.50400001928E-02 0. -1.
        1   -1    0    0  501    0  0.00000000000E+00  0.00000000000E+00 -0.80749547320E+03  0.80749547321E+03  0.50400001928E-02 0.  1.
    10030    2    1    2    0    0  0.00000000000E+00  0.00000000000E+00 -0.69535488307E+03  0.91963606345E+03  0.60184057341E+03 0.  0.
        3    1    3    3  502    0  0.27134075600E+03 -0.12106230141E+03 -0.42049812805E+03  0.51487918251E+03  0.10100000352E+00 0. -1.
       -3    1    3    3    0  502 -0.27134075600E+03  0.12106230141E+03 -0.27485675502E+03  0.40475688094E+03  0.10100000352E+00 0.  1.
</event>
<event>
 5   0  0.9303190E-03  0.6026245E+03  0.7818609E-02  0.9899976E-01
       -2   -1    0    0    0  501  0.00000000000E+00  0.00000000000E+00  0.59744699086E+03  0.59744699087E+03  0.25500000920E-02 0. -1.
        2   -1    0    0  501    0  0.00000000000E+00  0.00000000000E+00 -0.15196172372E+03  0.15196172374E+03  0.25500000920E-02 0.  1.
    10030    2    1    2    0    0  0.00000000000E+00  0.00000000000E+00  0.44548526714E+03  0.74940871461E+03  0.60262450854E+03 0.  0.
        4    1    3    3  502    0 -0.20413004649E+03  0.67431989421E+02 -0.39799893229E+02  0.21863621264E+03  0.12699999809E+01 0.  1.
       -4    1    3    3    0  502  0.20413004649E+03 -0.67431989421E+02  0.48528516037E+03  0.53077250197E+03  0.12699999809E+01 0. -1.
</event>
<event>
 5   0  0.9028473E-03  0.6001237E+03  0.7818609E-02  0.9905149E-01
        2   -1    0    0  501    0  0.00000000000E+00  0.00000000000E+00  0.11230097815E+04  0.11230097815E+04  0.25500000920E-02 0.  1.
       -2   -1    0    0    0  501  0.00000000000E+00  0.00000000000E+00 -0.80174837142E+02  0.80174837183E+02  0.25500000920E-02 0. -1.
    10030    2    1    2    0    0  0.00000000000E+00  0.00000000000E+00  0.10428349443E+04  0.12031846186E+04  0.60012374179E+03 0.  0.
        1    1    3    3  502    0 -0.20887270685E+02 -0.29757437432E+03  0.58639398764E+03  0.65790933653E+03  0.50400001928E-02 0.  1.
       -1    1    3    3    0  502  0.20887270685E+02  0.29757437432E+03  0.45644095668E+03  0.54527528212E+03  0.50400001928E-02 0. -1.
</event>
<event>
 5   0  0.9162342E-03  0.6001478E+03  0.7818609E-02  0.9905100E-01
        2   -1    0    0  501    0  0.00000000000E+00  0.00000000000E+00  0.10450735791E+04  0.10450735791E+04  0.25500000920E-02 0. -1.
       -2   -1    0    0    0  501  0.00000000000E+00  0.00000000000E+00 -0.86160760425E+02  0.86160760463E+02  0.25500000920E-02 0.  1.
    10030    2    1    2    0    0  0.00000000000E+00  0.00000000000E+00  0.95891281866E+03  0.11312343395E+04  0.60014776279E+03 0.  0.
        5    1    3    3  502    0  0.39471207876E+02 -0.78593502447E+02  0.10201620155E+04  0.10239568070E+04  0.46999998093E+01 0. -1.
       -5    1    3    3    0  502 -0.39471207876E+02  0.78593502447E+02 -0.61249196796E+02  0.10727753252E+03  0.46999998093E+01 0.  1.
</event>
<event>
 5   0  0.5891927E-03  0.5998759E+03  0.7818609E-02  0.9905664E-01
       -1   -1    0    0    0  501  0.00000000000E+00  0.00000000000E+00  0.44141590771E+03  0.44141590774E+03  0.50400001928E-02 0. -1.
        1   -1    0    0  501    0  0.00000000000E+00  0.00000000000E+00 -0.20380497888E+03  0.20380497895E+03  0.50400001928E-02 0.  1.
    10030    2    1    2    0    0  0.00000000000E+00  0.00000000000E+00  0.23761092883E+03  0.64522088669E+03  0.59987585309E+03 0.  0.
        4    1    3    3  502    0  0.99738090395E+02 -0.26859929134E+03  0.23399412203E+02  0.28747593181E+03  0.12699999809E+01 0.  1.
       -4    1    3    3    0  502 -0.99738090395E+02  0.26859929134E+03  0.21421151663E+03  0.35774495487E+03  0.12699999809E+01 0. -1.
</event>
<event>
 5   0  0.5819446E-03  0.5999497E+03  0.7818609E-02  0.9905510E-01
        1   -1    0    0  501    0  0.00000000000E+00  0.00000000000E+00  0.20902822363E+04  0.20902822363E+04  0.50400001928E-02 0.  1.
       -1   -1    0    0    0  501  0.00000000000E+00  0.00000000000E+00 -0.43049174226E+02  0.43049174521E+02  0.50400001928E-02 0. -1.
    10030    2    1    2    0    0  0.00000000000E+00  0.00000000000E+00  0.20472330621E+04  0.21333314108E+04  0.59994974620E+03 0.  0.
        5    1    3    3  502    0  0.18050110810E+03 -0.23945670726E+03  0.10003889577E+04  0.10443755653E+04  0.46999998093E+01 0. -1.
       -5    1    3    3    0  502 -0.18050110810E+03  0.23945670726E+03  0.10468441044E+04  0.10889558455E+04  0.46999998093E+01 0.  1.
</event>
<event>
 5   0  0.9391405E-03  0.5996001E+03  0.7818609E-02  0.9906236E-01
        2   -1    0    0  501    0  0.00000000000E+00  0.00000000000E+00  0.89781597513E+03  0.89781597514E+03  0.25500000920E-02 0. -1.
       -2   -1    0    0    0  501  0.00000000000E+00  0.00000000000E+00 -0.10010968915E+03  0.10010968918E+03  0.25500000920E-02 0.  1.
    10030    2    1    2    0    0  0.00000000000E+00  0.00000000000E+00  0.79770628598E+03  0.99792566432E+03  0.59960012743E+03 0.  0.
        2    1    3    3  502    0  0.15101234664E+03  0.17940768689E+03  0.87985191424E+02  0.25046604734E+03  0.25500000920E-02 0.  1.
       -2    1    3    3    0  502 -0.15101234664E+03 -0.17940768689E+03  0.70972109456E+03  0.74745961698E+03  0.25500000920E-02 0. -1.
</event>
<event>
 5   0  0.5891927E-03  0.6002660E+03  0.7818609E-02  0.9904854E-01
        1   -1    0    0  501    0  0.00000000000E+00  0.00000000000E+00  0.83126402539E+03  0.83126402541E+03  0.50400001928E-02 0.  1.
       -1   -1    0    0    0  501  0.00000000000E+00  0.00000000000E+00 -0.10836486292E+03  0.10836486304E+03  0.50400001928E-02 0. -1.
    10030    2    1    2    0    0  0.00000000000E+00  0.00000000000E+00  0.72289916247E+03  0.93962888844E+03  0.60026598179E+03 0.  0.
        4    1    3    3  502    0 -0.18303262350E+03  0.41505530217E+02  0.72807194501E+03  0.75187367311E+03  0.12699999809E+01 0.  1.
       -4    1    3    3    0  502  0.18303262350E+03 -0.41505530217E+02 -0.51727825425E+01  0.18775521533E+03  0.12699999809E+01 0. -1.
</event>
<event>
 5   0  0.9162342E-03  0.5988464E+03  0.7818609E-02  0.9907802E-01
       -2   -1    0    0    0  501  0.00000000000E+00  0.00000000000E+00  0.95248300339E+02  0.95248300373E+02  0.25500000920E-02 0.  1.
        2   -1    0    0  501    0  0.00000000000E+00  0.00000000000E+00 -0.94126865473E+03  0.94126865474E+03  0.25500000920E-02 0. -1.
    10030    2    1    2    0    0  0.00000000000E+00  0.00000000000E+00 -0.84602035439E+03  0.10365169551E+04  0.59884635607E+03 0.  0.
        5    1    3    3  502    0  0.73355158073E+02  0.28950969352E+03 -0.38689754314E+03  0.48878281552E+03  0.46999998093E+01 0.  1.
       -5    1    3    3    0  502 -0.73355158073E+02 -0.28950969352E+03 -0.45912281125E+03  0.54773413959E+03  0.46999998093E+01 0. -1.
</event>
<event>
 5   0  0.5819446E-03  0.6004333E+03  0.7818609E-02  0.9904507E-01
       -1   -1    0    0    0  501  0.00000000000E+00  0.00000000000E+00  0.20028643111E+03  0.20028643117E+03  0.50400001928E-02 0. -1.
        1   -1    0    0  501    0  0.00000000000E+00  0.00000000000E+00 -0.45000572512E+03  0.45000572515E+03  0.50400001928E-02 0.  1.
    10030    2    1    2    0    0  0.00000000000E+00  0.00000000000E+00 -0.24971929401E+03  0.65029215632E+03  0.60043331251E+03 0.  0.
        5    1    3    3  502    0 -0.27622172073E+03  0.11129925566E+03 -0.84019094655E+02  0.30946285978E+03  0.46999998093E+01 0.  1.
       -5    1    3    3    0  502  0.27622172073E+03 -0.11129925566E+03 -0.16570019936E+03  0.34082929654E+03  0.46999998093E+01 0. -1.
</event>
<event>
 5   0  0.5891927E-03  0.6001880E+03  0.7818609E-02  0.9905016E-01
       -1   -1    0    0    0  501  0.00000000000E+00  0.00000000000E+00  0.58858134873E+02  0.58858135089E+02  0.50400001928E-02 0.  1.
        1   -1    0    0  501    0  0.00000000000E+00  0.00000000000E+00 -0.15300590596E+04  0.15300590596E+04  0.50400001928E-02 0. -1.
    10030    2    1    2    0    0  0.00000000000E+00  0.00000000000E+00 -0.14712009247E+04  0.15889171947E+04  0.60018804610E+03 0.  0.
        4    1    3    3  502    0 -0.10769927217E+02 -0.29886785104E+03 -0.80135038989E+03  0.85533738606E+03  0.12699999809E+01 0. -1.
       -4    1    3    3    0  502  0.10769927217E+02  0.29886785104E+03 -0.66985053483E+03  0.73357980863E+03  0.12699999809E+01 0.  1.
</event>
<event>
 5   0  0.9391405E-03  0.6004021E+03  0.7818609E-02  0.9904572E-01
       -2   -1    0    0    0  501  0.00000000000E+00  0.00000000000E+00  0.51341482447E+03  0.51341482447E+03  0.25500000920E-02 0.  1.
        2   -1    0    0  501    0  0.00000000000E+00  0.00000000000E+00 -0.17553189253E+03  0.17553189254E+03  0.25500000920E-02 0. -1.
    10030    2    1    2    0    0  0.00000000000E+00  0.00000000000E+00  0.33788293194E+03  0.68894671702E+03  0.60040211791E+03 0.  0.
        2    1    3    3  502    0 -0.24574411399E+03  0.17219580745E+03  0.17914755757E+03  0.34947877340E+03  0.25500000920E-02 0. -1.
       -2    1    3    3    0  502  0.24574411399E+03 -0.17219580745E+03  0.15873537437E+03  0.33946794362E+03  0.25500000920E-02 0.  1.
</event>
<event>
 5   0  0.5819446E-03  0.6002941E+03  0.7818609E-02  0.9904796E-01
       -1   -1    0    0    0  501  0.00000000000E+00  0.00000000000E+00  0.20688420481E+03  0.20688420487E+03  0.50400001928E-02 0. -1.
        1   -1    0    0  501    0  0.00000000000E+00  0.00000000000E+00 -0.43545255066E+03  0.43545255069E+03  0.50400001928E-02 0.  1.
    10030    2    1    2    0    0  0.00000000000E+00  0.00000000000E+00 -0.22856834585E+03  0.64233675556E+03  0.60029411026E+03 0.  0.
        5    1    3    3  502    0  0.40567718868E+02  0.24959913455E+03 -0.28722242753E+03  0.38270652027E+03  0.46999998093E+01 0.  1.
       -5    1    3    3    0  502 -0.40567718868E+02 -0.24959913455E+03  0.58654081673E+02  0.25963023529E+03  0.46999998093E+01 0. -1.
</event>
<event>
 5   0  0.9028473E-03  0.6009252E+03  0.7818609E-02  0.9903488E-01
       -2   -1    0    0    0  501  0.00000000000E+00  0.00000000000E+00  0.22667977720E+03  0.22667977722E+03  0.25500000920E-02 0. -1.
        2   -1    0    0  501    0  0.00000000000E+00  0.00000000000E+00 -0.39826127758E+03  0.39826127758E+03  0.25500000920E-02 0.  1.
    10030    2    1    2    0    0  0.00000000000E+00  0.00000000000E+00 -0.17158150037E+03  0.62494105480E+03  0.60092521224E+03 0.  0.
        1    1    3    3  502    0  0.14840397576E+03 -0.24464511817E+03 -0.18112100235E+03  0.33864404820E+03  0.50400001928E-02 0.  1.
       -1    1    3    3    0  502 -0.14840397576E+03  0.24464511817E+03  0.95395019733E+01  0.28629700660E+03  0.50400001928E-02 0. -1.
</event>
<event>
 5   0  0.5765045E-03  0.6003483E+03  0.7818609E-02  0.9904684E-01
        1   -1    0    0  501    0  0.00000000000E+00  0.00000000000E+00  0.28593137938E+03  0.28593137942E+03  0.50400001928E-02 0. -1.
       -1   -1    0    0    0  501  0.00000000000E+00  0.00000000000E+00 -0.31512634401E+03  0.31512634405E+03  0.50400001928E-02 0.  1.
    10030    2    1    2    0    0  0.00000000000E+00  0.00000000000E+00 -0.29194964631E+02  0.60105772347E+03  0.60034826641E+03 0.  0.
        1    1    3    3  502    0  0.25664986330E+03 -0.95284606012E+02  0.10865852918E+03  0.29454199100E+03  0.50400001928E-02 0. -1.
       -1    1    3    3    0  502 -0.25664986330E+03  0.95284606012E+02 -0.13785349381E+03  0.30651573247E+03  0.50400001928E-02 0.  1.
</event>
<event>
 5   0  0.6078658E-03  0.5973685E+03  0.7818609E-02  0.9910881E-01
        1   -1    0    0  501    0  0.00000000000E+00  0.00000000000E+00  0.19346671690E+03  0.19346671697E+03  0.50400001928E-02 0.  1.
       -1   -1    0    0    0  501  0.00000000000E+00  0.00000000000E+00 -0.46112473909E+03  0.46112473912E+03  0.50400001928E-02 0. -1.
    10030    2    1    2    0    0  0.00000000000E+00  0.00000000000E+00 -0.26765802219E+03  0.65459145609E+03  0.59736852741E+03 0.  0.
        2    1    3    3  502    0  0.99966494051E+02 -0.23004338758E+02  0.17355918571E+03  0.20160677192E+03  0.25500000920E-02 0.  1.
       -2    1    3    3    0  502 -0.99966494051E+02  0.23004338758E+02 -0.44121720790E+03  0.45298468417E+03  0.25500000920E-02 0. -1.
</event>
<event>
 5   0  0.9303190E-03  0.5967278E+03  0.7818609E-02  0.9912218E-01
       -2   -1    0    0    0  501  0.00000000000E+00  0.00000000000E+00  0.47928793133E+02  0.47928793201E+02  0.25500000920E-02 0.  1.
        2   -1    0    0  501    0  0.00000000000E+00  0.00000000000E+00 -0.18573597392E+04  0.18573597392E+04  0.25500000920E-02 0. -1.
    10030    2    1    2    0    0  0.00000000000E+00  0.00000000000E+00 -0.18094309461E+04  0.19052885324E+04  0.59672777975E+03 0.  0.
        4    1    3    3  502    0  0.14137109650E+02  0.12959309854E+03 -0.17616085612E+04  0.17664259297E+04  0.12699999809E+01 0. -1.
       -4    1    3    3    0  502 -0.14137109650E+02 -0.12959309854E+03 -0.47822384873E+02  0.13886260279E+03  0.12699999809E+01 0.  1.
</event>
<event>
 5   0  0.9391405E-03  0.5998535E+03  0.7818609E-02  0.9905710E-01
       -2   -1    0    0    0  501  0.00000000000E+00  0.00000000000E+00  0.51186852580E+03  0.51186852581E+03  0.25500000920E-02 0. -1.
        2   -1    0    0  501    0  0.00000000000E+00  0.00000000000E+00 -0.17574056841E+03  0.17574056843E+03  0.25500000920E-02 0.  1.
    10030    2    1    2    0    0  0.00000000000E+00  0.00000000000E+00  0.33612795739E+03  0.68760909424E+03  0.59985353440E+03 0.  0.
        2    1    3    3  502    0 -0.20847021185E+02 -0.17749083553E+03 -0.10804436350E+03  0.20883289846E+03  0.25500000920E-02 0.  1.
       -2    1    3    3    0  502  0.20847021185E+02  0.17749083553E+03  0.44417232089E+03  0.47877619578E+03  0.25500000920E-02 0. -1.
</event>
<event>
 5   0  0.9303190E-03  0.5984493E+03  0.7818609E-02  0.9908629E-01
       -2   -1    0    0    0  501  0.00000000000E+00  0.00000000000E+00  0.43486551457E+02  0.43486551532E+02  0.25500000920E-02 0. -1.
        2   -1    0    0  501    0  0.00000000000E+00  0.00000000000E+00 -0.20589210836E+04  0.20589210836E+04  0.25500000920E-02 0.  1.
    10030    2    1    2    0    0  0.00000000000E+00  0.00000000000E+00 -0.20154345321E+04  0.21024076351E+04  0.59844925508E+03 0.  0.
        4    1    3    3  502    0 -0.15690038883E+03  0.24727047688E+03 -0.12235179409E+04  0.12580771778E+04  0.12699999809E+01 0. -1.
       -4    1    3    3    0  502  0.15690038883E+03 -0.24727047688E+03 -0.79191659119E+03  0.84433045726E+03  0.12699999809E+01 0.  1.
</event>
<event>
 5   0  0.3806250E-03  0.5999243E+03  0.7818609E-02  0.9905563E-01
       -4   -1    0    0    0  501  0.00000000000E+00  0.00000000000E+00  0.60464479784E+03  0.60464613159E+03  0.12699999809E+01 0.  1.
        4   -1    0    0  501    0  0.00000000000E+00  0.00000000000E+00 -0.14880594875E+03  0.14881136812E+03  0.12699999809E+01 0. -1.
    10030    2    1    2    0    0  0.00000000000E+00  0.00000000000E+00  0.45583884909E+03  0.75345749971E+03  0.59992428484E+03 0.  0.
        3    1    3    3  502    0  0.27023340201E+03  0.12289915402E+03  0.28189456409E+03  0.40938349880E+03  0.10100000352E+00 0. -1.
       -3    1    3    3    0  502 -0.27023340201E+03 -0.12289915402E+03  0.17394428500E+03  0.34407400092E+03  0.10100000352E+00 0.  1.
</event>
<event>
 5   0  0.9028473E-03  0.5974941E+03  0.7818609E-02  0.9910619E-01
       -2   -1    0    0    0  501  0.00000000000E+00  0.00000000000E+00  0.27834484282E+03  0.27834484283E+03  0.25500000920E-02 0. -1.
        2   -1    0    0  501    0  0.00000000000E+00  0.00000000000E+00 -0.32064475105E+03  0.32064475106E+03  0.25500000920E-02 0.  1.
    10030    2    1    2    0    0  0.00000000000E+00  0.00000000000E+00 -0.42299908230E+02  0.59898959389E+03  0.59749414337E+03 0.  0.
        1    1    3    3  502    0  0.79917312859E+02  0.17719917917E+03 -0.24857339641E+03  0.31555516066E+03  0.50400001928E-02 0.  1.
       -1    1    3    3    0  502 -0.79917312859E+02 -0.17719917917E+03  0.20627348818E+03  0.28343443323E+03  0.50400001928E-02 0. -1.
</event>
<event>
 5   0  0.5891927E-03  0.6002532E+03  0.7818609E-02  0.9904881E-01
       -1   -1    0    0    0  501  0.00000000000E+00  0.00000000000E+00  0.35032279540E+03  0.35032279544E+03  0.50400001928E-02 0. -1.
        1   -1    0    0  501    0  0.00000000000E+00  0.00000000000E+00 -0.25712282816E+03  0.25712282821E+03  0.50400001928E-02 0.  1.
    10030    2    1    2    0    0  0.00000000000E+00  0.00000000000E+00  0.93199967235E+02  0.60744562365E+03  0.60025323972E+03 0.  0.
        4    1    3    3  502    0 -0.25024647400E+03  0.48978618653E+02 -0.11357533223E+03  0.27914722249E+03  0.12699999809E+01 0.  1.
       -4    1    3    3    0  502  0.25024647400E+03 -0.48978618653E+02  0.20677529947E+03  0.32829840116E+03  0.12699999809E+01 0. -1.
</event>
<event>
 5   0  0.6078658E-03  0.5992521E+03  0.7818609E-02  0.9906959E-01
       -1   -1    0    0    0  501  0.00000000000E+00  0.00000000000E+00  0.30836528017E+03  0.30836528021E+03  0.50400001928E-02 0.  1.
        1   -1    0    0  501    0  0.00000000000E+00  0.00000000000E+00 -0.29113445394E+03  0.29113445398E+03  0.50400001928E-02 0. -1.
    10030    2    1    2    0    0  0.00000000000E+00  0.00000000000E+00  0.17230826233E+02  0.59949973419E+03  0.59925205876E+03 0.  0.
        2    1    3    3  502    0  0.50735632486E+02 -0.11950643092E+03  0.27876380783E+03  0.30751447445E+03  0.25500000920E-02 0.  1.
       -2    1    3    3    0  502 -0.50735632486E+02  0.11950643092E+03 -0.26153298160E+03  0.29198525974E+03  0.25500000920E-02 0. -1.
</event>
<event>
 5   0  0.5891927E-03  0.5981897E+03  0.7818609E-02  0.9909169E-01
       -1   -1    0    0    0  501  0.00000000000E+00  0.00000000000E+00  0.26708706407E+03  0.26708706411E+03  0.50400001928E-02 0.  1.
        1   -1    0    0  501    0  0.00000000000E+00  0.00000000000E+00 -0.33493846848E+03  0.33493846851E+03  0.50400001928E-02 0. -1.
    10030    2    1    2    0    0  0.00000000000E+00  0.00000000000E+00 -0.67851404410E+02  0.60202553263E+03  0.59818970975E+03 0.  0.
        4    1    3    3  502    0 -0.19385275013E+03  0.96940899707E+02 -0.24135335601E+03  0.32439094026E+03  0.12699999809E+01 0. -1.
       -4    1    3    3    0  502  0.19385275013E+03 -0.96940899707E+02  0.17350195160E+03  0.27763459236E+03  0.12699999809E+01 0.  1.
</event>
<event>
 5   0  0.9028473E-03  0.6013477E+03  0.7818609E-02  0.9902614E-01
       -2   -1    0    0    0  501  0.00000000000E+00  0.00000000000E+00  0.43536861096E+02  0.43536861171E+02  0.25500000920E-02 0.  1.
        2   -1    0    0  501    0  0.00000000000E+00  0.00000000000E+00 -0.20765105962E+04  0.20765105962E+04  0.25500000920E-02 0. -1.
    10030    2    1    2    0    0  0.00000000000E+00  0.00000000000E+00 -0.20329737351E+04  0.21200474574E+04  0.60134766474E+03 0.  0.
        1    1    3    3  502    0 -0.21899230441E+03  0.17827376355E+03 -0.65239382352E+03  0.71088456528E+03  0.50400001928E-02 0. -1.
       -1    1    3    3    0  502  0.21899230441E+03 -0.17827376355E+03 -0.13805799116E+04  0.14091628921E+04  0.50400001928E-02 0.  1.
</event>
<event>
 5   0  0.5765045E-03  0.5998292E+03  0.7818609E-02  0.9905760E-01
       -1   -1    0    0    0  501  0.00000000000E+00  0.00000000000E+00  0.14041170574E+03  0.14041170583E+03  0.50400001928E-02 0.  1.
        1   -1    0    0  501    0  0.00000000000E+00  0.00000000000E+00 -0.64060738209E+03  0.64060738211E+03  0.50400001928E-02 0. -1.
    10030    2    1    2    0    0  0.00000000000E+00  0.00000000000E+00 -0.50019567635E+03  0.78101908794E+03  0.59982922661E+03 0.  0.
        1    1    3    3  502    0 -0.67985467658E+02  0.25120901735E+03 -0.56003134357E+02  0.26620357866E+03  0.50400001928E-02 0.  1.
       -1    1    3    3    0  502  0.67985467658E+02 -0.25120901735E+03 -0.44419254199E+03  0.51481550928E+03  0.50400001928E-02 0. -1.
</event>
<event>
 5   0  0.5819446E-03  0.6014240E+03  0.7818609E-02  0.9902456E-01
        1   -1    0    0  501    0  0.00000000000E+00  0.00000000000E+00  0.49973797437E+03  0.49973797440E+03  0.50400001928E-02 0.  1.
       -1   -1    0    0    0  501  0.00000000000E+00  0.00000000000E+00 -0.18095025551E+03  0.18095025558E+03  0.50400001928E-02 0. -1.
    10030    2    1    2    0    0  0.00000000000E+00  0.00000000000E+00  0.31878771887E+03  0.68068822998E+03  0.60142402407E+03 0.  0.
        5    1    3    3  502    0  0.28678612225E+03 -0.88808793821E+02  0.17807163307E+03  0.34909150416E+03  0.46999998093E+01 0.  1.
       -5    1    3    3    0  502 -0.28678612225E+03  0.88808793821E+02  0.14071608580E+03  0.33159672582E+03  0.46999998093E+01 0. -1.
</event>
<event>
 5   0  0.5790967E-03  0.5988216E+03  0.7818609E-02  0.9907854E-01
       -1   -1    0    0    0  501  0.00000000000E+00  0.00000000000E+00  0.35978253973E+03  0.35978253976E+03  0.50400001928E-02 0.  1.
        1   -1    0    0  501    0  0.00000000000E+00  0.00000000000E+00 -0.24916951204E+03  0.24916951209E+03  0.50400001928E-02 0. -1.
    10030    2    1    2    0    0  0.00000000000E+00  0.00000000000E+00  0.11061302769E+03  0.60895205185E+03  0.59882164252E+03 0.  0.
        3    1    3    3  502    0  0.24532762130E+03  0.17114405318E+03  0.42012446267E+02  0.30206122650E+03  0.10100000352E+00 0.  1.
       -3    1    3    3    0  502 -0.24532762130E+03 -0.17114405318E+03  0.68600581424E+02  0.30689082535E+03  0.10100000352E+00 0. -1.
</event>
<event>
 5   0  0.9391405E-03  0.5996058E+03  0.7818609E-02  0.9906224E-01
       -2   -1    0    0    0  501  0.00000000000E+00  0.00000000000E+00  0.12820284300E+03  0.12820284302E+03  0.25500000920E-02 0. -1.
        2   -1    0    0  501    0  0.00000000000E+00  0.00000000000E+00 -0.70109028325E+03  0.70109028325E+03  0.25500000920E-02 0.  1.
    10030    2    1    2    0    0  0.00000000000E+00  0.00000000000E+00 -0.57288744025E+03  0.82929312627E+03  0.59960576222E+03 0.  0.
        2    1    3    3  502    0  0.18149060534E+03 -0.16965605341E+03 -0.54353588497E+02  0.25431541218E+03  0.25500000920E-02 0. -1.
       -2    1    3    3    0  502 -0.18149060534E+03  0.16965605341E+03 -0.51853385175E+03  0.57497771409E+03  0.25500000920E-02 0.  1.
</event>
<event>
 5   0  0.9391405E-03  0.5993545E+03  0.7818609E-02  0.9906746E-01
       -2   -1    0    0    0  501  0.00000000000E+00  0.00000000000E+00  0.16448826729E+03  0.16448826731E+03  0.25500000920E-02 0.  1.
        2   -1    0    0  501    0  0.00000000000E+00  0.00000000000E+00 -0.54597478672E+03  0.54597478673E+03  0.25500000920E-02 0. -1.
    10030    2    1    2    0    0  0.00000000000E+00  0.00000000000E+00 -0.38148651943E+03  0.71046305404E+03  0.59935447495E+03 0.  0.
        2    1    3    3  502    0 -0.13726919041E+03 -0.21511556296E+03 -0.37699858970E+03  0.45524221323E+03  0.25500000920E-02 0. -1.
       -2    1    3    3    0  502  0.13726919041E+03  0.21511556296E+03 -0.44879297302E+01  0.25522084081E+03  0.25500000920E-02 0.  1.
</event>
<event>
 5   0  0.3806250E-03  0.6002625E+03  0.7818609E-02  0.9904862E-01
        3   -1    0    0  501    0  0.00000000000E+00  0.00000000000E+00  0.25893267040E+03  0.25893269010E+03  0.10100000352E+00 0.  1.
       -3   -1    0    0    0  501  0.00000000000E+00  0.00000000000E+00 -0.34788490429E+03  0.34788491895E+03  0.10100000352E+00 0. -1.
    10030    2    1    2    0    0  0.00000000000E+00  0.00000000000E+00 -0.88952233890E+02  0.60681760905E+03  0.60026253485E+03 0.  0.
        3    1    3    3  502    0  0.28694081101E+03  0.13129663286E+02 -0.13243984151E+03  0.31630323884E+03  0.10100000352E+00 0. -1.
       -3    1    3    3    0  502 -0.28694081101E+03 -0.13129663286E+02  0.43487607621E+02  0.29051437021E+03  0.10100000352E+00 0.  1.
</event>
<event>
 5   0  0.9303190E-03  0.5993391E+03  0.7818609E-02  0.9906778E-01
        2   -1    0    0  501    0  0.00000000000E+00  0.00000000000E+00  0.11997583103E+04  0.11997583103E+04  0.25500000920E-02 0.  1.
       -2   -1    0    0    0  501  0.00000000000E+00  0.00000000000E+00 -0.74849936523E+02  0.74849936567E+02  0.25500000920E-02 0. -1.
    10030    2    1    2    0    0  0.00000000000E+00  0.00000000000E+00  0.11249083738E+04  0.12746082468E+04  0.59933908064E+03 0.  0.
        4    1    3    3  502    0  0.23897081822E+03 -0.85663859097E+02  0.90109152065E+03  0.93616926365E+03  0.12699999809E+01 0.  1.
       -4    1    3    3    0  502 -0.23897081822E+03  0.85663859097E+02  0.22381685311E+03  0.33843898320E+03  0.12699999809E+01 0. -1.
</event>
<event>
 5   0  0.3806250E-03  0.5996969E+03  0.7818609E-02  0.9906035E-01
        3   -1    0    0  501    0  0.00000000000E+00  0.00000000000E+00  0.80676385667E+03  0.80676386299E+03  0.10100000352E+00 0.  1.
       -3   -1    0    0    0  501  0.00000000000E+00  0.00000000000E+00 -0.11144408146E+03  0.11144412723E+03  0.10100000352E+00 0. -1.
    10030    2    1    2    0    0  0.00000000000E+00  0.00000000000E+00  0.69531977521E+03  0.91820799022E+03  0.59969685968E+03 0.  0.
        3    1    3    3  502    0  0.51491621900E+02 -0.87453105846E+02  0.77966821374E+03  0.78624548747E+03  0.10100000352E+00 0.  1.
       -3    1    3    3    0  502 -0.51491621900E+02  0.87453105846E+02 -0.84348438533E+02  0.13196250275E+03  0.10100000352E+00 0. -1.
</event>
<event>
 5   0  0.5819446E-03  0.6000243E+03  0.7818609E-02  0.9905356E-01
       -1   -1    0    0    0  501  0.00000000000E+00  0.00000000000E+00  0.29663637358E+03  0.29663637363E+03  0.50400001928E-02 0.  1.
        1   -1    0    0  501    0  0.00000000000E+00  0.00000000000E+00 -0.30342636380E+03  0.30342636385E+03  0.50400001928E-02 0. -1.
    10030    2    1    2    0    0  0.00000000000E+00  0.00000000000E+00 -0.67899902195E+01  0.60006273747E+03  0.60002432029E+03 0.  0.
        5    1    3    3  502    0  0.26955738537E+02  0.42907515575E+02 -0.29907849796E+03  0.30337716571E+03  0.46999998093E+01 0. -1.
       -5    1    3    3    0  502 -0.26955738537E+02 -0.42907515575E+02  0.29228850774E+03  0.29668557176E+03  0.46999998093E+01 0.  1.
</event>
<event>
 5   0  0.5765045E-03  0.5995778E+03  0.7818609E-02  0.9906282E-01
       -1   -1    0    0    0  501  0.00000000000E+00  0.00000000000E+00  0.96817173147E+02  0.96817173278E+02  0.50400001928E-02 0. -1.
        1   -1    0    0  501    0  0.00000000000E+00  0.00000000000E+00 -0.92827922777E+03  0.92827922778E+03  0.50400001928E-02 0.  1.
    10030    2    1    2    0    0  0.00000000000E+00  0.00000000000E+00 -0.83146205462E+03  0.10250964011E+04  0.59957775408E+03 0.  0.
        1    1    3    3  502    0 -0.10168771216E+02  0.20441335591E+03 -0.79024895497E+03  0.81632201664E+03  0.50400001928E-02 0.  1.
       -1    1    3    3    0  502  0.10168771216E+02 -0.20441335591E+03 -0.41213099645E+02  0.20877438442E+03  0.50400001928E-02 0. -1.
</event>
<event>
 5   0  0.6078658E-03  0.5998839E+03  0.7818609E-02  0.9905647E-01
        1   -1    0    0  501    0  0.00000000000E+00  0.00000000000E+00  0.12382234357E+04  0.12382234357E+04  0.50400001928E-02 0. -1.
       -1   -1    0    0    0  501  0.00000000000E+00  0.00000000000E+00 -0.72656656888E+02  0.72656657062E+02  0.50400001928E-02 0.  1.
    10030    2    1    2    0    0  0.00000000000E+00  0.00000000000E+00  0.11655667788E+04  0.13108800928E+04  0.59988390689E+03 0.  0.
        2    1    3    3  502    0  0.16780510592E+03  0.18573176502E+03  0.94390980504E+03  0.97653497745E+03  0.25500000920E-02 0. -1.
       -2    1    3    3    0  502 -0.16780510592E+03 -0.18573176502E+03  0.22165697375E+03  0.33434511531E+03  0.25500000920E-02 0.  1.
</event>
<event>
 5   0  0.9162342E-03  0.5986310E+03  0.7818609E-02  0.9908250E-01
       -2   -1    0    0    0  501  0.00000000000E+00  0.00000000000E+00  0.51741762688E+02  0.51741762751E+02  0.25500000920E-02 0.  1.
        2   -1    0    0  501    0  0.00000000000E+00  0.00000000000E+00 -0.17314785783E+04  0.17314785783E+04  0.25500000920E-02 0. -1.
    10030    2    1    2    0    0  0.00000000000E+00  0.00000000000E+00 -0.16797368157E+04  0.17832203411E+04  0.59863095061E+03 0.  0.
        5    1    3    3  502    0 -0.25190407036E+03  0.14505996003E+03 -0.10519647430E+04  0.10913981689E+04  0.46999998093E+01 0. -1.
       -5    1    3    3    0  502  0.25190407036E+03 -0.14505996003E+03 -0.62777207266E+03  0.69182217215E+03  0.46999998093E+01 0.  1.
</event>
<event>
 5   0  0.5790967E-03  0.6004623E+03  0.7818609E-02  0.9904447E-01
        1   -1    0    0  501    0  0.00000000000E+00  0.00000000000E+00  0.82969208963E+03  0.82969208964E+03  0.50400001928E-02 0.  1.
       -1   -1    0    0    0  501  0.00000000000E+00  0.00000000000E+00 -0.10864119980E+03  0.10864119992E+03  0.50400001928E-02 0. -1.
    10030    2    1    2    0    0  0.00000000000E+00  0.00000000000E+00  0.72105088983E+03  0.93833328956E+03  0.60046230238E+03 0.  0.
        3    1    3    3  502    0 -0.84248835803E+02 -0.16490168600E+02  0.81010347375E+03  0.81463945423E+03  0.10100000352E+00 0.  1.
       -3    1    3    3    0  502  0.84248835803E+02  0.16490168600E+02 -0.89052583927E+02  0.12369383533E+03  0.10100000352E+00 0. -1.
</event>
<event>
 5   0  0.6078658E-03  0.6117603E+03  0.7818609E-02  0.9881303E-01
       -1   -1    0    0    0  501  0.00000000000E+00  0.00000000000E+00  0.57207876783E+03  0.57207876785E+03  0.50400001928E-02 0.  1.
        1   -1    0    0  501    0  0.00000000000E+00  0.00000000000E+00 -0.16354856946E+03  0.16354856954E+03  0.50400001928E-02 0. -1.
    10030    2    1    2    0    0  0.00000000000E+00  0.00000000000E+00  0.40853019836E+03  0.73562733739E+03  0.61176029337E+03 0.  0.
        2    1    3    3  502    0  0.28363721543E+03  0.74394390007E+02  0.99586994871E+02  0.30968074657E+03  0.25500000920E-02 0. -1.
       -2    1    3    3    0  502 -0.28363721543E+03 -0.74394390007E+02  0.30894320349E+03  0.42594659082E+03  0.25500000920E-02 0.  1.
</event>
<event>
 5   0  0.9822607E-03  0.6044639E+03  0.7818609E-02  0.9896188E-01
        2   -1    0    0  501    0  0.00000000000E+00  0.00000000000E+00  0.49682871621E+03  0.49682871621E+03  0.25500000920E-02 0.  1.
       -2   -1    0    0    0  501  0.00000000000E+00  0.00000000000E+00 -0.18385441824E+03  0.18385441826E+03  0.25500000920E-02 0. -1.
    10030    2    1    2    0    0  0.00000000000E+00  0.00000000000E+00  0.31297429796E+03  0.68068313448E+03  0.60446390990E+03 0.  0.
        3    1    3    3  502    0  0.16921287939E+02 -0.11477933038E+03  0.47075314987E+03  0.48483931666E+03  0.10100000352E+00 0.  1.
       -3    1    3    3    0  502 -0.16921287939E+02  0.11477933038E+03 -0.15777885190E+03  0.19584381782E+03  0.10100000352E+00 0. -1.
</event>
<event>
 5   0  0.5790967E-03  0.5995618E+03  0.7818609E-02  0.9906316E-01
        1   -1    0    0  501    0  0.00000000000E+00  0.00000000000E+00  0.62446728661E+03  0.62446728663E+03  0.50400001928E-02 0.  1.
       -1   -1    0    0    0  501  0.00000000000E+00  0.00000000000E+00 -0.14391241882E+03  0.14391241891E+03  0.50400001928E-02 0. -1.
    10030    2    1    2    0    0  0.00000000000E+00  0.00000000000E+00  0.48055486780E+03  0.76837970554E+03  0.59956183245E+03 0.  0.
        3    1    3    3  502    0 -0.23738820545E+02  0.28754469547E+03  0.13598022270E+03  0.31896099238E+03  0.10100000352E+00 0. -1.
       -3    1    3    3    0  502  0.23738820545E+02 -0.28754469547E+03  0.34457464509E+03  0.44941871316E+03  0.10100000352E+00 0.  1.
</event>
<event>
 5   0  0.5790967E-03  0.5977244E+03  0.7818609E-02  0.9910138E-01
        1   -1    0    0  501    0  0.00000000000E+00  0.00000000000E+00  0.28518799065E+03  0.28518799069E+03  0.50400001928E-02 0.  1.
       -1   -1    0    0    0  501  0.00000000000E+00  0.00000000000E+00 -0.31319207052E+03  0.31319207056E+03  0.50400001928E-02 0. -1.
    10030    2    1    2    0    0  0.00000000000E+00  0.00000000000E+00 -0.28004079869E+02  0.59838006125E+03  0.59772440908E+03 0.  0.
        3    1    3    3  502    0  0.95381792136E+02  0.16885388819E+03  0.21364415211E+03  0.28853622954E+03  0.10100000352E+00 0.  1.
       -3    1    3    3    0  502 -0.95381792136E+02 -0.16885388819E+03 -0.24164823197E+03  0.30984383171E+03  0.10100000352E+00 0. -1.
</event>
<event>
 5   0  0.5765045E-03  0.5977379E+03  0.7818609E-02  0.9910110E-01
        1   -1    0    0  501    0  0.00000000000E+00  0.00000000000E+00  0.78246449028E+03  0.78246449029E+03  0.50400001928E-02 0. -1.
       -1   -1    0    0    0  501  0.00000000000E+00  0.00000000000E+00 -0.11415554112E+03  0.11415554123E+03  0.50400001928E-02 0.  1.
    10030    2    1    2    0    0  0.00000000000E+00  0.00000000000E+00  0.66830894915E+03  0.89662003153E+03  0.59773792704E+03 0.  0.
        1    1    3    3  502    0  0.74627683064E+02  0.25387481724E+03  0.54254928177E+03  0.60364015530E+03  0.50400001928E-02 0. -1.
       -1    1    3    3    0  502 -0.74627683064E+02 -0.25387481724E+03  0.12575966738E+03  0.29297987623E+03  0.50400001928E-02 0.  1.
</event>
<event>
 5   0  0.9162342E-03  0.5995455E+03  0.7818609E-02  0.9906350E-01
       -2   -1    0    0    0  501  0.00000000000E+00  0.00000000000E+00  0.10893257272E+03  0.10893257275E+03  0.25500000920E-02 0.  1.
        2   -1    0    0  501    0  0.00000000000E+00  0.00000000000E+00 -0.82494782599E+03  0.82494782600E+03  0.25500000920E-02 0. -1.
    10030    2    1    2    0    0  0.00000000000E+00  0.00000000000E+00 -0.71601525328E+03  0.93388039874E+03  0.59954545802E+03 0.  0.
        5    1    3    3  502    0 -0.20111746633E+03  0.12327878626E+03 -0.64604903225E+03  0.68778436771E+03  0.46999998093E+01 0. -1.
       -5    1    3    3    0  502  0.20111746633E+03 -0.12327878626E+03 -0.69966221031E+02  0.24609603103E+03  0.46999998093E+01 0.  1.
</event>
<event>
 5   0  0.5891927E-03  0.6007881E+03  0.7818609E-02  0.9903772E-01
        1   -1    0    0  501    0  0.00000000000E+00  0.00000000000E+00  0.69973178010E+03  0.69973178011E+03  0.50400001928E-02 0. -1.
       -1   -1    0    0    0  501  0.00000000000E+00  0.00000000000E+00 -0.12895881669E+03  0.12895881679E+03  0.50400001928E-02 0.  1.
    10030    2    1    2    0    0  0.00000000000E+00  0.00000000000E+00  0.57077296340E+03  0.82869059690E+03  0.60078809047E+03 0.  0.
        4    1    3    3  502    0 -0.20950199762E+03 -0.21437080797E+03  0.31259267479E+03  0.43308396824E+03  0.12699999809E+01 0. -1.
       -4    1    3    3    0  502  0.20950199762E+03  0.21437080797E+03  0.25818028861E+03  0.39560662866E+03  0.12699999809E+01 0.  1.
</event>
<event>
 5   0  0.6078658E-03  0.6000048E+03  0.7818609E-02  0.9905396E-01
        1   -1    0    0  501    0  0.00000000000E+00  0.00000000000E+00  0.26868548143E+03  0.26868548148E+03  0.50400001928E-02 0.  1.
       -1   -1    0    0    0  501  0.00000000000E+00  0.00000000000E+00 -0.33496944119E+03  0.33496944123E+03  0.50400001928E-02 0. -1.
    10030    2    1    2    0    0  0.00000000000E+00  0.00000000000E+00 -0.66283959753E+02  0.60365492271E+03  0.60000475197E+03 0.  0.
        2    1    3    3  502    0 -0.10344811472E+03 -0.20708906826E+03 -0.22512748252E+03  0.32290831210E+03  0.25500000920E-02 0. -1.
       -2    1    3    3    0  502  0.10344811472E+03  0.20708906826E+03  0.15884352277E+03  0.28074661060E+03  0.25500000920E-02 0.  1.
</event>
<event>
 5   0  0.9822607E-03  0.5995750E+03  0.7818609E-02  0.9906288E-01
       -2   -1    0    0    0  501  0.00000000000E+00  0.00000000000E+00  0.16345135450E+03  0.16345135452E+03  0.25500000920E-02 0.  1.
        2   -1    0    0  501    0  0.00000000000E+00  0.00000000000E+00 -0.54984276962E+03  0.54984276962E+03  0.25500000920E-02 0. -1.
    10030    2    1    2    0    0  0.00000000000E+00  0.00000000000E+00 -0.38639141512E+03  0.71329412414E+03  0.59957500102E+03 0.  0.
        3    1    3    3  502    0 -0.58803632523E+02 -0.11897338781E+02  0.15623646245E+03  0.16735966142E+03  0.10100000352E+00 0.  1.
       -3    1    3    3    0  502  0.58803632523E+02  0.11897338781E+02 -0.54262787758E+03  0.54593446273E+03  0.10100000352E+00 0. -1.
</event>
<event>
 5   0  0.9303190E-03  0.5996268E+03  0.7818609E-02  0.9906181E-01
        2   -1    0    0  501    0  0.00000000000E+00  0.00000000000E+00  0.11762448605E+04  0.11762448605E+04  0.25500000920E-02 0. -1.
       -2   -1    0    0    0  501  0.00000000000E+00  0.00000000000E+00 -0.76419517680E+02  0.76419517722E+02  0.25500000920E-02 0.  1.
    10030    2    1    2    0    0  0.00000000000E+00  0.00000000000E+00  0.10998253428E+04  0.12526643782E+04  0.59962676705E+03 0.  0.
        4    1    3    3  502    0  0.75505371561E+02  0.25009026248E+03  0.24259688610E+03  0.35651235963E+03  0.12699999809E+01 0.  1.
       -4    1    3    3    0  502 -0.75505371561E+02 -0.25009026248E+03  0.85722845673E+03  0.89615201861E+03  0.12699999809E+01 0. -1.
</event>
<event>
 5   0  0.9303190E-03  0.5991650E+03  0.7818609E-02  0.9907140E-01
       -2   -1    0    0    0  501  0.00000000000E+00  0.00000000000E+00  0.26854679023E+03  0.26854679024E+03  0.25500000920E-02 0. -1.
        2   -1    0    0  501    0  0.00000000000E+00  0.00000000000E+00 -0.33420498495E+03  0.33420498496E+03  0.25500000920E-02 0.  1.
    10030    2    1    2    0    0  0.00000000000E+00  0.00000000000E+00 -0.65658194719E+02  0.60275177520E+03  0.59916500563E+03 0.  0.
        4    1    3    3  502    0  0.30961807969E+02  0.94343161483E+02 -0.31716715975E+03  0.33234904211E+03  0.12699999809E+01 0.  1.
       -4    1    3    3    0  502 -0.30961807969E+02 -0.94343161483E+02  0.25150896503E+03  0.27040273309E+03  0.12699999809E+01 0. -1.
</event>
<event>
 5   0  0.5819446E-03  0.5999502E+03  0.7818609E-02  0.9905509E-01
        1   -1    0    0  501    0  0.00000000000E+00  0.00000000000E+00  0.42454288113E+03  0.42454288116E+03  0.50400001928E-02 0. -1.
       -1   -1    0    0    0  501  0.00000000000E+00  0.00000000000E+00 -0.21195754480E+03  0.21195754486E+03  0.50400001928E-02 0.  1.
    10030    2    1    2    0    0  0.00000000000E+00  0.00000000000E+00  0.21258533632E+03  0.63650042602E+03  0.59995022052E+03 0.  0.
        5    1    3    3  502    0 -0.17096616237E+03  0.96224651646E+02 -0.13440893244E+03  0.23785807402E+03  0.46999998093E+01 0.  1.
       -5    1    3    3    0  502  0.17096616237E+03 -0.96224651646E+02  0.34699426876E+03  0.39864235200E+03  0.46999998093E+01 0. -1.
</event>
<event>
 5   0  0.5790967E-03  0.6047895E+03  0.7818609E-02  0.9895519E-01
        1   -1    0    0  501    0  0.00000000000E+00  0.00000000000E+00  0.14782360181E+03  0.14782360189E+03  0.50400001928E-02 0.  1.
       -1   -1    0    0    0  501  0.00000000000E+00  0.00000000000E+00 -0.61859253644E+03  0.61859253646E+03  0.50400001928E-02 0. -1.
    10030    2    1    2    0    0  0.00000000000E+00  0.00000000000E+00 -0.47076893463E+03  0.76641613835E+03  0.60478947355E+03 0.  0.
        3    1    3    3  502    0  0.15952583054E+03  0.12263816605E+03  0.50670420126E+02  0.20749966761E+03  0.10100000352E+00 0.  1.
       -3    1    3    3    0  502 -0.15952583054E+03 -0.12263816605E+03 -0.52143935476E+03  0.55891647075E+03  0.10100000352E+00 0. -1.
</event>
<event>
 5   0  0.9303190E-03  0.5999321E+03  0.7818609E-02  0.9905547E-01
       -2   -1    0    0    0  501  0.00000000000E+00  0.00000000000E+00  0.55088987338E+02  0.55088987397E+02  0.25500000920E-02 0.  1.
        2   -1    0    0  501    0  0.00000000000E+00  0.00000000000E+00 -0.16333508822E+04  0.16333508822E+04  0.25500000920E-02 0. -1.
    10030    2    1    2    0    0  0.00000000000E+00  0.00000000000E+00 -0.15782618949E+04  0.16884398696E+04  0.59993214990E+03 0.  0.
        4    1    3    3  502    0  0.28323049455E+03 -0.97586229543E+02 -0.74594614386E+03  0.80385312569E+03  0.12699999809E+01 0.  1.
       -4    1    3    3    0  502 -0.28323049455E+03  0.97586229543E+02 -0.83231575101E+03  0.88458674392E+03  0.12699999809E+01 0. -1.
</event>
<event>
 5   0  0.3806250E-03  0.6005250E+03  0.7818609E-02  0.9904318E-01
       -3   -1    0    0    0  501  0.00000000000E+00  0.00000000000E+00  0.90260805570E+03  0.90260806135E+03  0.10100000352E+00 0. -1.
        3   -1    0    0  501    0  0.00000000000E+00  0.00000000000E+00 -0.99885582608E+02  0.99885633671E+02  0.10100000352E+00 0.  1.
    10030    2    1    2    0    0  0.00000000000E+00  0.00000000000E+00  0.80272247309E+03  0.10024936950E+04  0.60052497013E+03 0.  0.
        3    1    3    3  502    0  0.90074992868E+02 -0.11306529781E+03  0.84069311068E+03  0.85303117320E+03  0.10100000352E+00 0. -1.
       -3    1    3    3    0  502 -0.90074992868E+02  0.11306529781E+03 -0.37970637590E+02  0.14946252182E+03  0.10100000352E+00 0.  1.
</event>
<event>
 5   0  0.9162342E-03  0.6002571E+03  0.7818609E-02  0.9904873E-01
       -2   -1    0    0    0  501  0.00000000000E+00  0.00000000000E+00  0.12845197578E+03  0.12845197581E+03  0.25500000920E-02 0. -1.
        2   -1    0    0  501    0  0.00000000000E+00  0.00000000000E+00 -0.70125143394E+03  0.70125143395E+03  0.25500000920E-02 0.  1.
    10030    2    1    2    0    0  0.00000000000E+00  0.00000000000E+00 -0.57279945816E+03  0.82970340975E+03  0.60025705235E+03 0.  0.
        5    1    3    3  502    0 -0.81472348894E+02 -0.28147287512E+03 -0.37587626354E+03  0.47662330887E+03  0.46999998093E+01 0. -1.
       -5    1    3    3    0  502  0.81472348894E+02  0.28147287512E+03 -0.19692319462E+03  0.35308010088E+03  0.46999998093E+01 0.  1.
</event>
<event>
 5   0  0.5819446E-03  0.5982697E+03  0.7818609E-02  0.9909002E-01
       -1   -1    0    0    0  501  0.00000000000E+00  0.00000000000E+00  0.33722676132E+03  0.33722676136E+03  0.50400001928E-02 0. -1.
        1   -1    0    0  501    0  0.00000000000E+00  0.00000000000E+00 -0.26534561894E+03  0.26534561898E+03  0.50400001928E-02 0.  1.
    10030    2    1    2    0    0  0.00000000000E+00  0.00000000000E+00  0.71881142384E+02  0.60257238034E+03  0.59826965067E+03 0.  0.
        5    1    3    3  502    0  0.69453729835E+02 -0.28991912277E+03  0.11629131278E+02  0.29838606708E+03  0.46999998093E+01 0.  1.
       -5    1    3    3    0  502 -0.69453729835E+02  0.28991912277E+03  0.60252011105E+02  0.30418631326E+03  0.46999998093E+01 0. -1.
</event>
<event>
 5   0  0.5790967E-03  0.5998373E+03  0.7818609E-02  0.9905744E-01
       -1   -1    0    0    0  501  0.00000000000E+00  0.00000000000E+00  0.39481212402E+03  0.39481212406E+03  0.50400001928E-02 0.  1.
        1   -1    0    0  501    0  0.00000000000E+00  0.00000000000E+00 -0.22783291290E+03  0.22783291295E+03  0.50400001928E-02 0. -1.
    10030    2    1    2    0    0  0.00000000000E+00  0.00000000000E+00  0.16697921113E+03  0.62264503701E+03  0.59983729891E+03 0.  0.
        3    1    3    3  502    0 -0.20616881622E+03  0.12940093747E+03 -0.98389723380E+02  0.26254662685E+03  0.10100000352E+00 0. -1.
       -3    1    3    3    0  502  0.20616881622E+03 -0.12940093747E+03  0.26536893451E+03  0.36009841016E+03  0.10100000352E+00 0.  1.
</event>
<event>
 5   0  0.9391405E-03  0.5911114E+03  0.7818609E-02  0.9924021E-01
       -2   -1    0    0    0  501  0.00000000000E+00  0.00000000000E+00  0.67269371223E+02  0.67269371271E+02  0.25500000920E-02 0. -1.
        2   -1    0    0  501    0  0.00000000000E+00  0.00000000000E+00 -0.12985578089E+04  0.12985578089E+04  0.25500000920E-02 0.  1.
    10030    2    1    2    0    0  0.00000000000E+00  0.00000000000E+00 -0.12312884377E+04  0.13658271802E+04  0.59111138489E+03 0.  0.
        2    1    3    3  502    0  0.16678771245E+03  0.15023207307E+02 -0.52929941513E+02  0.17562863234E+03  0.25500000920E-02 0. -1.
       -2    1    3    3    0  502 -0.16678771245E+03 -0.15023207307E+02 -0.11783584962E+04  0.11901985479E+04  0.25500000920E-02 0.  1.
</event>
<event>
 5   0  0.9162342E-03  0.6047538E+03  0.7818609E-02  0.9895592E-01
        2   -1    0    0  501    0  0.00000000000E+00  0.00000000000E+00  0.17376742822E+03  0.17376742824E+03  0.25500000920E-02 0. -1.
       -2   -1    0    0    0  501  0.00000000000E+00  0.00000000000E+00 -0.52617327413E+03  0.52617327414E+03  0.25500000920E-02 0.  1.
    10030    2    1    2    0    0  0.00000000000E+00  0.00000000000E+00 -0.35240584591E+03  0.69994070238E+03  0.60475375700E+03 0.  0.
        5    1    3    3  502    0 -0.37190896762E+02 -0.16442802470E+03 -0.46668430401E+03  0.49622179286E+03  0.46999998093E+01 0.  1.
       -5    1    3    3    0  502  0.37190896762E+02  0.16442802470E+03  0.11427845809E+03  0.20371890951E+03  0.46999998093E+01 0. -1.
</event>
<event>
 5   0  0.9028473E-03  0.5984262E+03  0.7818609E-02  0.9908677E-01
       -2   -1    0    0    0  501  0.00000000000E+00  0.00000000000E+00  0.83857427681E+02  0.83857427720E+02  0.25500000920E-02 0. -1.
        2   -1    0    0  501    0  0.00000000000E+00  0.00000000000E+00 -0.10676272167E+04  0.10676272167E+04  0.25500000920E-02 0.  1.
    10030    2    1    2    0    0  0.00000000000E+00  0.00000000000E+00 -0.98376978901E+03  0.11514846444E+04  0.59842617636E+03 0.  0.
        1    1    3    3  502    0 -0.27096628011E+02 -0.14182552026E+03  0.12383761190E+02  0.14492088536E+03  0.50400001928E-02 0. -1.
       -1    1    3    3    0  502  0.27096628011E+02  0.14182552026E+03 -0.99615355020E+03  0.10065637591E+04  0.50400001928E-02 0.  1.
</event>
<event>
 5   0  0.9303190E-03  0.6000748E+03  0.7818609E-02  0.9905251E-01
        2   -1    0    0  501    0  0.00000000000E+00  0.00000000000E+00  0.72752210534E+03  0.72752210535E+03  0.25500000920E-02 0.  1.
       -2   -1    0    0    0  501  0.00000000000E+00  0.00000000000E+00 -0.12373840743E+03  0.12373840746E+03  0.25500000920E-02 0. -1.
    10030    2    1    2    0    0  0.00000000000E+00  0.00000000000E+00  0.60378369791E+03  0.85126051281E+03  0.60007475101E+03 0.  0.
        4    1    3    3  502    0 -0.54372918164E+02  0.22995441939E+03  0.39604560926E+02  0.23959462301E+03  0.12699999809E+01 0. -1.
       -4    1    3    3    0  502  0.54372918164E+02 -0.22995441939E+03  0.56417913699E+03  0.61166588980E+03  0.12699999809E+01 0.  1.
</event>
<event>
 5   0  0.9162342E-03  0.6019705E+03  0.7818609E-02  0.9901326E-01
        2   -1    0    0  501    0  0.00000000000E+00  0.00000000000E+00  0.18221887620E+04  0.18221887620E+04  0.25500000920E-02 0.  1.
       -2   -1    0    0    0  501  0.00000000000E+00  0.00000000000E+00 -0.49716098888E+02  0.49716098954E+02  0.25500000920E-02 0. -1.
    10030    2    1    2    0    0  0.00000000000E+00  0.00000000000E+00  0.17724726631E+04  0.18719048609E+04  0.60197048680E+03 0.  0.
        5    1    3    3  502    0  0.21325077533E+03 -0.11960442009E+02  0.15455296049E+04  0.15602252385E+04  0.46999998093E+01 0.  1.
       -5    1    3    3    0  502 -0.21325077533E+03  0.11960442009E+02  0.22694305816E+03  0.31167962237E+03  0.46999998093E+01 0. -1.
</event>
<event>
 5   0  0.9822607E-03  0.5988066E+03  0.7818609E-02  0.9907885E-01
       -2   -1    0    0    0  501  0.00000000000E+00  0.00000000000E+00  0.18419266971E+03  0.18419266973E+03  0.25500000920E-02 0.  1.
        2   -1    0    0  501    0  0.00000000000E+00  0.00000000000E+00 -0.48667704298E+03  0.48667704299E+03  0.25500000920E-02 0. -1.
    10030    2    1    2    0    0  0.00000000000E+00  0.00000000000E+00 -0.30248437327E+03  0.67086971272E+03  0.59880662603E+03 0.  0.
        3    1    3    3  502    0 -0.76036339844E+02 -0.21874374956E+03  0.61363605730E+02  0.23957432094E+03  0.10100000352E+00 0.  1.
       -3    1    3    3    0  502  0.76036339844E+02  0.21874374956E+03 -0.36384797900E+03  0.43129539178E+03  0.10100000352E+00 0. -1.
</event>
<event>
 5   0  0.6078658E-03  0.6005828E+03  0.7818609E-02  0.9904198E-01
        1   -1    0    0  501    0  0.00000000000E+00  0.00000000000E+00  0.16829875038E+03  0.16829875046E+03  0.50400001928E-02 0. -1.
       -1   -1    0    0    0  501  0.00000000000E+00  0.00000000000E+00 -0.53580274485E+03  0.53580274488E+03  0.50400001928E-02 0.  1.
    10030    2    1    2    0    0  0.00000000000E+00  0.00000000000E+00 -0.36750399447E+03  0.70410149533E+03  0.60058282508E+03 0.  0.
        2    1    3    3  502    0 -0.63234673636E+02  0.21897163910E+03 -0.41297152410E+03  0.47169129991E+03  0.25500000920E-02 0.  1.
       -2    1    3    3    0  502  0.63234673636E+02 -0.21897163910E+03  0.45467529633E+02  0.23241019542E+03  0.25500000920E-02 0. -1.
</event>
<event>
 5   0  0.9162342E-03  0.6003417E+03  0.7818609E-02  0.9904697E-01
        2   -1    0    0  501    0  0.00000000000E+00  0.00000000000E+00  0.71092352383E+03  0.71092352383E+03  0.25500000920E-02 0.  1.
       -2   -1    0    0    0  501  0.00000000000E+00  0.00000000000E+00 -0.12674014340E+03  0.12674014342E+03  0.25500000920E-02 0. -1.
    10030    2    1    2    0    0  0.00000000000E+00  0.00000000000E+00  0.58418338043E+03  0.83766366726E+03  0.60034173391E+03 0.  0.
        5    1    3    3  502    0 -0.15210507715E+03 -0.22467457435E+03  0.11304631981E+03  0.29396628935E+03  0.46999998093E+01 0. -1.
       -5    1    3    3    0  502  0.15210507715E+03  0.22467457435E+03  0.47113706062E+03  0.54369737791E+03  0.46999998093E+01 0.  1.
</event>
<event>
 5   0  0.5819446E-03  0.5963006E+03  0.7818609E-02  0.9913111E-01
        1   -1    0    0  501    0  0.00000000000E+00  0.00000000000E+00  0.53514356755E+03  0.53514356757E+03  0.50400001928E-02 0. -1.
       -1   -1    0    0    0  501  0.00000000000E+00  0.00000000000E+00 -0.16611168919E+03  0.16611168927E+03  0.50400001928E-02 0.  1.
    10030    2    1    2    0    0  0.00000000000E+00  0.00000000000E+00  0.36903187836E+03  0.70125525684E+03  0.59630060205E+03 0.  0.
        5    1    3    3  502    0  0.22320528788E+03  0.62263145862E+02  0.40507406935E+03  0.46669518053E+03  0.46999998093E+01 0. -1.
       -5    1    3    3    0  502 -0.22320528788E+03 -0.62263145862E+02 -0.36042190995E+02  0.23456007631E+03  0.46999998093E+01 0.  1.
</event>
<event>
 5   0  0.5790967E-03  0.5980223E+03  0.7818609E-02  0.9909518E-01
        1   -1    0    0  501    0  0.00000000000E+00  0.00000000000E+00  0.40938413978E+03  0.40938413981E+03  0.50400001928E-02 0. -1.
       -1   -1    0    0    0  501  0.00000000000E+00  0.00000000000E+00 -0.21839555402E+03  0.21839555408E+03  0.50400001928E-02 0.  1.
    10030    2    1    2    0    0  0.00000000000E+00  0.00000000000E+00  0.19098858576E+03  0.62777969389E+03  0.59802232749E+03 0.  0.
        3    1    3    3  502    0  0.20884485695E+03  0.21098298266E+03  0.13301747444E+03  0.32530547483E+03  0.10100000352E+00 0.  1.
       -3    1    3    3    0  502 -0.20884485695E+03 -0.21098298266E+03  0.57971111313E+02  0.30247421906E+03  0.10100000352E+00 0. -1.
</event>
<event>
 5   0  0.5819446E-03  0.6002975E+03  0.7818609E-02  0.9904789E-01
       -1   -1    0    0    0  501  0.00000000000E+00  0.00000000000E+00  0.39586100869E+03  0.39586100873E+03  0.50400001928E-02 0.  1.
        1   -1    0    0  501    0  0.00000000000E+00  0.00000000000E+00 -0.22757807032E+03  0.22757807038E+03  0.50400001928E-02 0. -1.
    10030    2    1    2    0    0  0.00000000000E+00  0.00000000000E+00  0.16828293837E+03  0.62343907910E+03  0.60029754123E+03 0.  0.
        5    1    3    3  502    0 -0.59631412373E+02  0.75032749874E+02  0.37950149799E+03  0.39144513776E+03  0.46999998093E+01 0.  1.
       -5    1    3    3    0  502  0.59631412373E+02 -0.75032749874E+02 -0.21121855962E+03  0.23199394135E+03  0.46999998093E+01 0. -1.
</event>
<event>
 5   0  0.5891927E-03  0.5998294E+03  0.7818609E-02  0.9905760E-01
       -1   -1    0    0    0  501  0.00000000000E+00  0.00000000000E+00  0.51729757664E+03  0.51729757667E+03  0.50400001928E-02 0. -1.
        1   -1    0    0  501    0  0.00000000000E+00  0.00000000000E+00 -0.17388218324E+03  0.17388218332E+03  0.50400001928E-02 0.  1.
    10030    2    1    2    0    0  0.00000000000E+00  0.00000000000E+00  0.34341539340E+03  0.69117975998E+03  0.59982941591E+03 0.  0.
        4    1    3    3  502    0  0.65446008877E+02  0.18611569539E+03  0.43199603060E+03  0.47491516664E+03  0.12699999809E+01 0. -1.
       -4    1    3    3    0  502 -0.65446008877E+02 -0.18611569539E+03 -0.88580637200E+02  0.21626459335E+03  0.12699999809E+01 0.  1.
</event>
<event>
 5   0  0.9822607E-03  0.5999273E+03  0.7818609E-02  0.9905557E-01
        2   -1    0    0  501    0  0.00000000000E+00  0.00000000000E+00  0.19370466790E+03  0.19370466792E+03  0.25500000920E-02 0. -1.
       -2   -1    0    0    0  501  0.00000000000E+00  0.00000000000E+00 -0.46451230244E+03  0.46451230245E+03  0.25500000920E-02 0.  1.
    10030    2    1    2    0    0  0.00000000000E+00  0.00000000000E+00 -0.27080763454E+03  0.65821697037E+03  0.59992733323E+03 0.  0.
        3    1    3    3  502    0 -0.11425739094E+03 -0.27507890501E+03 -0.17427237893E+03  0.34510002553E+03  0.10100000352E+00 0. -1.
       -3    1    3    3    0  502  0.11425739094E+03  0.27507890501E+03 -0.96535255614E+02  0.31311694484E+03  0.10100000352E+00 0.  1.
</event>
<event>
 5   0  0.9162342E-03  0.5996880E+03  0.7818609E-02  0.9906054E-01
        2   -1    0    0  501    0  0.00000000000E+00  0.00000000000E+00  0.11563652833E+04  0.11563652833E+04  0.25500000920E-02 0. -1.
       -2   -1    0    0    0  501  0.00000000000E+00  0.00000000000E+00 -0.77749155001E+02  0.77749155043E+02  0.25500000920E-02 0.  1.
    10030    2    1    2    0    0  0.00000000000E+00  0.00000000000E+00  0.10786161283E+04  0.12341144384E+04  0.59968799781E+03 0.  0.
        5    1    3    3  502    0  0.26096884175E+02  0.37431659716E+02  0.11491013937E+04  0.11500166432E+04  0.46999998093E+01 0. -1.
       -5    1    3    3    0  502 -0.26096884175E+02 -0.37431659716E+02 -0.70485265426E+02  0.84097795174E+02  0.46999998093E+01 0.  1.
</event>
<event>
 5   0  0.5891927E-03  0.6001221E+03  0.7818609E-02  0.9905153E-01
        1   -1    0    0  501    0  0.00000000000E+00  0.00000000000E+00  0.10453692018E+04  0.10453692019E+04  0.50400001928E-02 0. -1.
       -1   -1    0    0    0  501  0.00000000000E+00  0.00000000000E+00 -0.86129031962E+02  0.86129032109E+02  0.50400001928E-02 0.  1.
    10030    2    1    2    0    0  0.00000000000E+00  0.00000000000E+00  0.95924016988E+03  0.11314982340E+04  0.60012211253E+03 0.  0.
        4    1    3    3  502    0 -0.13463321569E+03 -0.46076962037E+01  0.98514378162E+03  0.99431243429E+03  0.12699999809E+01 0. -1.
       -4    1    3    3    0  502  0.13463321569E+03  0.46076962037E+01 -0.25903611737E+02  0.13718579967E+03  0.12699999809E+01 0.  1.
</event>
<event>
 5   0  0.9391405E-03  0.5958969E+03  0.7818609E-02  0.9913955E-01
        2   -1    0    0  501    0  0.00000000000E+00  0.00000000000E+00  0.51074583591E+03  0.51074583592E+03  0.25500000920E-02 0. -1.
       -2   -1    0    0    0  501  0.00000000000E+00  0.00000000000E+00 -0.17381108391E+03  0.17381108393E+03  0.25500000920E-02 0.  1.
    10030    2    1    2    0    0  0.00000000000E+00  0.00000000000E+00  0.33693475200E+03  0.68455691985E+03  0.59589692851E+03 0.  0.
        2    1    3    3  502    0 -0.56123737962E+02 -0.33435458679E+02 -0.16548217463E+03  0.17791052242E+03  0.25500000920E-02 0.  1.
       -2    1    3    3    0  502  0.56123737962E+02  0.33435458679E+02  0.50241692663E+03  0.50664639743E+03  0.25500000920E-02 0. -1.
</event>
<event>
 5   0  0.9391405E-03  0.5995282E+03  0.7818609E-02  0.9906385E-01
        2   -1    0    0  501    0  0.00000000000E+00  0.00000000000E+00  0.32682193841E+03  0.32682193842E+03  0.25500000920E-02 0.  1.
       -2   -1    0    0    0  501  0.00000000000E+00  0.00000000000E+00 -0.27494637402E+03  0.27494637403E+03  0.25500000920E-02 0. -1.
    10030    2    1    2    0    0  0.00000000000E+00  0.00000000000E+00  0.51875564391E+02  0.60176831246E+03  0.59952817089E+03 0.  0.
        2    1    3    3  502    0  0.15572029346E+03 -0.70266384676E+02 -0.22130012882E+03  0.27957095992E+03  0.25500000920E-02 0. -1.
       -2    1    3    3    0  502 -0.15572029346E+03  0.70266384676E+02  0.27317569321E+03  0.32219735253E+03  0.25500000920E-02 0.  1.
</event>
<event>
 5   0  0.5891927E-03  0.5976148E+03  0.7818609E-02  0.9910367E-01
       -1   -1    0    0    0  501  0.00000000000E+00  0.00000000000E+00  0.25966417869E+03  0.25966417873E+03  0.50400001928E-02 0. -1.
        1   -1    0    0  501    0  0.00000000000E+00  0.00000000000E+00 -0.34385129432E+03  0.34385129435E+03  0.50400001928E-02 0.  1.
    10030    2    1    2    0    0  0.00000000000E+00  0.00000000000E+00 -0.84187115630E+02  0.60351547309E+03  0.59761480555E+03 0.  0.
        4    1    3    3  502    0 -0.16534106244E+02 -0.16151764168E+03  0.21122762956E+03  0.26642081306E+03  0.12699999809E+01 0. -1.
       -4    1    3    3    0  502  0.16534106244E+02  0.16151764168E+03 -0.29541474519E+03  0.33709466003E+03  0.12699999809E+01 0.  1.
</event>
<event>
 5   0  0.9162342E-03  0.6048578E+03  0.7818609E-02  0.9895379E-01
       -2   -1    0    0    0  501  0.00000000000E+00  0.00000000000E+00  0.37110204764E+03  0.37110204765E+03  0.25500000920E-02 0. -1.
        2   -1    0    0  501    0  0.00000000000E+00  0.00000000000E+00 -0.24646381435E+03  0.24646381436E+03  0.25500000920E-02 0.  1.
    10030    2    1    2    0    0  0.00000000000E+00  0.00000000000E+00  0.12463823329E+03  0.61756586201E+03  0.60485775578E+03 0.  0.
        5    1    3    3  502    0  0.18864265492E+03 -0.21321189031E+03  0.16642096911E+03  0.32979295078E+03  0.46999998093E+01 0. -1.
       -5    1    3    3    0  502 -0.18864265492E+03  0.21321189031E+03 -0.41782735820E+02  0.28777291123E+03  0.46999998093E+01 0.  1.
</event>
<event>
 5   0  0.3806250E-03  0.5990517E+03  0.7818609E-02  0.9907375E-01
        3   -1    0    0  501    0  0.00000000000E+00  0.00000000000E+00  0.18379672809E+03  0.18379675584E+03  0.10100000352E+00 0.  1.
       -3   -1    0    0    0  501  0.00000000000E+00  0.00000000000E+00 -0.48812469736E+03  0.48812470780E+03  0.10100000352E+00 0. -1.
    10030    2    1    2    0    0  0.00000000000E+00  0.00000000000E+00 -0.30432796927E+03  0.67192146364E+03  0.59905170096E+03 0.  0.
        3    1    3    3  502    0  0.51722395089E+02 -0.29304762649E+03 -0.19042508343E+03  0.35329002271E+03  0.10100000352E+00 0.  1.
       -3    1    3    3    0  502 -0.51722395089E+02  0.29304762649E+03 -0.11390288584E+03  0.31863144093E+03  0.10100000352E+00 0. -1.
</event>
<event>
 5   0  0.5790967E-03  0.6006004E+03  0.7818609E-02  0.9904161E-01
        1   -1    0    0  501    0  0.00000000000E+00  0.00000000000E+00  0.10942013666E+03  0.10942013677E+03  0.50400001928E-02 0. -1.
       -1   -1    0    0    0  501  0.00000000000E+00  0.00000000000E+00 -0.82416473979E+03  0.82416473980E+03  0.50400001928E-02 0.  1.
    10030    2    1    2    0    0  0.00000000000E+00  0.00000000000E+00 -0.71474460313E+03  0.93358487658E+03  0.60060042796E+03 0.  0.
        3    1    3    3  502    0  0.43614316807E+01  0.29282045221E+03 -0.25406048218E+03  0.38769779227E+03  0.10100000352E+00 0. -1.
       -3    1    3    3    0  502 -0.43614316807E+01 -0.29282045221E+03 -0.46068412095E+03  0.54588708431E+03  0.10100000352E+00 0.  1.
</event>
<event>
 5   0  0.9303190E-03  0.5990727E+03  0.7818609E-02  0.9907332E-01
        2   -1    0    0  501    0  0.00000000000E+00  0.00000000000E+00  0.10162450739E+04  0.10162450739E+04  0.25500000920E-02 0.  1.
       -2   -1    0    0    0  501  0.00000000000E+00  0.00000000000E+00 -0.88287786586E+02  0.88287786623E+02  0.25500000920E-02 0. -1.
    10030    2    1    2    0    0  0.00000000000E+00  0.00000000000E+00  0.92795728731E+03  0.11045328605E+04  0.59907271086E+03 0.  0.
        4    1    3    3  502    0  0.10773488663E+02 -0.22799609305E+02 -0.86322275917E+02  0.89939081949E+02  0.12699999809E+01 0. -1.
       -4    1    3    3    0  502 -0.10773488663E+02  0.22799609305E+02  0.10142795632E+04  0.10145937786E+04  0.12699999809E+01 0.  1.
</event>
<event>
 5   0  0.3806250E-03  0.6003108E+03  0.7818609E-02  0.9904762E-01
       -3   -1    0    0    0  501  0.00000000000E+00  0.00000000000E+00  0.87992094058E+03  0.87992094638E+03  0.10100000352E+00 0. -1.
        3   -1    0    0  501    0  0.00000000000E+00  0.00000000000E+00 -0.10238786683E+03  0.10238791665E+03  0.10100000352E+00 0.  1.
    10030    2    1    2    0    0  0.00000000000E+00  0.00000000000E+00  0.77753307375E+03  0.98230886303E+03  0.60031077086E+03 0.  0.
        2    1    3    3  502    0  0.23249340081E+03 -0.17566635950E+02  0.69807903869E+03  0.73598648927E+03  0.25500000920E-02 0. -1.
       -2    1    3    3    0  502 -0.23249340081E+03  0.17566635950E+02  0.79454035055E+02  0.24632237376E+03  0.25500000920E-02 0.  1.
</event>
<event>
 5   0  0.9162342E-03  0.6004930E+03  0.7818609E-02  0.9904384E-01
        2   -1    0    0  501    0  0.00000000000E+00  0.00000000000E+00  0.26357190049E+03  0.26357190050E+03  0.25500000920E-02 0. -1.
       -2   -1    0    0    0  501  0.00000000000E+00  0.00000000000E+00 -0.34202414317E+03  0.34202414318E+03  0.25500000920E-02 0.  1.
    10030    2    1    2    0    0  0.00000000000E+00  0.00000000000E+00 -0.78452242674E+02  0.60559604368E+03  0.60049297560E+03 0.  0.
        5    1    3    3  502    0  0.16079837330E+02 -0.43679501705E+02 -0.33832599892E+03  0.34154506523E+03  0.46999998093E+01 0.  1.
       -5    1    3    3    0  502 -0.16079837330E+02  0.43679501705E+02  0.25987375625E+03  0.26405097845E+03  0.46999998093E+01 0. -1.
</event>
<event>
 5   0  0.5765045E-03  0.6002768E+03  0.7818609E-02  0.9904832E-01
        1   -1    0    0  501    0  0.00000000000E+00  0.00000000000E+00  0.13857645988E+04  0.13857645988E+04  0.50400001928E-02 0.  1.
       -1   -1    0    0    0  501  0.00000000000E+00  0.00000000000E+00 -0.65006037853E+02  0.65006038049E+02  0.50400001928E-02 0. -1.
    10030    2    1    2    0    0  0.00000000000E+00  0.00000000000E+00  0.13207585610E+04  0.14507706369E+04  0.60027682319E+03 0.  0.
        1    1    3    3  502    0  0.16033093574E+03 -0.15055954276E+03  0.16679485009E+03  0.27603388726E+03  0.50400001928E-02 0. -1.
       -1    1    3    3    0  502 -0.16033093574E+03  0.15055954276E+03  0.11539637109E+04  0.11747367496E+04  0.50400001928E-02 0.  1.
</event>
<event>
 5   0  0.5765045E-03  0.5997591E+03  0.7818609E-02  0.9905906E-01
       -1   -1    0    0    0  501  0.00000000000E+00  0.00000000000E+00  0.13729178161E+03  0.13729178170E+03  0.50400001928E-02 0. -1.
        1   -1    0    0  501    0  0.00000000000E+00  0.00000000000E+00 -0.65501194959E+03  0.65501194961E+03  0.50400001928E-02 0.  1.
    10030    2    1    2    0    0  0.00000000000E+00  0.00000000000E+00 -0.51772016798E+03  0.79230373131E+03  0.59975914358E+03 0.  0.
        1    1    3    3  502    0 -0.21076839833E+02 -0.10289357085E+03 -0.62991955417E+03  0.63861566286E+03  0.50400001928E-02 0.  1.
       -1    1    3    3    0  502  0.21076839833E+02  0.10289357085E+03  0.11219938618E+03  0.15368806845E+03  0.50400001928E-02 0. -1.
</event>
<event>
 5   0  0.5790967E-03  0.5975695E+03  0.7818609E-02  0.9910461E-01
       -1   -1    0    0    0  501  0.00000000000E+00  0.00000000000E+00  0.66781387728E+02  0.66781387918E+02  0.50400001928E-02 0.  1.
        1   -1    0    0  501    0  0.00000000000E+00  0.00000000000E+00 -0.13367845171E+04  0.13367845171E+04  0.50400001928E-02 0. -1.
    10030    2    1    2    0    0  0.00000000000E+00  0.00000000000E+00 -0.12700031294E+04  0.14035659050E+04  0.59756949482E+03 0.  0.
        3    1    3    3  502    0 -0.14113144416E+03 -0.83147553690E+02 -0.12219207743E+04  0.12328511626E+04  0.10100000352E+00 0. -1.
       -3    1    3    3    0  502  0.14113144416E+03  0.83147553690E+02 -0.48082355066E+02  0.17071474244E+03  0.10100000352E+00 0.  1.
</event>
<event>
 5   0  0.9303190E-03  0.6010777E+03  0.7818609E-02  0.9903173E-01
        2   -1    0    0  501    0  0.00000000000E+00  0.00000000000E+00  0.37299612538E+03  0.37299612539E+03  0.25500000920E-02 0. -1.
       -2   -1    0    0    0  501  0.00000000000E+00  0.00000000000E+00 -0.24215695277E+03  0.24215695278E+03  0.25500000920E-02 0.  1.
    10030    2    1    2    0    0  0.00000000000E+00  0.00000000000E+00  0.13083917261E+03  0.61515307817E+03  0.60107771585E+03 0.  0.
        4    1    3    3  502    0  0.16267128652E+03 -0.48042547442E+00  0.32404214173E+03  0.36258392240E+03  0.12699999809E+01 0. -1.
       -4    1    3    3    0  502 -0.16267128652E+03  0.48042547442E+00 -0.19320296912E+03  0.25256915577E+03  0.12699999809E+01 0.  1.
</event>
<event>
 5   0  0.9028473E-03  0.5866960E+03  0.7818609E-02  0.9933399E-01
        2   -1    0    0  501    0  0.00000000000E+00  0.00000000000E+00  0.12989704481E+04  0.12989704481E+04  0.25500000920E-02 0.  1.
       -2   -1    0    0    0  501  0.00000000000E+00  0.00000000000E+00 -0.66247119656E+02  0.66247119705E+02  0.25500000920E-02 0. -1.
    10030    2    1    2    0    0  0.00000000000E+00  0.00000000000E+00  0.12327233284E+04  0.13652175678E+04  0.58669600557E+03 0.  0.
        1    1    3    3  502    0 -0.10247737587E+03 -0.21910112770E+03  0.23015562152E+03  0.33388400211E+03  0.50400001928E-02 0. -1.
       -1    1    3    3    0  502  0.10247737587E+03  0.21910112770E+03  0.10025677069E+04  0.10313335657E+04  0.50400001928E-02 0.  1.
</event>
<event>
 5   0  0.9162342E-03  0.5981494E+03  0.7818609E-02  0.9909253E-01
        2   -1    0    0  501    0  0.00000000000E+00  0.00000000000E+00  0.28571654195E+03  0.28571654196E+03  0.25500000920E-02 0.  1.
       -2   -1    0    0    0  501  0.00000000000E+00  0.00000000000E+00 -0.31305738685E+03  0.31305738686E+03  0.25500000920E-02 0. -1.
    10030    2    1    2    0    0  0.00000000000E+00  0.00000000000E+00 -0.27340844902E+02  0.59877392882E+03  0.59814939274E+03 0.  0.
        5    1    3    3  502    0  0.11276020701E+03 -0.27451486215E+03  0.23114512085E+02  0.29770731347E+03  0.46999998093E+01 0.  1.
       -5    1    3    3    0  502 -0.11276020701E+03  0.27451486215E+03 -0.50455356987E+02  0.30106661534E+03  0.46999998093E+01 0. -1.
</event>
<event>
 5   0  0.3806250E-03  0.5998033E+03  0.7818609E-02  0.9905814E-01
        4   -1    0    0  501    0  0.00000000000E+00  0.00000000000E+00  0.27053464411E+03  0.27053762505E+03  0.12699999809E+01 0.  1.
       -4   -1    0    0    0  501  0.00000000000E+00  0.00000000000E+00 -0.33245050712E+03  0.33245293289E+03  0.12699999809E+01 0. -1.
    10030    2    1    2    0    0  0.00000000000E+00  0.00000000000E+00 -0.61915863006E+02  0.60299055793E+03  0.59980333349E+03 0.  0.
        3    1    3    3  502    0 -0.24530720863E+03 -0.52185638135E+02  0.13436050849E+03  0.28452016427E+03  0.10100000352E+00 0.  1.
       -3    1    3    3    0  502  0.24530720863E+03  0.52185638135E+02 -0.19627637150E+03  0.31847039366E+03  0.10100000352E+00 0. -1.
</event>
<event>
 5   0  0.3806250E-03  0.6002102E+03  0.7818609E-02  0.9904970E-01
       -3   -1    0    0    0  501  0.00000000000E+00  0.00000000000E+00  0.37047428367E+03  0.37047429743E+03  0.10100000352E+00 0. -1.
        3   -1    0    0  501    0  0.00000000000E+00  0.00000000000E+00 -0.24310202345E+03  0.24310204443E+03  0.10100000352E+00 0.  1.
    10030    2    1    2    0    0  0.00000000000E+00  0.00000000000E+00  0.12737226021E+03  0.61357634187E+03  0.60021015872E+03 0.  0.
        3    1    3    3  502    0  0.61432247213E+02  0.10277267358E+03  0.34499949653E+03  0.36518598855E+03  0.10100000352E+00 0. -1.
       -3    1    3    3    0  502 -0.61432247213E+02 -0.10277267358E+03 -0.21762723632E+03  0.24839035331E+03  0.10100000352E+00 0.  1.
</event>
<event>
 5   0  0.5819446E-03  0.5994338E+03  0.7818609E-02  0.9906581E-01
       -1   -1    0    0    0  501  0.00000000000E+00  0.00000000000E+00  0.37213395237E+02  0.37213395578E+02  0.50400001928E-02 0.  1.
        1   -1    0    0  501    0  0.00000000000E+00  0.00000000000E+00 -0.24139218362E+04  0.24139218362E+04  0.50400001928E-02 0. -1.
    10030    2    1    2    0    0  0.00000000000E+00  0.00000000000E+00 -0.23767084409E+04  0.24511352318E+04  0.59943382549E+03 0.  0.
        5    1    3    3  502    0 -0.33219162374E+02  0.64591915844E+02  0.52546732714E+00  0.72787323452E+02  0.46999998093E+01 0.  1.
       -5    1    3    3    0  502  0.33219162374E+02 -0.64591915844E+02 -0.23772339083E+04  0.23783479083E+04  0.46999998093E+01 0. -1.
</event>
<event>
 5   0  0.9303190E-03  0.5974407E+03  0.7818609E-02  0.9910730E-01
        2   -1    0    0  501    0  0.00000000000E+00  0.00000000000E+00  0.14291145325E+04  0.14291145325E+04  0.25500000920E-02 0.  1.
       -2   -1    0    0    0  501  0.00000000000E+00  0.00000000000E+00 -0.62439950459E+02  0.62439950511E+02  0.25500000920E-02 0. -1.
    10030    2    1    2    0    0  0.00000000000E+00  0.00000000000E+00  0.13666745820E+04  0.14915544830E+04  0.59744067705E+03 0.  0.
        4    1    3    3  502    0 -0.67688411398E+02 -0.26264555677E+03  0.37083831728E+03  0.45944213998E+03  0.12699999809E+01 0. -1.
       -4    1    3    3    0  502  0.67688411398E+02  0.26264555677E+03  0.99583626474E+03  0.10321123430E+04  0.12699999809E+01 0.  1.
</event>
<event>
 5   0  0.5790967E-03  0.6001451E+03  0.7818609E-02  0.9905105E-01
       -1   -1    0    0    0  501  0.00000000000E+00  0.00000000000E+00  0.66057138831E+03  0.66057138833E+03  0.50400001928E-02 0. -1.
        1   -1    0    0  501    0  0.00000000000E+00  0.00000000000E+00 -0.13631158301E+03  0.13631158311E+03  0.50400001928E-02 0.  1.
    10030    2    1    2    0    0  0.00000000000E+00  0.00000000000E+00  0.52425980530E+03  0.79688297143E+03  0.60014508805E+03 0.  0.
        3    1    3    3  502    0 -0.74282935614E+02  0.11481358712E+03  0.61679235579E+03  0.63176968483E+03  0.10100000352E+00 0. -1.
       -3    1    3    3    0  502  0.74282935614E+02 -0.11481358712E+03 -0.92532550493E+02  0.16511328660E+03  0.10100000352E+00 0.  1.
</event>
<event>
 5   0  0.9303190E-03  0.5998058E+03  0.7818609E-02  0.9905809E-01
        2   -1    0    0  501    0  0.00000000000E+00  0.00000000000E+00  0.98085645755E+03  0.98085645755E+03  0.25500000920E-02 0.  1.
       -2   -1    0    0    0  501  0.00000000000E+00  0.00000000000E+00 -0.91697169658E+02  0.91697169693E+02  0.25500000920E-02 0. -1.
    10030    2    1    2    0    0  0.00000000000E+00  0.00000000000E+00  0.88915928789E+03  0.10725536272E+04  0.59980583865E+03 0.  0.
        4    1    3    3  502    0 -0.36079904838E+02 -0.82358370952E+02 -0.67022347314E+02  0.11215288110E+03  0.12699999809E+01 0. -1.
       -4    1    3    3    0  502  0.36079904838E+02  0.82358370952E+02  0.95618163520E+03  0.96040074615E+03  0.12699999809E+01 0.  1.
</event>
<event>
 5   0  0.5765045E-03  0.6001108E+03  0.7818609E-02  0.9905176E-01
       -1   -1    0    0    0  501  0.00000000000E+00  0.00000000000E+00  0.25564902715E+03  0.25564902720E+03  0.50400001928E-02 0.  1.
        1   -1    0    0  501    0  0.00000000000E+00  0.00000000000E+00 -0.35217516923E+03  0.35217516926E+03  0.50400001928E-02 0. -1.
    10030    2    1    2    0    0  0.00000000000E+00  0.00000000000E+00 -0.96526142078E+02  0.60782419646E+03  0.60011078786E+03 0.  0.
        1    1    3    3  502    0  0.23015329086E+03 -0.28229587048E+02 -0.24114659725E+03  0.33454316354E+03  0.50400001928E-02 0. -1.
       -1    1    3    3    0  502 -0.23015329086E+03  0.28229587048E+02  0.14462045517E+03  0.27328103293E+03  0.50400001928E-02 0.  1.
</event>
<event>
 5   0  0.5765045E-03  0.6009183E+03  0.7818609E-02  0.9903503E-01
       -1   -1    0    0    0  501  0.00000000000E+00  0.00000000000E+00  0.42099609396E+03  0.42099609399E+03  0.50400001928E-02 0.  1.
        1   -1    0    0  501    0  0.00000000000E+00  0.00000000000E+00 -0.21443358341E+03  0.21443358347E+03  0.50400001928E-02 0. -1.
    10030    2    1    2    0    0  0.00000000000E+00  0.00000000000E+00  0.20656251055E+03  0.63542967746E+03  0.60091830080E+03 0.  0.
        1    1    3    3  502    0 -0.22487827937E+03  0.19897466882E+03  0.11459832046E+03  0.32139373740E+03  0.50400001928E-02 0. -1.
       -1    1    3    3    0  502  0.22487827937E+03 -0.19897466882E+03  0.91964190092E+02  0.31403594006E+03  0.50400001928E-02 0.  1.
</event>
<event>
 5   0  0.9303190E-03  0.6002524E+03  0.7818609E-02  0.9904883E-01
       -2   -1    0    0    0  501  0.00000000000E+00  0.00000000000E+00  0.67114810593E+02  0.67114810641E+02  0.25500000920E-02 0.  1.
        2   -1    0    0  501    0  0.00000000000E+00  0.00000000000E+00 -0.13421141028E+04  0.13421141028E+04  0.25500000920E-02 0. -1.
    10030    2    1    2    0    0  0.00000000000E+00  0.00000000000E+00 -0.12749992922E+04  0.14092289135E+04  0.60025239305E+03 0.  0.
        4    1    3    3  502    0  0.17841705398E+03 -0.55912915179E+02 -0.86332370524E+02  0.20594608599E+03  0.12699999809E+01 0.  1.
       -4    1    3    3    0  502 -0.17841705398E+03  0.55912915179E+02 -0.11886669217E+04  0.12032828275E+04  0.12699999809E+01 0. -1.
</event>
<event>
 5   0  0.9028473E-03  0.5995549E+03  0.7818609E-02  0.9906330E-01
        2   -1    0    0  501    0  0.00000000000E+00  0.00000000000E+00  0.73900952510E+03  0.73900952511E+03  0.25500000920E-02 0. -1.
       -2   -1    0    0    0  501  0.00000000000E+00  0.00000000000E+00 -0.12160402652E+03  0.12160402655E+03  0.25500000920E-02 0.  1.
    10030    2    1    2    0    0  0.00000000000E+00  0.00000000000E+00  0.61740549858E+03  0.86061355166E+03  0.59955494796E+03 0.  0.
        1    1    3    3  502    0 -0.27638260713E+03  0.11587579356E+03  0.29835289636E+03  0.42288177526E+03  0.50400001928E-02 0.  1.
       -1    1    3    3    0  502  0.27638260713E+03 -0.11587579356E+03  0.31905260223E+03  0.43773177640E+03  0.50400001928E-02 0. -1.
</event>
<event>
 5   0  0.9391405E-03  0.6002199E+03  0.7818609E-02  0.9904950E-01
       -2   -1    0    0    0  501  0.00000000000E+00  0.00000000000E+00  0.12030638492E+03  0.12030638495E+03  0.25500000920E-02 0.  1.
        2   -1    0    0  501    0  0.00000000000E+00  0.00000000000E+00 -0.74863833653E+03  0.74863833653E+03  0.25500000920E-02 0. -1.
    10030    2    1    2    0    0  0.00000000000E+00  0.00000000000E+00 -0.62833195160E+03  0.86894472148E+03  0.60021986604E+03 0.  0.
        2    1    3    3  502    0  0.15075201362E+03 -0.17729933985E+03 -0.39845822126E+02  0.23611208159E+03  0.25500000920E-02 0.  1.
       -2    1    3    3    0  502 -0.15075201362E+03  0.17729933985E+03 -0.58848612948E+03  0.63283263989E+03  0.25500000920E-02 0. -1.
</event>
<event>
 5   0  0.9303190E-03  0.5990122E+03  0.7818609E-02  0.9907457E-01
        2   -1    0    0  501    0  0.00000000000E+00  0.00000000000E+00  0.40645094790E+03  0.40645094791E+03  0.25500000920E-02 0.  1.
       -2   -1    0    0    0  501  0.00000000000E+00  0.00000000000E+00 -0.22070046431E+03  0.22070046433E+03  0.25500000920E-02 0. -1.
    10030    2    1    2    0    0  0.00000000000E+00  0.00000000000E+00  0.18575048359E+03  0.62715141224E+03  0.59901223003E+03 0.  0.
        4    1    3    3  502    0  0.66128374434E+02 -0.23122590935E+03 -0.94014858021E+02  0.25822236442E+03  0.12699999809E+01 0. -1.
       -4    1    3    3    0  502 -0.66128374434E+02  0.23122590935E+03  0.27976534161E+03  0.36892904782E+03  0.12699999809E+01 0.  1.
</event>
<event>
 5   0  0.5765045E-03  0.6007650E+03  0.7818609E-02  0.9903820E-01
        1   -1    0    0  501    0  0.00000000000E+00  0.00000000000E+00  0.11736945849E+03  0.11736945860E+03  0.50400001928E-02 0. -1.
       -1   -1    0    0    0  501  0.00000000000E+00  0.00000000000E+00 -0.76876603014E+03  0.76876603016E+03  0.50400001928E-02 0.  1.
    10030    2    1    2    0    0  0.00000000000E+00  0.00000000000E+00 -0.65139657164E+03  0.88613548876E+03  0.60076502136E+03 0.  0.
        1    1    3    3  502    0 -0.23252183444E+03  0.12351977133E+02 -0.60560359726E+03  0.64882562516E+03  0.50400001928E-02 0.  1.
       -1    1    3    3    0  502  0.23252183444E+03 -0.12351977133E+02 -0.45792974389E+02  0.23730986360E+03  0.50400001928E-02 0. -1.
</event>
<event>
 5   0  0.5790967E-03  0.6001574E+03  0.7818609E-02  0.9905080E-01
        1   -1    0    0  501    0  0.00000000000E+00  0.00000000000E+00  0.54831944298E+03  0.54831944301E+03  0.50400001928E-02 0. -1.
       -1   -1    0    0    0  501  0.00000000000E+00  0.00000000000E+00 -0.16422403479E+03  0.16422403487E+03  0.50400001928E-02 0.  1.
    10030    2    1    2    0    0  0.00000000000E+00  0.00000000000E+00  0.38409540819E+03  0.71254347787E+03  0.60015741707E+03 0.  0.
        3    1    3    3  502    0 -0.25254370742E+03  0.15945575622E+03  0.15758115275E+03  0.33769260023E+03  0.10100000352E+00 0.  1.
       -3    1    3    3    0  502  0.25254370742E+03 -0.15945575622E+03  0.22651425544E+03  0.37485087764E+03  0.10100000352E+00 0. -1.
</event>
<event>
 5   0  0.9391405E-03  0.6017578E+03  0.7818609E-02  0.9901766E-01
        2   -1    0    0  501    0  0.00000000000E+00  0.00000000000E+00  0.11432371398E+04  0.11432371398E+04  0.25500000920E-02 0.  1.
       -2   -1    0    0    0  501  0.00000000000E+00  0.00000000000E+00 -0.79185758502E+02  0.79185758543E+02  0.25500000920E-02 0. -1.
    10030    2    1    2    0    0  0.00000000000E+00  0.00000000000E+00  0.10640513813E+04  0.12224228984E+04  0.60175775888E+03 0.  0.
        2    1    3    3  502    0  0.14669412125E+03  0.24772727674E+03  0.70958775569E+03  0.76576938557E+03  0.25500000920E-02 0.  1.
       -2    1    3    3    0  502 -0.14669412125E+03 -0.24772727674E+03  0.35446362565E+03  0.45665351282E+03  0.25500000920E-02 0. -1.
</event>
<event>
 5   0  0.3806250E-03  0.6000547E+03  0.7818609E-02  0.9905293E-01
       -3   -1    0    0    0  501  0.00000000000E+00  0.00000000000E+00  0.44277610273E+03  0.44277611425E+03  0.10100000352E+00 0. -1.
        3   -1    0    0  501    0  0.00000000000E+00  0.00000000000E+00 -0.20330005336E+03  0.20330007845E+03  0.10100000352E+00 0.  1.
    10030    2    1    2    0    0  0.00000000000E+00  0.00000000000E+00  0.23947604937E+03  0.64607619270E+03  0.60005472130E+03 0.  0.
        1    1    3    3  502    0 -0.14252305202E+03 -0.12794573877E+03 -0.12891449303E+03  0.23087199693E+03  0.50400001928E-02 0.  1.
       -1    1    3    3    0  502  0.14252305202E+03  0.12794573877E+03  0.36839054240E+03  0.41520419577E+03  0.50400001928E-02 0. -1.
</event>
<event>
 5   0  0.6078658E-03  0.6020591E+03  0.7818609E-02  0.9901143E-01
       -1   -1    0    0    0  501  0.00000000000E+00  0.00000000000E+00  0.26788197827E+03  0.26788197832E+03  0.50400001928E-02 0. -1.
        1   -1    0    0  501    0  0.00000000000E+00  0.00000000000E+00 -0.33827876287E+03  0.33827876291E+03  0.50400001928E-02 0.  1.
    10030    2    1    2    0    0  0.00000000000E+00  0.00000000000E+00 -0.70396784593E+02  0.60616074123E+03  0.60205908093E+03 0.  0.
        2    1    3    3  502    0 -0.18631931984E+03 -0.21724786791E+03 -0.12914680124E+03  0.31399111665E+03  0.25500000920E-02 0.  1.
       -2    1    3    3    0  502  0.18631931984E+03  0.21724786791E+03  0.58750016652E+02  0.29216962457E+03  0.25500000920E-02 0. -1.
</event>
<event>
 5   0  0.6078658E-03  0.6003194E+03  0.7818609E-02  0.9904744E-01
        1   -1    0    0  501    0  0.00000000000E+00  0.00000000000E+00  0.51047438385E+03  0.51047438387E+03  0.50400001928E-02 0. -1.
       -1   -1    0    0    0  501  0.00000000000E+00  0.00000000000E+00 -0.17649433114E+03  0.17649433121E+03  0.50400001928E-02 0.  1.
    10030    2    1    2    0    0  0.00000000000E+00  0.00000000000E+00  0.33398005271E+03  0.68696871509E+03  0.60031936492E+03 0.  0.
        2    1    3    3  502    0  0.25518006832E+03  0.14511892115E+03  0.95347963738E+02  0.30865450384E+03  0.25500000920E-02 0.  1.
       -2    1    3    3    0  502 -0.25518006832E+03 -0.14511892115E+03  0.23863208897E+03  0.37831421125E+03  0.25500000920E-02 0. -1.
</event>
<event>
 5   0  0.5891927E-03  0.5985662E+03  0.7818609E-02  0.9908385E-01
       -1   -1    0    0    0  501  0.00000000000E+00  0.00000000000E+00  0.49019967954E+03  0.49019967956E+03  0.50400001928E-02 0.  1.
        1   -1    0    0  501    0  0.00000000000E+00  0.00000000000E+00 -0.18272221458E+03  0.18272221465E+03  0.50400001928E-02 0. -1.
    10030    2    1    2    0    0  0.00000000000E+00  0.00000000000E+00  0.30747746495E+03  0.67292189421E+03  0.59856619037E+03 0.  0.
        4    1    3    3  502    0  0.11486965462E+03 -0.55943316706E+02  0.45799441544E+03  0.47548416347E+03  0.12699999809E+01 0.  1.
       -4    1    3    3    0  502 -0.11486965462E+03  0.55943316706E+02 -0.15051695049E+03  0.19743773074E+03  0.12699999809E+01 0. -1.
</event>
<event>
 5   0  0.9391405E-03  0.5979198E+03  0.7818609E-02  0.9909731E-01
       -2   -1    0    0    0  501  0.00000000000E+00  0.00000000000E+00  0.18782536233E+03  0.18782536234E+03  0.25500000920E-02 0.  1.
        2   -1    0    0  501    0  0.00000000000E+00  0.00000000000E+00 -0.47585171876E+03  0.47585171877E+03  0.25500000920E-02 0. -1.
    10030    2    1    2    0    0  0.00000000000E+00  0.00000000000E+00 -0.28802635643E+03  0.66367708111E+03  0.59791979896E+03 0.  0.
        2    1    3    3  502    0  0.13265674295E+03  0.15097746017E+03  0.10165308248E+03  0.22522289873E+03  0.25500000920E-02 0.  1.
       -2    1    3    3    0  502 -0.13265674295E+03 -0.15097746017E+03 -0.38967943891E+03  0.43845418238E+03  0.25500000920E-02 0. -1.
</event>
<event>
 5   0  0.5765045E-03  0.6001619E+03  0.7818609E-02  0.9905070E-01
        1   -1    0    0  501    0  0.00000000000E+00  0.00000000000E+00  0.11204706947E+03  0.11204706959E+03  0.50400001928E-02 0. -1.
       -1   -1    0    0    0  501  0.00000000000E+00  0.00000000000E+00 -0.80366748557E+03  0.80366748558E+03  0.50400001928E-02 0.  1.
    10030    2    1    2    0    0  0.00000000000E+00  0.00000000000E+00 -0.69162041609E+03  0.91571455517E+03  0.60016193364E+03 0.  0.
        1    1    3    3  502    0 -0.26389622994E+03 -0.36697398701E+01 -0.12791794568E+03  0.29328772225E+03  0.50400001928E-02 0. -1.
       -1    1    3    3    0  502  0.26389622994E+03  0.36697398701E+01 -0.56370247041E+03  0.62242683292E+03  0.50400001928E-02 0.  1.
</event>
<event>
 5   0  0.9391405E-03  0.6001804E+03  0.7818609E-02  0.9905032E-01
       -2   -1    0    0    0  501  0.00000000000E+00  0.00000000000E+00  0.11184836418E+03  0.11184836421E+03  0.25500000920E-02 0.  1.
        2   -1    0    0  501    0  0.00000000000E+00  0.00000000000E+00 -0.80514474895E+03  0.80514474896E+03  0.25500000920E-02 0. -1.
    10030    2    1    2    0    0  0.00000000000E+00  0.00000000000E+00 -0.69329638477E+03  0.91699311317E+03  0.60018038327E+03 0.  0.
        2    1    3    3  502    0 -0.19524408624E+01  0.21928451811E+03 -0.65963488970E+03  0.69513142615E+03  0.25500000920E-02 0.  1.
       -2    1    3    3    0  502  0.19524408624E+01 -0.21928451811E+03 -0.33661495075E+02  0.22186168702E+03  0.25500000920E-02 0. -1.
</event>
<event>
 5   0  0.9391405E-03  0.6114649E+03  0.7818609E-02  0.9881901E-01
       -2   -1    0    0    0  501  0.00000000000E+00  0.00000000000E+00  0.12658640587E+03  0.12658640589E+03  0.25500000920E-02 0. -1.
        2   -1    0    0  501    0  0.00000000000E+00  0.00000000000E+00 -0.73840739837E+03  0.73840739837E+03  0.25500000920E-02 0.  1.
    10030    2    1    2    0    0  0.00000000000E+00  0.00000000000E+00 -0.61182099250E+03  0.86499380427E+03  0.61146492504E+03 0.  0.
        2    1    3    3  502    0 -0.76076738622E+01 -0.75421817155E+02  0.11308141489E+03  0.13613865580E+03  0.25500000920E-02 0. -1.
       -2    1    3    3    0  502  0.76076738622E+01  0.75421817155E+02 -0.72490240739E+03  0.72885514847E+03  0.25500000920E-02 0.  1.
</event>
<event>
 5   0  0.9391405E-03  0.6019628E+03  0.7818609E-02  0.9901342E-01
        2   -1    0    0  501    0  0.00000000000E+00  0.00000000000E+00  0.47863599682E+03  0.47863599682E+03  0.25500000920E-02 0.  1.
       -2   -1    0    0    0  501  0.00000000000E+00  0.00000000000E+00 -0.18926661496E+03  0.18926661498E+03  0.25500000920E-02 0. -1.
    10030    2    1    2    0    0  0.00000000000E+00  0.00000000000E+00  0.28936938186E+03  0.66790261180E+03  0.60196283913E+03 0.  0.
        2    1    3    3  502    0  0.10081056244E+03 -0.22571186380E+03 -0.45824546267E+02  0.25141301479E+03  0.25500000920E-02 0. -1.
       -2    1    3    3    0  502 -0.10081056244E+03  0.22571186380E+03  0.33519392812E+03  0.41648959701E+03  0.25500000920E-02 0.  1.
</event>
<event>
 5   0  0.9028473E-03  0.5996355E+03  0.7818609E-02  0.9906163E-01
        2   -1    0    0  501    0  0.00000000000E+00  0.00000000000E+00  0.82951818878E+03  0.82951818878E+03  0.25500000920E-02 0.  1.
       -2   -1    0    0    0  501  0.00000000000E+00  0.00000000000E+00 -0.10836491671E+03  0.10836491674E+03  0.25500000920E-02 0. -1.
    10030    2    1    2    0    0  0.00000000000E+00  0.00000000000E+00  0.72115327206E+03  0.93788310553E+03  0.59963545411E+03 0.  0.
        1    1    3    3  502    0 -0.14821127409E+03 -0.22830820768E+03  0.16397714294E+03  0.31777306823E+03  0.50400001928E-02 0.  1.
       -1    1    3    3    0  502  0.14821127409E+03  0.22830820768E+03  0.55717612912E+03  0.62011003729E+03  0.50400001928E-02 0. -1.
</event>
<event>
 5   0  0.6078658E-03  0.6000773E+03  0.7818609E-02  0.9905246E-01
       -1   -1    0    0    0  501  0.00000000000E+00  0.00000000000E+00  0.27463549365E+03  0.27463549370E+03  0.50400001928E-02 0.  1.
        1   -1    0    0  501    0  0.00000000000E+00  0.00000000000E+00 -0.32779158219E+03  0.32779158223E+03  0.50400001928E-02 0. -1.
    10030    2    1    2    0    0  0.00000000000E+00  0.00000000000E+00 -0.53156088532E+02  0.60242707593E+03  0.60007733840E+03 0.  0.
        2    1    3    3  502    0 -0.17695291027E+03 -0.20496843904E+03 -0.15630792312E+03  0.31266045528E+03  0.25500000920E-02 0. -1.
       -2    1    3    3    0  502  0.17695291027E+03  0.20496843904E+03  0.10315183459E+03  0.28976662065E+03  0.25500000920E-02 0.  1.
</event>
<event>
 5   0  0.9303190E-03  0.5998113E+03  0.7818609E-02  0.9905798E-01
       -2   -1    0    0    0  501  0.00000000000E+00  0.00000000000E+00  0.61371658693E+02  0.61371658746E+02  0.25500000920E-02 0.  1.
        2   -1    0    0  501    0  0.00000000000E+00  0.00000000000E+00 -0.14655527871E+04  0.14655527871E+04  0.25500000920E-02 0. -1.
    10030    2    1    2    0    0  0.00000000000E+00  0.00000000000E+00 -0.14041811284E+04  0.15269244458E+04  0.59981132196E+03 0.  0.
        4    1    3    3  502    0  0.12889741893E+03  0.21293691598E+03 -0.11279501806E+04  0.11550886969E+04  0.12699999809E+01 0. -1.
       -4    1    3    3    0  502 -0.12889741893E+03 -0.21293691598E+03 -0.27623094778E+03  0.37183574897E+03  0.12699999809E+01 0.  1.
</event>
<event>
 5   0  0.9162342E-03  0.5984060E+03  0.7818609E-02  0.9908719E-01
       -2   -1    0    0    0  501  0.00000000000E+00  0.00000000000E+00  0.12785261107E+03  0.12785261109E+03  0.25500000920E-02 0. -1.
        2   -1    0    0  501    0  0.00000000000E+00  0.00000000000E+00 -0.70020029670E+03  0.70020029670E+03  0.25500000920E-02 0.  1.
    10030    2    1    2    0    0  0.00000000000E+00  0.00000000000E+00 -0.57234768563E+03  0.82805290779E+03  0.59840600336E+03 0.  0.
        5    1    3    3  502    0 -0.25866720706E+03  0.79260294619E+01 -0.49387129881E+03  0.55758631237E+03  0.46999998093E+01 0.  1.
       -5    1    3    3    0  502  0.25866720706E+03 -0.79260294619E+01 -0.78476386818E+02  0.27046659542E+03  0.46999998093E+01 0. -1.
</event>
<event>
 5   0  0.5790967E-03  0.6000079E+03  0.7818609E-02  0.9905390E-01
        1   -1    0    0  501    0  0.00000000000E+00  0.00000000000E+00  0.52599288569E+03  0.52599288572E+03  0.50400001928E-02 0. -1.
       -1   -1    0    0    0  501  0.00000000000E+00  0.00000000000E+00 -0.17110949965E+03  0.17110949972E+03  0.50400001928E-02 0.  1.
    10030    2    1    2    0    0  0.00000000000E+00  0.00000000000E+00  0.35488338605E+03  0.69710238544E+03  0.60000793169E+03 0.  0.
        3    1    3    3  502    0  0.92212704085E+02  0.71661951933E+02 -0.14361609135E+03  0.18510594276E+03  0.10100000352E+00 0.  1.
       -3    1    3    3    0  502 -0.92212704085E+02 -0.71661951933E+02  0.49849947740E+03  0.51199644268E+03  0.10100000352E+00 0. -1.
</event>
<event>
 5   0  0.9162342E-03  0.6001425E+03  0.7818609E-02  0.9905110E-01
       -2   -1    0    0    0  501  0.00000000000E+00  0.00000000000E+00  0.11589084599E+03  0.11589084601E+03  0.25500000920E-02 0. -1.
        2   -1    0    0  501    0  0.00000000000E+00  0.00000000000E+00 -0.77696178662E+03  0.77696178662E+03  0.25500000920E-02 0.  1.
    10030    2    1    2    0    0  0.00000000000E+00  0.00000000000E+00 -0.66107094063E+03  0.89285263264E+03  0.60014251229E+03 0.  0.
        5    1    3    3  502    0  0.91253780690E+02 -0.27416061401E+03 -0.21031977731E+03  0.35741823329E+03  0.46999998093E+01 0. -1.
       -5    1    3    3    0  502 -0.91253780690E+02  0.27416061401E+03 -0.45075116332E+03  0.53543439934E+03  0.46999998093E+01 0.  1.
</event>
<event>
 5   0  0.5790967E-03  0.5971843E+03  0.7818609E-02  0.9911265E-01
        1   -1    0    0  501    0  0.00000000000E+00  0.00000000000E+00  0.16793123460E+03  0.16793123468E+03  0.50400001928E-02 0. -1.
       -1   -1    0    0    0  501  0.00000000000E+00  0.00000000000E+00 -0.53091541700E+03  0.53091541703E+03  0.50400001928E-02 0.  1.
    10030    2    1    2    0    0  0.00000000000E+00  0.00000000000E+00 -0.36298418240E+03  0.69884665170E+03  0.59718433161E+03 0.  0.
        3    1    3    3  502    0 -0.22123914545E+03 -0.33056387559E+02 -0.41294392346E+03  0.46964047777E+03  0.10100000352E+00 0.  1.
       -3    1    3    3    0  502  0.22123914545E+03  0.33056387559E+02  0.49959741061E+02  0.22920617393E+03  0.10100000352E+00 0. -1.
</event>
<event>
 5   0  0.9162342E-03  0.6003442E+03  0.7818609E-02  0.9904692E-01
       -2   -1    0    0    0  501  0.00000000000E+00  0.00000000000E+00  0.25942875074E+03  0.25942875075E+03  0.25500000920E-02 0. -1.
        2   -1    0    0  501    0  0.00000000000E+00  0.00000000000E+00 -0.34731415360E+03  0.34731415361E+03  0.25500000920E-02 0.  1.
    10030    2    1    2    0    0  0.00000000000E+00  0.00000000000E+00 -0.87885402858E+02  0.60674290436E+03  0.60034415793E+03 0.  0.
        5    1    3    3  502    0 -0.18371854549E+03  0.20993172385E+03 -0.15583566797E+03  0.31957890738E+03  0.46999998093E+01 0.  1.
       -5    1    3    3    0  502  0.18371854549E+03 -0.20993172385E+03  0.67950265111E+02  0.28716399698E+03  0.46999998093E+01 0. -1.
</event>
<event>
 5   0  0.9391405E-03  0.6001900E+03  0.7818609E-02  0.9905012E-01
       -2   -1    0    0    0  501  0.00000000000E+00  0.00000000000E+00  0.12133197287E+03  0.12133197290E+03  0.25500000920E-02 0. -1.
        2   -1    0    0  501    0  0.00000000000E+00  0.00000000000E+00 -0.74223652808E+03  0.74223652808E+03  0.25500000920E-02 0.  1.
    10030    2    1    2    0    0  0.00000000000E+00  0.00000000000E+00 -0.62090455521E+03  0.86356850098E+03  0.60019004424E+03 0.  0.
        2    1    3    3  502    0 -0.16577256150E+03 -0.14740113397E+03 -0.19648012774E+02  0.22269638716E+03  0.25500000920E-02 0. -1.
       -2    1    3    3    0  502  0.16577256150E+03  0.14740113397E+03 -0.60125654243E+03  0.64087211382E+03  0.25500000920E-02 0.  1.
</event>
<event>
 5   0  0.5891927E-03  0.6045117E+03  0.7818609E-02  0.9896090E-01
        1   -1    0    0  501    0  0.00000000000E+00  0.00000000000E+00  0.12208523330E+04  0.12208523330E+04  0.50400001928E-02 0. -1.
       -1   -1    0    0    0  501  0.00000000000E+00  0.00000000000E+00 -0.74831821813E+02  0.74831821982E+02  0.50400001928E-02 0.  1.
    10030    2    1    2    0    0  0.00000000000E+00  0.00000000000E+00  0.11460205112E+04  0.12956841550E+04  0.60451171820E+03 0.  0.
        4    1    3    3  502    0  0.26409381873E+03  0.13028063721E+03  0.71898529924E+03  0.77695563770E+03  0.12699999809E+01 0.  1.
       -4    1    3    3    0  502 -0.26409381873E+03 -0.13028063721E+03  0.42703521197E+03  0.51872851733E+03  0.12699999809E+01 0. -1.
</event>
<event>
 5   0  0.5765045E-03  0.5993781E+03  0.7818609E-02  0.9906697E-01
        1   -1    0    0  501    0  0.00000000000E+00  0.00000000000E+00  0.36221891138E+03  0.36221891141E+03  0.50400001928E-02 0.  1.
       -1   -1    0    0    0  501  0.00000000000E+00  0.00000000000E+00 -0.24795375037E+03  0.24795375042E+03  0.50400001928E-02 0. -1.
    10030    2    1    2    0    0  0.00000000000E+00  0.00000000000E+00  0.11426516101E+03  0.61017266183E+03  0.59937813626E+03 0.  0.
        1    1    3    3  502    0 -0.20980049188E+03  0.18185125137E+03 -0.57715019992E+02  0.28357917338E+03  0.50400001928E-02 0. -1.
       -1    1    3    3    0  502  0.20980049188E+03 -0.18185125137E+03  0.17198018100E+03  0.32659348845E+03  0.50400001928E-02 0.  1.
</event>
<event>
 5   0  0.9303190E-03  0.5992423E+03  0.7818609E-02  0.9906979E-01
        2   -1    0    0  501    0  0.00000000000E+00  0.00000000000E+00  0.59354302885E+03  0.59354302886E+03  0.25500000920E-02 0.  1.
       -2   -1    0    0    0  501  0.00000000000E+00  0.00000000000E+00 -0.15124909890E+03  0.15124909892E+03  0.25500000920E-02 0. -1.
    10030    2    1    2    0    0  0.00000000000E+00  0.00000000000E+00  0.44229392996E+03  0.74479212778E+03  0.59924234924E+03 0.  0.
        4    1    3    3  502    0 -0.28609252042E+03  0.29631678153E+02  0.32546287217E+03  0.43434394281E+03  0.12699999809E+01 0. -1.
       -4    1    3    3    0  502  0.28609252042E+03 -0.29631678153E+02  0.11683105779E+03  0.31044818497E+03  0.12699999809E+01 0.  1.
</event>
<event>
 5   0  0.9303190E-03  0.5997448E+03  0.7818609E-02  0.9905936E-01
        2   -1    0    0  501    0  0.00000000000E+00  0.00000000000E+00  0.30280995174E+03  0.30280995175E+03  0.25500000920E-02 0.  1.
       -2   -1    0    0    0  501  0.00000000000E+00  0.00000000000E+00 -0.29696338952E+03  0.29696338953E+03  0.25500000920E-02 0. -1.
    10030    2    1    2    0    0  0.00000000000E+00  0.00000000000E+00  0.58465622251E+01  0.59977334128E+03  0.59974484460E+03 0.  0.
        4    1    3    3  502    0  0.11066657984E+03  0.25485245607E+03  0.11573374062E+03  0.30098634167E+03  0.12699999809E+01 0.  1.
       -4    1    3    3    0  502 -0.11066657984E+03 -0.25485245607E+03 -0.10988717839E+03  0.29878699960E+03  0.12699999809E+01 0. -1.
</event>
<event>
 5   0  0.9028473E-03  0.6023789E+03  0.7818609E-02  0.9900483E-01
        2   -1    0    0  501    0  0.00000000000E+00  0.00000000000E+00  0.22481920111E+03  0.22481920113E+03  0.25500000920E-02 0. -1.
       -2   -1    0    0    0  501  0.00000000000E+00  0.00000000000E+00 -0.40350238852E+03  0.40350238853E+03  0.25500000920E-02 0.  1.
    10030    2    1    2    0    0  0.00000000000E+00  0.00000000000E+00 -0.17868318741E+03  0.62832158966E+03  0.60237889950E+03 0.  0.
        1    1    3    3  502    0 -0.24517130469E+03  0.49492675054E+02 -0.26436747329E+03  0.36393495914E+03  0.50400001928E-02 0.  1.
       -1    1    3    3    0  502  0.24517130469E+03 -0.49492675054E+02  0.85684285879E+02  0.26438663052E+03  0.50400001928E-02 0. -1.
</event>
<event>
 5   0  0.9162342E-03  0.6082874E+03  0.7818609E-02  0.9888360E-01
        2   -1    0    0  501    0  0.00000000000E+00  0.00000000000E+00  0.69271129834E+03  0.69271129835E+03  0.25500000920E-02 0. -1.
       -2   -1    0    0    0  501  0.00000000000E+00  0.00000000000E+00 -0.13353813753E+03  0.13353813755E+03  0.25500000920E-02 0.  1.
    10030    2    1    2    0    0  0.00000000000E+00  0.00000000000E+00  0.55917316082E+03  0.82624943590E+03  0.60828735524E+03 0.  0.
        5    1    3    3  502    0 -0.53509681370E+02 -0.25262093931E+03  0.49776802311E+03  0.56078134759E+03  0.46999998093E+01 0. -1.
       -5    1    3    3    0  502  0.53509681370E+02  0.25262093931E+03  0.61405137707E+02  0.26546808831E+03  0.46999998093E+01 0.  1.
</event>
<event>
 5   0  0.5790967E-03  0.5992300E+03  0.7818609E-02  0.9907005E-01
       -1   -1    0    0    0  501  0.00000000000E+00  0.00000000000E+00  0.21878845109E+03  0.21878845115E+03  0.50400001928E-02 0.  1.
        1   -1    0    0  501    0  0.00000000000E+00  0.00000000000E+00 -0.41030116654E+03  0.41030116657E+03  0.50400001928E-02 0. -1.
    10030    2    1    2    0    0  0.00000000000E+00  0.00000000000E+00 -0.19151271545E+03  0.62908961772E+03  0.59923002840E+03 0.  0.
        3    1    3    3  502    0  0.20322765705E+02 -0.22328771284E+03  0.11288985693E+03  0.25102698562E+03  0.10100000352E+00 0.  1.
       -3    1    3    3    0  502 -0.20322765705E+02  0.22328771284E+03 -0.30440257238E+03  0.37806263209E+03  0.10100000352E+00 0. -1.
</event>
<event>
 5   0  0.5765045E-03  0.6002242E+03  0.7818609E-02  0.9904941E-01
       -1   -1    0    0    0  501  0.00000000000E+00  0.00000000000E+00  0.11972124146E+03  0.11972124157E+03  0.50400001928E-02 0.  1.
        1   -1    0    0  501    0  0.00000000000E+00  0.00000000000E+00 -0.75230817777E+03  0.75230817778E+03  0.50400001928E-02 0. -1.
    10030    2    1    2    0    0  0.00000000000E+00  0.00000000000E+00 -0.63258693631E+03  0.87202941935E+03  0.60022418830E+03 0.  0.
        1    1    3    3  502    0  0.28721526056E+02  0.19876713381E+03 -0.64029286791E+03  0.67105011457E+03  0.50400001928E-02 0. -1.
       -1    1    3    3    0  502 -0.28721526056E+02 -0.19876713381E+03  0.77059316078E+01  0.20097930478E+03  0.50400001928E-02 0.  1.
</event>
<event>
 5   0  0.9391405E-03  0.5999859E+03  0.7818609E-02  0.9905435E-01
        2   -1    0    0  501    0  0.00000000000E+00  0.00000000000E+00  0.35931413468E+03  0.35931413468E+03  0.25500000920E-02 0. -1.
       -2   -1    0    0    0  501  0.00000000000E+00  0.00000000000E+00 -0.25046543701E+03  0.25046543703E+03  0.25500000920E-02 0.  1.
    10030    2    1    2    0    0  0.00000000000E+00  0.00000000000E+00  0.10884869766E+03  0.60977957171E+03  0.59998590575E+03 0.  0.
        2    1    3    3  502    0 -0.83740133051E+02  0.11779279129E+03 -0.21275117935E+03  0.25719762029E+03  0.25500000920E-02 0.  1.
       -2    1    3    3    0  502  0.83740133051E+02 -0.11779279129E+03  0.32159987701E+03  0.35258195142E+03  0.25500000920E-02 0. -1.
</event>
<event>
 5   0  0.5819446E-03  0.6007293E+03  0.7818609E-02  0.9903894E-01
        1   -1    0    0  501    0  0.00000000000E+00  0.00000000000E+00  0.25989009044E+03  0.25989009049E+03  0.50400001928E-02 0.  1.
       -1   -1    0    0    0  501  0.00000000000E+00  0.00000000000E+00 -0.34714255421E+03  0.34714255425E+03  0.50400001928E-02 0. -1.
    10030    2    1    2    0    0  0.00000000000E+00  0.00000000000E+00 -0.87252463772E+02  0.60703264474E+03  0.60072925627E+03 0.  0.
        5    1    3    3  502    0  0.21249725087E+02 -0.19043582692E+03  0.19005659098E+03  0.26992768062E+03  0.46999998093E+01 0.  1.
       -5    1    3    3    0  502 -0.21249725087E+02  0.19043582692E+03 -0.27730905475E+03  0.33710496412E+03  0.46999998093E+01 0. -1.
</event>
<event>
 5   0  0.5765045E-03  0.6013236E+03  0.7818609E-02  0.9902664E-01
       -1   -1    0    0    0  501  0.00000000000E+00  0.00000000000E+00  0.12057850354E+03  0.12057850364E+03  0.50400001928E-02 0. -1.
        1   -1    0    0  501    0  0.00000000000E+00  0.00000000000E+00 -0.74969834850E+03  0.74969834852E+03  0.50400001928E-02 0.  1.
    10030    2    1    2    0    0  0.00000000000E+00  0.00000000000E+00 -0.62911984497E+03  0.87027685216E+03  0.60132355689E+03 0.  0.
        1    1    3    3  502    0  0.42202276961E+02 -0.29560193752E+03 -0.26367926517E+03  0.39835699134E+03  0.50400001928E-02 0. -1.
       -1    1    3    3    0  502 -0.42202276961E+02  0.29560193752E+03 -0.36544057980E+03  0.47191986082E+03  0.50400001928E-02 0.  1.
</event>
<event>
 5   0  0.6078658E-03  0.5998745E+03  0.7818609E-02  0.9905666E-01
        1   -1    0    0  501    0  0.00000000000E+00  0.00000000000E+00  0.81400102653E+02  0.81400102809E+02  0.50400001928E-02 0.  1.
       -1   -1    0    0    0  501  0.00000000000E+00  0.00000000000E+00 -0.11051872070E+04  0.11051872070E+04  0.50400001928E-02 0. -1.
    10030    2    1    2    0    0  0.00000000000E+00  0.00000000000E+00 -0.10237871043E+04  0.11865873098E+04  0.59987449420E+03 0.  0.
        2    1    3    3  502    0 -0.18008095079E+03  0.23848903057E+03 -0.46122334639E+03  0.54957541958E+03  0.25500000920E-02 0. -1.
       -2    1    3    3    0  502  0.18008095079E+03 -0.23848903057E+03 -0.56256375791E+03  0.63701189020E+03  0.25500000920E-02 0.  1.
</event>
<event>
 5   0  0.9391405E-03  0.6008406E+03  0.7818609E-02  0.9903664E-01
       -2   -1    0    0    0  501  0.00000000000E+00  0.00000000000E+00  0.14572634434E+03  0.14572634436E+03  0.25500000920E-02 0.  1.
        2   -1    0    0  501    0  0.00000000000E+00  0.00000000000E+00 -0.61932764992E+03  0.61932764992E+03  0.25500000920E-02 0. -1.
    10030    2    1    2    0    0  0.00000000000E+00  0.00000000000E+00 -0.47360130558E+03  0.76505399428E+03  0.60084059244E+03 0.  0.
        2    1    3    3  502    0  0.18494164300E+03 -0.28073685458E+02 -0.53612459012E+03  0.56782137972E+03  0.25500000920E-02 0. -1.
       -2    1    3    3    0  502 -0.18494164300E+03  0.28073685458E+02  0.62523284538E+02  0.19723261457E+03  0.25500000920E-02 0.  1.
</event>
<event>
 5   0  0.9822607E-03  0.6002938E+03  0.7818609E-02  0.9904797E-01
       -2   -1    0    0    0  501  0.00000000000E+00  0.00000000000E+00  0.22577850572E+03  0.22577850573E+03  0.25500000920E-02 0.  1.
        2   -1    0    0  501    0  0.00000000000E+00  0.00000000000E+00 -0.39901118492E+03  0.39901118493E+03  0.25500000920E-02 0. -1.
    10030    2    1    2    0    0  0.00000000000E+00  0.00000000000E+00 -0.17323267920E+03  0.62478969066E+03  0.60029375843E+03 0.  0.
        3    1    3    3  502    0 -0.95708248108E+02  0.11041031590E+03 -0.35949357805E+03  0.38805431253E+03  0.10100000352E+00 0. -1.
       -3    1    3    3    0  502  0.95708248108E+02 -0.11041031590E+03  0.18626089885E+03  0.23673537812E+03  0.10100000352E+00 0.  1.
</event>
<event>
 5   0  0.5819446E-03  0.5999708E+03  0.7818609E-02  0.9905467E-01
       -1   -1    0    0    0  501  0.00000000000E+00  0.00000000000E+00  0.13507241706E+04  0.13507241706E+04  0.50400001928E-02 0. -1.
        1   -1    0    0  501    0  0.00000000000E+00  0.00000000000E+00 -0.66624435837E+02  0.66624436027E+02  0.50400001928E-02 0.  1.
    10030    2    1    2    0    0  0.00000000000E+00  0.00000000000E+00  0.12840997347E+04  0.14173486066E+04  0.59997078588E+03 0.  0.
        5    1    3    3  502    0  0.23620604746E+03  0.17890036606E+03  0.53199043030E+03  0.60896185904E+03  0.46999998093E+01 0.  1.
       -5    1    3    3    0  502 -0.23620604746E+03 -0.17890036606E+03  0.75210930444E+03  0.80838674758E+03  0.46999998093E+01 0. -1.
</event>
<event>
 5   0  0.5765045E-03  0.6003455E+03  0.7818609E-02  0.9904690E-01
       -1   -1    0    0    0  501  0.00000000000E+00  0.00000000000E+00  0.10057571074E+03  0.10057571087E+03  0.50400001928E-02 0. -1.
        1   -1    0    0  501    0  0.00000000000E+00  0.00000000000E+00 -0.89587911290E+03  0.89587911292E+03  0.50400001928E-02 0.  1.
    10030    2    1    2    0    0  0.00000000000E+00  0.00000000000E+00 -0.79530340216E+03  0.99645482378E+03  0.60034549582E+03 0.  0.
        1    1    3    3  502    0  0.35493138373E+02  0.17913132694E+03 -0.22288153587E+01  0.18262738788E+03  0.50400001928E-02 0. -1.
       -1    1    3    3    0  502 -0.35493138373E+02 -0.17913132694E+03 -0.79307458680E+03  0.81382743590E+03  0.50400001928E-02 0.  1.
</event>
<event>
 5   0  0.5790967E-03  0.5994954E+03  0.7818609E-02  0.9906453E-01
       -1   -1    0    0    0  501  0.00000000000E+00  0.00000000000E+00  0.14299357424E+03  0.14299357433E+03  0.50400001928E-02 0.  1.
        1   -1    0    0  501    0  0.00000000000E+00  0.00000000000E+00 -0.62834078156E+03  0.62834078158E+03  0.50400001928E-02 0. -1.
    10030    2    1    2    0    0  0.00000000000E+00  0.00000000000E+00 -0.48534720731E+03  0.77133435591E+03  0.59949543531E+03 0.  0.
        3    1    3    3  502    0  0.23182130360E+03 -0.17779019033E+03 -0.32896687275E+03  0.43996554654E+03  0.10100000352E+00 0. -1.
       -3    1    3    3    0  502 -0.23182130360E+03  0.17779019033E+03 -0.15638033457E+03  0.33136880937E+03  0.10100000352E+00 0.  1.
</event>
<event>
 5   0  0.9162342E-03  0.5997688E+03  0.7818609E-02  0.9905886E-01
        2   -1    0    0  501    0  0.00000000000E+00  0.00000000000E+00  0.42160432812E+03  0.42160432813E+03  0.25500000920E-02 0.  1.
       -2   -1    0    0    0  501  0.00000000000E+00  0.00000000000E+00 -0.21330577852E+03  0.21330577853E+03  0.25500000920E-02 0. -1.
    10030    2    1    2    0    0  0.00000000000E+00  0.00000000000E+00  0.20829854961E+03  0.63491010666E+03  0.59976875358E+03 0.  0.
        5    1    3    3  502    0 -0.29211632906E+03  0.57873272214E+02  0.67064046348E+02  0.30528829269E+03  0.46999998093E+01 0.  1.
       -5    1    3    3    0  502  0.29211632906E+03 -0.57873272214E+02  0.14123450326E+03  0.32962181398E+03  0.46999998093E+01 0. -1.
</event>
<event>
 5   0  0.5819446E-03  0.6008146E+03  0.7818609E-02  0.9903717E-01
       -1   -1    0    0    0  501  0.00000000000E+00  0.00000000000E+00  0.10132784515E+03  0.10132784528E+03  0.50400001928E-02 0.  1.
        1   -1    0    0  501    0  0.00000000000E+00  0.00000000000E+00 -0.89061942325E+03  0.89061942326E+03  0.50400001928E-02 0. -1.
    10030    2    1    2    0    0  0.00000000000E+00  0.00000000000E+00 -0.78929157810E+03  0.99194726854E+03  0.60081460394E+03 0.  0.
        5    1    3    3  502    0  0.18594693693E+03  0.17759865128E+03 -0.13831493313E+03  0.29201139535E+03  0.46999998093E+01 0.  1.
       -5    1    3    3    0  502 -0.18594693693E+03 -0.17759865128E+03 -0.65097664497E+03  0.69993587319E+03  0.46999998093E+01 0. -1.
</event>
<event>
 5   0  0.9391405E-03  0.6001859E+03  0.7818609E-02  0.9905020E-01
       -2   -1    0    0    0  501  0.00000000000E+00  0.00000000000E+00  0.14813737940E+03  0.14813737942E+03  0.25500000920E-02 0. -1.
        2   -1    0    0  501    0  0.00000000000E+00  0.00000000000E+00 -0.60792077629E+03  0.60792077630E+03  0.25500000920E-02 0.  1.
    10030    2    1    2    0    0  0.00000000000E+00  0.00000000000E+00 -0.45978339689E+03  0.75605815572E+03  0.60018594017E+03 0.  0.
        2    1    3    3  502    0  0.28027825900E+03  0.23379595393E+02 -0.98053416712E+02  0.29785395832E+03  0.25500000920E-02 0. -1.
       -2    1    3    3    0  502 -0.28027825900E+03 -0.23379595393E+02 -0.36172998018E+03  0.45820419740E+03  0.25500000920E-02 0.  1.
</event>
<event>
 5   0  0.9391405E-03  0.5990143E+03  0.7818609E-02  0.9907453E-01
       -2   -1    0    0    0  501  0.00000000000E+00  0.00000000000E+00  0.86629902853E+02  0.86629902891E+02  0.25500000920E-02 0.  1.
        2   -1    0    0  501    0  0.00000000000E+00  0.00000000000E+00 -0.10354913992E+04  0.10354913993E+04  0.25500000920E-02 0. -1.
    10030    2    1    2    0    0  0.00000000000E+00  0.00000000000E+00 -0.94886149640E+03  0.11221213021E+04  0.59901425474E+03 0.  0.
        2    1    3    3  502    0 -0.22605844882E+03 -0.17319616032E+03 -0.30065754426E+03  0.41411869211E+03  0.25500000920E-02 0. -1.
       -2    1    3    3    0  502  0.22605844882E+03  0.17319616032E+03 -0.64820395214E+03  0.70800261003E+03  0.25500000920E-02 0.  1.
</event>
<event>
 5   0  0.9162342E-03  0.6104699E+03  0.7818609E-02  0.9883919E-01
        2   -1    0    0  501    0  0.00000000000E+00  0.00000000000E+00  0.37994012848E+03  0.37994012849E+03  0.25500000920E-02 0.  1.
       -2   -1    0    0    0  501  0.00000000000E+00  0.00000000000E+00 -0.24521857525E+03  0.24521857526E+03  0.25500000920E-02 0. -1.
    10030    2    1    2    0    0  0.00000000000E+00  0.00000000000E+00  0.13472155323E+03  0.62515870375E+03  0.61046990751E+03 0.  0.
        5    1    3    3  502    0 -0.71650374089E+02  0.18936684566E+03  0.30122535947E+03  0.36297711433E+03  0.46999998093E+01 0.  1.
       -5    1    3    3    0  502  0.71650374089E+02 -0.18936684566E+03 -0.16650380624E+03  0.26218158942E+03  0.46999998093E+01 0. -1.
</event>
<event>
 5   0  0.9028473E-03  0.6009929E+03  0.7818609E-02  0.9903348E-01
        2   -1    0    0  501    0  0.00000000000E+00  0.00000000000E+00  0.28289108828E+03  0.28289108829E+03  0.25500000920E-02 0.  1.
       -2   -1    0    0    0  501  0.00000000000E+00  0.00000000000E+00 -0.31919747001E+03  0.31919747003E+03  0.25500000920E-02 0. -1.
    10030    2    1    2    0    0  0.00000000000E+00  0.00000000000E+00 -0.36306381733E+02  0.60208855832E+03  0.60099291069E+03 0.  0.
        1    1    3    3  502    0 -0.12202041526E+03  0.94928281761E+01 -0.29309663418E+03  0.31762357048E+03  0.50400001928E-02 0. -1.
       -1    1    3    3    0  502  0.12202041526E+03 -0.94928281761E+01  0.25679025245E+03  0.28446498784E+03  0.50400001928E-02 0.  1.
</event>
<event>
 5   0  0.9391405E-03  0.6004933E+03  0.7818609E-02  0.9904383E-01
       -2   -1    0    0    0  501  0.00000000000E+00  0.00000000000E+00  0.23558319939E+03  0.23558319941E+03  0.25500000920E-02 0. -1.
        2   -1    0    0  501    0  0.00000000000E+00  0.00000000000E+00 -0.38265903542E+03  0.38265903543E+03  0.25500000920E-02 0.  1.
    10030    2    1    2    0    0  0.00000000000E+00  0.00000000000E+00 -0.14707583603E+03  0.61824223484E+03  0.60049326340E+03 0.  0.
        2    1    3    3  502    0  0.12736601653E+03 -0.80206395405E+02  0.19393479601E+03  0.24549108567E+03  0.25500000920E-02 0. -1.
       -2    1    3    3    0  502 -0.12736601653E+03  0.80206395405E+02 -0.34101063205E+03  0.37275114917E+03  0.25500000920E-02 0.  1.
</event>
<event>
 5   0  0.9028473E-03  0.6003062E+03  0.7818609E-02  0.9904771E-01
        2   -1    0    0  501    0  0.00000000000E+00  0.00000000000E+00  0.27815443395E+03  0.27815443396E+03  0.25500000920E-02 0. -1.
       -2   -1    0    0    0  501  0.00000000000E+00  0.00000000000E+00 -0.32389159496E+03  0.32389159497E+03  0.25500000920E-02 0.  1.
    10030    2    1    2    0    0  0.00000000000E+00  0.00000000000E+00 -0.45737161005E+02  0.60204602893E+03  0.60030619941E+03 0.  0.
        1    1    3    3  502    0 -0.98836168890E+02 -0.10920375648E+03 -0.28515635242E+03  0.32094889634E+03  0.50400001928E-02 0.  1.
       -1    1    3    3    0  502  0.98836168890E+02  0.10920375648E+03  0.23941919141E+03  0.28109713259E+03  0.50400001928E-02 0. -1.
</event>
<event>
 5   0  0.6078658E-03  0.5992695E+03  0.7818609E-02  0.9906923E-01
        1   -1    0    0  501    0  0.00000000000E+00  0.00000000000E+00  0.64999537430E+03  0.64999537432E+03  0.50400001928E-02 0.  1.
       -1   -1    0    0    0  501  0.00000000000E+00  0.00000000000E+00 -0.13812557996E+03  0.13812558005E+03  0.50400001928E-02 0. -1.
    10030    2    1    2    0    0  0.00000000000E+00  0.00000000000E+00  0.51186979435E+03  0.78812095437E+03  0.59926951562E+03 0.  0.
        2    1    3    3  502    0  0.11305750875E+03 -0.87249527275E+02 -0.90489287554E+02  0.16906445949E+03  0.25500000920E-02 0. -1.
       -2    1    3    3    0  502 -0.11305750875E+03  0.87249527275E+02  0.60235908190E+03  0.61905649488E+03  0.25500000920E-02 0.  1.
</event>
<event>
 5   0  0.5891927E-03  0.5999794E+03  0.7818609E-02  0.9905449E-01
        1   -1    0    0  501    0  0.00000000000E+00  0.00000000000E+00  0.67746765285E+03  0.67746765287E+03  0.50400001928E-02 0. -1.
       -1   -1    0    0    0  501  0.00000000000E+00  0.00000000000E+00 -0.13283854356E+03  0.13283854366E+03  0.50400001928E-02 0.  1.
    10030    2    1    2    0    0  0.00000000000E+00  0.00000000000E+00  0.54462910928E+03  0.81030619652E+03  0.59997938752E+03 0.  0.
        4    1    3    3  502    0 -0.10922567754E+03  0.89863203509E+02 -0.84974861831E+02  0.16500904224E+03  0.12699999809E+01 0.  1.
       -4    1    3    3    0  502  0.10922567754E+03 -0.89863203509E+02  0.62960397112E+03  0.64529715428E+03  0.12699999809E+01 0. -1.
</event>
<event>
 5   0  0.5891927E-03  0.5868891E+03  0.7818609E-02  0.9932987E-01
        1   -1    0    0  501    0  0.00000000000E+00  0.00000000000E+00  0.38851706627E+03  0.38851706631E+03  0.50400001928E-02 0.  1.
       -1   -1    0    0    0  501  0.00000000000E+00  0.00000000000E+00 -0.22163682793E+03  0.22163682798E+03  0.50400001928E-02 0. -1.
    10030    2    1    2    0    0  0.00000000000E+00  0.00000000000E+00  0.16688023835E+03  0.61015389429E+03  0.58688905320E+03 0.  0.
        4    1    3    3  502    0 -0.19182815703E+03  0.13049801644E+03 -0.10334926096E+03  0.25398908789E+03  0.12699999809E+01 0. -1.
       -4    1    3    3    0  502  0.19182815703E+03 -0.13049801644E+03  0.27022949930E+03  0.35616480640E+03  0.12699999809E+01 0.  1.
</event>
<event>
 5   0  0.9303190E-03  0.5999411E+03  0.7818609E-02  0.9905528E-01
        2   -1    0    0  501    0  0.00000000000E+00  0.00000000000E+00  0.32545490093E+03  0.32545490094E+03  0.25500000920E-02 0. -1.
       -2   -1    0    0    0  501  0.00000000000E+00  0.00000000000E+00 -0.27648170887E+03  0.27648170888E+03  0.25500000920E-02 0.  1.
    10030    2    1    2    0    0  0.00000000000E+00  0.00000000000E+00  0.48973192056E+02  0.60193660982E+03  0.59994108769E+03 0.  0.
        4    1    3    3  502    0 -0.23669595117E+03 -0.15688222595E+03  0.12147097391E+03  0.30885889420E+03  0.12699999809E+01 0. -1.
       -4    1    3    3    0  502  0.23669595117E+03  0.15688222595E+03 -0.72497781853E+02  0.29307771562E+03  0.12699999809E+01 0.  1.
</event>
<event>
 5   0  0.5819446E-03  0.5980374E+03  0.7818609E-02  0.9909486E-01
       -1   -1    0    0    0  501  0.00000000000E+00  0.00000000000E+00  0.11240158118E+03  0.11240158130E+03  0.50400001928E-02 0.  1.
        1   -1    0    0  501    0  0.00000000000E+00  0.00000000000E+00 -0.79547082184E+03  0.79547082185E+03  0.50400001928E-02 0. -1.
    10030    2    1    2    0    0  0.00000000000E+00  0.00000000000E+00 -0.68306924065E+03  0.90787240315E+03  0.59803738418E+03 0.  0.
        5    1    3    3  502    0 -0.20480434969E+03  0.24066427721E+02 -0.12890575606E+02  0.20666947412E+03  0.46999998093E+01 0.  1.
       -5    1    3    3    0  502  0.20480434969E+03 -0.24066427721E+02 -0.67017866505E+03  0.70120292903E+03  0.46999998093E+01 0. -1.
</event>
<event>
 5   0  0.6078658E-03  0.5999832E+03  0.7818609E-02  0.9905441E-01
        1   -1    0    0  501    0  0.00000000000E+00  0.00000000000E+00  0.82785409907E+03  0.82785409909E+03  0.50400001928E-02 0.  1.
       -1   -1    0    0    0  501  0.00000000000E+00  0.00000000000E+00 -0.10870872643E+03  0.10870872655E+03  0.50400001928E-02 0. -1.
    10030    2    1    2    0    0  0.00000000000E+00  0.00000000000E+00  0.71914537264E+03  0.93656282564E+03  0.59998321591E+03 0.  0.
        2    1    3    3  502    0 -0.26124880329E+03  0.12737365684E+03  0.47554826098E+03  0.55733395214E+03  0.25500000920E-02 0.  1.
       -2    1    3    3    0  502  0.26124880329E+03 -0.12737365684E+03  0.24359711166E+03  0.37922887350E+03  0.25500000920E-02 0. -1.
</event>
<event>
 5   0  0.5891927E-03  0.6003090E+03  0.7818609E-02  0.9904765E-01
        1   -1    0    0  501    0  0.00000000000E+00  0.00000000000E+00  0.70601653574E+03  0.70601653576E+03  0.50400001928E-02 0.  1.
       -1   -1    0    0    0  501  0.00000000000E+00  0.00000000000E+00 -0.12760710459E+03  0.12760710469E+03  0.50400001928E-02 0. -1.
    10030    2    1    2    0    0  0.00000000000E+00  0.00000000000E+00  0.57840943115E+03  0.83362364045E+03  0.60030900700E+03 0.  0.
        4    1    3    3  502    0 -0.70153464580E+01 -0.67649164413E+02  0.69517154732E+03  0.69849174486E+03  0.12699999809E+01 0.  1.
       -4    1    3    3    0  502  0.70153464580E+01  0.67649164413E+02 -0.11676211618E+03  0.13513189559E+03  0.12699999809E+01 0. -1.
</event>
<event>
 5   0  0.5891927E-03  0.6076812E+03  0.7818609E-02  0.9889597E-01
        1   -1    0    0  501    0  0.00000000000E+00  0.00000000000E+00  0.15622018906E+04  0.15622018906E+04  0.50400001928E-02 0.  1.
       -1   -1    0    0    0  501  0.00000000000E+00  0.00000000000E+00 -0.59095498005E+02  0.59095498219E+02  0.50400001928E-02 0. -1.
    10030    2    1    2    0    0  0.00000000000E+00  0.00000000000E+00  0.15031063926E+04  0.16212973888E+04  0.60768116274E+03 0.  0.
        4    1    3    3  502    0  0.11137425800E+03 -0.10025350390E+03  0.46358630728E+02  0.15686212396E+03  0.12699999809E+01 0. -1.
       -4    1    3    3    0  502 -0.11137425800E+03  0.10025350390E+03  0.14567477619E+04  0.14644352649E+04  0.12699999809E+01 0.  1.
</event>
<event>
 5   0  0.9822607E-03  0.6002838E+03  0.7818609E-02  0.9904817E-01
        2   -1    0    0  501    0  0.00000000000E+00  0.00000000000E+00  0.52533858069E+03  0.52533858070E+03  0.25500000920E-02 0.  1.
       -2   -1    0    0    0  501  0.00000000000E+00  0.00000000000E+00 -0.17148018231E+03  0.17148018233E+03  0.25500000920E-02 0. -1.
    10030    2    1    2    0    0  0.00000000000E+00  0.00000000000E+00  0.35385839838E+03  0.69681876303E+03  0.60028378490E+03 0.  0.
        3    1    3    3  502    0  0.46227077260E+02  0.45367863685E+02 -0.16327089030E+03  0.17564902376E+03  0.10100000352E+00 0. -1.
       -3    1    3    3    0  502 -0.46227077260E+02 -0.45367863685E+02  0.51712928868E+03  0.52116973927E+03  0.10100000352E+00 0.  1.
</event>
<event>
 5   0  0.6078658E-03  0.6011294E+03  0.7818609E-02  0.9903066E-01
       -1   -1    0    0    0  501  0.00000000000E+00  0.00000000000E+00  0.45379030339E+02  0.45379030619E+02  0.50400001928E-02 0.  1.
        1   -1    0    0  501    0  0.00000000000E+00  0.00000000000E+00 -0.19907681882E+04  0.19907681882E+04  0.50400001928E-02 0. -1.
    10030    2    1    2    0    0  0.00000000000E+00  0.00000000000E+00 -0.19453891579E+04  0.20361472188E+04  0.60112937144E+03 0.  0.
        2    1    3    3  502    0 -0.94441734909E+02  0.27828340431E+03 -0.75905264900E+03  0.81395443261E+03  0.25500000920E-02 0.  1.
       -2    1    3    3    0  502  0.94441734909E+02 -0.27828340431E+03 -0.11863365089E+04  0.12221927862E+04  0.25500000920E-02 0. -1.
</event>
<event>
 5   0  0.9822607E-03  0.6017915E+03  0.7818609E-02  0.9901696E-01
        2   -1    0    0  501    0  0.00000000000E+00  0.00000000000E+00  0.25545751783E+03  0.25545751785E+03  0.25500000920E-02 0.  1.
       -2   -1    0    0    0  501  0.00000000000E+00  0.00000000000E+00 -0.35441610082E+03  0.35441610083E+03  0.25500000920E-02 0. -1.
    10030    2    1    2    0    0  0.00000000000E+00  0.00000000000E+00 -0.98958582990E+02  0.60987361868E+03  0.60179151673E+03 0.  0.
        3    1    3    3  502    0 -0.20202209154E+02 -0.29642374644E+03 -0.97690030289E+02  0.31275952252E+03  0.10100000352E+00 0. -1.
       -3    1    3    3    0  502  0.20202209154E+02  0.29642374644E+03 -0.12685527007E+01  0.29711409616E+03  0.10100000352E+00 0.  1.
</event>
<event>
 5   0  0.5819446E-03  0.6010431E+03  0.7818609E-02  0.9903244E-01
        1   -1    0    0  501    0  0.00000000000E+00  0.00000000000E+00  0.90575427312E+03  0.90575427313E+03  0.50400001928E-02 0.  1.
       -1   -1    0    0    0  501  0.00000000000E+00  0.00000000000E+00 -0.99710476247E+02  0.99710476374E+02  0.50400001928E-02 0. -1.
    10030    2    1    2    0    0  0.00000000000E+00  0.00000000000E+00  0.80604379687E+03  0.10054647495E+04  0.60104306004E+03 0.  0.
        5    1    3    3  502    0  0.19747134148E+03 -0.68761309492E+00  0.24141857265E+02  0.19899829845E+03  0.46999998093E+01 0. -1.
       -5    1    3    3    0  502 -0.19747134148E+03  0.68761309492E+00  0.78190193960E+03  0.80646645105E+03  0.46999998093E+01 0.  1.
</event>
<event>
 5   0  0.9822607E-03  0.6001160E+03  0.7818609E-02  0.9905165E-01
        2   -1    0    0  501    0  0.00000000000E+00  0.00000000000E+00  0.28602205869E+04  0.28602205869E+04  0.25500000920E-02 0.  1.
       -2   -1    0    0    0  501  0.00000000000E+00  0.00000000000E+00 -0.31478270931E+02  0.31478271035E+02  0.25500000920E-02 0. -1.
    10030    2    1    2    0    0  0.00000000000E+00  0.00000000000E+00  0.28287423159E+04  0.28916988579E+04  0.60011598448E+03 0.  0.
        3    1    3    3  502    0  0.27842413574E+02  0.28290187401E+03  0.95153489776E+03  0.99308979562E+03  0.10100000352E+00 0. -1.
       -3    1    3    3    0  502 -0.27842413574E+02 -0.28290187401E+03  0.18772074182E+04  0.18986090623E+04  0.10100000352E+00 0.  1.
</event>
<event>
 5   0  0.5765045E-03  0.5981656E+03  0.7818609E-02  0.9909219E-01
        1   -1    0    0  501    0  0.00000000000E+00  0.00000000000E+00  0.13536185022E+03  0.13536185031E+03  0.50400001928E-02 0. -1.
       -1   -1    0    0    0  501  0.00000000000E+00  0.00000000000E+00 -0.66082510148E+03  0.66082510150E+03  0.50400001928E-02 0.  1.
    10030    2    1    2    0    0  0.00000000000E+00  0.00000000000E+00 -0.52546325127E+03  0.79618695182E+03  0.59816555719E+03 0.  0.
        1    1    3    3  502    0  0.97351391276E+02 -0.80944315491E+02  0.97933781844E+02  0.16006342882E+03  0.50400001928E-02 0. -1.
       -1    1    3    3    0  502 -0.97351391276E+02  0.80944315491E+02 -0.62339703311E+03  0.63612352300E+03  0.50400001928E-02 0.  1.
</event>
<event>
 5   0  0.5819446E-03  0.5997225E+03  0.7818609E-02  0.9905982E-01
       -1   -1    0    0    0  501  0.00000000000E+00  0.00000000000E+00  0.20829918802E+03  0.20829918808E+03  0.50400001928E-02 0.  1.
        1   -1    0    0  501    0  0.00000000000E+00  0.00000000000E+00 -0.43167123430E+03  0.43167123433E+03  0.50400001928E-02 0. -1.
    10030    2    1    2    0    0  0.00000000000E+00  0.00000000000E+00 -0.22337204628E+03  0.63997042241E+03  0.59972249458E+03 0.  0.
        5    1    3    3  502    0 -0.26766724583E+03  0.44954907492E+02 -0.24762430861E+03  0.36743242428E+03  0.46999998093E+01 0.  1.
       -5    1    3    3    0  502  0.26766724583E+03 -0.44954907492E+02  0.24252262329E+02  0.27253799813E+03  0.46999998093E+01 0. -1.
</event>
<event>
 5   0  0.9162342E-03  0.6085345E+03  0.7818609E-02  0.9887856E-01
        2   -1    0    0  501    0  0.00000000000E+00  0.00000000000E+00  0.64669897018E+03  0.64669897018E+03  0.25500000920E-02 0. -1.
       -2   -1    0    0    0  501  0.00000000000E+00  0.00000000000E+00 -0.14315554990E+03  0.14315554992E+03  0.25500000920E-02 0.  1.
    10030    2    1    2    0    0  0.00000000000E+00  0.00000000000E+00  0.50354342028E+03  0.78985452010E+03  0.60853445820E+03 0.  0.
        5    1    3    3  502    0  0.64336555387E+02 -0.29669993263E+03  0.22625712323E+03  0.37866135028E+03  0.46999998093E+01 0.  1.
       -5    1    3    3    0  502 -0.64336555387E+02  0.29669993263E+03  0.27728629705E+03  0.41119316983E+03  0.46999998093E+01 0. -1.
</event>
<event>
 5   0  0.5765045E-03  0.5996575E+03  0.7818609E-02  0.9906117E-01
        1   -1    0    0  501    0  0.00000000000E+00  0.00000000000E+00  0.97672042374E+03  0.97672042375E+03  0.50400001928E-02 0.  1.
       -1   -1    0    0    0  501  0.00000000000E+00  0.00000000000E+00 -0.92039920064E+02  0.92039920202E+02  0.50400001928E-02 0. -1.
    10030    2    1    2    0    0  0.00000000000E+00  0.00000000000E+00  0.88468050368E+03  0.10687603440E+04  0.59965746825E+03 0.  0.
        1    1    3    3  502    0  0.14414795092E+03  0.24453669405E+03  0.61440637291E+03  0.67681017841E+03  0.50400001928E-02 0. -1.
       -1    1    3    3    0  502 -0.14414795092E+03 -0.24453669405E+03  0.27027413076E+03  0.39195016555E+03  0.50400001928E-02 0.  1.
</event>
<event>
 5   0  0.6078658E-03  0.6012099E+03  0.7818609E-02  0.9902899E-01
       -1   -1    0    0    0  501  0.00000000000E+00  0.00000000000E+00  0.12539258975E+03  0.12539258985E+03  0.50400001928E-02 0. -1.
        1   -1    0    0  501    0  0.00000000000E+00  0.00000000000E+00 -0.72064327064E+03  0.72064327066E+03  0.50400001928E-02 0.  1.
    10030    2    1    2    0    0  0.00000000000E+00  0.00000000000E+00 -0.59525068089E+03  0.84603586051E+03  0.60120986699E+03 0.  0.
        2    1    3    3  502    0 -0.25220059989E+02  0.29006878756E+03 -0.19243726528E+03  0.34901010590E+03  0.25500000920E-02 0. -1.
       -2    1    3    3    0  502  0.25220059989E+02 -0.29006878756E+03 -0.40281341561E+03  0.49702575461E+03  0.25500000920E-02 0.  1.
</event>
<event>
 5   0  0.9391405E-03  0.5997847E+03  0.7818609E-02  0.9905853E-01
        2   -1    0    0  501    0  0.00000000000E+00  0.00000000000E+00  0.10210826734E+04  0.10210826734E+04  0.25500000920E-02 0.  1.
       -2   -1    0    0    0  501  0.00000000000E+00  0.00000000000E+00 -0.88078485793E+02  0.88078485830E+02  0.25500000920E-02 0. -1.
    10030    2    1    2    0    0  0.00000000000E+00  0.00000000000E+00  0.93300418757E+03  0.11091611592E+04  0.59978468057E+03 0.  0.
        2    1    3    3  502    0  0.80936164363E+02  0.25969270314E+03  0.23299283992E+03  0.35815726466E+03  0.25500000920E-02 0. -1.
       -2    1    3    3    0  502 -0.80936164363E+02 -0.25969270314E+03  0.70001134765E+03  0.75100389454E+03  0.25500000920E-02 0.  1.
</event>
<event>
 5   0  0.9391405E-03  0.6018847E+03  0.7818609E-02  0.9901504E-01
        2   -1    0    0  501    0  0.00000000000E+00  0.00000000000E+00  0.58293412019E+03  0.58293412020E+03  0.25500000920E-02 0. -1.
       -2   -1    0    0    0  501  0.00000000000E+00  0.00000000000E+00 -0.15536284511E+03  0.15536284513E+03  0.25500000920E-02 0.  1.
    10030    2    1    2    0    0  0.00000000000E+00  0.00000000000E+00  0.42757127508E+03  0.73829696532E+03  0.60188471798E+03 0.  0.
        2    1    3    3  502    0 -0.80448204195E+01 -0.88601308201E+02  0.56643479786E+03  0.57337883741E+03  0.25500000920E-02 0. -1.
       -2    1    3    3    0  502  0.80448204195E+01  0.88601308201E+02 -0.13886352278E+03  0.16491812792E+03  0.25500000920E-02 0.  1.
</event>
<event>
 5   0  0.9303190E-03  0.5993026E+03  0.7818609E-02  0.9906854E-01
        2   -1    0    0  501    0  0.00000000000E+00  0.00000000000E+00  0.16171133821E+04  0.16171133821E+04  0.25500000920E-02 0.  1.
       -2   -1    0    0    0  501  0.00000000000E+00  0.00000000000E+00 -0.55525427983E+02  0.55525428041E+02  0.25500000920E-02 0. -1.
    10030    2    1    2    0    0  0.00000000000E+00  0.00000000000E+00  0.15615879541E+04  0.16726388101E+04  0.59930263703E+03 0.  0.
        4    1    3    3  502    0 -0.14001182571E+03 -0.18320627712E+03  0.13148954057E+04  0.13349604459E+04  0.12699999809E+01 0.  1.
       -4    1    3    3    0  502  0.14001182571E+03  0.18320627712E+03  0.24669254837E+03  0.33767836418E+03  0.12699999809E+01 0. -1.
</event>
<event>
 5   0  0.9028473E-03  0.5998598E+03  0.7818609E-02  0.9905697E-01
       -2   -1    0    0    0  501  0.00000000000E+00  0.00000000000E+00  0.12649267932E+03  0.12649267934E+03  0.25500000920E-02 0.  1.
        2   -1    0    0  501    0  0.00000000000E+00  0.00000000000E+00 -0.71117126760E+03  0.71117126761E+03  0.25500000920E-02 0. -1.
    10030    2    1    2    0    0  0.00000000000E+00  0.00000000000E+00 -0.58467858829E+03  0.83766394695E+03  0.59985984731E+03 0.  0.
        1    1    3    3  502    0  0.98666064375E+02  0.26314102820E+03 -0.43866363464E+03  0.52096446843E+03  0.50400001928E-02 0. -1.
       -1    1    3    3    0  502 -0.98666064375E+02 -0.26314102820E+03 -0.14601495364E+03  0.31669947852E+03  0.50400001928E-02 0.  1.
</event>
<event>
 5   0  0.9162342E-03  0.6007005E+03  0.7818609E-02  0.9903954E-01
       -2   -1    0    0    0  501  0.00000000000E+00  0.00000000000E+00  0.13254592010E+03  0.13254592012E+03  0.25500000920E-02 0. -1.
        2   -1    0    0  501    0  0.00000000000E+00  0.00000000000E+00 -0.68059644778E+03  0.68059644779E+03  0.25500000920E-02 0.  1.
    10030    2    1    2    0    0  0.00000000000E+00  0.00000000000E+00 -0.54805052769E+03  0.81314236791E+03  0.60070053238E+03 0.  0.
        5    1    3    3  502    0 -0.12574790154E+03 -0.18436967325E+03 -0.19992419300E+01  0.22322813022E+03  0.46999998093E+01 0. -1.
       -5    1    3    3    0  502  0.12574790154E+03  0.18436967325E+03 -0.54605128576E+03  0.58991423769E+03  0.46999998093E+01 0.  1.
</event>
<event>
 5   0  0.9391405E-03  0.6000087E+03  0.7818609E-02  0.9905388E-01
       -2   -1    0    0    0  501  0.00000000000E+00  0.00000000000E+00  0.12340416793E+03  0.12340416795E+03  0.25500000920E-02 0.  1.
        2   -1    0    0  501    0  0.00000000000E+00  0.00000000000E+00 -0.72933208680E+03  0.72933208680E+03  0.25500000920E-02 0. -1.
    10030    2    1    2    0    0  0.00000000000E+00  0.00000000000E+00 -0.60592791887E+03  0.85273625476E+03  0.60000873102E+03 0.  0.
        2    1    3    3  502    0  0.33976054192E+02  0.71226353688E+02 -0.71431681349E+03  0.71866269957E+03  0.25500000920E-02 0. -1.
       -2    1    3    3    0  502 -0.33976054192E+02 -0.71226353688E+02  0.10838889461E+03  0.13407355519E+03  0.25500000920E-02 0.  1.
</event>
<event>
 5   0  0.9028473E-03  0.6002381E+03  0.7818609E-02  0.9904912E-01
        2   -1    0    0  501    0  0.00000000000E+00  0.00000000000E+00  0.16982050955E+03  0.16982050957E+03  0.25500000920E-02 0.  1.
       -2   -1    0    0    0  501  0.00000000000E+00  0.00000000000E+00 -0.53039206597E+03  0.53039206598E+03  0.25500000920E-02 0. -1.
    10030    2    1    2    0    0  0.00000000000E+00  0.00000000000E+00 -0.36057155642E+03  0.70021257555E+03  0.60023812246E+03 0.  0.
        1    1    3    3  502    0 -0.96510339329E+02  0.68808710002E+02  0.14135980751E+03  0.18447622984E+03  0.50400001928E-02 0.  1.
       -1    1    3    3    0  502  0.96510339329E+02 -0.68808710002E+02 -0.50193136393E+03  0.51573634571E+03  0.50400001928E-02 0. -1.
</event>
<event>
 5   0  0.5819446E-03  0.6014647E+03  0.7818609E-02  0.9902372E-01
        1   -1    0    0  501    0  0.00000000000E+00  0.00000000000E+00  0.91655265163E+02  0.91655265301E+02  0.50400001928E-02 0.  1.
       -1   -1    0    0    0  501  0.00000000000E+00  0.00000000000E+00 -0.98674043614E+03  0.98674043616E+03  0.50400001928E-02 0. -1.
    10030    2    1    2    0    0  0.00000000000E+00  0.00000000000E+00 -0.89508517098E+03  0.10783957015E+04  0.60146473347E+03 0.  0.
        5    1    3    3  502    0  0.17556591811E+03  0.23513806597E+03 -0.56517651426E+03  0.63683583751E+03  0.46999998093E+01 0. -1.
       -5    1    3    3    0  502 -0.17556591811E+03 -0.23513806597E+03 -0.32990865672E+03  0.44155986395E+03  0.46999998093E+01 0.  1.
</event>
<event>
 5   0  0.5819446E-03  0.6006925E+03  0.7818609E-02  0.9903970E-01
       -1   -1    0    0    0  501  0.00000000000E+00  0.00000000000E+00  0.64597390744E+03  0.64597390746E+03  0.50400001928E-02 0. -1.
        1   -1    0    0  501    0  0.00000000000E+00  0.00000000000E+00 -0.13964629918E+03  0.13964629927E+03  0.50400001928E-02 0.  1.
    10030    2    1    2    0    0  0.00000000000E+00  0.00000000000E+00  0.50632760826E+03  0.78562020672E+03  0.60069248566E+03 0.  0.
        5    1    3    3  502    0 -0.66602194331E+02 -0.18567763139E+03 -0.42983611191E+02  0.20194483385E+03  0.46999998093E+01 0.  1.
       -5    1    3    3    0  502  0.66602194331E+02  0.18567763139E+03  0.54931121945E+03  0.58367537288E+03  0.46999998093E+01 0. -1.
</event>
<event>
 5   0  0.5790967E-03  0.5988709E+03  0.7818609E-02  0.9907751E-01
        1   -1    0    0  501    0  0.00000000000E+00  0.00000000000E+00  0.41311837176E+03  0.41311837179E+03  0.50400001928E-02 0. -1.
       -1   -1    0    0    0  501  0.00000000000E+00  0.00000000000E+00 -0.21703606728E+03  0.21703606733E+03  0.50400001928E-02 0.  1.
    10030    2    1    2    0    0  0.00000000000E+00  0.00000000000E+00  0.19608230448E+03  0.63015443912E+03  0.59887089344E+03 0.  0.
        3    1    3    3  502    0  0.35102559736E+02 -0.95408643526E+02  0.39440358631E+03  0.40729497671E+03  0.10100000352E+00 0. -1.
       -3    1    3    3    0  502 -0.35102559736E+02  0.95408643526E+02 -0.19832128183E+03  0.22285946241E+03  0.10100000352E+00 0.  1.
</event>
<event>
 5   0  0.3806250E-03  0.5996559E+03  0.7818609E-02  0.9906120E-01
       -3   -1    0    0    0  501  0.00000000000E+00  0.00000000000E+00  0.68742891549E+03  0.68742892291E+03  0.10100000352E+00 0. -1.
        3   -1    0    0  501    0  0.00000000000E+00  0.00000000000E+00 -0.13077247606E+03  0.13077251506E+03  0.10100000352E+00 0.  1.
    10030    2    1    2    0    0  0.00000000000E+00  0.00000000000E+00  0.55665643943E+03  0.81820143797E+03  0.59965590261E+03 0.  0.
        3    1    3    3  502    0 -0.20647639689E+03  0.71172120120E+02 -0.19622063311E+01  0.21840749440E+03  0.10100000352E+00 0.  1.
       -3    1    3    3    0  502  0.20647639689E+03 -0.71172120120E+02  0.55861864576E+03  0.59979394358E+03  0.10100000352E+00 0. -1.
</event>
<event>
 5   0  0.9162342E-03  0.5994058E+03  0.7818609E-02  0.9906640E-01
        2   -1    0    0  501    0  0.00000000000E+00  0.00000000000E+00  0.51479824315E+03  0.51479824315E+03  0.25500000920E-02 0. -1.
       -2   -1    0    0    0  501  0.00000000000E+00  0.00000000000E+00 -0.17447968341E+03  0.17447968342E+03  0.25500000920E-02 0.  1.
    10030    2    1    2    0    0  0.00000000000E+00  0.00000000000E+00  0.34031855974E+03  0.68927792658E+03  0.59940582076E+03 0.  0.
        5    1    3    3  502    0 -0.14128627686E+03  0.26366010399E+03  0.14954744613E+03  0.33446224168E+03  0.46999998093E+01 0.  1.
       -5    1    3    3    0  502  0.14128627686E+03 -0.26366010399E+03  0.19077111361E+03  0.35481568490E+03  0.46999998093E+01 0. -1.
</event>
<event>
 5   0  0.5891927E-03  0.6010273E+03  0.7818609E-02  0.9903277E-01
        1   -1    0    0  501    0  0.00000000000E+00  0.00000000000E+00  0.12112359326E+04  0.12112359326E+04  0.50400001928E-02 0.  1.
       -1   -1    0    0    0  501  0.00000000000E+00  0.00000000000E+00 -0.74558922487E+02  0.74558922657E+02  0.50400001928E-02 0. -1.
    10030    2    1    2    0    0  0.00000000000E+00  0.00000000000E+00  0.11366770101E+04  0.12857948552E+04  0.60102727434E+03 0.  0.
        4    1    3    3  502    0  0.12161209756E+03  0.15582793378E+03  0.10525786759E+04  0.10709786782E+04  0.12699999809E+01 0.  1.
       -4    1    3    3    0  502 -0.12161209756E+03 -0.15582793378E+03  0.84098334178E+02  0.21481617707E+03  0.12699999809E+01 0. -1.
</event>
<event>
 5   0  0.9028473E-03  0.6001603E+03  0.7818609E-02  0.9905074E-01
        2   -1    0    0  501    0  0.00000000000E+00  0.00000000000E+00  0.84916048940E+03  0.84916048940E+03  0.25500000920E-02 0.  1.
       -2   -1    0    0    0  501  0.00000000000E+00  0.00000000000E+00 -0.10604367046E+03  0.10604367049E+03  0.25500000920E-02 0. -1.
    10030    2    1    2    0    0  0.00000000000E+00  0.00000000000E+00  0.74311681894E+03  0.95520415990E+03  0.60016029567E+03 0.  0.
        1    1    3    3  502    0 -0.30796970499E+02 -0.20457904369E+03  0.71751078995E+03  0.74674143599E+03  0.50400001928E-02 0.  1.
       -1    1    3    3    0  502  0.30796970499E+02  0.20457904369E+03  0.25606028988E+02  0.20846272390E+03  0.50400001928E-02 0. -1.
</event>
<event>
 5   0  0.3806250E-03  0.5998550E+03  0.7818609E-02  0.9905707E-01
       -3   -1    0    0    0  501  0.00000000000E+00  0.00000000000E+00  0.47229607845E+03  0.47229608925E+03  0.10100000352E+00 0. -1.
        3   -1    0    0  501    0  0.00000000000E+00  0.00000000000E+00 -0.19046630724E+03  0.19046633402E+03  0.10100000352E+00 0.  1.
    10030    2    1    2    0    0  0.00000000000E+00  0.00000000000E+00  0.28182977121E+03  0.66276242327E+03  0.59985499061E+03 0.  0.
        4    1    3    3  502    0 -0.27912913688E+03  0.36566811932E+02  0.25522864335E+03  0.37999142106E+03  0.12699999809E+01 0. -1.
       -4    1    3    3    0  502  0.27912913688E+03 -0.36566811932E+02  0.26601127854E+02  0.28277100221E+03  0.12699999809E+01 0.  1.
</event>
<event>
 5   0  0.9391405E-03  0.5996094E+03  0.7818609E-02  0.9906217E-01
       -2   -1    0    0    0  501  0.00000000000E+00  0.00000000000E+00  0.15293258126E+03  0.15293258128E+03  0.25500000920E-02 0.  1.
        2   -1    0    0  501    0  0.00000000000E+00  0.00000000000E+00 -0.58772873208E+03  0.58772873208E+03  0.25500000920E-02 0. -1.
    10030    2    1    2    0    0  0.00000000000E+00  0.00000000000E+00 -0.43479615082E+03  0.74066131336E+03  0.59960944651E+03 0.  0.
        2    1    3    3  502    0  0.30301410049E+01  0.34465391961E+02 -0.58525446575E+03  0.58627624435E+03  0.25500000920E-02 0. -1.
       -2    1    3    3    0  502 -0.30301410049E+01 -0.34465391961E+02  0.15045831493E+03  0.15438506902E+03  0.25500000920E-02 0.  1.
</event>
<event>
 5   0  0.5819446E-03  0.6034817E+03  0.7818609E-02  0.9898209E-01
        1   -1    0    0  501    0  0.00000000000E+00  0.00000000000E+00  0.14012326138E+04  0.14012326138E+04  0.50400001928E-02 0.  1.
       -1   -1    0    0    0  501  0.00000000000E+00  0.00000000000E+00 -0.64976751169E+02  0.64976751365E+02  0.50400001928E-02 0. -1.
    10030    2    1    2    0    0  0.00000000000E+00  0.00000000000E+00  0.13362558626E+04  0.14662093651E+04  0.60348170818E+03 0.  0.
        5    1    3    3  502    0  0.22770268755E+03  0.11579998710E+03  0.10581294990E+04  0.10885395159E+04  0.46999998093E+01 0.  1.
       -5    1    3    3    0  502 -0.22770268755E+03 -0.11579998710E+03  0.27812636360E+03  0.37766984929E+03  0.46999998093E+01 0. -1.
</event>
<event>
 5   0  0.9303190E-03  0.6014612E+03  0.7818609E-02  0.9902379E-01
       -2   -1    0    0    0  501  0.00000000000E+00  0.00000000000E+00  0.68482510189E+03  0.68482510189E+03  0.25500000920E-02 0.  1.
        2   -1    0    0  501    0  0.00000000000E+00  0.00000000000E+00 -0.13206130550E+03  0.13206130552E+03  0.25500000920E-02 0. -1.
    10030    2    1    2    0    0  0.00000000000E+00  0.00000000000E+00  0.55276379639E+03  0.81688640741E+03  0.60146121073E+03 0.  0.
        4    1    3    3  502    0 -0.70913810830E+02 -0.10177683594E+01 -0.12053720246E+03  0.13985933825E+03  0.12699999809E+01 0. -1.
       -4    1    3    3    0  502  0.70913810830E+02  0.10177683594E+01  0.67330099885E+03  0.67702706916E+03  0.12699999809E+01 0.  1.
</event>
<event>
 5   0  0.9162342E-03  0.5996624E+03  0.7818609E-02  0.9906107E-01
       -2   -1    0    0    0  501  0.00000000000E+00  0.00000000000E+00  0.38952625897E+03  0.38952625898E+03  0.25500000920E-02 0.  1.
        2   -1    0    0  501    0  0.00000000000E+00  0.00000000000E+00 -0.23078995895E+03  0.23078995897E+03  0.25500000920E-02 0. -1.
    10030    2    1    2    0    0  0.00000000000E+00  0.00000000000E+00  0.15873630002E+03  0.62031621795E+03  0.59966240278E+03 0.  0.
        5    1    3    3  502    0  0.59917915819E+02  0.27920325473E+03 -0.15055791435E+02  0.28599542119E+03  0.46999998093E+01 0. -1.
       -5    1    3    3    0  502 -0.59917915819E+02 -0.27920325473E+03  0.17379209145E+03  0.33432079675E+03  0.46999998093E+01 0.  1.
</event>
<event>
 5   0  0.5891927E-03  0.5991234E+03  0.7818609E-02  0.9907226E-01
        1   -1    0    0  501    0  0.00000000000E+00  0.00000000000E+00  0.38042267810E+03  0.38042267813E+03  0.50400001928E-02 0.  1.
       -1   -1    0    0    0  501  0.00000000000E+00  0.00000000000E+00 -0.23588815300E+03  0.23588815306E+03  0.50400001928E-02 0. -1.
    10030    2    1    2    0    0  0.00000000000E+00  0.00000000000E+00  0.14453452510E+03  0.61631083119E+03  0.59912336935E+03 0.  0.
        4    1    3    3  502    0 -0.26987441343E+03 -0.47117994752E+02 -0.52383564076E+02  0.27892284801E+03  0.12699999809E+01 0.  1.
       -4    1    3    3    0  502  0.26987441343E+03  0.47117994752E+02  0.19691808917E+03  0.33738798319E+03  0.12699999809E+01 0. -1.
</event>
<event>
 5   0  0.9028473E-03  0.6012889E+03  0.7818609E-02  0.9902736E-01
       -2   -1    0    0    0  501  0.00000000000E+00  0.00000000000E+00  0.14050581056E+03  0.14050581058E+03  0.25500000920E-02 0.  1.
        2   -1    0    0  501    0  0.00000000000E+00  0.00000000000E+00 -0.64329776551E+03  0.64329776551E+03  0.25500000920E-02 0. -1.
    10030    2    1    2    0    0  0.00000000000E+00  0.00000000000E+00 -0.50279195495E+03  0.78380357609E+03  0.60128886231E+03 0.  0.
        1    1    3    3  502    0  0.13258101175E+03 -0.16980603588E+02  0.99643531358E+02  0.16671802225E+03  0.50400001928E-02 0.  1.
       -1    1    3    3    0  502 -0.13258101175E+03  0.16980603588E+02 -0.60243548631E+03  0.61708555384E+03  0.50400001928E-02 0. -1.
</event>
<event>
 5   0  0.5819446E-03  0.5997301E+03  0.7818609E-02  0.9905966E-01
       -1   -1    0    0    0  501  0.00000000000E+00  0.00000000000E+00  0.50592591938E+02  0.50592592189E+02  0.50400001928E-02 0. -1.
        1   -1    0    0  501    0  0.00000000000E+00  0.00000000000E+00 -0.17773162432E+04  0.17773162432E+04  0.50400001928E-02 0.  1.
    10030    2    1    2    0    0  0.00000000000E+00  0.00000000000E+00 -0.17267236512E+04  0.18279088354E+04  0.59973005818E+03 0.  0.
        5    1    3    3  502    0  0.10311613978E+03 -0.20347293588E+03 -0.27029324362E+03  0.35371556576E+03  0.46999998093E+01 0. -1.
       -5    1    3    3    0  502 -0.10311613978E+03  0.20347293588E+03 -0.14564304076E+04  0.14741932696E+04  0.46999998093E+01 0.  1.
</event>
<event>
 5   0  0.5765045E-03  0.5997378E+03  0.7818609E-02  0.9905950E-01
        1   -1    0    0  501    0  0.00000000000E+00  0.00000000000E+00  0.82323631572E+03  0.82323631573E+03  0.50400001928E-02 0.  1.
       -1   -1    0    0    0  501  0.00000000000E+00  0.00000000000E+00 -0.10922909074E+03  0.10922909086E+03  0.50400001928E-02 0. -1.
    10030    2    1    2    0    0  0.00000000000E+00  0.00000000000E+00  0.71400722498E+03  0.93246540659E+03  0.59973779035E+03 0.  0.
        1    1    3    3  502    0  0.66049330990E+02  0.13890236732E+03  0.75723700926E+03  0.77269933997E+03  0.50400001928E-02 0.  1.
       -1    1    3    3    0  502 -0.66049330990E+02 -0.13890236732E+03 -0.43229784279E+02  0.15976606663E+03  0.50400001928E-02 0. -1.
</event>
<event>
 5   0  0.5790967E-03  0.5989550E+03  0.7818609E-02  0.9907576E-01
       -1   -1    0    0    0  501  0.00000000000E+00  0.00000000000E+00  0.18805511731E+03  0.18805511738E+03  0.50400001928E-02 0.  1.
        1   -1    0    0  501    0  0.00000000000E+00  0.00000000000E+00 -0.47691751779E+03  0.47691751782E+03  0.50400001928E-02 0. -1.
    10030    2    1    2    0    0  0.00000000000E+00  0.00000000000E+00 -0.28886240048E+03  0.66497263520E+03  0.59895502264E+03 0.  0.
        3    1    3    3  502    0  0.23818540796E+02  0.25887618327E+03 -0.30948705521E+03  0.40418615599E+03  0.10100000352E+00 0. -1.
       -3    1    3    3    0  502 -0.23818540796E+02 -0.25887618327E+03  0.20624654729E+02  0.26078647920E+03  0.10100000352E+00 0.  1.
</event>
<event>
 5   0  0.5891927E-03  0.6004064E+03  0.7818609E-02  0.9904563E-01
       -1   -1    0    0    0  501  0.00000000000E+00  0.00000000000E+00  0.17555825836E+03  0.17555825843E+03  0.50400001928E-02 0. -1.
        1   -1    0    0  501    0  0.00000000000E+00  0.00000000000E+00 -0.51334508325E+03  0.51334508327E+03  0.50400001928E-02 0.  1.
    10030    2    1    2    0    0  0.00000000000E+00  0.00000000000E+00 -0.33778682489E+03  0.68890334171E+03  0.60040642497E+03 0.  0.
        4    1    3    3  502    0 -0.20212710521E+03 -0.21716941349E+03 -0.22150413380E+03  0.37024804524E+03  0.12699999809E+01 0.  1.
       -4    1    3    3    0  502  0.20212710521E+03  0.21716941349E+03 -0.11628269109E+03  0.31865529646E+03  0.12699999809E+01 0. -1.
</event>
<event>
 5   0  0.9822607E-03  0.5996946E+03  0.7818609E-02  0.9906040E-01
       -2   -1    0    0    0  501  0.00000000000E+00  0.00000000000E+00  0.31684275415E+03  0.31684275416E+03  0.25500000920E-02 0. -1.
        2   -1    0    0  501    0  0.00000000000E+00  0.00000000000E+00 -0.28376347769E+03  0.28376347770E+03  0.25500000920E-02 0.  1.
    10030    2    1    2    0    0  0.00000000000E+00  0.00000000000E+00  0.33079276457E+02  0.60060623186E+03  0.59969459496E+03 0.  0.
        3    1    3    3  502    0  0.21130754497E+03 -0.14526214609E+03 -0.13911999511E+03  0.29172993142E+03  0.10100000352E+00 0. -1.
       -3    1    3    3    0  502 -0.21130754497E+03  0.14526214609E+03  0.17219927157E+03  0.30887630044E+03  0.10100000352E+00 0.  1.
</event>
<event>
 5   0  0.5819446E-03  0.5987177E+03  0.7818609E-02  0.9908070E-01
       -1   -1    0    0    0  501  0.00000000000E+00  0.00000000000E+00  0.78413662263E+02  0.78413662425E+02  0.50400001928E-02 0. -1.
        1   -1    0    0  501    0  0.00000000000E+00  0.00000000000E+00 -0.11428583554E+04  0.11428583554E+04  0.50400001928E-02 0.  1.
    10030    2    1    2    0    0  0.00000000000E+00  0.00000000000E+00 -0.10644446931E+04  0.12212720178E+04  0.59871766034E+03 0.  0.
        5    1    3    3  502    0  0.25958783608E+03 -0.80170176217E+02 -0.78846472520E+03  0.83397350958E+03  0.46999998093E+01 0.  1.
       -5    1    3    3    0  502 -0.25958783608E+03  0.80170176217E+02 -0.27597996794E+03  0.38729850826E+03  0.46999998093E+01 0. -1.
</event>
<event>
 5   0  0.9822607E-03  0.6011138E+03  0.7818609E-02  0.9903098E-01
        2   -1    0    0  501    0  0.00000000000E+00  0.00000000000E+00  0.86793945366E+03  0.86793945366E+03  0.25500000920E-02 0. -1.
       -2   -1    0    0    0  501  0.00000000000E+00  0.00000000000E+00 -0.10407921823E+03  0.10407921826E+03  0.25500000920E-02 0.  1.
    10030    2    1    2    0    0  0.00000000000E+00  0.00000000000E+00  0.76386023543E+03  0.97201867192E+03  0.60111383222E+03 0.  0.
        3    1    3    3  502    0  0.12534171201E+03 -0.26327254973E+03  0.26408130052E+03  0.39339792030E+03  0.10100000352E+00 0. -1.
       -3    1    3    3    0  502 -0.12534171201E+03  0.26327254973E+03  0.49977893492E+03  0.57862075162E+03  0.10100000352E+00 0.  1.
</event>
<event>
 5   0  0.9162342E-03  0.6005334E+03  0.7818609E-02  0.9904300E-01
       -2   -1    0    0    0  501  0.00000000000E+00  0.00000000000E+00  0.13586592388E+03  0.13586592391E+03  0.25500000920E-02 0. -1.
        2   -1    0    0  501    0  0.00000000000E+00  0.00000000000E+00 -0.66359611950E+03  0.66359611950E+03  0.25500000920E-02 0.  1.
    10030    2    1    2    0    0  0.00000000000E+00  0.00000000000E+00 -0.52773019562E+03  0.79946204341E+03  0.60053342912E+03 0.  0.
        5    1    3    3  502    0 -0.75131938520E+02 -0.16848335926E+03  0.51466491753E+02  0.19157854866E+03  0.46999998093E+01 0. -1.
       -5    1    3    3    0  502  0.75131938520E+02  0.16848335926E+03 -0.57919668737E+03  0.60788349475E+03  0.46999998093E+01 0.  1.
</event>
<event>
 5   0  0.6078658E-03  0.5958532E+03  0.7818609E-02  0.9914047E-01
        1   -1    0    0  501    0  0.00000000000E+00  0.00000000000E+00  0.18804912474E+03  0.18804912481E+03  0.50400001928E-02 0.  1.
       -1   -1    0    0    0  501  0.00000000000E+00  0.00000000000E+00 -0.47200576889E+03  0.47200576892E+03  0.50400001928E-02 0. -1.
    10030    2    1    2    0    0  0.00000000000E+00  0.00000000000E+00 -0.28395664415E+03  0.66005489373E+03  0.59585324282E+03 0.  0.
        2    1    3    3  502    0  0.12713716288E+03 -0.43411225756E+02 -0.43654725196E+03  0.45675145966E+03  0.25500000920E-02 0. -1.
       -2    1    3    3    0  502 -0.12713716288E+03  0.43411225756E+02  0.15259060780E+03  0.20330343406E+03  0.25500000920E-02 0.  1.
</event>
<event>
 5   0  0.5891927E-03  0.6001981E+03  0.7818609E-02  0.9904995E-01
       -1   -1    0    0    0  501  0.00000000000E+00  0.00000000000E+00  0.13826656558E+03  0.13826656567E+03  0.50400001928E-02 0.  1.
        1   -1    0    0  501    0  0.00000000000E+00  0.00000000000E+00 -0.65134651355E+03  0.65134651357E+03  0.50400001928E-02 0. -1.
    10030    2    1    2    0    0  0.00000000000E+00  0.00000000000E+00 -0.51307994797E+03  0.78961307924E+03  0.60019811886E+03 0.  0.
        4    1    3    3  502    0 -0.25045555773E+03  0.15801782325E+03 -0.19262606677E+03  0.35327614321E+03  0.12699999809E+01 0.  1.
       -4    1    3    3    0  502  0.25045555773E+03 -0.15801782325E+03 -0.32045388121E+03  0.43633693603E+03  0.12699999809E+01 0. -1.
</event>
<event>
 5   0  0.9391405E-03  0.6003204E+03  0.7818609E-02  0.9904742E-01
       -2   -1    0    0    0  501  0.00000000000E+00  0.00000000000E+00  0.11716561646E+04  0.11716561646E+04  0.25500000920E-02 0.  1.
        2   -1    0    0  501    0  0.00000000000E+00  0.00000000000E+00 -0.76896395435E+02  0.76896395478E+02  0.25500000920E-02 0. -1.
    10030    2    1    2    0    0  0.00000000000E+00  0.00000000000E+00  0.10947597692E+04  0.12485525601E+04  0.60032036706E+03 0.  0.
        2    1    3    3  502    0  0.28629828233E+03 -0.44961878556E+02  0.70992287491E+03  0.76679773429E+03  0.25500000920E-02 0.  1.
       -2    1    3    3    0  502 -0.28629828233E+03  0.44961878556E+02  0.38483689428E+03  0.48175482581E+03  0.25500000920E-02 0. -1.
</event>
<event>
 5   0  0.9822607E-03  0.6001189E+03  0.7818609E-02  0.9905159E-01
        2   -1    0    0  501    0  0.00000000000E+00  0.00000000000E+00  0.61457173514E+03  0.61457173515E+03  0.25500000920E-02 0.  1.
       -2   -1    0    0    0  501  0.00000000000E+00  0.00000000000E+00 -0.14650147173E+03  0.14650147175E+03  0.25500000920E-02 0. -1.
    10030    2    1    2    0    0  0.00000000000E+00  0.00000000000E+00  0.46807026341E+03  0.76107320690E+03  0.60011886720E+03 0.  0.
        3    1    3    3  502    0  0.16183818296E+03 -0.15780626813E+03 -0.16226359577E+02  0.22662241874E+03  0.10100000352E+00 0. -1.
       -3    1    3    3    0  502 -0.16183818296E+03  0.15780626813E+03  0.48429662299E+03  0.53445078816E+03  0.10100000352E+00 0.  1.
</event>
<event>
 5   0  0.5765045E-03  0.6085622E+03  0.7818609E-02  0.9887800E-01
       -1   -1    0    0    0  501  0.00000000000E+00  0.00000000000E+00  0.10047902311E+03  0.10047902324E+03  0.50400001928E-02 0.  1.
        1   -1    0    0  501    0  0.00000000000E+00  0.00000000000E+00 -0.92145584009E+03  0.92145584010E+03  0.50400001928E-02 0. -1.
    10030    2    1    2    0    0  0.00000000000E+00  0.00000000000E+00 -0.82097681697E+03  0.10219348633E+04  0.60856218327E+03 0.  0.
        1    1    3    3  502    0 -0.20891762965E+03 -0.20345433285E+03 -0.55636915655E+03  0.62816150783E+03  0.50400001928E-02 0. -1.
       -1    1    3    3    0  502  0.20891762965E+03  0.20345433285E+03 -0.26460766043E+03  0.39377335552E+03  0.50400001928E-02 0.  1.
</event>
<event>
 5   0  0.9162342E-03  0.6001880E+03  0.7818609E-02  0.9905016E-01
       -2   -1    0    0    0  501  0.00000000000E+00  0.00000000000E+00  0.22056366516E+03  0.22056366518E+03  0.25500000920E-02 0.  1.
        2   -1    0    0  501    0  0.00000000000E+00  0.00000000000E+00 -0.40830121827E+03  0.40830121828E+03  0.25500000920E-02 0. -1.
    10030    2    1    2    0    0  0.00000000000E+00  0.00000000000E+00 -0.18773755311E+03  0.62886488345E+03  0.60018801454E+03 0.  0.
        5    1    3    3  502    0 -0.11708896385E+03  0.30070857015E+02 -0.38161788332E+03  0.40033533539E+03  0.46999998093E+01 0. -1.
       -5    1    3    3    0  502  0.11708896385E+03 -0.30070857015E+02  0.19388033021E+03  0.22852954806E+03  0.46999998093E+01 0.  1.
</event>
<event>
 5   0  0.5891927E-03  0.5988140E+03  0.7818609E-02  0.9907870E-01
       -1   -1    0    0    0  501  0.00000000000E+00  0.00000000000E+00  0.11805828536E+03  0.11805828547E+03  0.50400001928E-02 0.  1.
        1   -1    0    0  501    0  0.00000000000E+00  0.00000000000E+00 -0.75932462011E+03  0.75932462012E+03  0.50400001928E-02 0. -1.
    10030    2    1    2    0    0  0.00000000000E+00  0.00000000000E+00 -0.64126633475E+03  0.87738290559E+03  0.59881403703E+03 0.  0.
        4    1    3    3  502    0 -0.13849859608E+03  0.17459328639E+03 -0.27672570763E+02  0.22457083702E+03  0.12699999809E+01 0.  1.
       -4    1    3    3    0  502  0.13849859608E+03 -0.17459328639E+03 -0.61359376398E+03  0.65281206857E+03  0.12699999809E+01 0. -1.
</event>
<event>
 5   0  0.5819446E-03  0.5991288E+03  0.7818609E-02  0.9907215E-01
        1   -1    0    0  501    0  0.00000000000E+00  0.00000000000E+00  0.14116691164E+03  0.14116691173E+03  0.50400001928E-02 0.  1.
       -1   -1    0    0    0  501  0.00000000000E+00  0.00000000000E+00 -0.63569312095E+03  0.63569312097E+03  0.50400001928E-02 0. -1.
    10030    2    1    2    0    0  0.00000000000E+00  0.00000000000E+00 -0.49452620931E+03  0.77686003270E+03  0.59912881646E+03 0.  0.
        5    1    3    3  502    0  0.19580899925E+03 -0.18996047487E+00  0.46637709264E+02  0.20134141699E+03  0.46999998093E+01 0.  1.
       -5    1    3    3    0  502 -0.19580899925E+03  0.18996047487E+00 -0.54116391857E+03  0.57551861571E+03  0.46999998093E+01 0. -1.
</event>
<event>
 5   0  0.9391405E-03  0.6030039E+03  0.7818609E-02  0.9899194E-01
       -2   -1    0    0    0  501  0.00000000000E+00  0.00000000000E+00  0.38239620578E+03  0.38239620579E+03  0.25500000920E-02 0. -1.
        2   -1    0    0  501    0  0.00000000000E+00  0.00000000000E+00 -0.23772049689E+03  0.23772049690E+03  0.25500000920E-02 0.  1.
    10030    2    1    2    0    0  0.00000000000E+00  0.00000000000E+00  0.14467570890E+03  0.62011670269E+03  0.60300386749E+03 0.  0.
        2    1    3    3  502    0  0.27095475606E+03 -0.10670882629E+03  0.15265791688E+03  0.32879734341E+03  0.25500000920E-02 0. -1.
       -2    1    3    3    0  502 -0.27095475606E+03  0.10670882629E+03 -0.79822079868E+01  0.29131935928E+03  0.25500000920E-02 0.  1.
</event>
<event>
 5   0  0.5765045E-03  0.6010212E+03  0.7818609E-02  0.9903290E-01
        1   -1    0    0  501    0  0.00000000000E+00  0.00000000000E+00  0.40760445280E+03  0.40760445283E+03  0.50400001928E-02 0. -1.
       -1   -1    0    0    0  501  0.00000000000E+00  0.00000000000E+00 -0.22155455893E+03  0.22155455898E+03  0.50400001928E-02 0.  1.
    10030    2    1    2    0    0  0.00000000000E+00  0.00000000000E+00  0.18604989387E+03  0.62915901181E+03  0.60102121355E+03 0.  0.
        1    1    3    3  502    0 -0.35676297220E+02  0.59285730538E+01  0.40531805490E+03  0.40692833745E+03  0.50400001928E-02 0. -1.
       -1    1    3    3    0  502  0.35676297220E+02 -0.59285730538E+01 -0.21926816103E+03  0.22223067437E+03  0.50400001928E-02 0.  1.
</event>
<event>
 5   0  0.6078658E-03  0.5957640E+03  0.7818609E-02  0.9914233E-01
        1   -1    0    0  501    0  0.00000000000E+00  0.00000000000E+00  0.24456271886E+03  0.24456271891E+03  0.50400001928E-02 0.  1.
       -1   -1    0    0    0  501  0.00000000000E+00  0.00000000000E+00 -0.36282593895E+03  0.36282593898E+03  0.50400001928E-02 0. -1.
    10030    2    1    2    0    0  0.00000000000E+00  0.00000000000E+00 -0.11826322009E+03  0.60738865790E+03  0.59576404097E+03 0.  0.
        2    1    3    3  502    0 -0.43792134856E+02  0.82778100909E+02 -0.34742781240E+03  0.35982780590E+03  0.25500000920E-02 0. -1.
       -2    1    3    3    0  502  0.43792134856E+02 -0.82778100909E+02  0.22916459231E+03  0.24756085199E+03  0.25500000920E-02 0.  1.
</event>
<event>
 5   0  0.9162342E-03  0.5998797E+03  0.7818609E-02  0.9905656E-01
        2   -1    0    0  501    0  0.00000000000E+00  0.00000000000E+00  0.42444241464E+03  0.42444241465E+03  0.25500000920E-02 0.  1.
       -2   -1    0    0    0  501  0.00000000000E+00  0.00000000000E+00 -0.21195788847E+03  0.21195788848E+03  0.25500000920E-02 0. -1.
    10030    2    1    2    0    0  0.00000000000E+00  0.00000000000E+00  0.21248452617E+03  0.63640030313E+03  0.59987971457E+03 0.  0.
        5    1    3    3  502    0 -0.73721826400E+02  0.25215249224E+03  0.25970740213E+03  0.36943986216E+03  0.46999998093E+01 0.  1.
       -5    1    3    3    0  502  0.73721826400E+02 -0.25215249224E+03 -0.47222875958E+02  0.26696044097E+03  0.46999998093E+01 0. -1.
</event>
<event>
 5   0  0.9303190E-03  0.5995932E+03  0.7818609E-02  0.9906250E-01
        2   -1    0    0  501    0  0.00000000000E+00  0.00000000000E+00  0.10475431549E+04  0.10475431549E+04  0.25500000920E-02 0.  1.
       -2   -1    0    0    0  501  0.00000000000E+00  0.00000000000E+00 -0.85798851323E+02  0.85798851361E+02  0.25500000920E-02 0. -1.
    10030    2    1    2    0    0  0.00000000000E+00  0.00000000000E+00  0.96174430355E+03  0.11333420062E+04  0.59959319350E+03 0.  0.
        4    1    3    3  502    0 -0.25785640170E+03 -0.40068446166E+02  0.75983285048E+03  0.80339465883E+03  0.12699999809E+01 0.  1.
       -4    1    3    3    0  502  0.25785640170E+03  0.40068446166E+02  0.20191145307E+03  0.32994734740E+03  0.12699999809E+01 0. -1.
</event>
<event>
 5   0  0.6078658E-03  0.5907095E+03  0.7818609E-02  0.9924871E-01
        1   -1    0    0  501    0  0.00000000000E+00  0.00000000000E+00  0.43413121074E+03  0.43413121077E+03  0.50400001928E-02 0.  1.
       -1   -1    0    0    0  501  0.00000000000E+00  0.00000000000E+00 -0.20094020794E+03  0.20094020801E+03  0.50400001928E-02 0. -1.
    10030    2    1    2    0    0  0.00000000000E+00  0.00000000000E+00  0.23319100279E+03  0.63507141877E+03  0.59070945748E+03 0.  0.
        2    1    3    3  502    0 -0.12898958050E+03  0.29642853383E+02  0.40046534009E+03  0.42176948592E+03  0.25500000920E-02 0.  1.
       -2    1    3    3    0  502  0.12898958050E+03 -0.29642853383E+02 -0.16727433729E+03  0.21330193285E+03  0.25500000920E-02 0. -1.
</event>
<event>
 5   0  0.5790967E-03  0.6007197E+03  0.7818609E-02  0.9903914E-01
        1   -1    0    0  501    0  0.00000000000E+00  0.00000000000E+00  0.34590408760E+03  0.34590408764E+03  0.50400001928E-02 0.  1.
       -1   -1    0    0    0  501  0.00000000000E+00  0.00000000000E+00 -0.26081226496E+03  0.26081226501E+03  0.50400001928E-02 0. -1.
    10030    2    1    2    0    0  0.00000000000E+00  0.00000000000E+00  0.85091822640E+02  0.60671635264E+03  0.60071966364E+03 0.  0.
        3    1    3    3  502    0 -0.25366650357E+03 -0.14764356393E+03 -0.21893041463E+02  0.29432062868E+03  0.10100000352E+00 0.  1.
       -3    1    3    3    0  502  0.25366650357E+03  0.14764356393E+03  0.10698486410E+03  0.31239572396E+03  0.10100000352E+00 0. -1.
</event>
<event>
 5   0  0.6078658E-03  0.6003660E+03  0.7818609E-02  0.9904647E-01
       -1   -1    0    0    0  501  0.00000000000E+00  0.00000000000E+00  0.11453428831E+03  0.11453428842E+03  0.50400001928E-02 0.  1.
        1   -1    0    0  501    0  0.00000000000E+00  0.00000000000E+00 -0.78674990142E+03  0.78674990143E+03  0.50400001928E-02 0. -1.
    10030    2    1    2    0    0  0.00000000000E+00  0.00000000000E+00 -0.67221561311E+03  0.90128418986E+03  0.60036602201E+03 0.  0.
        2    1    3    3  502    0 -0.10898578384E+03 -0.16356089386E+03  0.45073423081E+01  0.19659700715E+03  0.25500000920E-02 0.  1.
       -2    1    3    3    0  502  0.10898578384E+03  0.16356089386E+03 -0.67672295541E+03  0.70468718271E+03  0.25500000920E-02 0. -1.
</event>
<event>
 5   0  0.9822607E-03  0.5978693E+03  0.7818609E-02  0.9909837E-01
        2   -1    0    0  501    0  0.00000000000E+00  0.00000000000E+00  0.70617210780E+03  0.70617210781E+03  0.25500000920E-02 0.  1.
       -2   -1    0    0    0  501  0.00000000000E+00  0.00000000000E+00 -0.12654409618E+03  0.12654409620E+03  0.25500000920E-02 0. -1.
    10030    2    1    2    0    0  0.00000000000E+00  0.00000000000E+00  0.57962801163E+03  0.83271620401E+03  0.59786925373E+03 0.  0.
        3    1    3    3  502    0 -0.58719847263E+02 -0.28865227214E+03  0.21887999115E+03  0.36698312686E+03  0.10100000352E+00 0.  1.
       -3    1    3    3    0  502  0.58719847263E+02  0.28865227214E+03  0.36074802048E+03  0.46573307715E+03  0.10100000352E+00 0. -1.
</event>
<event>
 5   0  0.5819446E-03  0.5985340E+03  0.7818609E-02  0.9908452E-01
        1   -1    0    0  501    0  0.00000000000E+00  0.00000000000E+00  0.21463009412E+03  0.21463009417E+03  0.50400001928E-02 0. -1.
       -1   -1    0    0    0  501  0.00000000000E+00  0.00000000000E+00 -0.41727945629E+03  0.41727945632E+03  0.50400001928E-02 0.  1.
    10030    2    1    2    0    0  0.00000000000E+00  0.00000000000E+00 -0.20264936218E+03  0.63190955050E+03  0.59853397232E+03 0.  0.
        5    1    3    3  502    0  0.32887452039E+01 -0.17184826211E+03  0.15727456501E+03  0.23302364651E+03  0.46999998093E+01 0. -1.
       -5    1    3    3    0  502 -0.32887452039E+01  0.17184826211E+03 -0.35992392719E+03  0.39888590399E+03  0.46999998093E+01 0.  1.
</event>
<event>
 5   0  0.5891927E-03  0.5992746E+03  0.7818609E-02  0.9906912E-01
        1   -1    0    0  501    0  0.00000000000E+00  0.00000000000E+00  0.60753181376E+03  0.60753181378E+03  0.50400001928E-02 0.  1.
       -1   -1    0    0    0  501  0.00000000000E+00  0.00000000000E+00 -0.14778241404E+03  0.14778241413E+03  0.50400001928E-02 0. -1.
    10030    2    1    2    0    0  0.00000000000E+00  0.00000000000E+00  0.45974939971E+03  0.75531422791E+03  0.59927462181E+03 0.  0.
        4    1    3    3  502    0 -0.14562752830E+03 -0.22531531306E+03  0.61688048735E+02  0.27528420870E+03  0.12699999809E+01 0. -1.
       -4    1    3    3    0  502  0.14562752830E+03  0.22531531306E+03  0.39806135098E+03  0.48003001921E+03  0.12699999809E+01 0.  1.
</event>
<event>
 5   0  0.5765045E-03  0.6001147E+03  0.7818609E-02  0.9905168E-01
       -1   -1    0    0    0  501  0.00000000000E+00  0.00000000000E+00  0.24024283004E+03  0.24024283009E+03  0.50400001928E-02 0. -1.
        1   -1    0    0  501    0  0.00000000000E+00  0.00000000000E+00 -0.37476423503E+03  0.37476423506E+03  0.50400001928E-02 0.  1.
    10030    2    1    2    0    0  0.00000000000E+00  0.00000000000E+00 -0.13452140499E+03  0.61500706516E+03  0.60011472386E+03 0.  0.
        1    1    3    3  502    0  0.15572779017E+03  0.23653631303E+03  0.34365939867E+02  0.28527458678E+03  0.50400001928E-02 0. -1.
       -1    1    3    3    0  502 -0.15572779017E+03 -0.23653631303E+03 -0.16888734486E+03  0.32973247837E+03  0.50400001928E-02 0.  1.
</event>
<event>
 5   0  0.9028473E-03  0.5990213E+03  0.7818609E-02  0.9907439E-01
        2   -1    0    0  501    0  0.00000000000E+00  0.00000000000E+00  0.10754361332E+04  0.10754361332E+04  0.25500000920E-02 0.  1.
       -2   -1    0    0    0  501  0.00000000000E+00  0.00000000000E+00 -0.83414197111E+02  0.83414197150E+02  0.25500000920E-02 0. -1.
    10030    2    1    2    0    0  0.00000000000E+00  0.00000000000E+00  0.99202193612E+03  0.11588503304E+04  0.59902134059E+03 0.  0.
        1    1    3    3  502    0 -0.95524988350E+02 -0.14651530125E+03  0.25647615056E+02  0.17677544254E+03  0.50400001928E-02 0. -1.
       -1    1    3    3    0  502  0.95524988350E+02  0.14651530125E+03  0.96637432107E+03  0.98207488785E+03  0.50400001928E-02 0.  1.
</event>
<event>
 5   0  0.5765045E-03  0.5995164E+03  0.7818609E-02  0.9906410E-01
       -1   -1    0    0    0  501  0.00000000000E+00  0.00000000000E+00  0.10804327567E+03  0.10804327579E+03  0.50400001928E-02 0.  1.
        1   -1    0    0  501    0  0.00000000000E+00  0.00000000000E+00 -0.83165721692E+03  0.83165721694E+03  0.50400001928E-02 0. -1.
    10030    2    1    2    0    0  0.00000000000E+00  0.00000000000E+00 -0.72361394125E+03  0.93970049273E+03  0.59951637180E+03 0.  0.
        1    1    3    3  502    0  0.91818082640E+02 -0.20079075762E+03 -0.67960327410E+03  0.71456847036E+03  0.50400001928E-02 0. -1.
       -1    1    3    3    0  502 -0.91818082640E+02  0.20079075762E+03 -0.44010667150E+02  0.22513202236E+03  0.50400001928E-02 0.  1.
</event>
<event>
 5   0  0.9822607E-03  0.5994405E+03  0.7818609E-02  0.9906567E-01
        2   -1    0    0  501    0  0.00000000000E+00  0.00000000000E+00  0.73303130065E+03  0.73303130065E+03  0.25500000920E-02 0. -1.
       -2   -1    0    0    0  501  0.00000000000E+00  0.00000000000E+00 -0.12254897946E+03  0.12254897949E+03  0.25500000920E-02 0.  1.
    10030    2    1    2    0    0  0.00000000000E+00  0.00000000000E+00  0.61048232118E+03  0.85558028014E+03  0.59944053190E+03 0.  0.
        3    1    3    3  502    0  0.21653274024E+03 -0.42696770966E+02  0.59467941138E+03  0.63431305707E+03  0.10100000352E+00 0. -1.
       -3    1    3    3    0  502 -0.21653274024E+03  0.42696770966E+02  0.15802909806E+02  0.22126722307E+03  0.10100000352E+00 0.  1.
</event>
<event>
 5   0  0.9822607E-03  0.6009193E+03  0.7818609E-02  0.9903501E-01
        2   -1    0    0  501    0  0.00000000000E+00  0.00000000000E+00  0.12837535959E+04  0.12837535960E+04  0.25500000920E-02 0.  1.
       -2   -1    0    0    0  501  0.00000000000E+00  0.00000000000E+00 -0.70321906318E+02  0.70321906364E+02  0.25500000920E-02 0. -1.
    10030    2    1    2    0    0  0.00000000000E+00  0.00000000000E+00  0.12134316896E+04  0.13540755023E+04  0.60091929622E+03 0.  0.
        3    1    3    3  502    0 -0.20413449201E+03  0.11822975656E+03  0.10260237589E+04  0.10527933939E+04  0.10100000352E+00 0.  1.
       -3    1    3    3    0  502  0.20413449201E+03 -0.11822975656E+03  0.18740793074E+03  0.30128210845E+03  0.10100000352E+00 0. -1.
</event>
<event>
 5   0  0.9303190E-03  0.6003454E+03  0.7818609E-02  0.9904690E-01
        2   -1    0    0  501    0  0.00000000000E+00  0.00000000000E+00  0.58998411406E+03  0.58998411406E+03  0.25500000920E-02 0. -1.
       -2   -1    0    0    0  501  0.00000000000E+00  0.00000000000E+00 -0.15272215640E+03  0.15272215642E+03  0.25500000920E-02 0.  1.
    10030    2    1    2    0    0  0.00000000000E+00  0.00000000000E+00  0.43726195766E+03  0.74270627049E+03  0.60034538776E+03 0.  0.
        4    1    3    3  502    0  0.12314066616E+03 -0.21126815225E+02  0.55628422201E+03  0.57014359116E+03  0.12699999809E+01 0. -1.
       -4    1    3    3    0  502 -0.12314066616E+03  0.21126815225E+02 -0.11902226436E+03  0.17256267932E+03  0.12699999809E+01 0.  1.
</event>
<event>
 5   0  0.5790967E-03  0.5987494E+03  0.7818609E-02  0.9908004E-01
       -1   -1    0    0    0  501  0.00000000000E+00  0.00000000000E+00  0.92733266295E+02  0.92733266432E+02  0.50400001928E-02 0. -1.
        1   -1    0    0  501    0  0.00000000000E+00  0.00000000000E+00 -0.96648384071E+03  0.96648384072E+03  0.50400001928E-02 0.  1.
    10030    2    1    2    0    0  0.00000000000E+00  0.00000000000E+00 -0.87375057441E+03  0.10592171072E+04  0.59874937478E+03 0.  0.
        3    1    3    3  502    0 -0.37711990301E+01  0.25499669105E+03 -0.71427020680E+03  0.75843224675E+03  0.10100000352E+00 0.  1.
       -3    1    3    3    0  502  0.37711990301E+01 -0.25499669105E+03 -0.15948036761E+03  0.30078486040E+03  0.10100000352E+00 0. -1.
</event>
<event>
 5   0  0.9303190E-03  0.6031741E+03  0.7818609E-02  0.9898843E-01
       -2   -1    0    0    0  501  0.00000000000E+00  0.00000000000E+00  0.15291665605E+03  0.15291665608E+03  0.25500000920E-02 0. -1.
        2   -1    0    0  501    0  0.00000000000E+00  0.00000000000E+00 -0.59479952564E+03  0.59479952565E+03  0.25500000920E-02 0.  1.
    10030    2    1    2    0    0  0.00000000000E+00  0.00000000000E+00 -0.44188286959E+03  0.74771618172E+03  0.60317411912E+03 0.  0.
        4    1    3    3  502    0  0.10510720170E+03 -0.97888562718E+02  0.10779221085E+03  0.17958415348E+03  0.12699999809E+01 0. -1.
       -4    1    3    3    0  502 -0.10510720170E+03  0.97888562718E+02 -0.54967508044E+03  0.56813202824E+03  0.12699999809E+01 0.  1.
</event>
<event>
 5   0  0.5819446E-03  0.5997326E+03  0.7818609E-02  0.9905961E-01
       -1   -1    0    0    0  501  0.00000000000E+00  0.00000000000E+00  0.25961143891E+03  0.25961143896E+03  0.50400001928E-02 0.  1.
        1   -1    0    0  501    0  0.00000000000E+00  0.00000000000E+00 -0.34636299852E+03  0.34636299856E+03  0.50400001928E-02 0. -1.
    10030    2    1    2    0    0  0.00000000000E+00  0.00000000000E+00 -0.86751559615E+02  0.60597443751E+03  0.59973259527E+03 0.  0.
        5    1    3    3  502    0 -0.85041519739E+02  0.23205841465E+03  0.12813936946E+03  0.27843303664E+03  0.46999998093E+01 0.  1.
       -5    1    3    3    0  502  0.85041519739E+02 -0.23205841465E+03 -0.21489092908E+03  0.32754140087E+03  0.46999998093E+01 0. -1.
</event>
<event>
 5   0  0.9028473E-03  0.6007408E+03  0.7818609E-02  0.9903870E-01
       -2   -1    0    0    0  501  0.00000000000E+00  0.00000000000E+00  0.69500394606E+02  0.69500394653E+02  0.25500000920E-02 0.  1.
        2   -1    0    0  501    0  0.00000000000E+00  0.00000000000E+00 -0.12981562323E+04  0.12981562323E+04  0.25500000920E-02 0. -1.
    10030    2    1    2    0    0  0.00000000000E+00  0.00000000000E+00 -0.12286558377E+04  0.13676566270E+04  0.60074077750E+03 0.  0.
        1    1    3    3  502    0  0.11635315551E+03 -0.17621925919E+03 -0.12800989479E+03  0.24693686905E+03  0.50400001928E-02 0.  1.
       -1    1    3    3    0  502 -0.11635315551E+03  0.17621925919E+03 -0.11006459429E+04  0.11207197579E+04  0.50400001928E-02 0. -1.
</event>
<event>
 5   0  0.3806250E-03  0.6000402E+03  0.7818609E-02  0.9905323E-01
       -4   -1    0    0    0  501  0.00000000000E+00  0.00000000000E+00  0.31459578878E+03  0.31459835222E+03  0.12699999809E+01 0.  1.
        4   -1    0    0  501    0  0.00000000000E+00  0.00000000000E+00 -0.28611456251E+03  0.28611738113E+03  0.12699999809E+01 0. -1.
    10030    2    1    2    0    0  0.00000000000E+00  0.00000000000E+00  0.28481226267E+02  0.60071573334E+03  0.60004017535E+03 0.  0.
        5    1    3    3  502    0 -0.58335228487E+00 -0.29646931407E+03  0.60069531893E+02  0.30253071438E+03  0.46999998093E+01 0.  1.
       -5    1    3    3    0  502  0.58335228487E+00  0.29646931407E+03 -0.31588305626E+02  0.29818501896E+03  0.46999998093E+01 0. -1.
</event>
<event>
 5   0  0.9162342E-03  0.5981186E+03  0.7818609E-02  0.9909317E-01
        2   -1    0    0  501    0  0.00000000000E+00  0.00000000000E+00  0.15351349654E+04  0.15351349654E+04  0.25500000920E-02 0.  1.
       -2   -1    0    0    0  501  0.00000000000E+00  0.00000000000E+00 -0.58259671145E+02  0.58259671201E+02  0.25500000920E-02 0. -1.
    10030    2    1    2    0    0  0.00000000000E+00  0.00000000000E+00  0.14768752942E+04  0.15933946366E+04  0.59811857784E+03 0.  0.
        5    1    3    3  502    0  0.18698013931E+03 -0.21255698207E+03  0.48191223994E+03  0.55893071139E+03  0.46999998093E+01 0. -1.
       -5    1    3    3    0  502 -0.18698013931E+03  0.21255698207E+03  0.99496305427E+03  0.10344639252E+04  0.46999998093E+01 0.  1.
</event>
<event>
 5   0  0.5790967E-03  0.6061916E+03  0.7818609E-02  0.9892643E-01
        1   -1    0    0  501    0  0.00000000000E+00  0.00000000000E+00  0.21801979581E+03  0.21801979587E+03  0.50400001928E-02 0.  1.
       -1   -1    0    0    0  501  0.00000000000E+00  0.00000000000E+00 -0.42137033050E+03  0.42137033053E+03  0.50400001928E-02 0. -1.
    10030    2    1    2    0    0  0.00000000000E+00  0.00000000000E+00 -0.20335053469E+03  0.63939012639E+03  0.60619163123E+03 0.  0.
        3    1    3    3  502    0 -0.11380714838E+03  0.24868904641E+03  0.36127171543E+02  0.27586861285E+03  0.10100000352E+00 0.  1.
       -3    1    3    3    0  502  0.11380714838E+03 -0.24868904641E+03 -0.23947770623E+03  0.36352151355E+03  0.10100000352E+00 0. -1.
</event>
<event>
 5   0  0.5765045E-03  0.6020764E+03  0.7818609E-02  0.9901108E-01
       -1   -1    0    0    0  501  0.00000000000E+00  0.00000000000E+00  0.13432956411E+03  0.13432956420E+03  0.50400001928E-02 0. -1.
        1   -1    0    0  501    0  0.00000000000E+00  0.00000000000E+00 -0.67463921481E+03  0.67463921483E+03  0.50400001928E-02 0.  1.
    10030    2    1    2    0    0  0.00000000000E+00  0.00000000000E+00 -0.54030965070E+03  0.80896877903E+03  0.60207637955E+03 0.  0.
        1    1    3    3  502    0 -0.10345414550E+03 -0.23222982091E+03 -0.53540169296E+02  0.25980762055E+03  0.50400001928E-02 0.  1.
       -1    1    3    3    0  502  0.10345414550E+03  0.23222982091E+03 -0.48676948140E+03  0.54916115848E+03  0.50400001928E-02 0. -1.
</event>
<event>
 5   0  0.3806250E-03  0.5999862E+03  0.7818609E-02  0.9905435E-01
       -3   -1    0    0    0  501  0.00000000000E+00  0.00000000000E+00  0.56925007362E+03  0.56925008258E+03  0.10100000352E+00 0.  1.
        3   -1    0    0  501    0  0.00000000000E+00  0.00000000000E+00 -0.15809542288E+03  0.15809545514E+03  0.10100000352E+00 0. -1.
    10030    2    1    2    0    0  0.00000000000E+00  0.00000000000E+00  0.41115465074E+03  0.72734553772E+03  0.59998615352E+03 0.  0.
        3    1    3    3  502    0 -0.19855873060E+03  0.14579134364E+03  0.41313825884E+03  0.48100303169E+03  0.10100000352E+00 0. -1.
       -3    1    3    3    0  502  0.19855873060E+03 -0.14579134364E+03 -0.19836080979E+01  0.24634250603E+03  0.10100000352E+00 0.  1.
</event>
<event>
 5   0  0.5819446E-03  0.6000121E+03  0.7818609E-02  0.9905381E-01
       -1   -1    0    0    0  501  0.00000000000E+00  0.00000000000E+00  0.25477871588E+03  0.25477871593E+03  0.50400001928E-02 0.  1.
        1   -1    0    0  501    0  0.00000000000E+00  0.00000000000E+00 -0.35326199092E+03  0.35326199096E+03  0.50400001928E-02 0. -1.
    10030    2    1    2    0    0  0.00000000000E+00  0.00000000000E+00 -0.98483275044E+02  0.60804070689E+03  0.60001212135E+03 0.  0.
        5    1    3    3  502    0  0.22844163095E+03 -0.12712911425E+03  0.99812010532E+02  0.27987839839E+03  0.46999998093E+01 0.  1.
       -5    1    3    3    0  502 -0.22844163095E+03  0.12712911425E+03 -0.19829528558E+03  0.32816230850E+03  0.46999998093E+01 0. -1.
</event>
<event>
 5   0  0.5765045E-03  0.5999781E+03  0.7818609E-02  0.9905452E-01
        1   -1    0    0  501    0  0.00000000000E+00  0.00000000000E+00  0.16931851357E+04  0.16931851357E+04  0.50400001928E-02 0. -1.
       -1   -1    0    0    0  501  0.00000000000E+00  0.00000000000E+00 -0.53150372793E+02  0.53150373032E+02  0.50400001928E-02 0.  1.
    10030    2    1    2    0    0  0.00000000000E+00  0.00000000000E+00  0.16400347629E+04  0.17463355087E+04  0.59997807088E+03 0.  0.
        1    1    3    3  502    0  0.24034739052E+02  0.12660055194E+03  0.31511403523E+02  0.13265872383E+03  0.50400001928E-02 0.  1.
       -1    1    3    3    0  502 -0.24034739052E+02 -0.12660055194E+03  0.16085233594E+04  0.16136767849E+04  0.50400001928E-02 0. -1.
</event>
<event>
 5   0  0.6078658E-03  0.6004621E+03  0.7818609E-02  0.9904448E-01
       -1   -1    0    0    0  501  0.00000000000E+00  0.00000000000E+00  0.13918468677E+03  0.13918468686E+03  0.50400001928E-02 0.  1.
        1   -1    0    0  501    0  0.00000000000E+00  0.00000000000E+00 -0.64761924755E+03  0.64761924757E+03  0.50400001928E-02 0. -1.
    10030    2    1    2    0    0  0.00000000000E+00  0.00000000000E+00 -0.50843456078E+03  0.78680393443E+03  0.60046209592E+03 0.  0.
        2    1    3    3  502    0  0.81536992381E+02  0.21103828933E+03 -0.51283169425E+03  0.56051921227E+03  0.25500000920E-02 0. -1.
       -2    1    3    3    0  502 -0.81536992381E+02 -0.21103828933E+03  0.43971334709E+01  0.22628472215E+03  0.25500000920E-02 0.  1.
</event>
<event>
 5   0  0.5790967E-03  0.5990286E+03  0.7818609E-02  0.9907423E-01
       -1   -1    0    0    0  501  0.00000000000E+00  0.00000000000E+00  0.18855793356E+03  0.18855793363E+03  0.50400001928E-02 0. -1.
        1   -1    0    0  501    0  0.00000000000E+00  0.00000000000E+00 -0.47576266498E+03  0.47576266500E+03  0.50400001928E-02 0.  1.
    10030    2    1    2    0    0  0.00000000000E+00  0.00000000000E+00 -0.28720473141E+03  0.66432059863E+03  0.59902863039E+03 0.  0.
        3    1    3    3  502    0 -0.32465182191E+02  0.29669110049E+03 -0.17142066551E+03  0.34418694329E+03  0.10100000352E+00 0. -1.
       -3    1    3    3    0  502  0.32465182191E+02 -0.29669110049E+03 -0.11578406591E+03  0.32013365535E+03  0.10100000352E+00 0.  1.
</event>
<event>
 5   0  0.9162342E-03  0.6000225E+03  0.7818609E-02  0.9905359E-01
       -2   -1    0    0    0  501  0.00000000000E+00  0.00000000000E+00  0.17385385073E+03  0.17385385075E+03  0.25500000920E-02 0. -1.
        2   -1    0    0  501    0  0.00000000000E+00  0.00000000000E+00 -0.51771499668E+03  0.51771499668E+03  0.25500000920E-02 0.  1.
    10030    2    1    2    0    0  0.00000000000E+00  0.00000000000E+00 -0.34386114595E+03  0.69156884743E+03  0.60002248545E+03 0.  0.
        5    1    3    3  502    0 -0.42770434774E+02 -0.15623352751E+02  0.16980496131E+03  0.17586703536E+03  0.46999998093E+01 0. -1.
       -5    1    3    3    0  502  0.42770434774E+02  0.15623352751E+02 -0.51366610725E+03  0.51570181208E+03  0.46999998093E+01 0.  1.
</event>
<event>
 5   0  0.5819446E-03  0.5999868E+03  0.7818609E-02  0.9905433E-01
        1   -1    0    0  501    0  0.00000000000E+00  0.00000000000E+00  0.44880522047E+03  0.44880522049E+03  0.50400001928E-02 0.  1.
       -1   -1    0    0    0  501  0.00000000000E+00  0.00000000000E+00 -0.20052363401E+03  0.20052363407E+03  0.50400001928E-02 0. -1.
    10030    2    1    2    0    0  0.00000000000E+00  0.00000000000E+00  0.24828158646E+03  0.64932885456E+03  0.59998684585E+03 0.  0.
        5    1    3    3  502    0 -0.18882615595E+03 -0.15333234796E+03 -0.65815454448E+02  0.25203152609E+03  0.46999998093E+01 0. -1.
       -5    1    3    3    0  502  0.18882615595E+03  0.15333234796E+03  0.31409704091E+03  0.39729732847E+03  0.46999998093E+01 0.  1.
</event>
<event>
 5   0  0.9028473E-03  0.6003433E+03  0.7818609E-02  0.9904694E-01
        2   -1    0    0  501    0  0.00000000000E+00  0.00000000000E+00  0.75126914501E+03  0.75126914502E+03  0.25500000920E-02 0.  1.
       -2   -1    0    0    0  501  0.00000000000E+00  0.00000000000E+00 -0.11993440680E+03  0.11993440682E+03  0.25500000920E-02 0. -1.
    10030    2    1    2    0    0  0.00000000000E+00  0.00000000000E+00  0.63133473822E+03  0.87120355184E+03  0.60034329934E+03 0.  0.
        1    1    3    3  502    0  0.84307278199E+02  0.12340516291E+03 -0.62102568611E+02  0.16184338245E+03  0.50400001928E-02 0. -1.
       -1    1    3    3    0  502 -0.84307278199E+02 -0.12340516291E+03  0.69343730683E+03  0.70936016939E+03  0.50400001928E-02 0.  1.
</event>
<event>
 5   0  0.5765045E-03  0.5989750E+03  0.7818609E-02  0.9907535E-01
       -1   -1    0    0    0  501  0.00000000000E+00  0.00000000000E+00  0.21415109422E+03  0.21415109428E+03  0.50400001928E-02 0.  1.
        1   -1    0    0  501    0  0.00000000000E+00  0.00000000000E+00 -0.41882935866E+03  0.41882935869E+03  0.50400001928E-02 0. -1.
    10030    2    1    2    0    0  0.00000000000E+00  0.00000000000E+00 -0.20467826443E+03  0.63298045297E+03  0.59897500942E+03 0.  0.
        1    1    3    3  502    0 -0.18691498071E+02  0.22607024652E+03 -0.30897978288E+03  0.38330879812E+03  0.50400001928E-02 0. -1.
       -1    1    3    3    0  502  0.18691498071E+02 -0.22607024652E+03  0.10430151845E+03  0.24967165485E+03  0.50400001928E-02 0.  1.
</event>
<event>
 5   0  0.9303190E-03  0.6015824E+03  0.7818609E-02  0.9902128E-01
        2   -1    0    0  501    0  0.00000000000E+00  0.00000000000E+00  0.68667335870E+03  0.68667335871E+03  0.25500000920E-02 0. -1.
       -2   -1    0    0    0  501  0.00000000000E+00  0.00000000000E+00 -0.13175893181E+03  0.13175893183E+03  0.25500000920E-02 0.  1.
    10030    2    1    2    0    0  0.00000000000E+00  0.00000000000E+00  0.55491442690E+03  0.81843229054E+03  0.60158240750E+03 0.  0.
        4    1    3    3  502    0 -0.24116438588E+03  0.17853205927E+03  0.24892703741E+03  0.38987208166E+03  0.12699999809E+01 0. -1.
       -4    1    3    3    0  502  0.24116438588E+03 -0.17853205927E+03  0.30598738949E+03  0.42856020887E+03  0.12699999809E+01 0.  1.
</event>
<event>
 5   0  0.9822607E-03  0.6005720E+03  0.7818609E-02  0.9904220E-01
        2   -1    0    0  501    0  0.00000000000E+00  0.00000000000E+00  0.50700940444E+03  0.50700940445E+03  0.25500000920E-02 0. -1.
       -2   -1    0    0    0  501  0.00000000000E+00  0.00000000000E+00 -0.17785010669E+03  0.17785010671E+03  0.25500000920E-02 0.  1.
    10030    2    1    2    0    0  0.00000000000E+00  0.00000000000E+00  0.32915929775E+03  0.68485951116E+03  0.60057198297E+03 0.  0.
        3    1    3    3  502    0  0.11400923299E+03 -0.27715763002E+03  0.18613215907E+03  0.35278838973E+03  0.10100000352E+00 0. -1.
       -3    1    3    3    0  502 -0.11400923299E+03  0.27715763002E+03  0.14302713867E+03  0.33207112143E+03  0.10100000352E+00 0.  1.
</event>
<event>
 5   0  0.5765045E-03  0.5996570E+03  0.7818609E-02  0.9906118E-01
       -1   -1    0    0    0  501  0.00000000000E+00  0.00000000000E+00  0.26594565802E+03  0.26594565807E+03  0.50400001928E-02 0.  1.
        1   -1    0    0  501    0  0.00000000000E+00  0.00000000000E+00 -0.33802823662E+03  0.33802823665E+03  0.50400001928E-02 0. -1.
    10030    2    1    2    0    0  0.00000000000E+00  0.00000000000E+00 -0.72082578598E+02  0.60397389472E+03  0.59965704145E+03 0.  0.
        1    1    3    3  502    0  0.16987334592E+03 -0.88257969742E+02 -0.26846368200E+03  0.32972590352E+03  0.50400001928E-02 0. -1.
       -1    1    3    3    0  502 -0.16987334592E+03  0.88257969742E+02  0.19638110340E+03  0.27424799120E+03  0.50400001928E-02 0.  1.
</event>
<event>
 5   0  0.5819446E-03  0.5998782E+03  0.7818609E-02  0.9905659E-01
       -1   -1    0    0    0  501  0.00000000000E+00  0.00000000000E+00  0.73536509161E+02  0.73536509334E+02  0.50400001928E-02 0.  1.
        1   -1    0    0  501    0  0.00000000000E+00  0.00000000000E+00 -0.12233851782E+04  0.12233851782E+04  0.50400001928E-02 0. -1.
    10030    2    1    2    0    0  0.00000000000E+00  0.00000000000E+00 -0.11498486690E+04  0.12969216875E+04  0.59987823925E+03 0.  0.
        5    1    3    3  502    0  0.76724418222E+02  0.34031073731E+02 -0.11973952955E+04  0.12003425903E+04  0.46999998093E+01 0. -1.
       -5    1    3    3    0  502 -0.76724418222E+02 -0.34031073731E+02  0.47546626508E+02  0.96579097228E+02  0.46999998093E+01 0.  1.
</event>
<event>
 5   0  0.5819446E-03  0.6000845E+03  0.7818609E-02  0.9905231E-01
       -1   -1    0    0    0  501  0.00000000000E+00  0.00000000000E+00  0.67945963742E+02  0.67945963929E+02  0.50400001928E-02 0.  1.
        1   -1    0    0  501    0  0.00000000000E+00  0.00000000000E+00 -0.13249551879E+04  0.13249551879E+04  0.50400001928E-02 0. -1.
    10030    2    1    2    0    0  0.00000000000E+00  0.00000000000E+00 -0.12570092241E+04  0.13929011518E+04  0.60008451835E+03 0.  0.
        5    1    3    3  502    0  0.87854682590E+02 -0.12798174300E+03 -0.12243981691E+04  0.12342085474E+04  0.46999998093E+01 0. -1.
       -5    1    3    3    0  502 -0.87854682590E+02  0.12798174300E+03 -0.32611054965E+02  0.15869260442E+03  0.46999998093E+01 0.  1.
</event>
<event>
 5   0  0.6078658E-03  0.5989051E+03  0.7818609E-02  0.9907680E-01
       -1   -1    0    0    0  501  0.00000000000E+00  0.00000000000E+00  0.86090624718E+02  0.86090624866E+02  0.50400001928E-02 0. -1.
        1   -1    0    0  501    0  0.00000000000E+00  0.00000000000E+00 -0.10415981777E+04  0.10415981777E+04  0.50400001928E-02 0.  1.
    10030    2    1    2    0    0  0.00000000000E+00  0.00000000000E+00 -0.95550755298E+03  0.11276888026E+04  0.59890512742E+03 0.  0.
        2    1    3    3  502    0  0.29655634025E+02 -0.10051570709E+03 -0.10059413482E+04  0.10113856139E+04  0.25500000920E-02 0.  1.
       -2    1    3    3    0  502 -0.29655634025E+02  0.10051570709E+03  0.50433795180E+02  0.11630318871E+03  0.25500000920E-02 0. -1.
</event>
<event>
 5   0  0.9822607E-03  0.6005468E+03  0.7818609E-02  0.9904272E-01
       -2   -1    0    0    0  501  0.00000000000E+00  0.00000000000E+00  0.62765951852E+02  0.62765951904E+02  0.25500000920E-02 0.  1.
        2   -1    0    0  501    0  0.00000000000E+00  0.00000000000E+00 -0.14365130962E+04  0.14365130962E+04  0.25500000920E-02 0. -1.
    10030    2    1    2    0    0  0.00000000000E+00  0.00000000000E+00 -0.13737471444E+04  0.14992790481E+04  0.60054679043E+03 0.  0.
        3    1    3    3  502    0  0.15051354848E+02 -0.27427486051E+03 -0.38407442877E+03  0.47219320138E+03  0.10100000352E+00 0.  1.
       -3    1    3    3    0  502 -0.15051354848E+02  0.27427486051E+03 -0.98967271560E+03  0.10270858468E+04  0.10100000352E+00 0. -1.
</event>
<event>
 5   0  0.9391405E-03  0.6000138E+03  0.7818609E-02  0.9905377E-01
       -2   -1    0    0    0  501  0.00000000000E+00  0.00000000000E+00  0.40919168809E+02  0.40919168889E+02  0.25500000920E-02 0. -1.
        2   -1    0    0  501    0  0.00000000000E+00  0.00000000000E+00 -0.21995591334E+04  0.21995591334E+04  0.25500000920E-02 0.  1.
    10030    2    1    2    0    0  0.00000000000E+00  0.00000000000E+00 -0.21586399646E+04  0.22404783023E+04  0.60001377177E+03 0.  0.
        2    1    3    3  502    0  0.59605232443E+02  0.27556773317E+03 -0.69644339812E+03  0.75134796605E+03  0.25500000920E-02 0. -1.
       -2    1    3    3    0  502 -0.59605232443E+02 -0.27556773317E+03 -0.14621965665E+04  0.14891303363E+04  0.25500000920E-02 0.  1.
</event>
<event>
 5   0  0.9822607E-03  0.5976689E+03  0.7818609E-02  0.9910254E-01
       -2   -1    0    0    0  501  0.00000000000E+00  0.00000000000E+00  0.56369182804E+02  0.56369182862E+02  0.25500000920E-02 0. -1.
        2   -1    0    0  501    0  0.00000000000E+00  0.00000000000E+00 -0.15842350117E+04  0.15842350118E+04  0.25500000920E-02 0.  1.
    10030    2    1    2    0    0  0.00000000000E+00  0.00000000000E+00 -0.15278658289E+04  0.16406041946E+04  0.59766891514E+03 0.  0.
        3    1    3    3  502    0  0.54711913117E+02  0.62317672696E+02 -0.15520177810E+04  0.15542316715E+04  0.10100000352E+00 0.  1.
       -3    1    3    3    0  502 -0.54711913117E+02 -0.62317672696E+02  0.24151952068E+02  0.86372523159E+02  0.10100000352E+00 0. -1.
</event>
<event>
 5   0  0.9391405E-03  0.5993347E+03  0.7818609E-02  0.9906787E-01
       -2   -1    0    0    0  501  0.00000000000E+00  0.00000000000E+00  0.69205838188E+02  0.69205838235E+02  0.25500000920E-02 0. -1.
        2   -1    0    0  501    0  0.00000000000E+00  0.00000000000E+00 -0.12975859623E+04  0.12975859623E+04  0.25500000920E-02 0.  1.
    10030    2    1    2    0    0  0.00000000000E+00  0.00000000000E+00 -0.12283801242E+04  0.13667918006E+04  0.59933471176E+03 0.  0.
        2    1    3    3  502    0  0.55139781106E+02 -0.14320379975E+03 -0.27194181589E+02  0.15584366282E+03  0.25500000920E-02 0. -1.
       -2    1    3    3    0  502 -0.55139781106E+02  0.14320379975E+03 -0.12011859426E+04  0.12109481378E+04  0.25500000920E-02 0.  1.
</event>
<event>
 5   0  0.9822607E-03  0.5955653E+03  0.7818609E-02  0.9914650E-01
       -2   -1    0    0    0  501  0.00000000000E+00  0.00000000000E+00  0.38440118022E+02  0.38440118107E+02  0.25500000920E-02 0.  1.
        2   -1    0    0  501    0  0.00000000000E+00  0.00000000000E+00 -0.23068216636E+04  0.23068216636E+04  0.25500000920E-02 0. -1.
    10030    2    1    2    0    0  0.00000000000E+00  0.00000000000E+00 -0.22683815456E+04  0.23452617817E+04  0.59556526798E+03 0.  0.
        3    1    3    3  502    0  0.24991628152E+03 -0.14821273187E+03 -0.87749308879E+03  0.92434803659E+03  0.10100000352E+00 0.  1.
       -3    1    3    3    0  502 -0.24991628152E+03  0.14821273187E+03 -0.13908884568E+04  0.14209137452E+04  0.10100000352E+00 0. -1.
</event>
<event>
 5   0  0.9162342E-03  0.6008414E+03  0.7818609E-02  0.9903662E-01
       -2   -1    0    0    0  501  0.00000000000E+00  0.00000000000E+00  0.10111261168E+03  0.10111261171E+03  0.25500000920E-02 0. -1.
        2   -1    0    0  501    0  0.00000000000E+00  0.00000000000E+00 -0.89259471155E+03  0.89259471156E+03  0.25500000920E-02 0.  1.
    10030    2    1    2    0    0  0.00000000000E+00  0.00000000000E+00 -0.79148209987E+03  0.99370732327E+03  0.60084135170E+03 0.  0.
        5    1    3    3  502    0  0.21328757290E+03  0.11306095627E+03 -0.10009251987E+03  0.26137132803E+03  0.46999998093E+01 0. -1.
       -5    1    3    3    0  502 -0.21328757290E+03 -0.11306095627E+03 -0.69138958000E+03  0.73233599524E+03  0.46999998093E+01 0.  1.
</event>
<event>
 5   0  0.9303190E-03  0.6095655E+03  0.7818609E-02  0.9885757E-01
        2   -1    0    0  501    0  0.00000000000E+00  0.00000000000E+00  0.12259664524E+04  0.12259664524E+04  0.25500000920E-02 0.  1.
       -2   -1    0    0    0  501  0.00000000000E+00  0.00000000000E+00 -0.75770846598E+02  0.75770846641E+02  0.25500000920E-02 0. -1.
    10030    2    1    2    0    0  0.00000000000E+00  0.00000000000E+00  0.11501956058E+04  0.13017372991E+04  0.60956547157E+03 0.  0.
        4    1    3    3  502    0  0.27376063726E+03 -0.92333494058E+02  0.36782565557E+03  0.46772608056E+03  0.12699999809E+01 0. -1.
       -4    1    3    3    0  502 -0.27376063726E+03  0.92333494058E+02  0.78236995027E+03  0.83401121853E+03  0.12699999809E+01 0.  1.
</event>
<event>
 5   0  0.9303190E-03  0.5997146E+03  0.7818609E-02  0.9905998E-01
        2   -1    0    0  501    0  0.00000000000E+00  0.00000000000E+00  0.21627384643E+03  0.21627384645E+03  0.25500000920E-02 0. -1.
       -2   -1    0    0    0  501  0.00000000000E+00  0.00000000000E+00 -0.41574335346E+03  0.41574335347E+03  0.25500000920E-02 0.  1.
    10030    2    1    2    0    0  0.00000000000E+00  0.00000000000E+00 -0.19946950703E+03  0.63201719991E+03  0.59971464611E+03 0.  0.
        4    1    3    3  502    0 -0.13623629993E+03  0.25920466474E+03 -0.31718405472E+02  0.29454211548E+03  0.12699999809E+01 0.  1.
       -4    1    3    3    0  502  0.13623629993E+03 -0.25920466474E+03 -0.16775110156E+03  0.33747508444E+03  0.12699999809E+01 0. -1.
</event>
<event>
 5   0  0.5765045E-03  0.5982071E+03  0.7818609E-02  0.9909133E-01
        1   -1    0    0  501    0  0.00000000000E+00  0.00000000000E+00  0.44587898909E+03  0.44587898912E+03  0.50400001928E-02 0.  1.
       -1   -1    0    0    0  501  0.00000000000E+00  0.00000000000E+00 -0.20064398928E+03  0.20064398934E+03  0.50400001928E-02 0. -1.
    10030    2    1    2    0    0  0.00000000000E+00  0.00000000000E+00  0.24523499981E+03  0.64652297846E+03  0.59820711844E+03 0.  0.
        1    1    3    3  502    0  0.19513091998E+03 -0.39371938122E+02  0.36388959005E+03  0.41477928976E+03  0.50400001928E-02 0.  1.
       -1    1    3    3    0  502 -0.19513091998E+03  0.39371938122E+02 -0.11865459024E+03  0.23174368870E+03  0.50400001928E-02 0. -1.
</event>
<event>
 5   0  0.9391405E-03  0.6031652E+03  0.7818609E-02  0.9898861E-01
        2   -1    0    0  501    0  0.00000000000E+00  0.00000000000E+00  0.50066643758E+03  0.50066643759E+03  0.25500000920E-02 0.  1.
       -2   -1    0    0    0  501  0.00000000000E+00  0.00000000000E+00 -0.18166197833E+03  0.18166197834E+03  0.25500000920E-02 0. -1.
    10030    2    1    2    0    0  0.00000000000E+00  0.00000000000E+00  0.31900445926E+03  0.68232841593E+03  0.60316516989E+03 0.  0.
        2    1    3    3  502    0  0.15460139504E+03  0.10388822278E+03  0.42781923283E+03  0.46660866919E+03  0.25500000920E-02 0.  1.
       -2    1    3    3    0  502 -0.15460139504E+03 -0.10388822278E+03 -0.10881477357E+03  0.21571974674E+03  0.25500000920E-02 0. -1.
</event>
<event>
 5   0  0.5819446E-03  0.6003348E+03  0.7818609E-02  0.9904712E-01
       -1   -1    0    0    0  501  0.00000000000E+00  0.00000000000E+00  0.12127364617E+03  0.12127364627E+03  0.50400001928E-02 0. -1.
        1   -1    0    0  501    0  0.00000000000E+00  0.00000000000E+00 -0.74295164558E+03  0.74295164560E+03  0.50400001928E-02 0.  1.
    10030    2    1    2    0    0  0.00000000000E+00  0.00000000000E+00 -0.62167799941E+03  0.86422529187E+03  0.60033475675E+03 0.  0.
        5    1    3    3  502    0  0.11049485439E+03 -0.26041320588E+03 -0.16649206857E+03  0.32827709262E+03  0.46999998093E+01 0. -1.
       -5    1    3    3    0  502 -0.11049485439E+03  0.26041320588E+03 -0.45518593084E+03  0.53594819925E+03  0.46999998093E+01 0.  1.
</event>
<event>
 5   0  0.5891927E-03  0.5999080E+03  0.7818609E-02  0.9905597E-01
        1   -1    0    0  501    0  0.00000000000E+00  0.00000000000E+00  0.46649658943E+03  0.46649658946E+03  0.50400001928E-02 0.  1.
       -1   -1    0    0    0  501  0.00000000000E+00  0.00000000000E+00 -0.19286827998E+03  0.19286828004E+03  0.50400001928E-02 0. -1.
    10030    2    1    2    0    0  0.00000000000E+00  0.00000000000E+00  0.27362830945E+03  0.65936486950E+03  0.59990797578E+03 0.  0.
        4    1    3    3  502    0 -0.12373564318E+03  0.17718266473E+03 -0.91807535810E+02  0.23480724564E+03  0.12699999809E+01 0. -1.
       -4    1    3    3    0  502  0.12373564318E+03 -0.17718266473E+03  0.36543584527E+03  0.42455762386E+03  0.12699999809E+01 0.  1.
</event>
<event>
 5   0  0.5819446E-03  0.5996720E+03  0.7818609E-02  0.9906087E-01
        1   -1    0    0  501    0  0.00000000000E+00  0.00000000000E+00  0.15022881444E+04  0.15022881444E+04  0.50400001928E-02 0.  1.
       -1   -1    0    0    0  501  0.00000000000E+00  0.00000000000E+00 -0.59843134370E+02  0.59843134582E+02  0.50400001928E-02 0. -1.
    10030    2    1    2    0    0  0.00000000000E+00  0.00000000000E+00  0.14424450100E+04  0.15621312790E+04  0.59967201522E+03 0.  0.
        5    1    3    3  502    0 -0.25947928357E+03 -0.74080321639E+02  0.38095489634E+03  0.46686841369E+03  0.46999998093E+01 0. -1.
       -5    1    3    3    0  502  0.25947928357E+03  0.74080321639E+02  0.10614901137E+04  0.10952628653E+04  0.46999998093E+01 0.  1.
</event>
<event>
 5   0  0.9028473E-03  0.5997518E+03  0.7818609E-02  0.9905921E-01
        2   -1    0    0  501    0  0.00000000000E+00  0.00000000000E+00  0.49643398295E+03  0.49643398296E+03  0.25500000920E-02 0. -1.
       -2   -1    0    0    0  501  0.00000000000E+00  0.00000000000E+00 -0.18114302871E+03  0.18114302873E+03  0.25500000920E-02 0.  1.
    10030    2    1    2    0    0  0.00000000000E+00  0.00000000000E+00  0.31529095424E+03  0.67757701169E+03  0.59975179945E+03 0.  0.
        1    1    3    3  502    0 -0.59958185045E+02  0.21631381150E+03  0.38229185936E+03  0.44332123201E+03  0.50400001928E-02 0. -1.
       -1    1    3    3    0  502  0.59958185045E+02 -0.21631381150E+03 -0.67000905121E+02  0.23425577967E+03  0.50400001928E-02 0.  1.
</event>
<event>
 5   0  0.9822607E-03  0.5990438E+03  0.7818609E-02  0.9907392E-01
       -2   -1    0    0    0  501  0.00000000000E+00  0.00000000000E+00  0.93432368599E+02  0.93432368634E+02  0.25500000920E-02 0.  1.
        2   -1    0    0  501    0  0.00000000000E+00  0.00000000000E+00 -0.96019577091E+03  0.96019577091E+03  0.25500000920E-02 0. -1.
    10030    2    1    2    0    0  0.00000000000E+00  0.00000000000E+00 -0.86676340231E+03  0.10536281395E+04  0.59904378877E+03 0.  0.
        3    1    3    3  502    0  0.27624209165E+03  0.60442781343E+02 -0.25970622700E+03  0.38394056514E+03  0.10100000352E+00 0. -1.
       -3    1    3    3    0  502 -0.27624209165E+03 -0.60442781343E+02 -0.60705717531E+03  0.66968757440E+03  0.10100000352E+00 0.  1.
</event>
<event>
 5   0  0.9162342E-03  0.5979293E+03  0.7818609E-02  0.9909711E-01
        2   -1    0    0  501    0  0.00000000000E+00  0.00000000000E+00  0.95979919823E+03  0.95979919824E+03  0.25500000920E-02 0.  1.
       -2   -1    0    0    0  501  0.00000000000E+00  0.00000000000E+00 -0.93123491284E+02  0.93123491319E+02  0.25500000920E-02 0. -1.
    10030    2    1    2    0    0  0.00000000000E+00  0.00000000000E+00  0.86667570695E+03  0.10529226896E+04  0.59792926769E+03 0.  0.
        5    1    3    3  502    0  0.87235658322E+02 -0.17620975601E+03  0.36839550751E+02  0.20009792776E+03  0.46999998093E+01 0. -1.
       -5    1    3    3    0  502 -0.87235658322E+02  0.17620975601E+03  0.82983615620E+03  0.85282476179E+03  0.46999998093E+01 0.  1.
</event>
<event>
 5   0  0.5819446E-03  0.6011400E+03  0.7818609E-02  0.9903044E-01
       -1   -1    0    0    0  501  0.00000000000E+00  0.00000000000E+00  0.55032987375E+02  0.55032987605E+02  0.50400001928E-02 0.  1.
        1   -1    0    0  501    0  0.00000000000E+00  0.00000000000E+00 -0.16416033335E+04  0.16416033335E+04  0.50400001928E-02 0. -1.
    10030    2    1    2    0    0  0.00000000000E+00  0.00000000000E+00 -0.15865703462E+04  0.16966363212E+04  0.60114003604E+03 0.  0.
        5    1    3    3  502    0  0.67468893405E+02  0.11031445902E+03 -0.27602514978E+02  0.13230767278E+03  0.46999998093E+01 0.  1.
       -5    1    3    3    0  502 -0.67468893405E+02 -0.11031445902E+03 -0.15589678312E+04  0.15643286484E+04  0.46999998093E+01 0. -1.
</event>
<event>
 5   0  0.9822607E-03  0.6003479E+03  0.7818609E-02  0.9904685E-01
       -2   -1    0    0    0  501  0.00000000000E+00  0.00000000000E+00  0.10075400469E+03  0.10075400472E+03  0.25500000920E-02 0. -1.
        2   -1    0    0  501    0  0.00000000000E+00  0.00000000000E+00 -0.89430094166E+03  0.89430094167E+03  0.25500000920E-02 0.  1.
    10030    2    1    2    0    0  0.00000000000E+00  0.00000000000E+00 -0.79354693697E+03  0.99505494639E+03  0.60034790344E+03 0.  0.
        3    1    3    3  502    0  0.18984764047E+01  0.30013043932E+03 -0.40463660490E+03  0.50379825034E+03  0.10100000352E+00 0. -1.
       -3    1    3    3    0  502 -0.18984764047E+01 -0.30013043932E+03 -0.38891033208E+03  0.49125669605E+03  0.10100000352E+00 0.  1.
</event>
<event>
 5   0  0.9303190E-03  0.5996638E+03  0.7818609E-02  0.9906104E-01
        2   -1    0    0  501    0  0.00000000000E+00  0.00000000000E+00  0.13176941075E+04  0.13176941075E+04  0.25500000920E-02 0. -1.
       -2   -1    0    0    0  501  0.00000000000E+00  0.00000000000E+00 -0.68224621114E+02  0.68224621162E+02  0.25500000920E-02 0.  1.
    10030    2    1    2    0    0  0.00000000000E+00  0.00000000000E+00  0.12494694864E+04  0.13859187287E+04  0.59966384338E+03 0.  0.
        4    1    3    3  502    0 -0.29973341879E+03 -0.74181807345E+01  0.62832755309E+03  0.69619844772E+03  0.12699999809E+01 0. -1.
       -4    1    3    3    0  502  0.29973341879E+03  0.74181807345E+01  0.62114193333E+03  0.68972028097E+03  0.12699999809E+01 0.  1.
</event>
<event>
 5   0  0.9162342E-03  0.5925589E+03  0.7818609E-02  0.9920965E-01
        2   -1    0    0  501    0  0.00000000000E+00  0.00000000000E+00  0.14065818656E+04  0.14065818656E+04  0.25500000920E-02 0. -1.
       -2   -1    0    0    0  501  0.00000000000E+00  0.00000000000E+00 -0.62407674402E+02  0.62407674454E+02  0.25500000920E-02 0.  1.
    10030    2    1    2    0    0  0.00000000000E+00  0.00000000000E+00  0.13441741912E+04  0.14689895400E+04  0.59255886838E+03 0.  0.
        5    1    3    3  502    0 -0.15682616538E+03 -0.91802684537E+02  0.12520879393E+04  0.12652147947E+04  0.46999998093E+01 0. -1.
       -5    1    3    3    0  502  0.15682616538E+03  0.91802684537E+02  0.92086251834E+02  0.20377474527E+03  0.46999998093E+01 0.  1.
</event>
<event>
 5   0  0.5819446E-03  0.6007424E+03  0.7818609E-02  0.9903867E-01
       -1   -1    0    0    0  501  0.00000000000E+00  0.00000000000E+00  0.32838777805E+03  0.32838777809E+03  0.50400001928E-02 0.  1.
        1   -1    0    0  501    0  0.00000000000E+00  0.00000000000E+00 -0.27474483656E+03  0.27474483660E+03  0.50400001928E-02 0. -1.
    10030    2    1    2    0    0  0.00000000000E+00  0.00000000000E+00  0.53642941495E+02  0.60313261469E+03  0.60074236219E+03 0.  0.
        5    1    3    3  502    0 -0.93321944375E+02 -0.24849617272E+03  0.16788468846E+03  0.31411254635E+03  0.46999998093E+01 0.  1.
       -5    1    3    3    0  502  0.93321944375E+02  0.24849617272E+03 -0.11424174697E+03  0.28902006834E+03  0.46999998093E+01 0. -1.
</event>
<event>
 5   0  0.9822607E-03  0.5974181E+03  0.7818609E-02  0.9910777E-01
       -2   -1    0    0    0  501  0.00000000000E+00  0.00000000000E+00  0.14609593909E+03  0.14609593911E+03  0.25500000920E-02 0.  1.
        2   -1    0    0  501    0  0.00000000000E+00  0.00000000000E+00 -0.61074311765E+03  0.61074311765E+03  0.25500000920E-02 0. -1.
    10030    2    1    2    0    0  0.00000000000E+00  0.00000000000E+00 -0.46464717856E+03  0.75683905677E+03  0.59741807581E+03 0.  0.
        3    1    3    3  502    0  0.20432300810E+03  0.83014225068E+01  0.43519056090E+02  0.20907109723E+03  0.10100000352E+00 0.  1.
       -3    1    3    3    0  502 -0.20432300810E+03 -0.83014225068E+01 -0.50816623465E+03  0.54776795953E+03  0.10100000352E+00 0. -1.
</event>
<event>
 5   0  0.9028473E-03  0.6001933E+03  0.7818609E-02  0.9905005E-01
        2   -1    0    0  501    0  0.00000000000E+00  0.00000000000E+00  0.59333120906E+03  0.59333120906E+03  0.25500000920E-02 0. -1.
       -2   -1    0    0    0  501  0.00000000000E+00  0.00000000000E+00 -0.15178368204E+03  0.15178368206E+03  0.25500000920E-02 0.  1.
    10030    2    1    2    0    0  0.00000000000E+00  0.00000000000E+00  0.44154752701E+03  0.74511489113E+03  0.60019328751E+03 0.  0.
        1    1    3    3  502    0 -0.40375095640E+02 -0.29381756806E+03  0.16389541087E+03  0.33885191069E+03  0.50400001928E-02 0.  1.
       -1    1    3    3    0  502  0.40375095640E+02  0.29381756806E+03  0.27765211614E+03  0.40626298044E+03  0.50400001928E-02 0. -1.
</event>
<event>
 5   0  0.9303190E-03  0.6016973E+03  0.7818609E-02  0.9901891E-01
       -2   -1    0    0    0  501  0.00000000000E+00  0.00000000000E+00  0.10344000996E+03  0.10344000999E+03  0.25500000920E-02 0.  1.
        2   -1    0    0  501    0  0.00000000000E+00  0.00000000000E+00 -0.87499895294E+03  0.87499895294E+03  0.25500000920E-02 0. -1.
    10030    2    1    2    0    0  0.00000000000E+00  0.00000000000E+00 -0.77155894298E+03  0.97843896293E+03  0.60169726748E+03 0.  0.
        4    1    3    3  502    0 -0.11224107416E+03  0.26637653195E+03 -0.52138141796E+03  0.59614990681E+03  0.12699999809E+01 0. -1.
       -4    1    3    3    0  502  0.11224107416E+03 -0.26637653195E+03 -0.25017752502E+03  0.38228905612E+03  0.12699999809E+01 0.  1.
</event>
<event>
 5   0  0.9028473E-03  0.5997639E+03  0.7818609E-02  0.9905896E-01
       -2   -1    0    0    0  501  0.00000000000E+00  0.00000000000E+00  0.79078779213E+02  0.79078779254E+02  0.25500000920E-02 0. -1.
        2   -1    0    0  501    0  0.00000000000E+00  0.00000000000E+00 -0.11372101987E+04  0.11372101987E+04  0.25500000920E-02 0.  1.
    10030    2    1    2    0    0  0.00000000000E+00  0.00000000000E+00 -0.10581314194E+04  0.12162889779E+04  0.59976393438E+03 0.  0.
        1    1    3    3  502    0 -0.74127148069E+02  0.18520483010E+03 -0.74998049484E+02  0.21312055420E+03  0.50400001928E-02 0. -1.
       -1    1    3    3    0  502  0.74127148069E+02 -0.18520483010E+03 -0.98313336997E+03  0.10031684237E+04  0.50400001928E-02 0.  1.
</event>
<event>
 5   0  0.9822607E-03  0.5997044E+03  0.7818609E-02  0.9906020E-01
       -2   -1    0    0    0  501  0.00000000000E+00  0.00000000000E+00  0.14318122809E+03  0.14318122811E+03  0.25500000920E-02 0.  1.
        2   -1    0    0  501    0  0.00000000000E+00  0.00000000000E+00 -0.62795472018E+03  0.62795472019E+03  0.25500000920E-02 0. -1.
    10030    2    1    2    0    0  0.00000000000E+00  0.00000000000E+00 -0.48477349210E+03  0.77113594830E+03  0.59970435393E+03 0.  0.
        3    1    3    3  502    0  0.28333244718E+02  0.27049687445E+03 -0.40473129653E+03  0.48762563964E+03  0.10100000352E+00 0. -1.
       -3    1    3    3    0  502 -0.28333244718E+02 -0.27049687445E+03 -0.80042195566E+02  0.28351030866E+03  0.10100000352E+00 0.  1.
</event>
<event>
 5   0  0.9391405E-03  0.6003919E+03  0.7818609E-02  0.9904593E-01
       -2   -1    0    0    0  501  0.00000000000E+00  0.00000000000E+00  0.56944776365E+03  0.56944776365E+03  0.25500000920E-02 0. -1.
        2   -1    0    0  501    0  0.00000000000E+00  0.00000000000E+00 -0.15825437941E+03  0.15825437943E+03  0.25500000920E-02 0.  1.
    10030    2    1    2    0    0  0.00000000000E+00  0.00000000000E+00  0.41119338424E+03  0.72770214308E+03  0.60039188019E+03 0.  0.
        2    1    3    3  502    0  0.87161476852E+02 -0.22607265953E+03 -0.92180558647E+01  0.24246843711E+03  0.25500000920E-02 0.  1.
       -2    1    3    3    0  502 -0.87161476852E+02  0.22607265953E+03  0.42041144010E+03  0.48523370597E+03  0.25500000920E-02 0. -1.
</event>
<event>
 5   0  0.9028473E-03  0.6034186E+03  0.7818609E-02  0.9898339E-01
        2   -1    0    0  501    0  0.00000000000E+00  0.00000000000E+00  0.27921258387E+03  0.27921258388E+03  0.25500000920E-02 0. -1.
       -2   -1    0    0    0  501  0.00000000000E+00  0.00000000000E+00 -0.32601862315E+03  0.32601862316E+03  0.25500000920E-02 0.  1.
    10030    2    1    2    0    0  0.00000000000E+00  0.00000000000E+00 -0.46806039289E+02  0.60523120704E+03  0.60341860152E+03 0.  0.
        1    1    3    3  502    0  0.86269837604E+02 -0.26284744871E+03 -0.14416917011E+03  0.31195515032E+03  0.50400001928E-02 0.  1.
       -1    1    3    3    0  502 -0.86269837604E+02  0.26284744871E+03  0.97363130824E+02  0.29327605672E+03  0.50400001928E-02 0. -1.
</event>
<event>
 5   0  0.9391405E-03  0.5989238E+03  0.7818609E-02  0.9907641E-01
       -2   -1    0    0    0  501  0.00000000000E+00  0.00000000000E+00  0.48567695135E+02  0.48567695202E+02  0.25500000920E-02 0. -1.
        2   -1    0    0  501    0  0.00000000000E+00  0.00000000000E+00 -0.18464418340E+04  0.18464418340E+04  0.25500000920E-02 0.  1.
    10030    2    1    2    0    0  0.00000000000E+00  0.00000000000E+00 -0.17978741388E+04  0.18950095292E+04  0.59892378193E+03 0.  0.
        2    1    3    3  502    0 -0.57667761630E+02 -0.27332583290E+03 -0.12403709773E+04  0.12714372745E+04  0.25500000920E-02 0.  1.
       -2    1    3    3    0  502  0.57667761630E+02  0.27332583290E+03 -0.55750316150E+03  0.62357225464E+03  0.25500000920E-02 0. -1.
</event>
<event>
 5   0  0.5891927E-03  0.6008240E+03  0.7818609E-02  0.9903698E-01
       -1   -1    0    0    0  501  0.00000000000E+00  0.00000000000E+00  0.91227755838E+03  0.91227755839E+03  0.50400001928E-02 0.  1.
        1   -1    0    0  501    0  0.00000000000E+00  0.00000000000E+00 -0.98925341038E+02  0.98925341167E+02  0.50400001928E-02 0. -1.
    10030    2    1    2    0    0  0.00000000000E+00  0.00000000000E+00  0.81335221734E+03  0.10112028996E+04  0.60082399638E+03 0.  0.
        4    1    3    3  502    0 -0.39446255093E+02 -0.98171635195E+02  0.87987932071E+03  0.88621831899E+03  0.12699999809E+01 0.  1.
       -4    1    3    3    0  502  0.39446255093E+02  0.98171635195E+02 -0.66527103370E+02  0.12498458057E+03  0.12699999809E+01 0. -1.
</event>
<event>
 5   0  0.6078658E-03  0.6002583E+03  0.7818609E-02  0.9904870E-01
        1   -1    0    0  501    0  0.00000000000E+00  0.00000000000E+00  0.55529592719E+02  0.55529592948E+02  0.50400001928E-02 0. -1.
       -1   -1    0    0    0  501  0.00000000000E+00  0.00000000000E+00 -0.16221530474E+04  0.16221530474E+04  0.50400001928E-02 0.  1.
    10030    2    1    2    0    0  0.00000000000E+00  0.00000000000E+00 -0.15666234547E+04  0.16776826404E+04  0.60025827191E+03 0.  0.
        2    1    3    3  502    0 -0.17641036864E+03 -0.20513154445E+03 -0.11464159020E+04  0.11779087354E+04  0.25500000920E-02 0. -1.
       -2    1    3    3    0  502  0.17641036864E+03  0.20513154445E+03 -0.42020755271E+03  0.49977390494E+03  0.25500000920E-02 0.  1.
</event>
<event>
 5   0  0.5891927E-03  0.6007529E+03  0.7818609E-02  0.9903845E-01
        1   -1    0    0  501    0  0.00000000000E+00  0.00000000000E+00  0.28037225383E+04  0.28037225383E+04  0.50400001928E-02 0. -1.
       -1   -1    0    0    0  501  0.00000000000E+00  0.00000000000E+00 -0.32180792951E+02  0.32180793346E+02  0.50400001928E-02 0.  1.
    10030    2    1    2    0    0  0.00000000000E+00  0.00000000000E+00  0.27715417454E+04  0.28359033317E+04  0.60075291115E+03 0.  0.
        4    1    3    3  502    0 -0.63882062938E+01  0.18617112748E+03  0.24981057051E+04  0.25050417611E+04  0.12699999809E+01 0. -1.
       -4    1    3    3    0  502  0.63882062938E+01 -0.18617112748E+03  0.27343604025E+03  0.33086157060E+03  0.12699999809E+01 0.  1.
</event>
<event>
 5   0  0.3806250E-03  0.6017337E+03  0.7818609E-02  0.9901816E-01
        3   -1    0    0  501    0  0.00000000000E+00  0.00000000000E+00  0.45837363782E+03  0.45837364895E+03  0.10100000352E+00 0. -1.
       -3   -1    0    0    0  501  0.00000000000E+00  0.00000000000E+00 -0.19748264333E+03  0.19748266916E+03  0.10100000352E+00 0.  1.
    10030    2    1    2    0    0  0.00000000000E+00  0.00000000000E+00  0.26089099448E+03  0.65585631811E+03  0.60173366118E+03 0.  0.
        5    1    3    3  502    0 -0.18169621607E+03  0.67917689029E+02 -0.12017641822E+03  0.22823406607E+03  0.46999998093E+01 0.  1.
       -5    1    3    3    0  502  0.18169621607E+03 -0.67917689029E+02  0.38106741270E+03  0.42762225204E+03  0.46999998093E+01 0. -1.
</event>
<event>
 5   0  0.5819446E-03  0.5994159E+03  0.7818609E-02  0.9906619E-01
        1   -1    0    0  501    0  0.00000000000E+00  0.00000000000E+00  0.15571077225E+04  0.15571077225E+04  0.50400001928E-02 0. -1.
       -1   -1    0    0    0  501  0.00000000000E+00  0.00000000000E+00 -0.57686981753E+02  0.57686981973E+02  0.50400001928E-02 0.  1.
    10030    2    1    2    0    0  0.00000000000E+00  0.00000000000E+00  0.14994207407E+04  0.16147947045E+04  0.59941586552E+03 0.  0.
        5    1    3    3  502    0  0.12551292157E+03  0.14931569746E+03  0.13685020251E+03  0.23832486004E+03  0.46999998093E+01 0.  1.
       -5    1    3    3    0  502 -0.12551292157E+03 -0.14931569746E+03  0.13625705382E+04  0.13764698444E+04  0.46999998093E+01 0. -1.
</event>
<event>
 5   0  0.9822607E-03  0.5978861E+03  0.7818609E-02  0.9909801E-01
       -2   -1    0    0    0  501  0.00000000000E+00  0.00000000000E+00  0.17356927585E+03  0.17356927587E+03  0.25500000920E-02 0.  1.
        2   -1    0    0  501    0  0.00000000000E+00  0.00000000000E+00 -0.51487773183E+03  0.51487773184E+03  0.25500000920E-02 0. -1.
    10030    2    1    2    0    0  0.00000000000E+00  0.00000000000E+00 -0.34130845598E+03  0.68844700771E+03  0.59788612653E+03 0.  0.
        3    1    3    3  502    0 -0.13276519598E+03 -0.12616998313E+03 -0.44270673071E+03  0.47909782041E+03  0.10100000352E+00 0. -1.
       -3    1    3    3    0  502  0.13276519598E+03  0.12616998313E+03  0.10139827472E+03  0.20934918730E+03  0.10100000352E+00 0.  1.
</event>
<event>
 5   0  0.3806250E-03  0.5998280E+03  0.7818609E-02  0.9905763E-01
        3   -1    0    0  501    0  0.00000000000E+00  0.00000000000E+00  0.54264402190E+03  0.54264403130E+03  0.10100000352E+00 0.  1.
       -3   -1    0    0    0  501  0.00000000000E+00  0.00000000000E+00 -0.16575950996E+03  0.16575954073E+03  0.10100000352E+00 0. -1.
    10030    2    1    2    0    0  0.00000000000E+00  0.00000000000E+00  0.37688451194E+03  0.70840357204E+03  0.59982804664E+03 0.  0.
        2    1    3    3  502    0 -0.19239281279E+03 -0.35451401878E+02 -0.80031009504E+02  0.21136877441E+03  0.25500000920E-02 0. -1.
       -2    1    3    3    0  502  0.19239281279E+03  0.35451401878E+02  0.45691552144E+03  0.49703479762E+03  0.25500000920E-02 0.  1.
</event>
<event>
 5   0  0.9822607E-03  0.6058472E+03  0.7818609E-02  0.9893349E-01
        2   -1    0    0  501    0  0.00000000000E+00  0.00000000000E+00  0.15445278295E+04  0.15445278295E+04  0.25500000920E-02 0.  1.
       -2   -1    0    0    0  501  0.00000000000E+00  0.00000000000E+00 -0.59411500224E+02  0.59411500279E+02  0.25500000920E-02 0. -1.
    10030    2    1    2    0    0  0.00000000000E+00  0.00000000000E+00  0.14851163293E+04  0.16039393298E+04  0.60584722673E+03 0.  0.
        3    1    3    3  502    0 -0.24033816922E+03 -0.80813593542E+01  0.12302533769E+04  0.12535354505E+04  0.10100000352E+00 0.  1.
       -3    1    3    3    0  502  0.24033816922E+03  0.80813593542E+01  0.25486295234E+03  0.35040387930E+03  0.10100000352E+00 0. -1.
</event>
<event>
 5   0  0.5790967E-03  0.6001427E+03  0.7818609E-02  0.9905110E-01
       -1   -1    0    0    0  501  0.00000000000E+00  0.00000000000E+00  0.83388727973E+02  0.83388728125E+02  0.50400001928E-02 0. -1.
        1   -1    0    0  501    0  0.00000000000E+00  0.00000000000E+00 -0.10797960483E+04  0.10797960483E+04  0.50400001928E-02 0.  1.
    10030    2    1    2    0    0  0.00000000000E+00  0.00000000000E+00 -0.99640732031E+03  0.11631847764E+04  0.60014271313E+03 0.  0.
        3    1    3    3  502    0 -0.14136814599E+03  0.67133743664E+01  0.14637476903E+02  0.14228242346E+03  0.10100000352E+00 0. -1.
       -3    1    3    3    0  502  0.14136814599E+03 -0.67133743664E+01 -0.10110447972E+04  0.10209023530E+04  0.10100000352E+00 0.  1.
</event>
<event>
 5   0  0.6078658E-03  0.5991516E+03  0.7818609E-02  0.9907168E-01
       -1   -1    0    0    0  501  0.00000000000E+00  0.00000000000E+00  0.17264223823E+03  0.17264223831E+03  0.50400001928E-02 0. -1.
        1   -1    0    0  501    0  0.00000000000E+00  0.00000000000E+00 -0.51983607092E+03  0.51983607094E+03  0.50400001928E-02 0.  1.
    10030    2    1    2    0    0  0.00000000000E+00  0.00000000000E+00 -0.34719383269E+03  0.69247830925E+03  0.59915160963E+03 0.  0.
        2    1    3    3  502    0  0.20432328342E+03  0.30600987542E+01  0.79587576077E+02  0.21929785823E+03  0.25500000920E-02 0. -1.
       -2    1    3    3    0  502 -0.20432328342E+03 -0.30600987542E+01 -0.42678140876E+03  0.47318045102E+03  0.25500000920E-02 0.  1.
</event>
<event>
 5   0  0.5819446E-03  0.5986850E+03  0.7818609E-02  0.9908138E-01
        1   -1    0    0  501    0  0.00000000000E+00  0.00000000000E+00  0.37731287130E+03  0.37731287133E+03  0.50400001928E-02 0. -1.
       -1   -1    0    0    0  501  0.00000000000E+00  0.00000000000E+00 -0.23748444686E+03  0.23748444692E+03  0.50400001928E-02 0.  1.
    10030    2    1    2    0    0  0.00000000000E+00  0.00000000000E+00  0.13982842444E+03  0.61479731825E+03  0.59868502090E+03 0.  0.
        5    1    3    3  502    0 -0.88886096901E+01  0.15124415178E+03 -0.19516070497E+03  0.24711048459E+03  0.46999998093E+01 0.  1.
       -5    1    3    3    0  502  0.88886096901E+01 -0.15124415178E+03  0.33498912941E+03  0.36768683366E+03  0.46999998093E+01 0. -1.
</event>
<event>
 5   0  0.9303190E-03  0.6006349E+03  0.7818609E-02  0.9904090E-01
       -2   -1    0    0    0  501  0.00000000000E+00  0.00000000000E+00  0.11087426846E+03  0.11087426849E+03  0.25500000920E-02 0. -1.
        2   -1    0    0  501    0  0.00000000000E+00  0.00000000000E+00 -0.81344919793E+03  0.81344919793E+03  0.25500000920E-02 0.  1.
    10030    2    1    2    0    0  0.00000000000E+00  0.00000000000E+00 -0.70257492946E+03  0.92432346642E+03  0.60063494659E+03 0.  0.
        4    1    3    3  502    0  0.15003863238E+02  0.88838774051E+02 -0.79215654566E+03  0.79726472982E+03  0.12699999809E+01 0.  1.
       -4    1    3    3    0  502 -0.15003863238E+02 -0.88838774051E+02  0.89581616195E+02  0.12705873660E+03  0.12699999809E+01 0. -1.
</event>
<event>
 5   0  0.9303190E-03  0.6007788E+03  0.7818609E-02  0.9903792E-01
       -2   -1    0    0    0  501  0.00000000000E+00  0.00000000000E+00  0.30380578409E+03  0.30380578410E+03  0.25500000920E-02 0. -1.
        2   -1    0    0  501    0  0.00000000000E+00  0.00000000000E+00 -0.29701141533E+03  0.29701141534E+03  0.25500000920E-02 0.  1.
    10030    2    1    2    0    0  0.00000000000E+00  0.00000000000E+00  0.67943687653E+01  0.60081719944E+03  0.60077878100E+03 0.  0.
        4    1    3    3  502    0 -0.41591933772E+02 -0.19052545081E+02 -0.29350441139E+03  0.29705107445E+03  0.12699999809E+01 0.  1.
       -4    1    3    3    0  502  0.41591933772E+02  0.19052545081E+02  0.30029878015E+03  0.30376612499E+03  0.12699999809E+01 0. -1.
</event>
<event>
 5   0  0.9822607E-03  0.6000811E+03  0.7818609E-02  0.9905238E-01
       -2   -1    0    0    0  501  0.00000000000E+00  0.00000000000E+00  0.23807960617E+03  0.23807960618E+03  0.25500000920E-02 0. -1.
        2   -1    0    0  501    0  0.00000000000E+00  0.00000000000E+00 -0.37812702804E+03  0.37812702805E+03  0.25500000920E-02 0.  1.
    10030    2    1    2    0    0  0.00000000000E+00  0.00000000000E+00 -0.14004742187E+03  0.61620663423E+03  0.60008110759E+03 0.  0.
        3    1    3    3  502    0 -0.41394544923E+01 -0.54937020596E+02 -0.37288855584E+03  0.37693646228E+03  0.10100000352E+00 0.  1.
       -3    1    3    3    0  502  0.41394544923E+01  0.54937020596E+02  0.23284113397E+03  0.23927017195E+03  0.10100000352E+00 0. -1.
</event>
<event>
 5   0  0.5891927E-03  0.6007972E+03  0.7818609E-02  0.9903753E-01
        1   -1    0    0  501    0  0.00000000000E+00  0.00000000000E+00  0.87486204513E+03  0.87486204515E+03  0.50400001928E-02 0.  1.
       -1   -1    0    0    0  501  0.00000000000E+00  0.00000000000E+00 -0.10314692349E+03  0.10314692362E+03  0.50400001928E-02 0. -1.
    10030    2    1    2    0    0  0.00000000000E+00  0.00000000000E+00  0.77171512164E+03  0.97800896876E+03  0.60079723203E+03 0.  0.
        4    1    3    3  502    0 -0.28971237516E+03  0.37415920635E+01  0.25674872329E+03  0.38712889281E+03  0.12699999809E+01 0. -1.
       -4    1    3    3    0  502  0.28971237516E+03 -0.37415920635E+01  0.51496639835E+03  0.59088007596E+03  0.12699999809E+01 0.  1.
</event>
<event>
 5   0  0.9303190E-03  0.6025530E+03  0.7818609E-02  0.9900124E-01
       -2   -1    0    0    0  501  0.00000000000E+00  0.00000000000E+00  0.12673815648E+03  0.12673815650E+03  0.25500000920E-02 0. -1.
        2   -1    0    0  501    0  0.00000000000E+00  0.00000000000E+00 -0.71618146718E+03  0.71618146718E+03  0.25500000920E-02 0.  1.
    10030    2    1    2    0    0  0.00000000000E+00  0.00000000000E+00 -0.58944331070E+03  0.84291962369E+03  0.60255296487E+03 0.  0.
        4    1    3    3  502    0  0.24230449815E+01  0.15337990140E+03 -0.65745500044E+03  0.67511477232E+03  0.12699999809E+01 0.  1.
       -4    1    3    3    0  502 -0.24230449815E+01 -0.15337990140E+03  0.68011689745E+02  0.16780485136E+03  0.12699999809E+01 0. -1.
</event>
<event>
 5   0  0.5891927E-03  0.5991686E+03  0.7818609E-02  0.9907132E-01
        1   -1    0    0  501    0  0.00000000000E+00  0.00000000000E+00  0.33983122954E+03  0.33983122958E+03  0.50400001928E-02 0.  1.
       -1   -1    0    0    0  501  0.00000000000E+00  0.00000000000E+00 -0.26410388761E+03  0.26410388766E+03  0.50400001928E-02 0. -1.
    10030    2    1    2    0    0  0.00000000000E+00  0.00000000000E+00  0.75727341933E+02  0.60393511724E+03  0.59916858689E+03 0.  0.
        4    1    3    3  502    0 -0.15366641314E+03  0.63818168052E+02  0.28897000496E+03  0.33345374757E+03  0.12699999809E+01 0.  1.
       -4    1    3    3    0  502  0.15366641314E+03 -0.63818168052E+02 -0.21324266303E+03  0.27048136967E+03  0.12699999809E+01 0. -1.
</event>
<event>
 5   0  0.9028473E-03  0.5993839E+03  0.7818609E-02  0.9906685E-01
       -2   -1    0    0    0  501  0.00000000000E+00  0.00000000000E+00  0.20689087720E+03  0.20689087721E+03  0.25500000920E-02 0. -1.
        2   -1    0    0  501    0  0.00000000000E+00  0.00000000000E+00 -0.43411906243E+03  0.43411906244E+03  0.25500000920E-02 0.  1.
    10030    2    1    2    0    0  0.00000000000E+00  0.00000000000E+00 -0.22722818524E+03  0.64100993965E+03  0.59938392919E+03 0.  0.
        1    1    3    3  502    0  0.17975761893E+03  0.84107020991E+02  0.12654421424E+03  0.23537253605E+03  0.50400001928E-02 0. -1.
       -1    1    3    3    0  502 -0.17975761893E+03 -0.84107020991E+02 -0.35377239948E+03  0.40563740360E+03  0.50400001928E-02 0.  1.
</event>
<event>
 5   0  0.9162342E-03  0.6001155E+03  0.7818609E-02  0.9905166E-01
        2   -1    0    0  501    0  0.00000000000E+00  0.00000000000E+00  0.77701265561E+03  0.77701265562E+03  0.25500000920E-02 0.  1.
       -2   -1    0    0    0  501  0.00000000000E+00  0.00000000000E+00 -0.11587284355E+03  0.11587284358E+03  0.25500000920E-02 0. -1.
    10030    2    1    2    0    0  0.00000000000E+00  0.00000000000E+00  0.66113981206E+03  0.89288549920E+03  0.60011554186E+03 0.  0.
        5    1    3    3  502    0 -0.94951002253E+02  0.52920882090E+02  0.74662792392E+03  0.75451418765E+03  0.46999998093E+01 0.  1.
       -5    1    3    3    0  502  0.94951002253E+02 -0.52920882090E+02 -0.85488111862E+02  0.13837131154E+03  0.46999998093E+01 0. -1.
</event>
<event>
 5   0  0.5891927E-03  0.5999036E+03  0.7818609E-02  0.9905606E-01
       -1   -1    0    0    0  501  0.00000000000E+00  0.00000000000E+00  0.23420264447E+03  0.23420264452E+03  0.50400001928E-02 0.  1.
        1   -1    0    0  501    0  0.00000000000E+00  0.00000000000E+00 -0.38415911136E+03  0.38415911139E+03  0.50400001928E-02 0. -1.
    10030    2    1    2    0    0  0.00000000000E+00  0.00000000000E+00 -0.14995646689E+03  0.61836175591E+03  0.59990359160E+03 0.  0.
        4    1    3    3  502    0  0.13405830833E+03 -0.99391341564E+02 -0.33188413453E+03  0.37148211324E+03  0.12699999809E+01 0. -1.
       -4    1    3    3    0  502 -0.13405830833E+03  0.99391341564E+02  0.18192766764E+03  0.24687964266E+03  0.12699999809E+01 0.  1.
</event>
<event>
 5   0  0.5891927E-03  0.6005064E+03  0.7818609E-02  0.9904356E-01
        1   -1    0    0  501    0  0.00000000000E+00  0.00000000000E+00  0.99187753467E+02  0.99187753595E+02  0.50400001928E-02 0. -1.
       -1   -1    0    0    0  501  0.00000000000E+00  0.00000000000E+00 -0.90890227605E+03  0.90890227606E+03  0.50400001928E-02 0.  1.
    10030    2    1    2    0    0  0.00000000000E+00  0.00000000000E+00 -0.80971452258E+03  0.10080900297E+04  0.60050636950E+03 0.  0.
        4    1    3    3  502    0 -0.10980011288E+03 -0.32933524707E+02 -0.87071612297E+03  0.87823052870E+03  0.12699999809E+01 0.  1.
       -4    1    3    3    0  502  0.10980011288E+03  0.32933524707E+02  0.61001600389E+02  0.12985950096E+03  0.12699999809E+01 0. -1.
</event>
<event>
 5   0  0.5891927E-03  0.5999840E+03  0.7818609E-02  0.9905439E-01
        1   -1    0    0  501    0  0.00000000000E+00  0.00000000000E+00  0.11080268529E+04  0.11080268529E+04  0.50400001928E-02 0. -1.
       -1   -1    0    0    0  501  0.00000000000E+00  0.00000000000E+00 -0.81221136534E+02  0.81221136690E+02  0.50400001928E-02 0.  1.
    10030    2    1    2    0    0  0.00000000000E+00  0.00000000000E+00  0.10268057163E+04  0.11892479896E+04  0.59998400112E+03 0.  0.
        4    1    3    3  502    0  0.17111690057E+01 -0.22196672599E+03  0.11341733156E+03  0.24927346338E+03  0.12699999809E+01 0.  1.
       -4    1    3    3    0  502 -0.17111690057E+01  0.22196672599E+03  0.91338838477E+03  0.93997452619E+03  0.12699999809E+01 0. -1.
</event>
<event>
 5   0  0.9303190E-03  0.5992980E+03  0.7818609E-02  0.9906864E-01
       -2   -1    0    0    0  501  0.00000000000E+00  0.00000000000E+00  0.56380023059E+02  0.56380023116E+02  0.25500000920E-02 0.  1.
        2   -1    0    0  501    0  0.00000000000E+00  0.00000000000E+00 -0.15925769494E+04  0.15925769494E+04  0.25500000920E-02 0. -1.
    10030    2    1    2    0    0  0.00000000000E+00  0.00000000000E+00 -0.15361969263E+04  0.16489569725E+04  0.59929800659E+03 0.  0.
        4    1    3    3  502    0  0.13949949716E+03 -0.96592575516E+02 -0.88545770033E+02  0.19139540654E+03  0.12699999809E+01 0.  1.
       -4    1    3    3    0  502 -0.13949949716E+03  0.96592575516E+02 -0.14476511563E+04  0.14575615659E+04  0.12699999809E+01 0. -1.
</event>
<event>
 5   0  0.5765045E-03  0.5993777E+03  0.7818609E-02  0.9906698E-01
       -1   -1    0    0    0  501  0.00000000000E+00  0.00000000000E+00  0.32213095550E+03  0.32213095554E+03  0.50400001928E-02 0.  1.
        1   -1    0    0  501    0  0.00000000000E+00  0.00000000000E+00 -0.27881023449E+03  0.27881023454E+03  0.50400001928E-02 0. -1.
    10030    2    1    2    0    0  0.00000000000E+00  0.00000000000E+00  0.43320721015E+02  0.60094119008E+03  0.59937770151E+03 0.  0.
        1    1    3    3  502    0  0.12197327463E+03  0.25860386359E+03  0.11167187796E+03  0.30695935617E+03  0.50400001928E-02 0. -1.
       -1    1    3    3    0  502 -0.12197327463E+03 -0.25860386359E+03 -0.68351156943E+02  0.29398183391E+03  0.50400001928E-02 0.  1.
</event>
<event>
 5   0  0.9028473E-03  0.5972124E+03  0.7818609E-02  0.9911206E-01
        2   -1    0    0  501    0  0.00000000000E+00  0.00000000000E+00  0.42001692115E+03  0.42001692116E+03  0.25500000920E-02 0. -1.
       -2   -1    0    0    0  501  0.00000000000E+00  0.00000000000E+00 -0.21229061801E+03  0.21229061802E+03  0.25500000920E-02 0.  1.
    10030    2    1    2    0    0  0.00000000000E+00  0.00000000000E+00  0.20772630315E+03  0.63230753918E+03  0.59721236347E+03 0.  0.
        1    1    3    3  502    0 -0.42176266080E+02 -0.50502712255E+02  0.41224613462E+03  0.41746405462E+03  0.50400001928E-02 0. -1.
       -1    1    3    3    0  502  0.42176266080E+02  0.50502712255E+02 -0.20451983147E+03  0.21484348456E+03  0.50400001928E-02 0.  1.
</event>
<event>
 5   0  0.5819446E-03  0.6045556E+03  0.7818609E-02  0.9895999E-01
       -1   -1    0    0    0  501  0.00000000000E+00  0.00000000000E+00  0.71760995458E+02  0.71760995635E+02  0.50400001928E-02 0. -1.
        1   -1    0    0  501    0  0.00000000000E+00  0.00000000000E+00 -0.12732803722E+04  0.12732803722E+04  0.50400001928E-02 0.  1.
    10030    2    1    2    0    0  0.00000000000E+00  0.00000000000E+00 -0.12015193768E+04  0.13450413679E+04  0.60455559590E+03 0.  0.
        5    1    3    3  502    0  0.12192791818E+03 -0.27414646538E+03 -0.68180860219E+03  0.74492131244E+03  0.46999998093E+01 0.  1.
       -5    1    3    3    0  502 -0.12192791818E+03  0.27414646538E+03 -0.51971077458E+03  0.60012005543E+03  0.46999998093E+01 0. -1.
</event>
<event>
 5   0  0.5819446E-03  0.6008722E+03  0.7818609E-02  0.9903598E-01
        1   -1    0    0  501    0  0.00000000000E+00  0.00000000000E+00  0.14373140756E+04  0.14373140756E+04  0.50400001928E-02 0.  1.
       -1   -1    0    0    0  501  0.00000000000E+00  0.00000000000E+00 -0.62798969643E+02  0.62798969846E+02  0.50400001928E-02 0. -1.
    10030    2    1    2    0    0  0.00000000000E+00  0.00000000000E+00  0.13745151059E+04  0.15001130454E+04  0.60087217662E+03 0.  0.
        5    1    3    3  502    0  0.11041411183E+02 -0.29051202681E+03  0.87608398457E+03  0.92307333863E+03  0.46999998093E+01 0.  1.
       -5    1    3    3    0  502 -0.11041411183E+02  0.29051202681E+03  0.49843112138E+03  0.57703970681E+03  0.46999998093E+01 0. -1.
</event>
<event>
 5   0  0.9822607E-03  0.6000533E+03  0.7818609E-02  0.9905295E-01
        2   -1    0    0  501    0  0.00000000000E+00  0.00000000000E+00  0.39688028312E+03  0.39688028313E+03  0.25500000920E-02 0. -1.
       -2   -1    0    0    0  501  0.00000000000E+00  0.00000000000E+00 -0.22680894393E+03  0.22680894395E+03  0.25500000920E-02 0.  1.
    10030    2    1    2    0    0  0.00000000000E+00  0.00000000000E+00  0.17007133919E+03  0.62368922708E+03  0.60005332393E+03 0.  0.
        3    1    3    3  502    0  0.13822323562E+03  0.10191988162E+03 -0.17066826432E+03  0.24211772298E+03  0.10100000352E+00 0.  1.
       -3    1    3    3    0  502 -0.13822323562E+03 -0.10191988162E+03  0.34073960351E+03  0.38157150409E+03  0.10100000352E+00 0. -1.
</event>
<event>
 5   0  0.5765045E-03  0.6008850E+03  0.7818609E-02  0.9903572E-01
        1   -1    0    0  501    0  0.00000000000E+00  0.00000000000E+00  0.67309479315E+03  0.67309479317E+03  0.50400001928E-02 0. -1.
       -1   -1    0    0    0  501  0.00000000000E+00  0.00000000000E+00 -0.13410547258E+03  0.13410547268E+03  0.50400001928E-02 0.  1.
    10030    2    1    2    0    0  0.00000000000E+00  0.00000000000E+00  0.53898932057E+03  0.80720026585E+03  0.60088499857E+03 0.  0.
        1    1    3    3  502    0  0.29021253870E+03 -0.45782406638E+02  0.35388401733E+03  0.45994917559E+03  0.50400001928E-02 0. -1.
       -1    1    3    3    0  502 -0.29021253870E+03  0.45782406638E+02  0.18510530324E+03  0.34725109026E+03  0.50400001928E-02 0.  1.
</event>
<event>
 5   0  0.5819446E-03  0.5989214E+03  0.7818609E-02  0.9907646E-01
       -1   -1    0    0    0  501  0.00000000000E+00  0.00000000000E+00  0.64085503608E+03  0.64085503610E+03  0.50400001928E-02 0. -1.
        1   -1    0    0  501    0  0.00000000000E+00  0.00000000000E+00 -0.13993293045E+03  0.13993293054E+03  0.50400001928E-02 0.  1.
    10030    2    1    2    0    0  0.00000000000E+00  0.00000000000E+00  0.50092210563E+03  0.78078796664E+03  0.59892144138E+03 0.  0.
        5    1    3    3  502    0 -0.11249179494E+03 -0.26819088680E+03  0.15760007742E+03  0.33081812238E+03  0.46999998093E+01 0.  1.
       -5    1    3    3    0  502  0.11249179494E+03  0.26819088680E+03  0.34332202821E+03  0.44996984426E+03  0.46999998093E+01 0. -1.
</event>
<event>
 5   0  0.3806250E-03  0.5981600E+03  0.7818609E-02  0.9909231E-01
        3   -1    0    0  501    0  0.00000000000E+00  0.00000000000E+00  0.15963146642E+03  0.15963149838E+03  0.10100000352E+00 0.  1.
       -3   -1    0    0    0  501  0.00000000000E+00  0.00000000000E+00 -0.56034594326E+03  0.56034595236E+03  0.10100000352E+00 0. -1.
    10030    2    1    2    0    0  0.00000000000E+00  0.00000000000E+00 -0.40071447684E+03  0.71997745074E+03  0.59816004349E+03 0.  0.
        2    1    3    3  502    0 -0.16660178316E+03 -0.24643307086E+03 -0.16299650681E+03  0.33919503800E+03  0.25500000920E-02 0.  1.
       -2    1    3    3    0  502  0.16660178316E+03  0.24643307086E+03 -0.23771797003E+03  0.38078241273E+03  0.25500000920E-02 0. -1.
</event>
<event>
 5   0  0.3806250E-03  0.6001639E+03  0.7818609E-02  0.9905066E-01
       -3   -1    0    0    0  501  0.00000000000E+00  0.00000000000E+00  0.25321418423E+03  0.25321420437E+03  0.10100000352E+00 0.  1.
        3   -1    0    0  501    0  0.00000000000E+00  0.00000000000E+00 -0.35562447096E+03  0.35562448530E+03  0.10100000352E+00 0. -1.
    10030    2    1    2    0    0  0.00000000000E+00  0.00000000000E+00 -0.10241028673E+03  0.60883868967E+03  0.60016388030E+03 0.  0.
        5    1    3    3  502    0  0.16434250639E+03 -0.11565735123E+03 -0.27723042366E+03  0.34243814055E+03  0.46999998093E+01 0. -1.
       -5    1    3    3    0  502 -0.16434250639E+03  0.11565735123E+03  0.17482013693E+03  0.26640054913E+03  0.46999998093E+01 0.  1.
</event>
<event>
 5   0  0.9162342E-03  0.6032499E+03  0.7818609E-02  0.9898686E-01
        2   -1    0    0  501    0  0.00000000000E+00  0.00000000000E+00  0.83717766111E+03  0.83717766111E+03  0.25500000920E-02 0. -1.
       -2   -1    0    0    0  501  0.00000000000E+00  0.00000000000E+00 -0.10867181954E+03  0.10867181957E+03  0.25500000920E-02 0.  1.
    10030    2    1    2    0    0  0.00000000000E+00  0.00000000000E+00  0.72850584157E+03  0.94584948068E+03  0.60324993071E+03 0.  0.
        5    1    3    3  502    0 -0.39968181040E+02 -0.19772284262E+03  0.71577466934E+03  0.74367146325E+03  0.46999998093E+01 0. -1.
       -5    1    3    3    0  502  0.39968181040E+02  0.19772284262E+03  0.12731172230E+02  0.20217801743E+03  0.46999998093E+01 0.  1.
</event>
<event>
 5   0  0.5765045E-03  0.6004022E+03  0.7818609E-02  0.9904572E-01
       -1   -1    0    0    0  501  0.00000000000E+00  0.00000000000E+00  0.11817845627E+03  0.11817845638E+03  0.50400001928E-02 0.  1.
        1   -1    0    0  501    0  0.00000000000E+00  0.00000000000E+00 -0.76258140340E+03  0.76258140341E+03  0.50400001928E-02 0. -1.
    10030    2    1    2    0    0  0.00000000000E+00  0.00000000000E+00 -0.64440294713E+03  0.88075985979E+03  0.60040217551E+03 0.  0.
        1    1    3    3  502    0  0.20592236771E+03  0.16250015181E+03 -0.10805507550E+03  0.28370093449E+03  0.50400001928E-02 0.  1.
       -1    1    3    3    0  502 -0.20592236771E+03 -0.16250015181E+03 -0.53634787163E+03  0.59705892530E+03  0.50400001928E-02 0. -1.
</event>
<event>
 5   0  0.5819446E-03  0.5991211E+03  0.7818609E-02  0.9907231E-01
        1   -1    0    0  501    0  0.00000000000E+00  0.00000000000E+00  0.87407403595E+03  0.87407403597E+03  0.50400001928E-02 0.  1.
       -1   -1    0    0    0  501  0.00000000000E+00  0.00000000000E+00 -0.10266466484E+03  0.10266466496E+03  0.50400001928E-02 0. -1.
    10030    2    1    2    0    0  0.00000000000E+00  0.00000000000E+00  0.77140937111E+03  0.97673870093E+03  0.59912108297E+03 0.  0.
        5    1    3    3  502    0 -0.25569383733E+03  0.92546418616E+02  0.18097393340E+03  0.32667695452E+03  0.46999998093E+01 0. -1.
       -5    1    3    3    0  502  0.25569383733E+03 -0.92546418616E+02  0.59043543771E+03  0.65006174641E+03  0.46999998093E+01 0.  1.
</event>
<event>
 5   0  0.5765045E-03  0.6018287E+03  0.7818609E-02  0.9901619E-01
        1   -1    0    0  501    0  0.00000000000E+00  0.00000000000E+00  0.59884604266E+03  0.59884604268E+03  0.50400001928E-02 0. -1.
       -1   -1    0    0    0  501  0.00000000000E+00  0.00000000000E+00 -0.15120653704E+03  0.15120653713E+03  0.50400001928E-02 0.  1.
    10030    2    1    2    0    0  0.00000000000E+00  0.00000000000E+00  0.44763950562E+03  0.75005257981E+03  0.60182866789E+03 0.  0.
        1    1    3    3  502    0 -0.28022536498E+03 -0.10960277002E+03  0.22784161339E+03  0.37742657987E+03  0.50400001928E-02 0.  1.
       -1    1    3    3    0  502  0.28022536498E+03  0.10960277002E+03  0.21979789223E+03  0.37262599994E+03  0.50400001928E-02 0. -1.
</event>
<event>
 5   0  0.9303190E-03  0.6003415E+03  0.7818609E-02  0.9904698E-01
       -2   -1    0    0    0  501  0.00000000000E+00  0.00000000000E+00  0.77192373967E+02  0.77192374009E+02  0.25500000920E-02 0.  1.
        2   -1    0    0  501    0  0.00000000000E+00  0.00000000000E+00 -0.11672457695E+04  0.11672457695E+04  0.25500000920E-02 0. -1.
    10030    2    1    2    0    0  0.00000000000E+00  0.00000000000E+00 -0.10900533955E+04  0.12444381435E+04  0.60034147608E+03 0.  0.
        4    1    3    3  502    0 -0.16183515031E+03 -0.32061503494E+01 -0.10690194400E+04  0.10812053788E+04  0.12699999809E+01 0. -1.
       -4    1    3    3    0  502  0.16183515031E+03  0.32061503494E+01 -0.21033955556E+02  0.16323276467E+03  0.12699999809E+01 0.  1.
</event>
<event>
 5   0  0.3806250E-03  0.5918285E+03  0.7818609E-02  0.9922506E-01
       -4   -1    0    0    0  501  0.00000000000E+00  0.00000000000E+00  0.11195033921E+04  0.11195041125E+04  0.12699999809E+01 0.  1.
        4   -1    0    0  501    0  0.00000000000E+00  0.00000000000E+00 -0.78212039087E+02  0.78222349479E+02  0.12699999809E+01 0. -1.
    10030    2    1    2    0    0  0.00000000000E+00  0.00000000000E+00  0.10412913531E+04  0.11977264620E+04  0.59182851891E+03 0.  0.
        5    1    3    3  502    0 -0.33972513488E+01  0.27764264013E+03  0.31380280891E+03  0.41903611994E+03  0.46999998093E+01 0. -1.
       -5    1    3    3    0  502  0.33972513488E+01 -0.27764264013E+03  0.72748854415E+03  0.77869034205E+03  0.46999998093E+01 0.  1.
</event>
<event>
 5   0  0.5819446E-03  0.6005664E+03  0.7818609E-02  0.9904232E-01
        1   -1    0    0  501    0  0.00000000000E+00  0.00000000000E+00  0.28607731924E+03  0.28607731929E+03  0.50400001928E-02 0. -1.
       -1   -1    0    0    0  501  0.00000000000E+00  0.00000000000E+00 -0.31519448787E+03  0.31519448791E+03  0.50400001928E-02 0.  1.
    10030    2    1    2    0    0  0.00000000000E+00  0.00000000000E+00 -0.29117168625E+02  0.60127180719E+03  0.60056637986E+03 0.  0.
        5    1    3    3  502    0  0.29306719950E+03  0.64996553099E+02 -0.20478974063E+02  0.30092260419E+03  0.46999998093E+01 0. -1.
       -5    1    3    3    0  502 -0.29306719950E+03 -0.64996553099E+02 -0.86381945612E+01  0.30034920300E+03  0.46999998093E+01 0.  1.
</event>
<event>
 5   0  0.9028473E-03  0.5999779E+03  0.7818609E-02  0.9905452E-01
        2   -1    0    0  501    0  0.00000000000E+00  0.00000000000E+00  0.49166523215E+03  0.49166523216E+03  0.25500000920E-02 0. -1.
       -2   -1    0    0    0  501  0.00000000000E+00  0.00000000000E+00 -0.18303789896E+03  0.18303789898E+03  0.25500000920E-02 0.  1.
    10030    2    1    2    0    0  0.00000000000E+00  0.00000000000E+00  0.30862733319E+03  0.67470313114E+03  0.59997790324E+03 0.  0.
        1    1    3    3  502    0  0.10391827512E+03  0.20007317105E+03 -0.68236042403E+02  0.23555135149E+03  0.50400001928E-02 0.  1.
       -1    1    3    3    0  502 -0.10391827512E+03 -0.20007317105E+03  0.37686337560E+03  0.43915177965E+03  0.50400001928E-02 0. -1.
</event>
<event>
 5   0  0.9303190E-03  0.6008441E+03  0.7818609E-02  0.9903656E-01
       -2   -1    0    0    0  501  0.00000000000E+00  0.00000000000E+00  0.10917576201E+03  0.10917576204E+03  0.25500000920E-02 0.  1.
        2   -1    0    0  501    0  0.00000000000E+00  0.00000000000E+00 -0.82667976997E+03  0.82667976997E+03  0.25500000920E-02 0. -1.
    10030    2    1    2    0    0  0.00000000000E+00  0.00000000000E+00 -0.71750400796E+03  0.93585553201E+03  0.60084405244E+03 0.  0.
        4    1    3    3  502    0 -0.16524707349E+03 -0.64089362221E+02 -0.73656338310E+03  0.75758911810E+03  0.12699999809E+01 0. -1.
       -4    1    3    3    0  502  0.16524707349E+03  0.64089362221E+02  0.19059375139E+02  0.17826641390E+03  0.12699999809E+01 0.  1.
</event>
<event>
 5   0  0.9303190E-03  0.5976728E+03  0.7818609E-02  0.9910246E-01
       -2   -1    0    0    0  501  0.00000000000E+00  0.00000000000E+00  0.93463934152E+03  0.93463934153E+03  0.25500000920E-02 0. -1.
        2   -1    0    0  501    0  0.00000000000E+00  0.00000000000E+00 -0.95548293227E+02  0.95548293262E+02  0.25500000920E-02 0.  1.
    10030    2    1    2    0    0  0.00000000000E+00  0.00000000000E+00  0.83909104830E+03  0.10301876348E+04  0.59767279973E+03 0.  0.
        4    1    3    3  502    0 -0.70252433089E+02  0.18166690473E+03  0.28903148031E+02  0.19691438113E+03  0.12699999809E+01 0.  1.
       -4    1    3    3    0  502  0.70252433089E+02 -0.18166690473E+03  0.81018790027E+03  0.83327325366E+03  0.12699999809E+01 0. -1.
</event>
<event>
 5   0  0.9391405E-03  0.5878956E+03  0.7818609E-02  0.9930842E-01
       -2   -1    0    0    0  501  0.00000000000E+00  0.00000000000E+00  0.38647372918E+02  0.38647373002E+02  0.25500000920E-02 0.  1.
        2   -1    0    0  501    0  0.00000000000E+00  0.00000000000E+00 -0.22357359146E+04  0.22357359146E+04  0.25500000920E-02 0. -1.
    10030    2    1    2    0    0  0.00000000000E+00  0.00000000000E+00 -0.21970885417E+04  0.22743832876E+04  0.58789563609E+03 0.  0.
        2    1    3    3  502    0  0.27255996351E+03 -0.14610821684E+02 -0.15206196238E+04  0.15449227974E+04  0.25500000920E-02 0. -1.
       -2    1    3    3    0  502 -0.27255996351E+03  0.14610821684E+02 -0.67646891790E+03  0.72946049016E+03  0.25500000920E-02 0.  1.
</event>
<event>
 5   0  0.9822607E-03  0.5998761E+03  0.7818609E-02  0.9905663E-01
        2   -1    0    0  501    0  0.00000000000E+00  0.00000000000E+00  0.48193332423E+03  0.48193332424E+03  0.25500000920E-02 0. -1.
       -2   -1    0    0    0  501  0.00000000000E+00  0.00000000000E+00 -0.18667068140E+03  0.18667068142E+03  0.25500000920E-02 0.  1.
    10030    2    1    2    0    0  0.00000000000E+00  0.00000000000E+00  0.29526264283E+03  0.66860400566E+03  0.59987606064E+03 0.  0.
        3    1    3    3  502    0 -0.11787165482E+03  0.21808468071E+03 -0.40556716062E+02  0.25119616316E+03  0.10100000352E+00 0.  1.
       -3    1    3    3    0  502  0.11787165482E+03 -0.21808468071E+03  0.33581935889E+03  0.41740784250E+03  0.10100000352E+00 0. -1.
</event>
<event>
 5   0  0.5790967E-03  0.5990566E+03  0.7818609E-02  0.9907365E-01
       -1   -1    0    0    0  501  0.00000000000E+00  0.00000000000E+00  0.12718343384E+03  0.12718343394E+03  0.50400001928E-02 0. -1.
        1   -1    0    0  501    0  0.00000000000E+00  0.00000000000E+00 -0.70541571329E+03  0.70541571331E+03  0.50400001928E-02 0.  1.
    10030    2    1    2    0    0  0.00000000000E+00  0.00000000000E+00 -0.57823227945E+03  0.83259914725E+03  0.59905656744E+03 0.  0.
        3    1    3    3  502    0  0.12632105787E+03  0.20832214594E+03 -0.53129359941E+03  0.58448954236E+03  0.10100000352E+00 0.  1.
       -3    1    3    3    0  502 -0.12632105787E+03 -0.20832214594E+03 -0.46938680046E+02  0.24810960489E+03  0.10100000352E+00 0. -1.
</event>
<event>
 5   0  0.5891927E-03  0.5969558E+03  0.7818609E-02  0.9911742E-01
       -1   -1    0    0    0  501  0.00000000000E+00  0.00000000000E+00  0.11498372900E+03  0.11498372912E+03  0.50400001928E-02 0.  1.
        1   -1    0    0  501    0  0.00000000000E+00  0.00000000000E+00 -0.77479695051E+03  0.77479695053E+03  0.50400001928E-02 0. -1.
    10030    2    1    2    0    0  0.00000000000E+00  0.00000000000E+00 -0.65981322151E+03  0.88978067964E+03  0.59695575262E+03 0.  0.
        4    1    3    3  502    0  0.23806718719E+03 -0.14430183868E+03 -0.49036151976E+03  0.56387502092E+03  0.12699999809E+01 0. -1.
       -4    1    3    3    0  502 -0.23806718719E+03  0.14430183868E+03 -0.16945170175E+03  0.32590565872E+03  0.12699999809E+01 0.  1.
</event>
<event>
 5   0  0.9822607E-03  0.5993263E+03  0.7818609E-02  0.9906805E-01
        2   -1    0    0  501    0  0.00000000000E+00  0.00000000000E+00  0.41449585831E+03  0.41449585832E+03  0.25500000920E-02 0.  1.
       -2   -1    0    0    0  501  0.00000000000E+00  0.00000000000E+00 -0.21664388224E+03  0.21664388226E+03  0.25500000920E-02 0. -1.
    10030    2    1    2    0    0  0.00000000000E+00  0.00000000000E+00  0.19785197607E+03  0.63113974057E+03  0.59932626148E+03 0.  0.
        3    1    3    3  502    0 -0.27552227402E+03 -0.45799967716E+02  0.21326093341E+03  0.35141200385E+03  0.10100000352E+00 0. -1.
       -3    1    3    3    0  502  0.27552227402E+03  0.45799967716E+02 -0.15408957347E+02  0.27972773673E+03  0.10100000352E+00 0.  1.
</event>
<event>
 5   0  0.9391405E-03  0.6011740E+03  0.7818609E-02  0.9902973E-01
        2   -1    0    0  501    0  0.00000000000E+00  0.00000000000E+00  0.10877242018E+04  0.10877242018E+04  0.25500000920E-02 0.  1.
       -2   -1    0    0    0  501  0.00000000000E+00  0.00000000000E+00 -0.83065673300E+02  0.83065673339E+02  0.25500000920E-02 0. -1.
    10030    2    1    2    0    0  0.00000000000E+00  0.00000000000E+00  0.10046585285E+04  0.11707898752E+04  0.60117399550E+03 0.  0.
        2    1    3    3  502    0 -0.17310265821E+02  0.22125354074E+03  0.10750988615E+03  0.24659916914E+03  0.25500000920E-02 0. -1.
       -2    1    3    3    0  502  0.17310265821E+02 -0.22125354074E+03  0.89714864239E+03  0.92419070604E+03  0.25500000920E-02 0.  1.
</event>
<event>
 5   0  0.5765045E-03  0.5997390E+03  0.7818609E-02  0.9905948E-01
        1   -1    0    0  501    0  0.00000000000E+00  0.00000000000E+00  0.44140974555E+03  0.44140974558E+03  0.50400001928E-02 0.  1.
       -1   -1    0    0    0  501  0.00000000000E+00  0.00000000000E+00 -0.20371486538E+03  0.20371486545E+03  0.50400001928E-02 0. -1.
    10030    2    1    2    0    0  0.00000000000E+00  0.00000000000E+00  0.23769488017E+03  0.64512461103E+03  0.59973903299E+03 0.  0.
        1    1    3    3  502    0  0.20063084364E+03  0.19351499452E+03  0.23776160005E+03  0.36637599130E+03  0.50400001928E-02 0. -1.
       -1    1    3    3    0  502 -0.20063084364E+03 -0.19351499452E+03 -0.66719879273E-01  0.27874861972E+03  0.50400001928E-02 0.  1.
</event>
<event>
 5   0  0.9028473E-03  0.5998357E+03  0.7818609E-02  0.9905747E-01
       -2   -1    0    0    0  501  0.00000000000E+00  0.00000000000E+00  0.65626311878E+02  0.65626311928E+02  0.25500000920E-02 0.  1.
        2   -1    0    0  501    0  0.00000000000E+00  0.00000000000E+00 -0.13706500492E+04  0.13706500492E+04  0.25500000920E-02 0. -1.
    10030    2    1    2    0    0  0.00000000000E+00  0.00000000000E+00 -0.13050237373E+04  0.14362763611E+04  0.59983566963E+03 0.  0.
        1    1    3    3  502    0  0.20635850429E+03 -0.21570136958E+03 -0.72190112515E+03  0.78118637190E+03  0.50400001928E-02 0. -1.
       -1    1    3    3    0  502 -0.20635850429E+03  0.21570136958E+03 -0.58312261215E+03  0.65508998920E+03  0.50400001928E-02 0.  1.
</event>
<event>
 5   0  0.6078658E-03  0.6000285E+03  0.7818609E-02  0.9905347E-01
       -1   -1    0    0    0  501  0.00000000000E+00  0.00000000000E+00  0.15252425395E+03  0.15252425404E+03  0.50400001928E-02 0.  1.
        1   -1    0    0  501    0  0.00000000000E+00  0.00000000000E+00 -0.59012617356E+03  0.59012617358E+03  0.50400001928E-02 0. -1.
    10030    2    1    2    0    0  0.00000000000E+00  0.00000000000E+00 -0.43760191961E+03  0.74265042762E+03  0.60002851399E+03 0.  0.
        2    1    3    3  502    0  0.55991744590E+02 -0.49574962209E+02 -0.57840488373E+03  0.58321948002E+03  0.25500000920E-02 0. -1.
       -2    1    3    3    0  502 -0.55991744590E+02  0.49574962209E+02  0.14080296413E+03  0.15943094760E+03  0.25500000920E-02 0.  1.
</event>
<event>
 5   0  0.9162342E-03  0.5964422E+03  0.7818609E-02  0.9912815E-01
        2   -1    0    0  501    0  0.00000000000E+00  0.00000000000E+00  0.14910255574E+04  0.14910255574E+04  0.25500000920E-02 0. -1.
       -2   -1    0    0    0  501  0.00000000000E+00  0.00000000000E+00 -0.59647415772E+02  0.59647415827E+02  0.25500000920E-02 0.  1.
    10030    2    1    2    0    0  0.00000000000E+00  0.00000000000E+00  0.14313781416E+04  0.15506729732E+04  0.59644218963E+03 0.  0.
        5    1    3    3  502    0 -0.27633963777E+03 -0.10965079266E+03  0.77536388729E+03  0.83042045944E+03  0.46999998093E+01 0. -1.
       -5    1    3    3    0  502  0.27633963777E+03  0.10965079266E+03  0.65601425433E+03  0.72025251378E+03  0.46999998093E+01 0.  1.
</event>
<event>
 5   0  0.3806250E-03  0.6005509E+03  0.7818609E-02  0.9904264E-01
        4   -1    0    0  501    0  0.00000000000E+00  0.00000000000E+00  0.11554806377E+03  0.11555504291E+03  0.12699999809E+01 0. -1.
       -4   -1    0    0    0  501  0.00000000000E+00  0.00000000000E+00 -0.78029654461E+03  0.78029757813E+03  0.12699999809E+01 0.  1.
    10030    2    1    2    0    0  0.00000000000E+00  0.00000000000E+00 -0.66474848084E+03  0.89585262103E+03  0.60055089362E+03 0.  0.
        3    1    3    3  502    0  0.24296255653E+03 -0.94522443841E+02 -0.55463541496E+03  0.61285051195E+03  0.10100000352E+00 0.  1.
       -3    1    3    3    0  502 -0.24296255653E+03  0.94522443841E+02 -0.11011306588E+03  0.28300210908E+03  0.10100000352E+00 0. -1.
</event>
<event>
 5   0  0.5765045E-03  0.6003150E+03  0.7818609E-02  0.9904753E-01
        1   -1    0    0  501    0  0.00000000000E+00  0.00000000000E+00  0.17795189918E+04  0.17795189918E+04  0.50400001928E-02 0.  1.
       -1   -1    0    0    0  501  0.00000000000E+00  0.00000000000E+00 -0.50628575427E+02  0.50628575678E+02  0.50400001928E-02 0. -1.
    10030    2    1    2    0    0  0.00000000000E+00  0.00000000000E+00  0.17288904164E+04  0.18301475675E+04  0.60031495646E+03 0.  0.
        1    1    3    3  502    0  0.37946792939E+02 -0.15877454589E+03  0.96542290638E+02  0.18965687287E+03  0.50400001928E-02 0. -1.
       -1    1    3    3    0  502 -0.37946792939E+02  0.15877454589E+03  0.16323481257E+04  0.16404906946E+04  0.50400001928E-02 0.  1.
</event>
<event>
 5   0  0.5819446E-03  0.6003447E+03  0.7818609E-02  0.9904691E-01
       -1   -1    0    0    0  501  0.00000000000E+00  0.00000000000E+00  0.23866984026E+03  0.23866984032E+03  0.50400001928E-02 0.  1.
        1   -1    0    0  501    0  0.00000000000E+00  0.00000000000E+00 -0.37752329755E+03  0.37752329759E+03  0.50400001928E-02 0. -1.
    10030    2    1    2    0    0  0.00000000000E+00  0.00000000000E+00 -0.13885345729E+03  0.61619313790E+03  0.60034465151E+03 0.  0.
        5    1    3    3  502    0  0.72077641332E+02  0.23688121629E+03  0.10467861118E+03  0.26886353164E+03  0.46999998093E+01 0.  1.
       -5    1    3    3    0  502 -0.72077641332E+02 -0.23688121629E+03 -0.24353206847E+03  0.34732960626E+03  0.46999998093E+01 0. -1.
</event>
<event>
 5   0  0.9028473E-03  0.6008256E+03  0.7818609E-02  0.9903695E-01
       -2   -1    0    0    0  501  0.00000000000E+00  0.00000000000E+00  0.65094254003E+02  0.65094254053E+02  0.25500000920E-02 0. -1.
        2   -1    0    0  501    0  0.00000000000E+00  0.00000000000E+00 -0.13864179875E+04  0.13864179875E+04  0.25500000920E-02 0.  1.
    10030    2    1    2    0    0  0.00000000000E+00  0.00000000000E+00 -0.13213237335E+04  0.14515122415E+04  0.60082558091E+03 0.  0.
        1    1    3    3  502    0  0.24719296689E+03  0.14642524737E+03 -0.44862769181E+03  0.53273963794E+03  0.50400001928E-02 0. -1.
       -1    1    3    3    0  502 -0.24719296689E+03 -0.14642524737E+03 -0.87269604166E+03  0.91877260359E+03  0.50400001928E-02 0.  1.
</event>
<event>
 5   0  0.5790967E-03  0.6004543E+03  0.7818609E-02  0.9904464E-01
       -1   -1    0    0    0  501  0.00000000000E+00  0.00000000000E+00  0.10116742933E+03  0.10116742946E+03  0.50400001928E-02 0. -1.
        1   -1    0    0  501    0  0.00000000000E+00  0.00000000000E+00 -0.89096219834E+03  0.89096219836E+03  0.50400001928E-02 0.  1.
    10030    2    1    2    0    0  0.00000000000E+00  0.00000000000E+00 -0.78979476901E+03  0.99212962782E+03  0.60045434567E+03 0.  0.
        3    1    3    3  502    0 -0.95271229245E+01 -0.11233535399E+03 -0.85465910824E+03  0.86206275835E+03  0.10100000352E+00 0.  1.
       -3    1    3    3    0  502  0.95271229245E+01  0.11233535399E+03  0.64864339231E+02  0.13006686947E+03  0.10100000352E+00 0. -1.
</event>
<event>
 5   0  0.9391405E-03  0.6000339E+03  0.7818609E-02  0.9905336E-01
        2   -1    0    0  501    0  0.00000000000E+00  0.00000000000E+00  0.96077251447E+03  0.96077251448E+03  0.25500000920E-02 0.  1.
       -2   -1    0    0    0  501  0.00000000000E+00  0.00000000000E+00 -0.93685208033E+02  0.93685208068E+02  0.25500000920E-02 0. -1.
    10030    2    1    2    0    0  0.00000000000E+00  0.00000000000E+00  0.86708730644E+03  0.10544577225E+04  0.60003390874E+03 0.  0.
        2    1    3    3  502    0  0.13771314679E+03 -0.13357094007E+03  0.83888955850E+03  0.86054738289E+03  0.25500000920E-02 0.  1.
       -2    1    3    3    0  502 -0.13771314679E+03  0.13357094007E+03  0.28197747937E+02  0.19391033965E+03  0.25500000920E-02 0. -1.
</event>
<event>
 5   0  0.5891927E-03  0.6001571E+03  0.7818609E-02  0.9905080E-01
        1   -1    0    0  501    0  0.00000000000E+00  0.00000000000E+00  0.22106931198E+03  0.22106931204E+03  0.50400001928E-02 0. -1.
       -1   -1    0    0    0  501  0.00000000000E+00  0.00000000000E+00 -0.40732539170E+03  0.40732539173E+03  0.50400001928E-02 0.  1.
    10030    2    1    2    0    0  0.00000000000E+00  0.00000000000E+00 -0.18625607972E+03  0.62839470376E+03  0.60015712650E+03 0.  0.
        4    1    3    3  502    0 -0.46249668713E+02  0.15831022525E+03 -0.35561077555E+03  0.39199718860E+03  0.12699999809E+01 0.  1.
       -4    1    3    3    0  502  0.46249668713E+02 -0.15831022525E+03  0.16935469584E+03  0.23639751517E+03  0.12699999809E+01 0. -1.
</event>
<event>
 5   0  0.5819446E-03  0.6050921E+03  0.7818609E-02  0.9894898E-01
       -1   -1    0    0    0  501  0.00000000000E+00  0.00000000000E+00  0.26577049544E+03  0.26577049549E+03  0.50400001928E-02 0. -1.
        1   -1    0    0  501    0  0.00000000000E+00  0.00000000000E+00 -0.34441036770E+03  0.34441036774E+03  0.50400001928E-02 0.  1.
    10030    2    1    2    0    0  0.00000000000E+00  0.00000000000E+00 -0.78639872264E+02  0.61018086323E+03  0.60509210567E+03 0.  0.
        5    1    3    3  502    0  0.25201286677E+03 -0.88264424486E+02  0.10404080904E+03  0.28661415455E+03  0.46999998093E+01 0. -1.
       -5    1    3    3    0  502 -0.25201286677E+03  0.88264424486E+02 -0.18268068130E+03  0.32356670868E+03  0.46999998093E+01 0.  1.
</event>
<event>
 5   0  0.9162342E-03  0.5993658E+03  0.7818609E-02  0.9906723E-01
        2   -1    0    0  501    0  0.00000000000E+00  0.00000000000E+00  0.22343759170E+03  0.22343759171E+03  0.25500000920E-02 0.  1.
       -2   -1    0    0    0  501  0.00000000000E+00  0.00000000000E+00 -0.40194595638E+03  0.40194595639E+03  0.25500000920E-02 0. -1.
    10030    2    1    2    0    0  0.00000000000E+00  0.00000000000E+00 -0.17850836468E+03  0.62538354810E+03  0.59936578646E+03 0.  0.
        5    1    3    3  502    0  0.21754411367E+03  0.18319107984E+03  0.91992408874E+01  0.28458940450E+03  0.46999998093E+01 0.  1.
       -5    1    3    3    0  502 -0.21754411367E+03 -0.18319107984E+03 -0.18770760557E+03  0.34079414360E+03  0.46999998093E+01 0. -1.
</event>
<event>
 5   0  0.5819446E-03  0.5987037E+03  0.7818609E-02  0.9908099E-01
       -1   -1    0    0    0  501  0.00000000000E+00  0.00000000000E+00  0.12528333370E+03  0.12528333380E+03  0.50400001928E-02 0. -1.
        1   -1    0    0  501    0  0.00000000000E+00  0.00000000000E+00 -0.71527100694E+03  0.71527100696E+03  0.50400001928E-02 0.  1.
    10030    2    1    2    0    0  0.00000000000E+00  0.00000000000E+00 -0.58998767324E+03  0.84055434076E+03  0.59870372071E+03 0.  0.
        5    1    3    3  502    0 -0.18354800590E+03  0.13025041398E+03 -0.57201988809E+03  0.61472260669E+03  0.46999998093E+01 0.  1.
       -5    1    3    3    0  502  0.18354800590E+03 -0.13025041398E+03 -0.17967785150E+02  0.22583173407E+03  0.46999998093E+01 0. -1.
</event>
<event>
 5   0  0.3806250E-03  0.5972540E+03  0.7818609E-02  0.9911119E-01
        4   -1    0    0  501    0  0.00000000000E+00  0.00000000000E+00  0.70570289622E+02  0.70581716311E+02  0.12699999809E+01 0. -1.
       -4   -1    0    0    0  501  0.00000000000E+00  0.00000000000E+00 -0.12635635634E+04  0.12635642016E+04  0.12699999809E+01 0.  1.
    10030    2    1    2    0    0  0.00000000000E+00  0.00000000000E+00 -0.11929932738E+04  0.13341459180E+04  0.59725403230E+03 0.  0.
        1    1    3    3  502    0 -0.27747841162E+03  0.36645382682E+02 -0.36391375530E+03  0.45909734731E+03  0.50400001928E-02 0. -1.
       -1    1    3    3    0  502  0.27747841162E+03 -0.36645382682E+02 -0.82907951849E+03  0.87504857065E+03  0.50400001928E-02 0.  1.
</event>
<event>
 5   0  0.9028473E-03  0.6033011E+03  0.7818609E-02  0.9898581E-01
        2   -1    0    0  501    0  0.00000000000E+00  0.00000000000E+00  0.41455018870E+03  0.41455018871E+03  0.25500000920E-02 0.  1.
       -2   -1    0    0    0  501  0.00000000000E+00  0.00000000000E+00 -0.21949826162E+03  0.21949826163E+03  0.25500000920E-02 0. -1.
    10030    2    1    2    0    0  0.00000000000E+00  0.00000000000E+00  0.19505192709E+03  0.63404845034E+03  0.60330107170E+03 0.  0.
        1    1    3    3  502    0  0.15152102602E+03  0.25472833222E+03  0.15649158699E+03  0.33516378293E+03  0.50400001928E-02 0. -1.
       -1    1    3    3    0  502 -0.15152102602E+03 -0.25472833222E+03  0.38560340094E+02  0.29888466741E+03  0.50400001928E-02 0.  1.
</event>
<event>
 5   0  0.5891927E-03  0.5998488E+03  0.7818609E-02  0.9905720E-01
       -1   -1    0    0    0  501  0.00000000000E+00  0.00000000000E+00  0.92126969298E+02  0.92126969436E+02  0.50400001928E-02 0. -1.
        1   -1    0    0  501    0  0.00000000000E+00  0.00000000000E+00 -0.97642043523E+03  0.97642043524E+03  0.50400001928E-02 0.  1.
    10030    2    1    2    0    0  0.00000000000E+00  0.00000000000E+00 -0.88429346593E+03  0.10685474047E+04  0.59984883275E+03 0.  0.
        4    1    3    3  502    0 -0.11744345930E+03 -0.40493875581E+02 -0.92843001448E+03  0.93670519630E+03  0.12699999809E+01 0.  1.
       -4    1    3    3    0  502  0.11744345930E+03  0.40493875581E+02  0.44136548551E+02  0.13184220837E+03  0.12699999809E+01 0. -1.
</event>
<event>
 5   0  0.9028473E-03  0.6007738E+03  0.7818609E-02  0.9903802E-01
        2   -1    0    0  501    0  0.00000000000E+00  0.00000000000E+00  0.89701800238E+03  0.89701800238E+03  0.25500000920E-02 0. -1.
       -2   -1    0    0    0  501  0.00000000000E+00  0.00000000000E+00 -0.10059139670E+03  0.10059139673E+03  0.25500000920E-02 0.  1.
    10030    2    1    2    0    0  0.00000000000E+00  0.00000000000E+00  0.79642660568E+03  0.99760939911E+03  0.60077381348E+03 0.  0.
        1    1    3    3  502    0 -0.14711471392E+03 -0.13895851854E+03  0.29587899245E+02  0.20451809879E+03  0.50400001928E-02 0.  1.
       -1    1    3    3    0  502  0.14711471392E+03  0.13895851854E+03  0.76683870644E+03  0.79309130032E+03  0.50400001928E-02 0. -1.
</event>
<event>
 5   0  0.9028473E-03  0.5989509E+03  0.7818609E-02  0.9907585E-01
       -2   -1    0    0    0  501  0.00000000000E+00  0.00000000000E+00  0.33964040537E+03  0.33964040538E+03  0.25500000920E-02 0. -1.
        2   -1    0    0  501    0  0.00000000000E+00  0.00000000000E+00 -0.26406025919E+03  0.26406025921E+03  0.25500000920E-02 0.  1.
    10030    2    1    2    0    0  0.00000000000E+00  0.00000000000E+00  0.75580146174E+02  0.60370066458E+03  0.59895086102E+03 0.  0.
        1    1    3    3  502    0 -0.57100661381E+02 -0.49955593041E+02  0.32979336248E+03  0.33840760743E+03  0.50400001928E-02 0. -1.
       -1    1    3    3    0  502  0.57100661381E+02  0.49955593041E+02 -0.25421321630E+03  0.26529305715E+03  0.50400001928E-02 0.  1.
</event>
<event>
 5   0  0.5891927E-03  0.6006782E+03  0.7818609E-02  0.9904000E-01
       -1   -1    0    0    0  501  0.00000000000E+00  0.00000000000E+00  0.15528964301E+03  0.15528964309E+03  0.50400001928E-02 0. -1.
        1   -1    0    0  501    0  0.00000000000E+00  0.00000000000E+00 -0.58087302867E+03  0.58087302869E+03  0.50400001928E-02 0.  1.
    10030    2    1    2    0    0  0.00000000000E+00  0.00000000000E+00 -0.42558338566E+03  0.73616267178E+03  0.60067816772E+03 0.  0.
        4    1    3    3  502    0 -0.13118066762E+03  0.19766974829E+03 -0.43850725444E+03  0.49856987679E+03  0.12699999809E+01 0.  1.
       -4    1    3    3    0  502  0.13118066762E+03 -0.19766974829E+03  0.12923868783E+02  0.23759279499E+03  0.12699999809E+01 0. -1.
</event>
<event>
 5   0  0.5790967E-03  0.6001141E+03  0.7818609E-02  0.9905169E-01
       -1   -1    0    0    0  501  0.00000000000E+00  0.00000000000E+00  0.14736639506E+03  0.14736639514E+03  0.50400001928E-02 0.  1.
        1   -1    0    0  501    0  0.00000000000E+00  0.00000000000E+00 -0.61095503571E+03  0.61095503573E+03  0.50400001928E-02 0. -1.
    10030    2    1    2    0    0  0.00000000000E+00  0.00000000000E+00 -0.46358864065E+03  0.75832143087E+03  0.60011412646E+03 0.  0.
        3    1    3    3  502    0 -0.27841269649E+03  0.10966527044E+03 -0.25988356363E+03  0.39633266072E+03  0.10100000352E+00 0.  1.
       -3    1    3    3    0  502  0.27841269649E+03 -0.10966527044E+03 -0.20370507702E+03  0.36198877015E+03  0.10100000352E+00 0. -1.
</event>
<event>
 5   0  0.3806250E-03  0.5984161E+03  0.7818609E-02  0.9908698E-01
       -3   -1    0    0    0  501  0.00000000000E+00  0.00000000000E+00  0.28441552810E+03  0.28441554603E+03  0.10100000352E+00 0. -1.
        3   -1    0    0  501    0  0.00000000000E+00  0.00000000000E+00 -0.31476993272E+03  0.31476994893E+03  0.10100000352E+00 0.  1.
    10030    2    1    2    0    0  0.00000000000E+00  0.00000000000E+00 -0.30354404627E+02  0.59918549496E+03  0.59841613238E+03 0.  0.
        4    1    3    3  502    0  0.69629615742E+02  0.18190695039E+03  0.21223906888E+03  0.28807196540E+03  0.12699999809E+01 0. -1.
       -4    1    3    3    0  502 -0.69629615742E+02 -0.18190695039E+03 -0.24259347351E+03  0.31111352956E+03  0.12699999809E+01 0.  1.
</event>
<event>
 5   0  0.9303190E-03  0.5988979E+03  0.7818609E-02  0.9907695E-01
        2   -1    0    0  501    0  0.00000000000E+00  0.00000000000E+00  0.12073807863E+04  0.12073807863E+04  0.25500000920E-02 0.  1.
       -2   -1    0    0    0  501  0.00000000000E+00  0.00000000000E+00 -0.74267936936E+02  0.74267936980E+02  0.25500000920E-02 0. -1.
    10030    2    1    2    0    0  0.00000000000E+00  0.00000000000E+00  0.11331128493E+04  0.12816487233E+04  0.59889792160E+03 0.  0.
        4    1    3    3  502    0  0.10335219169E+03 -0.17110358553E+03  0.10436877024E+04  0.10626588095E+04  0.12699999809E+01 0.  1.
       -4    1    3    3    0  502 -0.10335219169E+03  0.17110358553E+03  0.89425146990E+02  0.21898991374E+03  0.12699999809E+01 0. -1.
</event>
<event>
 5   0  0.5891927E-03  0.6001620E+03  0.7818609E-02  0.9905070E-01
        1   -1    0    0  501    0  0.00000000000E+00  0.00000000000E+00  0.42725098844E+03  0.42725098847E+03  0.50400001928E-02 0.  1.
       -1   -1    0    0    0  501  0.00000000000E+00  0.00000000000E+00 -0.21076278264E+03  0.21076278270E+03  0.50400001928E-02 0. -1.
    10030    2    1    2    0    0  0.00000000000E+00  0.00000000000E+00  0.21648820579E+03  0.63801377117E+03  0.60016200226E+03 0.  0.
        4    1    3    3  502    0  0.26584541249E+03 -0.10608045595E+03  0.12448951996E+02  0.28650206942E+03  0.12699999809E+01 0. -1.
       -4    1    3    3    0  502 -0.26584541249E+03  0.10608045595E+03  0.20403925380E+03  0.35151170175E+03  0.12699999809E+01 0.  1.
</event>
<event>
 5   0  0.5765045E-03  0.5981773E+03  0.7818609E-02  0.9909195E-01
       -1   -1    0    0    0  501  0.00000000000E+00  0.00000000000E+00  0.17246770332E+03  0.17246770339E+03  0.50400001928E-02 0.  1.
        1   -1    0    0  501    0  0.00000000000E+00  0.00000000000E+00 -0.51867111532E+03  0.51867111535E+03  0.50400001928E-02 0. -1.
    10030    2    1    2    0    0  0.00000000000E+00  0.00000000000E+00 -0.34620341200E+03  0.69113881874E+03  0.59817728500E+03 0.  0.
        1    1    3    3  502    0 -0.19764365996E+03 -0.39269193743E+02 -0.42846760227E+03  0.47348661240E+03  0.50400001928E-02 0. -1.
       -1    1    3    3    0  502  0.19764365996E+03  0.39269193743E+02  0.82264190267E+02  0.21765220634E+03  0.50400001928E-02 0.  1.
</event>
<event>
 5   0  0.5819446E-03  0.5988899E+03  0.7818609E-02  0.9907712E-01
       -1   -1    0    0    0  501  0.00000000000E+00  0.00000000000E+00  0.19102605140E+03  0.19102605146E+03  0.50400001928E-02 0.  1.
        1   -1    0    0  501    0  0.00000000000E+00  0.00000000000E+00 -0.46939819617E+03  0.46939819620E+03  0.50400001928E-02 0. -1.
    10030    2    1    2    0    0  0.00000000000E+00  0.00000000000E+00 -0.27837214477E+03  0.66042424766E+03  0.59888991969E+03 0.  0.
        5    1    3    3  502    0  0.69886384443E+01  0.24279658459E+03 -0.33223354497E+03  0.41158260527E+03  0.46999998093E+01 0. -1.
       -5    1    3    3    0  502 -0.69886384443E+01 -0.24279658459E+03  0.53861400203E+02  0.24884164239E+03  0.46999998093E+01 0.  1.
</event>
<event>
 5   0  0.9303190E-03  0.5855775E+03  0.7818609E-02  0.9935788E-01
        2   -1    0    0  501    0  0.00000000000E+00  0.00000000000E+00  0.30838861294E+03  0.30838861295E+03  0.25500000920E-02 0. -1.
       -2   -1    0    0    0  501  0.00000000000E+00  0.00000000000E+00 -0.27797801571E+03  0.27797801572E+03  0.25500000920E-02 0.  1.
    10030    2    1    2    0    0  0.00000000000E+00  0.00000000000E+00  0.30410597228E+02  0.58636662867E+03  0.58557750879E+03 0.  0.
        4    1    3    3  502    0  0.26784304492E+03 -0.62251224244E+02 -0.85471376365E+02  0.28796194316E+03  0.12699999809E+01 0.  1.
       -4    1    3    3    0  502 -0.26784304492E+03  0.62251224244E+02  0.11588197359E+03  0.29840468551E+03  0.12699999809E+01 0. -1.
</event>
<event>
 5   0  0.9391405E-03  0.5998574E+03  0.7818609E-02  0.9905702E-01
        2   -1    0    0  501    0  0.00000000000E+00  0.00000000000E+00  0.42519608216E+03  0.42519608217E+03  0.25500000920E-02 0.  1.
       -2   -1    0    0    0  501  0.00000000000E+00  0.00000000000E+00 -0.21156648066E+03  0.21156648068E+03  0.25500000920E-02 0. -1.
    10030    2    1    2    0    0  0.00000000000E+00  0.00000000000E+00  0.21362960150E+03  0.63676256285E+03  0.59985744541E+03 0.  0.
        2    1    3    3  502    0 -0.13700865720E+03 -0.24992478964E+03  0.20596052886E+03  0.35164401328E+03  0.25500000920E-02 0.  1.
       -2    1    3    3    0  502  0.13700865720E+03  0.24992478964E+03  0.76690726441E+01  0.28511854957E+03  0.25500000920E-02 0. -1.
</event>
<event>
 5   0  0.5819446E-03  0.5995462E+03  0.7818609E-02  0.9906348E-01
        1   -1    0    0  501    0  0.00000000000E+00  0.00000000000E+00  0.67879916123E+03  0.67879916125E+03  0.50400001928E-02 0.  1.
       -1   -1    0    0    0  501  0.00000000000E+00  0.00000000000E+00 -0.13238659513E+03  0.13238659523E+03  0.50400001928E-02 0. -1.
    10030    2    1    2    0    0  0.00000000000E+00  0.00000000000E+00  0.54641256610E+03  0.81118575648E+03  0.59954619432E+03 0.  0.
        5    1    3    3  502    0  0.17307779129E+03  0.44938340926E+01  0.60425103741E+03  0.62858374350E+03  0.46999998093E+01 0.  1.
       -5    1    3    3    0  502 -0.17307779129E+03 -0.44938340926E+01 -0.57838471312E+02  0.18260201298E+03  0.46999998093E+01 0. -1.
</event>
<event>
 5   0  0.5765045E-03  0.6000883E+03  0.7818609E-02  0.9905223E-01
        1   -1    0    0  501    0  0.00000000000E+00  0.00000000000E+00  0.13448417004E+03  0.13448417013E+03  0.50400001928E-02 0.  1.
       -1   -1    0    0    0  501  0.00000000000E+00  0.00000000000E+00 -0.66942077804E+03  0.66942077806E+03  0.50400001928E-02 0. -1.
    10030    2    1    2    0    0  0.00000000000E+00  0.00000000000E+00 -0.53493660801E+03  0.80390494819E+03  0.60008831945E+03 0.  0.
        1    1    3    3  502    0 -0.24814070421E+01 -0.29415793488E+03 -0.34662586876E+03  0.45462571523E+03  0.50400001928E-02 0. -1.
       -1    1    3    3    0  502  0.24814070421E+01  0.29415793488E+03 -0.18831073925E+03  0.34927923296E+03  0.50400001928E-02 0.  1.
</event>
<event>
 5   0  0.9822607E-03  0.5998071E+03  0.7818609E-02  0.9905806E-01
        2   -1    0    0  501    0  0.00000000000E+00  0.00000000000E+00  0.13127076634E+04  0.13127076634E+04  0.25500000920E-02 0.  1.
       -2   -1    0    0    0  501  0.00000000000E+00  0.00000000000E+00 -0.68516495807E+02  0.68516495854E+02  0.25500000920E-02 0. -1.
    10030    2    1    2    0    0  0.00000000000E+00  0.00000000000E+00  0.12441911676E+04  0.13812241592E+04  0.59980706614E+03 0.  0.
        3    1    3    3  502    0 -0.81200575843E+01  0.29343593782E+03  0.48067533328E+03  0.56322231061E+03  0.10100000352E+00 0. -1.
       -3    1    3    3    0  502  0.81200575843E+01 -0.29343593782E+03  0.76351583428E+03  0.81800184861E+03  0.10100000352E+00 0.  1.
</event>
<event>
 5   0  0.9303190E-03  0.6000364E+03  0.7818609E-02  0.9905331E-01
        2   -1    0    0  501    0  0.00000000000E+00  0.00000000000E+00  0.10497926274E+04  0.10497926274E+04  0.25500000920E-02 0.  1.
       -2   -1    0    0    0  501  0.00000000000E+00  0.00000000000E+00 -0.85741622160E+02  0.85741622198E+02  0.25500000920E-02 0. -1.
    10030    2    1    2    0    0  0.00000000000E+00  0.00000000000E+00  0.96405100520E+03  0.11355342496E+04  0.60003640831E+03 0.  0.
        4    1    3    3  502    0 -0.11953777175E+03 -0.19308879748E+03  0.11100667441E+03  0.25277788125E+03  0.12699999809E+01 0. -1.
       -4    1    3    3    0  502  0.11953777175E+03  0.19308879748E+03  0.85304433080E+03  0.88275636831E+03  0.12699999809E+01 0.  1.
</event>
<event>
 5   0  0.9303190E-03  0.5996251E+03  0.7818609E-02  0.9906184E-01
       -2   -1    0    0    0  501  0.00000000000E+00  0.00000000000E+00  0.23934911157E+03  0.23934911159E+03  0.25500000920E-02 0. -1.
        2   -1    0    0  501    0  0.00000000000E+00  0.00000000000E+00 -0.37555006750E+03  0.37555006751E+03  0.25500000920E-02 0.  1.
    10030    2    1    2    0    0  0.00000000000E+00  0.00000000000E+00 -0.13620095593E+03  0.61489917910E+03  0.59962513294E+03 0.  0.
        4    1    3    3  502    0  0.28032401860E+03  0.60799554325E+02 -0.15754509844E+03  0.32726168757E+03  0.12699999809E+01 0.  1.
       -4    1    3    3    0  502 -0.28032401860E+03 -0.60799554325E+02  0.21344142513E+02  0.28763749152E+03  0.12699999809E+01 0. -1.
</event>
<event>
 5   0  0.5790967E-03  0.6002694E+03  0.7818609E-02  0.9904847E-01
       -1   -1    0    0    0  501  0.00000000000E+00  0.00000000000E+00  0.23282257114E+03  0.23282257119E+03  0.50400001928E-02 0.  1.
        1   -1    0    0  501    0  0.00000000000E+00  0.00000000000E+00 -0.38690769826E+03  0.38690769829E+03  0.50400001928E-02 0. -1.
    10030    2    1    2    0    0  0.00000000000E+00  0.00000000000E+00 -0.15408512712E+03  0.61973026948E+03  0.60026942327E+03 0.  0.
        3    1    3    3  502    0  0.20256091117E+03  0.18780863580E+03 -0.19822700759E+03  0.33999553402E+03  0.10100000352E+00 0. -1.
       -3    1    3    3    0  502 -0.20256091117E+03 -0.18780863580E+03  0.44141880466E+02  0.27973473546E+03  0.10100000352E+00 0.  1.
</event>
<event>
 5   0  0.5790967E-03  0.6002620E+03  0.7818609E-02  0.9904863E-01
        1   -1    0    0  501    0  0.00000000000E+00  0.00000000000E+00  0.32245402418E+03  0.32245402422E+03  0.50400001928E-02 0. -1.
       -1   -1    0    0    0  501  0.00000000000E+00  0.00000000000E+00 -0.27935333491E+03  0.27935333496E+03  0.50400001928E-02 0.  1.
    10030    2    1    2    0    0  0.00000000000E+00  0.00000000000E+00  0.43100689267E+02  0.60180735917E+03  0.60026196626E+03 0.  0.
        3    1    3    3  502    0 -0.83109622176E+02 -0.39553465225E+02 -0.26485435302E+03  0.28039173388E+03  0.10100000352E+00 0.  1.
       -3    1    3    3    0  502  0.83109622176E+02  0.39553465225E+02  0.30795504229E+03  0.32141562529E+03  0.10100000352E+00 0. -1.
</event>
<event>
 5   0  0.5765045E-03  0.6002773E+03  0.7818609E-02  0.9904831E-01
       -1   -1    0    0    0  501  0.00000000000E+00  0.00000000000E+00  0.17182606861E+03  0.17182606868E+03  0.50400001928E-02 0.  1.
        1   -1    0    0  501    0  0.00000000000E+00  0.00000000000E+00 -0.52426981835E+03  0.52426981837E+03  0.50400001928E-02 0. -1.
    10030    2    1    2    0    0  0.00000000000E+00  0.00000000000E+00 -0.35244374974E+03  0.69609588705E+03  0.60027734194E+03 0.  0.
        1    1    3    3  502    0 -0.77088850916E+02 -0.21305458768E+03  0.52045211388E+02  0.23247290664E+03  0.50400001928E-02 0.  1.
       -1    1    3    3    0  502  0.77088850916E+02  0.21305458768E+03 -0.40448896113E+03  0.46362298041E+03  0.50400001928E-02 0. -1.
</event>
<event>
 5   0  0.3806250E-03  0.6000781E+03  0.7818609E-02  0.9905244E-01
       -4   -1    0    0    0  501  0.00000000000E+00  0.00000000000E+00  0.42163090380E+03  0.42163281649E+03  0.12699999809E+01 0. -1.
        4   -1    0    0  501    0  0.00000000000E+00  0.00000000000E+00 -0.21350809346E+03  0.21351187057E+03  0.12699999809E+01 0.  1.
    10030    2    1    2    0    0  0.00000000000E+00  0.00000000000E+00  0.20812281034E+03  0.63514468706E+03  0.60007805268E+03 0.  0.
        4    1    3    3  502    0  0.17726539841E+03  0.13421144166E+02  0.35988506430E+03  0.40140007597E+03  0.12699999809E+01 0. -1.
       -4    1    3    3    0  502 -0.17726539841E+03 -0.13421144166E+02 -0.15176225396E+03  0.23374461108E+03  0.12699999809E+01 0.  1.
</event>
<event>
 5   0  0.9822607E-03  0.6005195E+03  0.7818609E-02  0.9904329E-01
       -2   -1    0    0    0  501  0.00000000000E+00  0.00000000000E+00  0.51305285993E+02  0.51305286056E+02  0.25500000920E-02 0. -1.
        2   -1    0    0  501    0  0.00000000000E+00  0.00000000000E+00 -0.17572440066E+04  0.17572440066E+04  0.25500000920E-02 0.  1.
    10030    2    1    2    0    0  0.00000000000E+00  0.00000000000E+00 -0.17059387206E+04  0.18085492927E+04  0.60051946306E+03 0.  0.
        3    1    3    3  502    0  0.29609644180E+02 -0.11440510287E+02  0.46237779141E+02  0.56085280823E+02  0.10100000352E+00 0. -1.
       -3    1    3    3    0  502 -0.29609644180E+02  0.11440510287E+02 -0.17521764998E+04  0.17524640119E+04  0.10100000352E+00 0.  1.
</event>
<event>
 5   0  0.9822607E-03  0.5991942E+03  0.7818609E-02  0.9907079E-01
        2   -1    0    0  501    0  0.00000000000E+00  0.00000000000E+00  0.45749307917E+03  0.45749307918E+03  0.25500000920E-02 0.  1.
       -2   -1    0    0    0  501  0.00000000000E+00  0.00000000000E+00 -0.19619622829E+03  0.19619622831E+03  0.25500000920E-02 0. -1.
    10030    2    1    2    0    0  0.00000000000E+00  0.00000000000E+00  0.26129685088E+03  0.65368930749E+03  0.59919418092E+03 0.  0.
        3    1    3    3  502    0 -0.10643988780E+03 -0.85313975124E+02  0.42164824416E+03  0.44316495357E+03  0.10100000352E+00 0.  1.
       -3    1    3    3    0  502  0.10643988780E+03  0.85313975124E+02 -0.16035139328E+03  0.21052435392E+03  0.10100000352E+00 0. -1.
</event>
<event>
 5   0  0.3806250E-03  0.5995368E+03  0.7818609E-02  0.9906368E-01
        3   -1    0    0  501    0  0.00000000000E+00  0.00000000000E+00  0.86528552749E+03  0.86528553338E+03  0.10100000352E+00 0. -1.
       -3   -1    0    0    0  501  0.00000000000E+00  0.00000000000E+00 -0.10385134636E+03  0.10385139548E+03  0.10100000352E+00 0.  1.
    10030    2    1    2    0    0  0.00000000000E+00  0.00000000000E+00  0.76143418113E+03  0.96913692886E+03  0.59953680011E+03 0.  0.
        1    1    3    3  502    0 -0.42358501957E+02  0.18418834389E+03  0.75684404607E+03  0.78008493051E+03  0.50400001928E-02 0. -1.
       -1    1    3    3    0  502  0.42358501957E+02 -0.18418834389E+03  0.45901350589E+01  0.18905199835E+03  0.50400001928E-02 0.  1.
</event>
<event>
 5   0  0.5790967E-03  0.6006306E+03  0.7818609E-02  0.9904099E-01
        1   -1    0    0  501    0  0.00000000000E+00  0.00000000000E+00  0.46654890080E+03  0.46654890083E+03  0.50400001928E-02 0.  1.
       -1   -1    0    0    0  501  0.00000000000E+00  0.00000000000E+00 -0.19331150314E+03  0.19331150321E+03  0.50400001928E-02 0. -1.
    10030    2    1    2    0    0  0.00000000000E+00  0.00000000000E+00  0.27323739766E+03  0.65986040403E+03  0.60063056643E+03 0.  0.
        3    1    3    3  502    0  0.54182138047E+02  0.19829930824E+03 -0.10390208424E+03  0.23033448079E+03  0.10100000352E+00 0. -1.
       -3    1    3    3    0  502 -0.54182138047E+02 -0.19829930824E+03  0.37713948190E+03  0.42952592325E+03  0.10100000352E+00 0.  1.
</event>
<event>
 5   0  0.9391405E-03  0.5979221E+03  0.7818609E-02  0.9909726E-01
        2   -1    0    0  501    0  0.00000000000E+00  0.00000000000E+00  0.40407824760E+03  0.40407824761E+03  0.25500000920E-02 0.  1.
       -2   -1    0    0    0  501  0.00000000000E+00  0.00000000000E+00 -0.22118913453E+03  0.22118913455E+03  0.25500000920E-02 0. -1.
    10030    2    1    2    0    0  0.00000000000E+00  0.00000000000E+00  0.18288911307E+03  0.62526738216E+03  0.59792212830E+03 0.  0.
        2    1    3    3  502    0 -0.28016400767E+03  0.10362867036E+03  0.10412104846E+03  0.31634153261E+03  0.25500000920E-02 0.  1.
       -2    1    3    3    0  502  0.28016400767E+03 -0.10362867036E+03  0.78768064613E+02  0.30892584955E+03  0.25500000920E-02 0. -1.
</event>
<event>
 5   0  0.9028473E-03  0.5994956E+03  0.7818609E-02  0.9906453E-01
        2   -1    0    0  501    0  0.00000000000E+00  0.00000000000E+00  0.16121078511E+04  0.16121078511E+04  0.25500000920E-02 0. -1.
       -2   -1    0    0    0  501  0.00000000000E+00  0.00000000000E+00 -0.55733698079E+02  0.55733698137E+02  0.25500000920E-02 0.  1.
    10030    2    1    2    0    0  0.00000000000E+00  0.00000000000E+00  0.15563741531E+04  0.16678415493E+04  0.59949556227E+03 0.  0.
        1    1    3    3  502    0 -0.18257137424E+03 -0.17909367229E+03  0.34324027769E+03  0.42804291654E+03  0.50400001928E-02 0.  1.
       -1    1    3    3    0  502  0.18257137424E+03  0.17909367229E+03  0.12131338754E+04  0.12397986327E+04  0.50400001928E-02 0. -1.
</event>
<event>
 5   0  0.9303190E-03  0.5991265E+03  0.7818609E-02  0.9907220E-01
       -2   -1    0    0    0  501  0.00000000000E+00  0.00000000000E+00  0.20808726667E+03  0.20808726668E+03  0.25500000920E-02 0. -1.
        2   -1    0    0  501    0  0.00000000000E+00  0.00000000000E+00 -0.43125248457E+03  0.43125248458E+03  0.25500000920E-02 0.  1.
    10030    2    1    2    0    0  0.00000000000E+00  0.00000000000E+00 -0.22316521791E+03  0.63933975126E+03  0.59912653343E+03 0.  0.
        4    1    3    3  502    0  0.91909012848E+02  0.10222825976E+03  0.17243698676E+03  0.22053120196E+03  0.12699999809E+01 0. -1.
       -4    1    3    3    0  502 -0.91909012848E+02 -0.10222825976E+03 -0.39560220466E+03  0.41880854930E+03  0.12699999809E+01 0.  1.
</event>
<event>
 5   0  0.3806250E-03  0.6019250E+03  0.7818609E-02  0.9901420E-01
        3   -1    0    0  501    0  0.00000000000E+00  0.00000000000E+00  0.12653410123E+04  0.12653410163E+04  0.10100000352E+00 0. -1.
       -3   -1    0    0    0  501  0.00000000000E+00  0.00000000000E+00 -0.71584152496E+02  0.71584223747E+02  0.10100000352E+00 0.  1.
    10030    2    1    2    0    0  0.00000000000E+00  0.00000000000E+00  0.11937568598E+04  0.13369252401E+04  0.60192495980E+03 0.  0.
        1    1    3    3  502    0  0.13757570438E+03  0.22684702180E+03  0.28126756182E+03  0.38664982490E+03  0.50400001928E-02 0.  1.
       -1    1    3    3    0  502 -0.13757570438E+03 -0.22684702180E+03  0.91248929801E+03  0.95027541520E+03  0.50400001928E-02 0. -1.
</event>
<event>
 5   0  0.5819446E-03  0.6017096E+03  0.7818609E-02  0.9901866E-01
        1   -1    0    0  501    0  0.00000000000E+00  0.00000000000E+00  0.11851108985E+04  0.11851108985E+04  0.50400001928E-02 0. -1.
       -1   -1    0    0    0  501  0.00000000000E+00  0.00000000000E+00 -0.76375634642E+02  0.76375634809E+02  0.50400001928E-02 0.  1.
    10030    2    1    2    0    0  0.00000000000E+00  0.00000000000E+00  0.11087352639E+04  0.12614865333E+04  0.60170955488E+03 0.  0.
        5    1    3    3  502    0 -0.19198732643E+03 -0.22975893884E+03  0.61524585140E+03  0.68424984557E+03  0.46999998093E+01 0.  1.
       -5    1    3    3    0  502  0.19198732643E+03  0.22975893884E+03  0.49348941246E+03  0.57723668776E+03  0.46999998093E+01 0. -1.
</event>
<event>
 5   0  0.9028473E-03  0.5972148E+03  0.7818609E-02  0.9911201E-01
       -2   -1    0    0    0  501  0.00000000000E+00  0.00000000000E+00  0.21987605064E+03  0.21987605065E+03  0.25500000920E-02 0.  1.
        2   -1    0    0  501    0  0.00000000000E+00  0.00000000000E+00 -0.40553018297E+03  0.40553018298E+03  0.25500000920E-02 0. -1.
    10030    2    1    2    0    0  0.00000000000E+00  0.00000000000E+00 -0.18565413233E+03  0.62540623363E+03  0.59721478566E+03 0.  0.
        1    1    3    3  502    0  0.90360043340E+02  0.63705337004E+02 -0.38330717789E+03  0.39893320248E+03  0.50400001928E-02 0. -1.
       -1    1    3    3    0  502 -0.90360043340E+02 -0.63705337004E+02  0.19765304556E+03  0.22647303115E+03  0.50400001928E-02 0.  1.
</event>
<event>
 5   0  0.9822607E-03  0.6003618E+03  0.7818609E-02  0.9904656E-01
        2   -1    0    0  501    0  0.00000000000E+00  0.00000000000E+00  0.59331222573E+03  0.59331222573E+03  0.25500000920E-02 0. -1.
       -2   -1    0    0    0  501  0.00000000000E+00  0.00000000000E+00 -0.15187378549E+03  0.15187378551E+03  0.25500000920E-02 0.  1.
    10030    2    1    2    0    0  0.00000000000E+00  0.00000000000E+00  0.44143844024E+03  0.74518601124E+03  0.60036180328E+03 0.  0.
        3    1    3    3  502    0  0.10313820790E+03  0.27464819832E+03  0.29960745899E+03  0.41932536586E+03  0.10100000352E+00 0.  1.
       -3    1    3    3    0  502 -0.10313820790E+03 -0.27464819832E+03  0.14183098125E+03  0.32586064539E+03  0.10100000352E+00 0. -1.
</event>
<event>
 5   0  0.5891927E-03  0.6017542E+03  0.7818609E-02  0.9901773E-01
        1   -1    0    0  501    0  0.00000000000E+00  0.00000000000E+00  0.24199310897E+03  0.24199310902E+03  0.50400001928E-02 0. -1.
       -1   -1    0    0    0  501  0.00000000000E+00  0.00000000000E+00 -0.37408925747E+03  0.37408925751E+03  0.50400001928E-02 0.  1.
    10030    2    1    2    0    0  0.00000000000E+00  0.00000000000E+00 -0.13209614851E+03  0.61608236653E+03  0.60175417730E+03 0.  0.
        4    1    3    3  502    0 -0.17633905654E+02 -0.21136853627E+03 -0.28452504843E+03  0.35488551512E+03  0.12699999809E+01 0.  1.
       -4    1    3    3    0  502  0.17633905654E+02  0.21136853627E+03  0.15242889992E+03  0.26119685141E+03  0.12699999809E+01 0. -1.
</event>
<event>
 5   0  0.3806250E-03  0.5994979E+03  0.7818609E-02  0.9906448E-01
       -3   -1    0    0    0  501  0.00000000000E+00  0.00000000000E+00  0.67691873748E+03  0.67691874501E+03  0.10100000352E+00 0.  1.
        3   -1    0    0  501    0  0.00000000000E+00  0.00000000000E+00 -0.13273295615E+03  0.13273299458E+03  0.10100000352E+00 0. -1.
    10030    2    1    2    0    0  0.00000000000E+00  0.00000000000E+00  0.54418578133E+03  0.80965173959E+03  0.59949793563E+03 0.  0.
        5    1    3    3  502    0 -0.54286512606E+02  0.21340525007E+03  0.54668500603E+03  0.58938562252E+03  0.46999998093E+01 0.  1.
       -5    1    3    3    0  502  0.54286512606E+02 -0.21340525007E+03 -0.24992247053E+01  0.22026611708E+03  0.46999998093E+01 0. -1.
</event>
<event>
 5   0  0.9162342E-03  0.5991242E+03  0.7818609E-02  0.9907225E-01
        2   -1    0    0  501    0  0.00000000000E+00  0.00000000000E+00  0.99781095586E+03  0.99781095586E+03  0.25500000920E-02 0.  1.
       -2   -1    0    0    0  501  0.00000000000E+00  0.00000000000E+00 -0.89934319693E+02  0.89934319729E+02  0.25500000920E-02 0. -1.
    10030    2    1    2    0    0  0.00000000000E+00  0.00000000000E+00  0.90787663617E+03  0.10877452756E+04  0.59912419253E+03 0.  0.
        5    1    3    3  502    0  0.86543157005E+01  0.25598857362E+03  0.17202748246E+03  0.30857833969E+03  0.46999998093E+01 0. -1.
       -5    1    3    3    0  502 -0.86543157005E+01 -0.25598857362E+03  0.73584915370E+03  0.77916693591E+03  0.46999998093E+01 0.  1.
</event>
<event>
 5   0  0.9391405E-03  0.5993608E+03  0.7818609E-02  0.9906733E-01
        2   -1    0    0  501    0  0.00000000000E+00  0.00000000000E+00  0.36402736040E+03  0.36402736041E+03  0.25500000920E-02 0. -1.
       -2   -1    0    0    0  501  0.00000000000E+00  0.00000000000E+00 -0.24670765204E+03  0.24670765205E+03  0.25500000920E-02 0.  1.
    10030    2    1    2    0    0  0.00000000000E+00  0.00000000000E+00  0.11731970836E+03  0.61073501246E+03  0.59936077739E+03 0.  0.
        2    1    3    3  502    0  0.16375762132E+03 -0.23627147986E+03  0.14492796906E+03  0.32193925973E+03  0.25500000920E-02 0.  1.
       -2    1    3    3    0  502 -0.16375762132E+03  0.23627147986E+03 -0.27608260695E+02  0.28879575274E+03  0.25500000920E-02 0. -1.
</event>
<event>
 5   0  0.9391405E-03  0.6025856E+03  0.7818609E-02  0.9900056E-01
        2   -1    0    0  501    0  0.00000000000E+00  0.00000000000E+00  0.92992614466E+03  0.92992614467E+03  0.25500000920E-02 0.  1.
       -2   -1    0    0    0  501  0.00000000000E+00  0.00000000000E+00 -0.97617804282E+02  0.97617804315E+02  0.25500000920E-02 0. -1.
    10030    2    1    2    0    0  0.00000000000E+00  0.00000000000E+00  0.83230834038E+03  0.10275439490E+04  0.60258559029E+03 0.  0.
        2    1    3    3  502    0 -0.19588725412E+02  0.16275114633E+03 -0.14919447080E+02  0.16460329190E+03  0.25500000920E-02 0. -1.
       -2    1    3    3    0  502  0.19588725412E+02 -0.16275114633E+03  0.84722778746E+03  0.86294065708E+03  0.25500000920E-02 0.  1.
</event>
<event>
 5   0  0.5790967E-03  0.5928795E+03  0.7818609E-02  0.9920290E-01
        1   -1    0    0  501    0  0.00000000000E+00  0.00000000000E+00  0.26578514358E+03  0.26578514362E+03  0.50400001928E-02 0.  1.
       -1   -1    0    0    0  501  0.00000000000E+00  0.00000000000E+00 -0.33062994994E+03  0.33062994998E+03  0.50400001928E-02 0. -1.
    10030    2    1    2    0    0  0.00000000000E+00  0.00000000000E+00 -0.64844806363E+02  0.59641509360E+03  0.59287951134E+03 0.  0.
        3    1    3    3  502    0 -0.81338117499E+02 -0.79870415094E+02 -0.30769881866E+03  0.32813677906E+03  0.10100000352E+00 0. -1.
       -3    1    3    3    0  502  0.81338117499E+02  0.79870415094E+02  0.24285401230E+03  0.26827831454E+03  0.10100000352E+00 0.  1.
</event>
<event>
 5   0  0.6078658E-03  0.6005465E+03  0.7818609E-02  0.9904273E-01
       -1   -1    0    0    0  501  0.00000000000E+00  0.00000000000E+00  0.21184028366E+03  0.21184028372E+03  0.50400001928E-02 0.  1.
        1   -1    0    0  501    0  0.00000000000E+00  0.00000000000E+00 -0.42562259818E+03  0.42562259821E+03  0.50400001928E-02 0. -1.
    10030    2    1    2    0    0  0.00000000000E+00  0.00000000000E+00 -0.21378231452E+03  0.63746288193E+03  0.60054645768E+03 0.  0.
        2    1    3    3  502    0  0.32428842609E+02  0.51773015757E+02 -0.41895641052E+03  0.42338699663E+03  0.25500000920E-02 0. -1.
       -2    1    3    3    0  502 -0.32428842609E+02 -0.51773015757E+02  0.20517409600E+03  0.21407588530E+03  0.25500000920E-02 0.  1.
</event>
<event>
 5   0  0.9028473E-03  0.6003541E+03  0.7818609E-02  0.9904672E-01
       -2   -1    0    0    0  501  0.00000000000E+00  0.00000000000E+00  0.73113178383E+02  0.73113178427E+02  0.25500000920E-02 0. -1.
        2   -1    0    0  501    0  0.00000000000E+00  0.00000000000E+00 -0.12324217059E+04  0.12324217059E+04  0.25500000920E-02 0.  1.
    10030    2    1    2    0    0  0.00000000000E+00  0.00000000000E+00 -0.11593085275E+04  0.13055348844E+04  0.60035412236E+03 0.  0.
        1    1    3    3  502    0  0.62995622801E+02  0.13388857150E+03 -0.11703974890E+02  0.14843039151E+03  0.50400001928E-02 0. -1.
       -1    1    3    3    0  502 -0.62995622801E+02 -0.13388857150E+03 -0.11476045527E+04  0.11571044928E+04  0.50400001928E-02 0.  1.
</event>
<event>
 5   0  0.3806250E-03  0.5997380E+03  0.7818609E-02  0.9905950E-01
       -4   -1    0    0    0  501  0.00000000000E+00  0.00000000000E+00  0.19704801940E+03  0.19705211202E+03  0.12699999809E+01 0.  1.
        4   -1    0    0  501    0  0.00000000000E+00  0.00000000000E+00 -0.45633301248E+03  0.45633477972E+03  0.12699999809E+01 0. -1.
    10030    2    1    2    0    0  0.00000000000E+00  0.00000000000E+00 -0.25928499308E+03  0.65338689174E+03  0.59973804503E+03 0.  0.
        2    1    3    3  502    0 -0.72057695324E+02  0.18708647836E+01  0.18747207110E+03  0.20085215717E+03  0.25500000920E-02 0.  1.
       -2    1    3    3    0  502  0.72057695324E+02 -0.18708647836E+01 -0.44675706418E+03  0.45253473457E+03  0.25500000920E-02 0. -1.
</event>
<event>
 5   0  0.5819446E-03  0.6003140E+03  0.7818609E-02  0.9904755E-01
       -1   -1    0    0    0  501  0.00000000000E+00  0.00000000000E+00  0.64872891262E+02  0.64872891458E+02  0.50400001928E-02 0.  1.
        1   -1    0    0  501    0  0.00000000000E+00  0.00000000000E+00 -0.13887808710E+04  0.13887808710E+04  0.50400001928E-02 0. -1.
    10030    2    1    2    0    0  0.00000000000E+00  0.00000000000E+00 -0.13239079798E+04  0.14536537625E+04  0.60031401977E+03 0.  0.
        5    1    3    3  502    0  0.21833265778E+03  0.20546297596E+03 -0.62875603512E+03  0.69659200803E+03  0.46999998093E+01 0.  1.
       -5    1    3    3    0  502 -0.21833265778E+03 -0.20546297596E+03 -0.69515194465E+03  0.75706175448E+03  0.46999998093E+01 0. -1.
</event>
<event>
 5   0  0.9162342E-03  0.5989760E+03  0.7818609E-02  0.9907533E-01
        2   -1    0    0  501    0  0.00000000000E+00  0.00000000000E+00  0.15149634841E+04  0.15149634841E+04  0.25500000920E-02 0.  1.
       -2   -1    0    0    0  501  0.00000000000E+00  0.00000000000E+00 -0.59204777236E+02  0.59204777291E+02  0.25500000920E-02 0. -1.
    10030    2    1    2    0    0  0.00000000000E+00  0.00000000000E+00  0.14557587068E+04  0.15741682614E+04  0.59897604506E+03 0.  0.
        5    1    3    3  502    0 -0.15609883131E+03 -0.14794283561E+03  0.18026869398E+03  0.28066496000E+03  0.46999998093E+01 0. -1.
       -5    1    3    3    0  502  0.15609883131E+03  0.14794283561E+03  0.12754900129E+04  0.12935033014E+04  0.46999998093E+01 0.  1.
</event>
<event>
 5   0  0.3806250E-03  0.5993103E+03  0.7818609E-02  0.9906838E-01
        4   -1    0    0  501    0  0.00000000000E+00  0.00000000000E+00  0.18948856243E+03  0.18949281831E+03  0.12699999809E+01 0. -1.
       -4   -1    0    0    0  501  0.00000000000E+00  0.00000000000E+00 -0.47386094943E+03  0.47386265129E+03  0.12699999809E+01 0.  1.
    10030    2    1    2    0    0  0.00000000000E+00  0.00000000000E+00 -0.28437238700E+03  0.66335546960E+03  0.59931029072E+03 0.  0.
        4    1    3    3  502    0  0.60734953716E+02 -0.23478122856E+03 -0.33700896867E+03  0.41519587878E+03  0.12699999809E+01 0.  1.
       -4    1    3    3    0  502 -0.60734953716E+02  0.23478122856E+03  0.52636581672E+02  0.24815959083E+03  0.12699999809E+01 0. -1.
</event>
<event>
 5   0  0.5790967E-03  0.6011295E+03  0.7818609E-02  0.9903066E-01
        1   -1    0    0  501    0  0.00000000000E+00  0.00000000000E+00  0.18391723691E+03  0.18391723698E+03  0.50400001928E-02 0.  1.
       -1   -1    0    0    0  501  0.00000000000E+00  0.00000000000E+00 -0.49119461536E+03  0.49119461538E+03  0.50400001928E-02 0. -1.
    10030    2    1    2    0    0  0.00000000000E+00  0.00000000000E+00 -0.30727737845E+03  0.67511185236E+03  0.60112945851E+03 0.  0.
        3    1    3    3  502    0 -0.22324448224E+03  0.14623934325E+03  0.16343416115E+01  0.26688335586E+03  0.10100000352E+00 0.  1.
       -3    1    3    3    0  502  0.22324448224E+03 -0.14623934325E+03 -0.30891172006E+03  0.40822849650E+03  0.10100000352E+00 0. -1.
</event>
<event>
 5   0  0.5790967E-03  0.5989209E+03  0.7818609E-02  0.9907647E-01
       -1   -1    0    0    0  501  0.00000000000E+00  0.00000000000E+00  0.61645495867E+02  0.61645496073E+02  0.50400001928E-02 0. -1.
        1   -1    0    0  501    0  0.00000000000E+00  0.00000000000E+00 -0.14547140205E+04  0.14547140205E+04  0.50400001928E-02 0.  1.
    10030    2    1    2    0    0  0.00000000000E+00  0.00000000000E+00 -0.13930685246E+04  0.15163595165E+04  0.59892092065E+03 0.  0.
        3    1    3    3  502    0 -0.54178552886E+02  0.13536531586E+03 -0.13587754862E+04  0.13665759827E+04  0.10100000352E+00 0.  1.
       -3    1    3    3    0  502  0.54178552886E+02 -0.13536531586E+03 -0.34293038377E+02  0.14978353385E+03  0.10100000352E+00 0. -1.
</event>
<event>
 5   0  0.9391405E-03  0.6014624E+03  0.7818609E-02  0.9902377E-01
        2   -1    0    0  501    0  0.00000000000E+00  0.00000000000E+00  0.27514351759E+03  0.27514351761E+03  0.25500000920E-02 0. -1.
       -2   -1    0    0    0  501  0.00000000000E+00  0.00000000000E+00 -0.32869851137E+03  0.32869851138E+03  0.25500000920E-02 0.  1.
    10030    2    1    2    0    0  0.00000000000E+00  0.00000000000E+00 -0.53554993780E+02  0.60384202899E+03  0.60146243325E+03 0.  0.
        2    1    3    3  502    0 -0.66316969559E+02  0.26951187404E+03 -0.14301411300E+03  0.31223008699E+03  0.25500000920E-02 0.  1.
       -2    1    3    3    0  502  0.66316969559E+02 -0.26951187404E+03  0.89459119215E+02  0.29161194200E+03  0.25500000920E-02 0. -1.
</event>
<event>
 5   0  0.9028473E-03  0.6024843E+03  0.7818609E-02  0.9900265E-01
        2   -1    0    0  501    0  0.00000000000E+00  0.00000000000E+00  0.98190852780E+03  0.98190852781E+03  0.25500000920E-02 0. -1.
       -2   -1    0    0    0  501  0.00000000000E+00  0.00000000000E+00 -0.92418816145E+02  0.92418816181E+02  0.25500000920E-02 0.  1.
    10030    2    1    2    0    0  0.00000000000E+00  0.00000000000E+00  0.88948971166E+03  0.10743273440E+04  0.60248426942E+03 0.  0.
        1    1    3    3  502    0  0.30648078645E+02  0.11511858422E+03  0.93812123314E+03  0.94565482141E+03  0.50400001928E-02 0. -1.
       -1    1    3    3    0  502 -0.30648078645E+02 -0.11511858422E+03 -0.48631521486E+02  0.12867252258E+03  0.50400001928E-02 0.  1.
</event>
<event>
 5   0  0.5765045E-03  0.5998742E+03  0.7818609E-02  0.9905667E-01
        1   -1    0    0  501    0  0.00000000000E+00  0.00000000000E+00  0.23429706748E+03  0.23429706754E+03  0.50400001928E-02 0.  1.
       -1   -1    0    0    0  501  0.00000000000E+00  0.00000000000E+00 -0.38396669785E+03  0.38396669788E+03  0.50400001928E-02 0. -1.
    10030    2    1    2    0    0  0.00000000000E+00  0.00000000000E+00 -0.14966963037E+03  0.61826376542E+03  0.59987422463E+03 0.  0.
        1    1    3    3  502    0  0.13850821789E+02 -0.27041824089E+03  0.58133350857E+02  0.27694287638E+03  0.50400001928E-02 0.  1.
       -1    1    3    3    0  502 -0.13850821789E+02  0.27041824089E+03 -0.20780298122E+03  0.34132088904E+03  0.50400001928E-02 0. -1.
</event>
<event>
 5   0  0.9028473E-03  0.6008207E+03  0.7818609E-02  0.9903705E-01
        2   -1    0    0  501    0  0.00000000000E+00  0.00000000000E+00  0.82336108883E+03  0.82336108883E+03  0.25500000920E-02 0.  1.
       -2   -1    0    0    0  501  0.00000000000E+00  0.00000000000E+00 -0.10960730273E+03  0.10960730276E+03  0.25500000920E-02 0. -1.
    10030    2    1    2    0    0  0.00000000000E+00  0.00000000000E+00  0.71375378610E+03  0.93296839159E+03  0.60082073244E+03 0.  0.
        1    1    3    3  502    0  0.41870527954E+02 -0.14416117573E+03 -0.47187889784E+02  0.15736035926E+03  0.50400001928E-02 0. -1.
       -1    1    3    3    0  502 -0.41870527954E+02  0.14416117573E+03  0.76094167588E+03  0.77560803233E+03  0.50400001928E-02 0.  1.
</event>
<event>
 5   0  0.9028473E-03  0.6004560E+03  0.7818609E-02  0.9904460E-01
       -2   -1    0    0    0  501  0.00000000000E+00  0.00000000000E+00  0.82958683715E+02  0.82958683754E+02  0.25500000920E-02 0.  1.
        2   -1    0    0  501    0  0.00000000000E+00  0.00000000000E+00 -0.10865270354E+04  0.10865270354E+04  0.25500000920E-02 0. -1.
    10030    2    1    2    0    0  0.00000000000E+00  0.00000000000E+00 -0.10035683517E+04  0.11694857192E+04  0.60045600240E+03 0.  0.
        1    1    3    3  502    0  0.26866969443E+03 -0.10605361431E+03 -0.66127953858E+03  0.72161028401E+03  0.50400001928E-02 0. -1.
       -1    1    3    3    0  502 -0.26866969443E+03  0.10605361431E+03 -0.34228881313E+03  0.44787543518E+03  0.50400001928E-02 0.  1.
</event>
<event>
 5   0  0.9162342E-03  0.5997250E+03  0.7818609E-02  0.9905977E-01
       -2   -1    0    0    0  501  0.00000000000E+00  0.00000000000E+00  0.17271959857E+03  0.17271959859E+03  0.25500000920E-02 0. -1.
        2   -1    0    0  501    0  0.00000000000E+00  0.00000000000E+00 -0.52059832515E+03  0.52059832516E+03  0.25500000920E-02 0.  1.
    10030    2    1    2    0    0  0.00000000000E+00  0.00000000000E+00 -0.34787872658E+03  0.69331792374E+03  0.59972504948E+03 0.  0.
        5    1    3    3  502    0  0.20060980754E+03  0.12909069874E+03 -0.38390582994E+03  0.45201159238E+03  0.46999998093E+01 0.  1.
       -5    1    3    3    0  502 -0.20060980754E+03 -0.12909069874E+03  0.36027103361E+02  0.24130633136E+03  0.46999998093E+01 0. -1.
</event>
<event>
 5   0  0.9028473E-03  0.5907907E+03  0.7818609E-02  0.9924699E-01
        2   -1    0    0  501    0  0.00000000000E+00  0.00000000000E+00  0.63161489785E+03  0.63161489786E+03  0.25500000920E-02 0. -1.
       -2   -1    0    0    0  501  0.00000000000E+00  0.00000000000E+00 -0.13815131291E+03  0.13815131293E+03  0.25500000920E-02 0.  1.
    10030    2    1    2    0    0  0.00000000000E+00  0.00000000000E+00  0.49346358494E+03  0.76976621079E+03  0.59079074943E+03 0.  0.
        1    1    3    3  502    0  0.11570464715E+03  0.18828312863E+03  0.50212284442E+03  0.54860318337E+03  0.50400001928E-02 0. -1.
       -1    1    3    3    0  502 -0.11570464715E+03 -0.18828312863E+03 -0.86592594715E+01  0.22116302742E+03  0.50400001928E-02 0.  1.
</event>
<event>
 5   0  0.5891927E-03  0.6008305E+03  0.7818609E-02  0.9903684E-01
       -1   -1    0    0    0  501  0.00000000000E+00  0.00000000000E+00  0.28237477897E+03  0.28237477902E+03  0.50400001928E-02 0.  1.
        1   -1    0    0  501    0  0.00000000000E+00  0.00000000000E+00 -0.31960832200E+03  0.31960832204E+03  0.50400001928E-02 0. -1.
    10030    2    1    2    0    0  0.00000000000E+00  0.00000000000E+00 -0.37233543026E+02  0.60198310106E+03  0.60083052289E+03 0.  0.
        4    1    3    3  502    0 -0.37909213232E+02  0.99021091552E+02 -0.30023501607E+03  0.31841005448E+03  0.12699999809E+01 0. -1.
       -4    1    3    3    0  502  0.37909213232E+02 -0.99021091552E+02  0.26300147305E+03  0.28357304658E+03  0.12699999809E+01 0.  1.
</event>
<event>
 5   0  0.5765045E-03  0.6000821E+03  0.7818609E-02  0.9905236E-01
       -1   -1    0    0    0  501  0.00000000000E+00  0.00000000000E+00  0.13705375039E+03  0.13705375049E+03  0.50400001928E-02 0.  1.
        1   -1    0    0  501    0  0.00000000000E+00  0.00000000000E+00 -0.65685648217E+03  0.65685648219E+03  0.50400001928E-02 0. -1.
    10030    2    1    2    0    0  0.00000000000E+00  0.00000000000E+00 -0.51980273178E+03  0.79391023268E+03  0.60008214236E+03 0.  0.
        1    1    3    3  502    0  0.22385083213E+03 -0.16822231489E+03 -0.11730707994E+03  0.30359330247E+03  0.50400001928E-02 0.  1.
       -1    1    3    3    0  502 -0.22385083213E+03  0.16822231489E+03 -0.40249565184E+03  0.49031693021E+03  0.50400001928E-02 0. -1.
</event>
<event>
 5   0  0.5765045E-03  0.6003128E+03  0.7818609E-02  0.9904757E-01
       -1   -1    0    0    0  501  0.00000000000E+00  0.00000000000E+00  0.99539454545E+02  0.99539454672E+02  0.50400001928E-02 0. -1.
        1   -1    0    0  501    0  0.00000000000E+00  0.00000000000E+00 -0.90510703204E+03  0.90510703206E+03  0.50400001928E-02 0.  1.
    10030    2    1    2    0    0  0.00000000000E+00  0.00000000000E+00 -0.80556757750E+03  0.10046464867E+04  0.60031278629E+03 0.  0.
        1    1    3    3  502    0  0.18103929525E+03  0.22001922162E+03 -0.24481226116E+03  0.37565506458E+03  0.50400001928E-02 0. -1.
       -1    1    3    3    0  502 -0.18103929525E+03 -0.22001922162E+03 -0.56075531634E+03  0.62899142215E+03  0.50400001928E-02 0.  1.
</event>
<event>
 5   0  0.9162342E-03  0.5999832E+03  0.7818609E-02  0.9905441E-01
        2   -1    0    0  501    0  0.00000000000E+00  0.00000000000E+00  0.51407900982E+03  0.51407900982E+03  0.25500000920E-02 0.  1.
       -2   -1    0    0    0  501  0.00000000000E+00  0.00000000000E+00 -0.17506056774E+03  0.17506056775E+03  0.25500000920E-02 0. -1.
    10030    2    1    2    0    0  0.00000000000E+00  0.00000000000E+00  0.33901844208E+03  0.68913957758E+03  0.59998321086E+03 0.  0.
        5    1    3    3  502    0  0.11424910428E+02  0.95442044046E+02 -0.15684863617E+03  0.18401982778E+03  0.46999998093E+01 0. -1.
       -5    1    3    3    0  502 -0.11424910428E+02 -0.95442044046E+02  0.49586707825E+03  0.50511974980E+03  0.46999998093E+01 0.  1.
</event>
<event>
 5   0  0.9028473E-03  0.6020832E+03  0.7818609E-02  0.9901093E-01
        2   -1    0    0  501    0  0.00000000000E+00  0.00000000000E+00  0.11443409300E+04  0.11443409300E+04  0.25500000920E-02 0.  1.
       -2   -1    0    0    0  501  0.00000000000E+00  0.00000000000E+00 -0.79194981463E+02  0.79194981504E+02  0.25500000920E-02 0. -1.
    10030    2    1    2    0    0  0.00000000000E+00  0.00000000000E+00  0.10651459485E+04  0.12235359115E+04  0.60208324595E+03 0.  0.
        1    1    3    3  502    0 -0.46415148705E+02 -0.17124015383E+02 -0.70877225231E+02  0.86435982172E+02  0.50400001928E-02 0. -1.
       -1    1    3    3    0  502  0.46415148705E+02  0.17124015383E+02  0.11360231737E+04  0.11370999293E+04  0.50400001928E-02 0.  1.
</event>
<event>
 5   0  0.5790967E-03  0.5989040E+03  0.7818609E-02  0.9907683E-01
       -1   -1    0    0    0  501  0.00000000000E+00  0.00000000000E+00  0.10887633620E+03  0.10887633632E+03  0.50400001928E-02 0.  1.
        1   -1    0    0  501    0  0.00000000000E+00  0.00000000000E+00 -0.82360874210E+03  0.82360874212E+03  0.50400001928E-02 0. -1.
    10030    2    1    2    0    0  0.00000000000E+00  0.00000000000E+00 -0.71473240590E+03  0.93248507843E+03  0.59890400688E+03 0.  0.
        3    1    3    3  502    0 -0.64613952309E+02 -0.29219711763E+03 -0.34049794566E+03  0.45331333489E+03  0.10100000352E+00 0.  1.
       -3    1    3    3    0  502  0.64613952309E+02  0.29219711763E+03 -0.37423446024E+03  0.47917174355E+03  0.10100000352E+00 0. -1.
</event>
<event>
 5   0  0.5790967E-03  0.5999943E+03  0.7818609E-02  0.9905418E-01
        1   -1    0    0  501    0  0.00000000000E+00  0.00000000000E+00  0.41144240038E+03  0.41144240041E+03  0.50400001928E-02 0. -1.
       -1   -1    0    0    0  501  0.00000000000E+00  0.00000000000E+00 -0.21873847928E+03  0.21873847934E+03  0.50400001928E-02 0.  1.
    10030    2    1    2    0    0  0.00000000000E+00  0.00000000000E+00  0.19270392110E+03  0.63018087975E+03  0.59999428330E+03 0.  0.
        3    1    3    3  502    0 -0.49913320420E+02 -0.47556591204E+02 -0.21030536687E+03  0.22131725296E+03  0.10100000352E+00 0.  1.
       -3    1    3    3    0  502  0.49913320420E+02  0.47556591204E+02  0.40300928797E+03  0.40886362679E+03  0.10100000352E+00 0. -1.
</event>
<event>
 5   0  0.9028473E-03  0.5998836E+03  0.7818609E-02  0.9905647E-01
       -2   -1    0    0    0  501  0.00000000000E+00  0.00000000000E+00  0.17280083145E+03  0.17280083147E+03  0.25500000920E-02 0. -1.
        2   -1    0    0  501    0  0.00000000000E+00  0.00000000000E+00 -0.52062883124E+03  0.52062883125E+03  0.25500000920E-02 0.  1.
    10030    2    1    2    0    0  0.00000000000E+00  0.00000000000E+00 -0.34782799979E+03  0.69342966272E+03  0.59988363847E+03 0.  0.
        1    1    3    3  502    0  0.21008965406E+03 -0.25430145520E+01 -0.42135263722E+03  0.47083136533E+03  0.50400001928E-02 0.  1.
       -1    1    3    3    0  502 -0.21008965406E+03  0.25430145520E+01  0.73524637425E+02  0.22259829739E+03  0.50400001928E-02 0. -1.
</event>
<event>
 5   0  0.5765045E-03  0.5991093E+03  0.7818609E-02  0.9907256E-01
       -1   -1    0    0    0  501  0.00000000000E+00  0.00000000000E+00  0.28807394219E+03  0.28807394223E+03  0.50400001928E-02 0. -1.
        1   -1    0    0  501    0  0.00000000000E+00  0.00000000000E+00 -0.31149289885E+03  0.31149289889E+03  0.50400001928E-02 0.  1.
    10030    2    1    2    0    0  0.00000000000E+00  0.00000000000E+00 -0.23418956661E+02  0.59956684112E+03  0.59910929674E+03 0.  0.
        1    1    3    3  502    0 -0.10323650693E+03 -0.26600707742E+03 -0.10296818600E+03  0.30334796678E+03  0.50400001928E-02 0.  1.
       -1    1    3    3    0  502  0.10323650693E+03  0.26600707742E+03  0.79549229338E+02  0.29621887434E+03  0.50400001928E-02 0. -1.
</event>
<event>
 5   0  0.6078658E-03  0.6003080E+03  0.7818609E-02  0.9904767E-01
       -1   -1    0    0    0  501  0.00000000000E+00  0.00000000000E+00  0.45088392627E+03  0.45088392630E+03  0.50400001928E-02 0.  1.
        1   -1    0    0  501    0  0.00000000000E+00  0.00000000000E+00 -0.19981292375E+03  0.19981292382E+03  0.50400001928E-02 0. -1.
    10030    2    1    2    0    0  0.00000000000E+00  0.00000000000E+00  0.25107100252E+03  0.65069685012E+03  0.60030803963E+03 0.  0.
        2    1    3    3  502    0 -0.15823737172E+03  0.83699623271E+01 -0.15078014092E+03  0.21873219466E+03  0.25500000920E-02 0. -1.
       -2    1    3    3    0  502  0.15823737172E+03 -0.83699623271E+01  0.40185114344E+03  0.43196465546E+03  0.25500000920E-02 0.  1.
</event>
<event>
 5   0  0.5891927E-03  0.6004769E+03  0.7818609E-02  0.9904417E-01
        1   -1    0    0  501    0  0.00000000000E+00  0.00000000000E+00  0.24305006227E+03  0.24305006233E+03  0.50400001928E-02 0. -1.
       -1   -1    0    0    0  501  0.00000000000E+00  0.00000000000E+00 -0.37088292307E+03  0.37088292310E+03  0.50400001928E-02 0.  1.
    10030    2    1    2    0    0  0.00000000000E+00  0.00000000000E+00 -0.12783286079E+03  0.61393298543E+03  0.60047686908E+03 0.  0.
        4    1    3    3  502    0  0.43588823427E+02 -0.13028288744E+03  0.20902636224E+03  0.25013446244E+03  0.12699999809E+01 0. -1.
       -4    1    3    3    0  502 -0.43588823427E+02  0.13028288744E+03 -0.33685922303E+03  0.36379852299E+03  0.12699999809E+01 0.  1.
</event>
<event>
 5   0  0.6078658E-03  0.5993518E+03  0.7818609E-02  0.9906752E-01
       -1   -1    0    0    0  501  0.00000000000E+00  0.00000000000E+00  0.13399616391E+03  0.13399616401E+03  0.50400001928E-02 0.  1.
        1   -1    0    0  501    0  0.00000000000E+00  0.00000000000E+00 -0.67021064792E+03  0.67021064794E+03  0.50400001928E-02 0. -1.
    10030    2    1    2    0    0  0.00000000000E+00  0.00000000000E+00 -0.53621448401E+03  0.80420681194E+03  0.59935183617E+03 0.  0.
        2    1    3    3  502    0 -0.27715983644E+03 -0.11395247993E+03 -0.27039745028E+03  0.40363042966E+03  0.25500000920E-02 0. -1.
       -2    1    3    3    0  502  0.27715983644E+03  0.11395247993E+03 -0.26581703373E+03  0.40057638229E+03  0.25500000920E-02 0.  1.
</event>
<event>
 5   0  0.5891927E-03  0.5994263E+03  0.7818609E-02  0.9906597E-01
       -1   -1    0    0    0  501  0.00000000000E+00  0.00000000000E+00  0.25050351210E+03  0.25050351215E+03  0.50400001928E-02 0. -1.
        1   -1    0    0  501    0  0.00000000000E+00  0.00000000000E+00 -0.35858968983E+03  0.35858968987E+03  0.50400001928E-02 0.  1.
    10030    2    1    2    0    0  0.00000000000E+00  0.00000000000E+00 -0.10808617773E+03  0.60909320202E+03  0.59942631484E+03 0.  0.
        4    1    3    3  502    0 -0.18360061650E+03  0.16008852629E+03 -0.23146955679E+03  0.33603168192E+03  0.12699999809E+01 0.  1.
       -4    1    3    3    0  502  0.18360061650E+03 -0.16008852629E+03  0.12338337906E+03  0.27306152010E+03  0.12699999809E+01 0. -1.
</event>
<event>
 5   0  0.5790967E-03  0.6001795E+03  0.7818609E-02  0.9905034E-01
       -1   -1    0    0    0  501  0.00000000000E+00  0.00000000000E+00  0.33593871448E+03  0.33593871452E+03  0.50400001928E-02 0. -1.
        1   -1    0    0  501    0  0.00000000000E+00  0.00000000000E+00 -0.26806637150E+03  0.26806637155E+03  0.50400001928E-02 0.  1.
    10030    2    1    2    0    0  0.00000000000E+00  0.00000000000E+00  0.67872342974E+02  0.60400508607E+03  0.60017954735E+03 0.  0.
        3    1    3    3  502    0  0.96960629424E+02  0.53191567950E+02 -0.24680998679E+03  0.27045496176E+03  0.10100000352E+00 0.  1.
       -3    1    3    3    0  502 -0.96960629424E+02 -0.53191567950E+02  0.31468232976E+03  0.33355012431E+03  0.10100000352E+00 0. -1.
</event>
<event>
 5   0  0.5891927E-03  0.5983522E+03  0.7818609E-02  0.9908831E-01
       -1   -1    0    0    0  501  0.00000000000E+00  0.00000000000E+00  0.10205280221E+03  0.10205280234E+03  0.50400001928E-02 0.  1.
        1   -1    0    0  501    0  0.00000000000E+00  0.00000000000E+00 -0.87705907795E+03  0.87705907796E+03  0.50400001928E-02 0. -1.
    10030    2    1    2    0    0  0.00000000000E+00  0.00000000000E+00 -0.77500627573E+03  0.97911188030E+03  0.59835219287E+03 0.  0.
        4    1    3    3  502    0  0.94370932411E+02  0.15851820025E+03 -0.21066349359E+01  0.18449916939E+03  0.12699999809E+01 0.  1.
       -4    1    3    3    0  502 -0.94370932411E+02 -0.15851820025E+03 -0.77289964080E+03  0.79461271091E+03  0.12699999809E+01 0. -1.
</event>
<event>
 5   0  0.9822607E-03  0.6004286E+03  0.7818609E-02  0.9904517E-01
        2   -1    0    0  501    0  0.00000000000E+00  0.00000000000E+00  0.10792439069E+04  0.10792439069E+04  0.25500000920E-02 0. -1.
       -2   -1    0    0    0  501  0.00000000000E+00  0.00000000000E+00 -0.83510882900E+02  0.83510882939E+02  0.25500000920E-02 0.  1.
    10030    2    1    2    0    0  0.00000000000E+00  0.00000000000E+00  0.99573302397E+03  0.11627547898E+04  0.60042855212E+03 0.  0.
        3    1    3    3  502    0 -0.24963087073E+02  0.28237597885E+03  0.30645966822E+03  0.41746483396E+03  0.10100000352E+00 0. -1.
       -3    1    3    3    0  502  0.24963087073E+02 -0.28237597885E+03  0.68927335575E+03  0.74528995585E+03  0.10100000352E+00 0.  1.
</event>
<event>
 5   0  0.6078658E-03  0.5974049E+03  0.7818609E-02  0.9910805E-01
        1   -1    0    0  501    0  0.00000000000E+00  0.00000000000E+00  0.65899461067E+03  0.65899461069E+03  0.50400001928E-02 0. -1.
       -1   -1    0    0    0  501  0.00000000000E+00  0.00000000000E+00 -0.13539283069E+03  0.13539283078E+03  0.50400001928E-02 0.  1.
    10030    2    1    2    0    0  0.00000000000E+00  0.00000000000E+00  0.52360177998E+03  0.79438744147E+03  0.59740487374E+03 0.  0.
        2    1    3    3  502    0  0.29684370520E+03  0.24999967131E+02  0.23260847280E+03  0.37795222622E+03  0.25500000920E-02 0. -1.
       -2    1    3    3    0  502 -0.29684370520E+03 -0.24999967131E+02  0.29099330718E+03  0.41643521526E+03  0.25500000920E-02 0.  1.
</event>
<event>
 5   0  0.5790967E-03  0.5982883E+03  0.7818609E-02  0.9908964E-01
       -1   -1    0    0    0  501  0.00000000000E+00  0.00000000000E+00  0.64943995137E+03  0.64943995139E+03  0.50400001928E-02 0. -1.
        1   -1    0    0  501    0  0.00000000000E+00  0.00000000000E+00 -0.13779137662E+03  0.13779137671E+03  0.50400001928E-02 0.  1.
    10030    2    1    2    0    0  0.00000000000E+00  0.00000000000E+00  0.51164857475E+03  0.78723132810E+03  0.59828830834E+03 0.  0.
        3    1    3    3  502    0  0.10064142052E+03 -0.16115499541E+03 -0.48202602995E+02  0.19601818591E+03  0.10100000352E+00 0.  1.
       -3    1    3    3    0  502 -0.10064142052E+03  0.16115499541E+03  0.55985117775E+03  0.59121314219E+03  0.10100000352E+00 0. -1.
</event>
<event>
 5   0  0.3806250E-03  0.5955881E+03  0.7818609E-02  0.9914602E-01
       -4   -1    0    0    0  501  0.00000000000E+00  0.00000000000E+00  0.43892518536E+03  0.43892702269E+03  0.12699999809E+01 0.  1.
        4   -1    0    0  501    0  0.00000000000E+00  0.00000000000E+00 -0.20203769170E+03  0.20204168324E+03  0.12699999809E+01 0. -1.
    10030    2    1    2    0    0  0.00000000000E+00  0.00000000000E+00  0.23688749366E+03  0.64096870593E+03  0.59558811046E+03 0.  0.
        4    1    3    3  502    0  0.14097017090E+03 -0.16057780307E+03  0.34166494305E+03  0.40298184343E+03  0.12699999809E+01 0.  1.
       -4    1    3    3    0  502 -0.14097017090E+03  0.16057780307E+03 -0.10477744939E+03  0.23798686250E+03  0.12699999809E+01 0. -1.
</event>
<event>
 5   0  0.9028473E-03  0.6005999E+03  0.7818609E-02  0.9904162E-01
        2   -1    0    0  501    0  0.00000000000E+00  0.00000000000E+00  0.32862797091E+03  0.32862797092E+03  0.25500000920E-02 0. -1.
       -2   -1    0    0    0  501  0.00000000000E+00  0.00000000000E+00 -0.27441385213E+03  0.27441385214E+03  0.25500000920E-02 0.  1.
    10030    2    1    2    0    0  0.00000000000E+00  0.00000000000E+00  0.54214118789E+02  0.60304182306E+03  0.60059992481E+03 0.  0.
        1    1    3    3  502    0 -0.55346767560E+02  0.25580806310E+03  0.17494372495E+03  0.31481158929E+03  0.50400001928E-02 0. -1.
       -1    1    3    3    0  502  0.55346767560E+02 -0.25580806310E+03 -0.12072960617E+03  0.28823023377E+03  0.50400001928E-02 0.  1.
</event>
<event>
 5   0  0.3806250E-03  0.5993013E+03  0.7818609E-02  0.9906857E-01
        3   -1    0    0  501    0  0.00000000000E+00  0.00000000000E+00  0.20440841076E+03  0.20440843572E+03  0.10100000352E+00 0.  1.
       -3   -1    0    0    0  501  0.00000000000E+00  0.00000000000E+00 -0.43927015865E+03  0.43927017026E+03  0.10100000352E+00 0. -1.
    10030    2    1    2    0    0  0.00000000000E+00  0.00000000000E+00 -0.23486174788E+03  0.64367860598E+03  0.59930134922E+03 0.  0.
        1    1    3    3  502    0  0.22150786552E+02 -0.78982658696E+02  0.19211426564E+03  0.20889425269E+03  0.50400001928E-02 0.  1.
       -1    1    3    3    0  502 -0.22150786552E+02  0.78982658696E+02 -0.42697601352E+03  0.43478435329E+03  0.50400001928E-02 0. -1.
</event>
<event>
 5   0  0.5765045E-03  0.5954085E+03  0.7818609E-02  0.9914978E-01
       -1   -1    0    0    0  501  0.00000000000E+00  0.00000000000E+00  0.15749761029E+03  0.15749761037E+03  0.50400001928E-02 0.  1.
        1   -1    0    0  501    0  0.00000000000E+00  0.00000000000E+00 -0.56272487081E+03  0.56272487084E+03  0.50400001928E-02 0. -1.
    10030    2    1    2    0    0  0.00000000000E+00  0.00000000000E+00 -0.40522726052E+03  0.72022248121E+03  0.59540850663E+03 0.  0.
        1    1    3    3  502    0  0.90321243861E+02  0.81982677394E+02  0.12588149463E+03  0.17528615804E+03  0.50400001928E-02 0.  1.
       -1    1    3    3    0  502 -0.90321243861E+02 -0.81982677394E+02 -0.53110875515E+03  0.54493632317E+03  0.50400001928E-02 0. -1.
</event>
<event>
 5   0  0.9391405E-03  0.6003932E+03  0.7818609E-02  0.9904591E-01
       -2   -1    0    0    0  501  0.00000000000E+00  0.00000000000E+00  0.26445668388E+03  0.26445668389E+03  0.25500000920E-02 0.  1.
        2   -1    0    0  501    0  0.00000000000E+00  0.00000000000E+00 -0.34076657546E+03  0.34076657547E+03  0.25500000920E-02 0. -1.
    10030    2    1    2    0    0  0.00000000000E+00  0.00000000000E+00 -0.76309891582E+02  0.60522325936E+03  0.60039319959E+03 0.  0.
        2    1    3    3  502    0 -0.24722527833E+03 -0.22293005232E+02 -0.20833453589E+03  0.32406881241E+03  0.25500000920E-02 0. -1.
       -2    1    3    3    0  502  0.24722527833E+03  0.22293005232E+02  0.13202464431E+03  0.28115444695E+03  0.25500000920E-02 0.  1.
</event>
<event>
 5   0  0.5819446E-03  0.6000846E+03  0.7818609E-02  0.9905231E-01
       -1   -1    0    0    0  501  0.00000000000E+00  0.00000000000E+00  0.34099218378E+03  0.34099218382E+03  0.50400001928E-02 0. -1.
        1   -1    0    0  501    0  0.00000000000E+00  0.00000000000E+00 -0.26401007497E+03  0.26401007502E+03  0.50400001928E-02 0.  1.
    10030    2    1    2    0    0  0.00000000000E+00  0.00000000000E+00  0.76982108814E+02  0.60500225884E+03  0.60008456747E+03 0.  0.
        5    1    3    3  502    0  0.20287042989E+03 -0.19655829218E+03  0.14037218183E+03  0.31546475711E+03  0.46999998093E+01 0.  1.
       -5    1    3    3    0  502 -0.20287042989E+03  0.19655829218E+03 -0.63390073018E+02  0.28953750172E+03  0.46999998093E+01 0. -1.
</event>
<event>
 5   0  0.5891927E-03  0.6005438E+03  0.7818609E-02  0.9904279E-01
        1   -1    0    0  501    0  0.00000000000E+00  0.00000000000E+00  0.71797093002E+03  0.71797093003E+03  0.50400001928E-02 0.  1.
       -1   -1    0    0    0  501  0.00000000000E+00  0.00000000000E+00 -0.12558058563E+03  0.12558058573E+03  0.50400001928E-02 0. -1.
    10030    2    1    2    0    0  0.00000000000E+00  0.00000000000E+00  0.59239034439E+03  0.84355151576E+03  0.60054378660E+03 0.  0.
        4    1    3    3  502    0  0.23502377216E+03  0.12321772931E+03  0.98829568681E+02  0.28317429057E+03  0.12699999809E+01 0. -1.
       -4    1    3    3    0  502 -0.23502377216E+03 -0.12321772931E+03  0.49356077571E+03  0.56037722519E+03  0.12699999809E+01 0.  1.
</event>
<event>
 5   0  0.5790967E-03  0.6002090E+03  0.7818609E-02  0.9904973E-01
        1   -1    0    0  501    0  0.00000000000E+00  0.00000000000E+00  0.74993980694E+03  0.74993980695E+03  0.50400001928E-02 0. -1.
       -1   -1    0    0    0  501  0.00000000000E+00  0.00000000000E+00 -0.12009326120E+03  0.12009326131E+03  0.50400001928E-02 0.  1.
    10030    2    1    2    0    0  0.00000000000E+00  0.00000000000E+00  0.62984654574E+03  0.87003306826E+03  0.60020902084E+03 0.  0.
        3    1    3    3  502    0  0.22900262190E+03  0.19385382039E+03  0.32422781057E+03  0.44175240561E+03  0.10100000352E+00 0.  1.
       -3    1    3    3    0  502 -0.22900262190E+03 -0.19385382039E+03  0.30561873517E+03  0.42828066265E+03  0.10100000352E+00 0. -1.
</event>
<event>
 5   0  0.3806250E-03  0.6008221E+03  0.7818609E-02  0.9903702E-01
       -3   -1    0    0    0  501  0.00000000000E+00  0.00000000000E+00  0.91721001480E+03  0.91721002036E+03  0.10100000352E+00 0.  1.
        3   -1    0    0  501    0  0.00000000000E+00  0.00000000000E+00 -0.98392696734E+02  0.98392748573E+02  0.10100000352E+00 0. -1.
    10030    2    1    2    0    0  0.00000000000E+00  0.00000000000E+00  0.81881731807E+03  0.10156027689E+04  0.60082209006E+03 0.  0.
        2    1    3    3  502    0 -0.31032728138E+01 -0.20043619890E+03  0.78761972639E+03  0.81272943440E+03  0.25500000920E-02 0.  1.
       -2    1    3    3    0  502  0.31032728138E+01  0.20043619890E+03  0.31197591676E+02  0.20287333454E+03  0.25500000920E-02 0. -1.
</event>
<event>
 5   0  0.9822607E-03  0.5967489E+03  0.7818609E-02  0.9912174E-01
       -2   -1    0    0    0  501  0.00000000000E+00  0.00000000000E+00  0.47919123910E+02  0.47919123977E+02  0.25500000920E-02 0. -1.
        2   -1    0    0  501    0  0.00000000000E+00  0.00000000000E+00 -0.18578662524E+04  0.18578662524E+04  0.25500000920E-02 0.  1.
    10030    2    1    2    0    0  0.00000000000E+00  0.00000000000E+00 -0.18099471285E+04  0.19057853764E+04  0.59674893623E+03 0.  0.
        3    1    3    3  502    0  0.18909230485E+03  0.17522190295E+03 -0.13847463273E+04  0.14085386101E+04  0.10100000352E+00 0.  1.
       -3    1    3    3    0  502 -0.18909230485E+03 -0.17522190295E+03 -0.42520080121E+03  0.49724676628E+03  0.10100000352E+00 0. -1.
</event>
<event>
 5   0  0.9303190E-03  0.6003831E+03  0.7818609E-02  0.9904612E-01
        2   -1    0    0  501    0  0.00000000000E+00  0.00000000000E+00  0.54149584726E+03  0.54149584727E+03  0.25500000920E-02 0.  1.
       -2   -1    0    0    0  501  0.00000000000E+00  0.00000000000E+00 -0.16641856984E+03  0.16641856986E+03  0.25500000920E-02 0. -1.
    10030    2    1    2    0    0  0.00000000000E+00  0.00000000000E+00  0.37507727742E+03  0.70791441713E+03  0.60038309266E+03 0.  0.
        4    1    3    3  502    0  0.89865531286E+02 -0.10672878907E+03  0.50093766259E+03  0.52000673345E+03  0.12699999809E+01 0.  1.
       -4    1    3    3    0  502 -0.89865531286E+02  0.10672878907E+03 -0.12586038517E+03  0.18790768368E+03  0.12699999809E+01 0. -1.
</event>
<event>
 5   0  0.5891927E-03  0.6013282E+03  0.7818609E-02  0.9902654E-01
        1   -1    0    0  501    0  0.00000000000E+00  0.00000000000E+00  0.29225806730E+03  0.29225806734E+03  0.50400001928E-02 0. -1.
       -1   -1    0    0    0  501  0.00000000000E+00  0.00000000000E+00 -0.30931186258E+03  0.30931186262E+03  0.50400001928E-02 0.  1.
    10030    2    1    2    0    0  0.00000000000E+00  0.00000000000E+00 -0.17053795275E+02  0.60156992996E+03  0.60132815392E+03 0.  0.
        4    1    3    3  502    0  0.30821169729E+02  0.18355882118E+03  0.22768980704E+03  0.29408850108E+03  0.12699999809E+01 0. -1.
       -4    1    3    3    0  502 -0.30821169729E+02 -0.18355882118E+03 -0.24474360231E+03  0.30748142889E+03  0.12699999809E+01 0.  1.
</event>
<event>
 5   0  0.5819446E-03  0.6021824E+03  0.7818609E-02  0.9900889E-01
       -1   -1    0    0    0  501  0.00000000000E+00  0.00000000000E+00  0.74468152783E+02  0.74468152953E+02  0.50400001928E-02 0.  1.
        1   -1    0    0  501    0  0.00000000000E+00  0.00000000000E+00 -0.12173783651E+04  0.12173783651E+04  0.50400001928E-02 0. -1.
    10030    2    1    2    0    0  0.00000000000E+00  0.00000000000E+00 -0.11429102123E+04  0.12918465181E+04  0.60218242486E+03 0.  0.
        5    1    3    3  502    0  0.16947489209E+03 -0.60245812169E+02 -0.10893624217E+04  0.11041213125E+04  0.46999998093E+01 0. -1.
       -5    1    3    3    0  502 -0.16947489209E+03  0.60245812169E+02 -0.53547790654E+02  0.18772520559E+03  0.46999998093E+01 0.  1.
</event>
<event>
 5   0  0.9822607E-03  0.6001732E+03  0.7818609E-02  0.9905047E-01
       -2   -1    0    0    0  501  0.00000000000E+00  0.00000000000E+00  0.13856096258E+03  0.13856096261E+03  0.25500000920E-02 0.  1.
        2   -1    0    0  501    0  0.00000000000E+00  0.00000000000E+00 -0.64990874302E+03  0.64990874302E+03  0.25500000920E-02 0. -1.
    10030    2    1    2    0    0  0.00000000000E+00  0.00000000000E+00 -0.51134778044E+03  0.78846970563E+03  0.60017324511E+03 0.  0.
        3    1    3    3  502    0 -0.21975737433E+03 -0.19300667865E+03 -0.34387142774E+03  0.45143377210E+03  0.10100000352E+00 0.  1.
       -3    1    3    3    0  502  0.21975737433E+03  0.19300667865E+03 -0.16747635270E+03  0.33703593353E+03  0.10100000352E+00 0. -1.
</event>
<event>
 5   0  0.6078658E-03  0.5990697E+03  0.7818609E-02  0.9907338E-01
       -1   -1    0    0    0  501  0.00000000000E+00  0.00000000000E+00  0.98933763785E+02  0.98933763914E+02  0.50400001928E-02 0.  1.
        1   -1    0    0  501    0  0.00000000000E+00  0.00000000000E+00 -0.90688063536E+03  0.90688063538E+03  0.50400001928E-02 0. -1.
    10030    2    1    2    0    0  0.00000000000E+00  0.00000000000E+00 -0.80794687158E+03  0.10058143993E+04  0.59906966083E+03 0.  0.
        2    1    3    3  502    0 -0.37503445537E+02 -0.21665601902E+03 -0.62459564070E+02  0.22857719955E+03  0.25500000920E-02 0.  1.
       -2    1    3    3    0  502  0.37503445537E+02  0.21665601902E+03 -0.74548730751E+03  0.77723719974E+03  0.25500000920E-02 0. -1.
</event>
<event>
 5   0  0.9822607E-03  0.6000091E+03  0.7818609E-02  0.9905387E-01
       -2   -1    0    0    0  501  0.00000000000E+00  0.00000000000E+00  0.49030497378E+02  0.49030497444E+02  0.25500000920E-02 0. -1.
        2   -1    0    0  501    0  0.00000000000E+00  0.00000000000E+00 -0.18356480979E+04  0.18356480979E+04  0.25500000920E-02 0.  1.
    10030    2    1    2    0    0  0.00000000000E+00  0.00000000000E+00 -0.17866176005E+04  0.18846785953E+04  0.60000913098E+03 0.  0.
        3    1    3    3  502    0 -0.20188093600E+03 -0.11323698242E+03 -0.29382912252E+03  0.37405091893E+03  0.10100000352E+00 0. -1.
       -3    1    3    3    0  502  0.20188093600E+03  0.11323698242E+03 -0.14927884780E+04  0.15106276764E+04  0.10100000352E+00 0.  1.
</event>
<event>
 5   0  0.5819446E-03  0.5993383E+03  0.7818609E-02  0.9906780E-01
        1   -1    0    0  501    0  0.00000000000E+00  0.00000000000E+00  0.23879796809E+03  0.23879796814E+03  0.50400001928E-02 0.  1.
       -1   -1    0    0    0  501  0.00000000000E+00  0.00000000000E+00 -0.37605682037E+03  0.37605682040E+03  0.50400001928E-02 0. -1.
    10030    2    1    2    0    0  0.00000000000E+00  0.00000000000E+00 -0.13725885228E+03  0.61485478854E+03  0.59933831720E+03 0.  0.
        5    1    3    3  502    0  0.12439070057E+03 -0.11523096918E+03 -0.32206415270E+03  0.36400361413E+03  0.46999998093E+01 0. -1.
       -5    1    3    3    0  502 -0.12439070057E+03  0.11523096918E+03  0.18480530042E+03  0.25085117442E+03  0.46999998093E+01 0.  1.
</event>
<event>
 5   0  0.6078658E-03  0.5990735E+03  0.7818609E-02  0.9907330E-01
        1   -1    0    0  501    0  0.00000000000E+00  0.00000000000E+00  0.82836787481E+03  0.82836787483E+03  0.50400001928E-02 0. -1.
       -1   -1    0    0    0  501  0.00000000000E+00  0.00000000000E+00 -0.10831211409E+03  0.10831211421E+03  0.50400001928E-02 0.  1.
    10030    2    1    2    0    0  0.00000000000E+00  0.00000000000E+00  0.72005576072E+03  0.93667998904E+03  0.59907353749E+03 0.  0.
        2    1    3    3  502    0  0.29219647956E+03  0.64389663724E+02  0.33805659473E+03  0.45144996701E+03  0.25500000920E-02 0. -1.
       -2    1    3    3    0  502 -0.29219647956E+03 -0.64389663724E+02  0.38199916598E+03  0.48523002203E+03  0.25500000920E-02 0.  1.
</event>
<event>
 5   0  0.9162342E-03  0.5996149E+03  0.7818609E-02  0.9906205E-01
       -2   -1    0    0    0  501  0.00000000000E+00  0.00000000000E+00  0.20042403513E+03  0.20042403515E+03  0.25500000920E-02 0.  1.
        2   -1    0    0  501    0  0.00000000000E+00  0.00000000000E+00 -0.44847168106E+03  0.44847168107E+03  0.25500000920E-02 0. -1.
    10030    2    1    2    0    0  0.00000000000E+00  0.00000000000E+00 -0.24804764593E+03  0.64889571621E+03  0.59961488963E+03 0.  0.
        5    1    3    3  502    0 -0.21271952896E+03 -0.21060476276E+03 -0.14142147572E+03  0.33109830548E+03  0.46999998093E+01 0. -1.
       -5    1    3    3    0  502  0.21271952896E+03  0.21060476276E+03 -0.10662617020E+03  0.31779741073E+03  0.46999998093E+01 0.  1.
</event>
<event>
 5   0  0.5765045E-03  0.5995752E+03  0.7818609E-02  0.9906288E-01
       -1   -1    0    0    0  501  0.00000000000E+00  0.00000000000E+00  0.16129799529E+03  0.16129799537E+03  0.50400001928E-02 0. -1.
        1   -1    0    0  501    0  0.00000000000E+00  0.00000000000E+00 -0.55718355779E+03  0.55718355781E+03  0.50400001928E-02 0.  1.
    10030    2    1    2    0    0  0.00000000000E+00  0.00000000000E+00 -0.39588556249E+03  0.71848155318E+03  0.59957515265E+03 0.  0.
        1    1    3    3  502    0  0.11207117888E+03 -0.53923876132E+02 -0.52481095734E+03  0.53934615463E+03  0.50400001928E-02 0.  1.
       -1    1    3    3    0  502 -0.11207117888E+03  0.53923876132E+02  0.12892539484E+03  0.17913539855E+03  0.50400001928E-02 0. -1.
</event>
<event>
 5   0  0.5765045E-03  0.5997337E+03  0.7818609E-02  0.9905959E-01
        1   -1    0    0  501    0  0.00000000000E+00  0.00000000000E+00  0.34558463123E+03  0.34558463127E+03  0.50400001928E-02 0.  1.
       -1   -1    0    0    0  501  0.00000000000E+00  0.00000000000E+00 -0.26019710458E+03  0.26019710463E+03  0.50400001928E-02 0. -1.
    10030    2    1    2    0    0  0.00000000000E+00  0.00000000000E+00  0.85387526654E+02  0.60578173589E+03  0.59973367576E+03 0.  0.
        1    1    3    3  502    0 -0.56500366793E+02 -0.89061801211E+02 -0.24084297684E+03  0.26292515171E+03  0.50400001928E-02 0. -1.
       -1    1    3    3    0  502  0.56500366793E+02  0.89061801211E+02  0.32623050350E+03  0.34285658418E+03  0.50400001928E-02 0.  1.
</event>
<event>
 5   0  0.9822607E-03  0.5986441E+03  0.7818609E-02  0.9908223E-01
       -2   -1    0    0    0  501  0.00000000000E+00  0.00000000000E+00  0.97050353923E+02  0.97050353956E+02  0.25500000920E-02 0.  1.
        2   -1    0    0  501    0  0.00000000000E+00  0.00000000000E+00 -0.92316711902E+03  0.92316711902E+03  0.25500000920E-02 0. -1.
    10030    2    1    2    0    0  0.00000000000E+00  0.00000000000E+00 -0.82611676510E+03  0.10202174730E+04  0.59864412016E+03 0.  0.
        3    1    3    3  502    0 -0.60059667271E+02 -0.17815800580E+00  0.86675903597E+02  0.10545102104E+03  0.10100000352E+00 0.  1.
       -3    1    3    3    0  502  0.60059667271E+02  0.17815800580E+00 -0.91279266869E+03  0.91476645194E+03  0.10100000352E+00 0. -1.
</event>
<event>
 5   0  0.6078658E-03  0.6000368E+03  0.7818609E-02  0.9905330E-01
        1   -1    0    0  501    0  0.00000000000E+00  0.00000000000E+00  0.73593903720E+03  0.73593903721E+03  0.50400001928E-02 0. -1.
       -1   -1    0    0    0  501  0.00000000000E+00  0.00000000000E+00 -0.12230773664E+03  0.12230773674E+03  0.50400001928E-02 0.  1.
    10030    2    1    2    0    0  0.00000000000E+00  0.00000000000E+00  0.61363130056E+03  0.85824677395E+03  0.60003679218E+03 0.  0.
        2    1    3    3  502    0 -0.21294604313E+03 -0.88772617530E+02  0.32490016280E+02  0.23298539884E+03  0.25500000920E-02 0.  1.
       -2    1    3    3    0  502  0.21294604313E+03  0.88772617530E+02  0.58114128428E+03  0.62526137512E+03  0.25500000920E-02 0. -1.
</event>
<event>
 5   0  0.5765045E-03  0.6011515E+03  0.7818609E-02  0.9903020E-01
        1   -1    0    0  501    0  0.00000000000E+00  0.00000000000E+00  0.48359350117E+03  0.48359350119E+03  0.50400001928E-02 0. -1.
       -1   -1    0    0    0  501  0.00000000000E+00  0.00000000000E+00 -0.18682175870E+03  0.18682175876E+03  0.50400001928E-02 0.  1.
    10030    2    1    2    0    0  0.00000000000E+00  0.00000000000E+00  0.29677174247E+03  0.67041525996E+03  0.60115152304E+03 0.  0.
        1    1    3    3  502    0  0.10379107317E+02 -0.30053800039E+02 -0.18494101929E+03  0.18765430293E+03  0.50400001928E-02 0.  1.
       -1    1    3    3    0  502 -0.10379107317E+02  0.30053800039E+02  0.48171276176E+03  0.48276095703E+03  0.50400001928E-02 0. -1.
</event>
<event>
 5   0  0.9162342E-03  0.6017774E+03  0.7818609E-02  0.9901725E-01
        2   -1    0    0  501    0  0.00000000000E+00  0.00000000000E+00  0.15375870837E+04  0.15375870837E+04  0.25500000920E-02 0. -1.
       -2   -1    0    0    0  501  0.00000000000E+00  0.00000000000E+00 -0.58880572240E+02  0.58880572295E+02  0.25500000920E-02 0.  1.
    10030    2    1    2    0    0  0.00000000000E+00  0.00000000000E+00  0.14787065115E+04  0.15964676560E+04  0.60177739208E+03 0.  0.
        5    1    3    3  502    0  0.23428058069E+03 -0.18424970142E+03  0.84797972849E+03  0.89884762496E+03  0.46999998093E+01 0. -1.
       -5    1    3    3    0  502 -0.23428058069E+03  0.18424970142E+03  0.63072678301E+03  0.69762003108E+03  0.46999998093E+01 0.  1.
</event>
<event>
 5   0  0.5819446E-03  0.6008344E+03  0.7818609E-02  0.9903676E-01
        1   -1    0    0  501    0  0.00000000000E+00  0.00000000000E+00  0.71480911845E+03  0.71480911846E+03  0.50400001928E-02 0. -1.
       -1   -1    0    0    0  501  0.00000000000E+00  0.00000000000E+00 -0.12625817493E+03  0.12625817503E+03  0.50400001928E-02 0.  1.
    10030    2    1    2    0    0  0.00000000000E+00  0.00000000000E+00  0.58855094352E+03  0.84106729349E+03  0.60083440237E+03 0.  0.
        5    1    3    3  502    0  0.15200530961E+03  0.22108760509E+03  0.48334642536E+03  0.55283921729E+03  0.46999998093E+01 0. -1.
       -5    1    3    3    0  502 -0.15200530961E+03 -0.22108760509E+03  0.10520451816E+03  0.28822807620E+03  0.46999998093E+01 0.  1.
</event>
<event>
 5   0  0.9822607E-03  0.6029199E+03  0.7818609E-02  0.9899367E-01
        2   -1    0    0  501    0  0.00000000000E+00  0.00000000000E+00  0.74592020531E+03  0.74592020532E+03  0.25500000920E-02 0.  1.
       -2   -1    0    0    0  501  0.00000000000E+00  0.00000000000E+00 -0.12183352363E+03  0.12183352365E+03  0.25500000920E-02 0. -1.
    10030    2    1    2    0    0  0.00000000000E+00  0.00000000000E+00  0.62408668169E+03  0.86775372897E+03  0.60291985196E+03 0.  0.
        3    1    3    3  502    0  0.10555645569E+03  0.26359224788E+03  0.45779232882E+03  0.53869923427E+03  0.10100000352E+00 0.  1.
       -3    1    3    3    0  502 -0.10555645569E+03 -0.26359224788E+03  0.16629435287E+03  0.32905449470E+03  0.10100000352E+00 0. -1.
</event>
<event>
 5   0  0.6078658E-03  0.6008484E+03  0.7818609E-02  0.9903647E-01
        1   -1    0    0  501    0  0.00000000000E+00  0.00000000000E+00  0.61443237359E+02  0.61443237565E+02  0.50400001928E-02 0. -1.
       -1   -1    0    0    0  501  0.00000000000E+00  0.00000000000E+00 -0.14689118417E+04  0.14689118417E+04  0.50400001928E-02 0.  1.
    10030    2    1    2    0    0  0.00000000000E+00  0.00000000000E+00 -0.14074686043E+04  0.15303550792E+04  0.60084839722E+03 0.  0.
        2    1    3    3  502    0  0.71429894878E+02  0.25603572463E+03 -0.34717223460E+03  0.43724716426E+03  0.25500000920E-02 0. -1.
       -2    1    3    3    0  502 -0.71429894878E+02 -0.25603572463E+03 -0.10602963697E+04  0.10931079150E+04  0.25500000920E-02 0.  1.
</event>
<event>
 5   0  0.6078658E-03  0.5993800E+03  0.7818609E-02  0.9906693E-01
       -1   -1    0    0    0  501  0.00000000000E+00  0.00000000000E+00  0.62417626374E+02  0.62417626578E+02  0.50400001928E-02 0.  1.
        1   -1    0    0  501    0  0.00000000000E+00  0.00000000000E+00 -0.14389222232E+04  0.14389222232E+04  0.50400001928E-02 0. -1.
    10030    2    1    2    0    0  0.00000000000E+00  0.00000000000E+00 -0.13765045968E+04  0.15013398498E+04  0.59938004594E+03 0.  0.
        2    1    3    3  502    0 -0.13860688517E+03  0.23440255375E+03 -0.10016822488E+04  0.10380384162E+04  0.25500000920E-02 0. -1.
       -2    1    3    3    0  502  0.13860688517E+03 -0.23440255375E+03 -0.37482234798E+03  0.46330143360E+03  0.25500000920E-02 0.  1.
</event>
<event>
 5   0  0.5891927E-03  0.6011199E+03  0.7818609E-02  0.9903085E-01
        1   -1    0    0  501    0  0.00000000000E+00  0.00000000000E+00  0.14808927997E+03  0.14808928006E+03  0.50400001928E-02 0. -1.
       -1   -1    0    0    0  501  0.00000000000E+00  0.00000000000E+00 -0.61001234243E+03  0.61001234245E+03  0.50400001928E-02 0.  1.
    10030    2    1    2    0    0  0.00000000000E+00  0.00000000000E+00 -0.46192306246E+03  0.75810162251E+03  0.60111991684E+03 0.  0.
        4    1    3    3  502    0 -0.19741963846E+03  0.35624404224E+02  0.51296583436E+02  0.20706656948E+03  0.12699999809E+01 0. -1.
       -4    1    3    3    0  502  0.19741963846E+03 -0.35624404224E+02 -0.51321964590E+03  0.55103505302E+03  0.12699999809E+01 0.  1.
</event>
<event>
 5   0  0.5891927E-03  0.6002872E+03  0.7818609E-02  0.9904810E-01
        1   -1    0    0  501    0  0.00000000000E+00  0.00000000000E+00  0.36929450408E+03  0.36929450411E+03  0.50400001928E-02 0.  1.
       -1   -1    0    0    0  501  0.00000000000E+00  0.00000000000E+00 -0.24394131039E+03  0.24394131044E+03  0.50400001928E-02 0. -1.
    10030    2    1    2    0    0  0.00000000000E+00  0.00000000000E+00  0.12535319369E+03  0.61323581455E+03  0.60028721549E+03 0.  0.
        4    1    3    3  502    0 -0.74903119121E+01  0.28724746278E+03  0.15124955914E+03  0.32472334638E+03  0.12699999809E+01 0.  1.
       -4    1    3    3    0  502  0.74903119121E+01 -0.28724746278E+03 -0.25896365442E+02  0.28851246817E+03  0.12699999809E+01 0. -1.
</event>
<event>
 5   0  0.9391405E-03  0.5977235E+03  0.7818609E-02  0.9910140E-01
        2   -1    0    0  501    0  0.00000000000E+00  0.00000000000E+00  0.60770409959E+03  0.60770409959E+03  0.25500000920E-02 0.  1.
       -2   -1    0    0    0  501  0.00000000000E+00  0.00000000000E+00 -0.14697669933E+03  0.14697669935E+03  0.25500000920E-02 0. -1.
    10030    2    1    2    0    0  0.00000000000E+00  0.00000000000E+00  0.46072740025E+03  0.75468079894E+03  0.59772349038E+03 0.  0.
        2    1    3    3  502    0  0.29366959362E+03  0.54629870771E+02  0.24247996004E+03  0.38473729222E+03  0.25500000920E-02 0. -1.
       -2    1    3    3    0  502 -0.29366959362E+03 -0.54629870771E+02  0.21824744021E+03  0.36994350672E+03  0.25500000920E-02 0.  1.
</event>
<event>
 5   0  0.9028473E-03  0.5999165E+03  0.7818609E-02  0.9905579E-01
        2   -1    0    0  501    0  0.00000000000E+00  0.00000000000E+00  0.22220662556E+04  0.22220662556E+04  0.25500000920E-02 0.  1.
       -2   -1    0    0    0  501  0.00000000000E+00  0.00000000000E+00 -0.40491564790E+02  0.40491564871E+02  0.25500000920E-02 0. -1.
    10030    2    1    2    0    0  0.00000000000E+00  0.00000000000E+00  0.21815746908E+04  0.22625578204E+04  0.59991646034E+03 0.  0.
        1    1    3    3  502    0 -0.40006540226E+02 -0.10810643853E+03  0.46377501879E+02  0.12425135017E+03  0.50400001928E-02 0. -1.
       -1    1    3    3    0  502  0.40006540226E+02  0.10810643853E+03  0.21351971889E+04  0.21383064703E+04  0.50400001928E-02 0.  1.
</event>
<event>
 5   0  0.9822607E-03  0.6000883E+03  0.7818609E-02  0.9905223E-01
        2   -1    0    0  501    0  0.00000000000E+00  0.00000000000E+00  0.91544682728E+03  0.91544682728E+03  0.25500000920E-02 0. -1.
       -2   -1    0    0    0  501  0.00000000000E+00  0.00000000000E+00 -0.98341589089E+02  0.98341589122E+02  0.25500000920E-02 0.  1.
    10030    2    1    2    0    0  0.00000000000E+00  0.00000000000E+00  0.81710523819E+03  0.10137884164E+04  0.60008831263E+03 0.  0.
        3    1    3    3  502    0  0.23554854739E+03 -0.66619816409E+02  0.70167749727E+03  0.74315048172E+03  0.10100000352E+00 0. -1.
       -3    1    3    3    0  502 -0.23554854739E+03  0.66619816409E+02  0.11542774093E+03  0.27063793468E+03  0.10100000352E+00 0.  1.
</event>
<event>
 5   0  0.9028473E-03  0.5977575E+03  0.7818609E-02  0.9910070E-01
       -2   -1    0    0    0  501  0.00000000000E+00  0.00000000000E+00  0.10451860740E+03  0.10451860743E+03  0.25500000920E-02 0. -1.
        2   -1    0    0  501    0  0.00000000000E+00  0.00000000000E+00 -0.85466593902E+03  0.85466593902E+03  0.25500000920E-02 0.  1.
    10030    2    1    2    0    0  0.00000000000E+00  0.00000000000E+00 -0.75014733162E+03  0.95918454645E+03  0.59775745501E+03 0.  0.
        1    1    3    3  502    0  0.12506391216E+03 -0.21013555952E+03 -0.65082206529E+03  0.69524621264E+03  0.50400001928E-02 0.  1.
       -1    1    3    3    0  502 -0.12506391216E+03  0.21013555952E+03 -0.99325266332E+02  0.26393833381E+03  0.50400001928E-02 0. -1.
</event>
<event>
 5   0  0.9303190E-03  0.5960599E+03  0.7818609E-02  0.9913614E-01
        2   -1    0    0  501    0  0.00000000000E+00  0.00000000000E+00  0.83438254736E+03  0.83438254737E+03  0.25500000920E-02 0.  1.
       -2   -1    0    0    0  501  0.00000000000E+00  0.00000000000E+00 -0.10645220739E+03  0.10645220742E+03  0.25500000920E-02 0. -1.
    10030    2    1    2    0    0  0.00000000000E+00  0.00000000000E+00  0.72793033997E+03  0.94083475478E+03  0.59605994326E+03 0.  0.
        4    1    3    3  502    0 -0.20481254634E+03  0.19035851483E+03  0.52674725735E+03  0.59636300131E+03  0.12699999809E+01 0.  1.
       -4    1    3    3    0  502  0.20481254634E+03 -0.19035851483E+03  0.20118308262E+03  0.34447175347E+03  0.12699999809E+01 0. -1.
</event>
<event>
 5   0  0.5790967E-03  0.5991426E+03  0.7818609E-02  0.9907186E-01
       -1   -1    0    0    0  501  0.00000000000E+00  0.00000000000E+00  0.80778013743E+02  0.80778013900E+02  0.50400001928E-02 0. -1.
        1   -1    0    0  501    0  0.00000000000E+00  0.00000000000E+00 -0.11109825968E+04  0.11109825968E+04  0.50400001928E-02 0.  1.
    10030    2    1    2    0    0  0.00000000000E+00  0.00000000000E+00 -0.10302045830E+04  0.11917606107E+04  0.59914261264E+03 0.  0.
        3    1    3    3  502    0 -0.19217840503E+03 -0.16463990879E+03 -0.19619813830E+03  0.32020705583E+03  0.10100000352E+00 0. -1.
       -3    1    3    3    0  502  0.19217840503E+03  0.16463990879E+03 -0.83400644472E+03  0.87155355485E+03  0.10100000352E+00 0.  1.
</event>
<event>
 5   0  0.5765045E-03  0.5996156E+03  0.7818609E-02  0.9906204E-01
        1   -1    0    0  501    0  0.00000000000E+00  0.00000000000E+00  0.43035337821E+03  0.43035337824E+03  0.50400001928E-02 0.  1.
       -1   -1    0    0    0  501  0.00000000000E+00  0.00000000000E+00 -0.20886256374E+03  0.20886256380E+03  0.50400001928E-02 0. -1.
    10030    2    1    2    0    0  0.00000000000E+00  0.00000000000E+00  0.22149081447E+03  0.63921594205E+03  0.59961557658E+03 0.  0.
        1    1    3    3  502    0  0.18516173080E+03  0.17079411343E+03  0.28405269134E+03  0.37965962022E+03  0.50400001928E-02 0.  1.
       -1    1    3    3    0  502 -0.18516173080E+03 -0.17079411343E+03 -0.62561876874E+02  0.25955632183E+03  0.50400001928E-02 0. -1.
</event>
<event>
 5   0  0.5819446E-03  0.6015128E+03  0.7818609E-02  0.9902272E-01
       -1   -1    0    0    0  501  0.00000000000E+00  0.00000000000E+00  0.40731010124E+02  0.40731010436E+02  0.50400001928E-02 0. -1.
        1   -1    0    0  501    0  0.00000000000E+00  0.00000000000E+00 -0.22207750231E+04  0.22207750232E+04  0.50400001928E-02 0.  1.
    10030    2    1    2    0    0  0.00000000000E+00  0.00000000000E+00 -0.21800440130E+04  0.22615060336E+04  0.60151279391E+03 0.  0.
        5    1    3    3  502    0  0.27415078520E+03 -0.92051622840E+02 -0.77998563928E+03  0.83188451228E+03  0.46999998093E+01 0.  1.
       -5    1    3    3    0  502 -0.27415078520E+03  0.92051622840E+02 -0.14000583737E+04  0.14296215213E+04  0.46999998093E+01 0. -1.
</event>
<event>
 5   0  0.5891927E-03  0.5992850E+03  0.7818609E-02  0.9906891E-01
       -1   -1    0    0    0  501  0.00000000000E+00  0.00000000000E+00  0.24579859826E+03  0.24579859832E+03  0.50400001928E-02 0. -1.
        1   -1    0    0  501    0  0.00000000000E+00  0.00000000000E+00 -0.36528126238E+03  0.36528126242E+03  0.50400001928E-02 0.  1.
    10030    2    1    2    0    0  0.00000000000E+00  0.00000000000E+00 -0.11948266412E+03  0.61107986073E+03  0.59928498160E+03 0.  0.
        4    1    3    3  502    0 -0.11182461028E+03  0.15924271428E+03  0.17260520329E+03  0.26010988951E+03  0.12699999809E+01 0. -1.
       -4    1    3    3    0  502  0.11182461028E+03 -0.15924271428E+03 -0.29208786741E+03  0.35096997123E+03  0.12699999809E+01 0.  1.
</event>
<event>
 5   0  0.5891927E-03  0.6001264E+03  0.7818609E-02  0.9905144E-01
       -1   -1    0    0    0  501  0.00000000000E+00  0.00000000000E+00  0.10464643440E+03  0.10464643452E+03  0.50400001928E-02 0.  1.
        1   -1    0    0  501    0  0.00000000000E+00  0.00000000000E+00 -0.86040114991E+03  0.86040114992E+03  0.50400001928E-02 0. -1.
    10030    2    1    2    0    0  0.00000000000E+00  0.00000000000E+00 -0.75575471551E+03  0.96504758445E+03  0.60012636188E+03 0.  0.
        4    1    3    3  502    0 -0.12224579608E+03 -0.24749943565E+03 -0.18872318787E+03  0.33439207503E+03  0.12699999809E+01 0.  1.
       -4    1    3    3    0  502  0.12224579608E+03  0.24749943565E+03 -0.56703152765E+03  0.63065550941E+03  0.12699999809E+01 0. -1.
</event>
<event>
 5   0  0.5790967E-03  0.5989233E+03  0.7818609E-02  0.9907642E-01
        1   -1    0    0  501    0  0.00000000000E+00  0.00000000000E+00  0.55285820774E+03  0.55285820777E+03  0.50400001928E-02 0. -1.
       -1   -1    0    0    0  501  0.00000000000E+00  0.00000000000E+00 -0.16220663570E+03  0.16220663578E+03  0.50400001928E-02 0.  1.
    10030    2    1    2    0    0  0.00000000000E+00  0.00000000000E+00  0.39065157205E+03  0.71506484354E+03  0.59892326698E+03 0.  0.
        3    1    3    3  502    0  0.13698583141E+03 -0.25936058742E+03  0.26739951245E+03  0.39690747256E+03  0.10100000352E+00 0. -1.
       -3    1    3    3    0  502 -0.13698583141E+03  0.25936058742E+03  0.12325205960E+03  0.31815737098E+03  0.10100000352E+00 0.  1.
</event>
<event>
 5   0  0.9303190E-03  0.5997267E+03  0.7818609E-02  0.9905973E-01
        2   -1    0    0  501    0  0.00000000000E+00  0.00000000000E+00  0.53556986129E+03  0.53556986130E+03  0.25500000920E-02 0. -1.
       -2   -1    0    0    0  501  0.00000000000E+00  0.00000000000E+00 -0.16789223200E+03  0.16789223202E+03  0.25500000920E-02 0.  1.
    10030    2    1    2    0    0  0.00000000000E+00  0.00000000000E+00  0.36767762929E+03  0.70346209331E+03  0.59972666911E+03 0.  0.
        4    1    3    3  502    0  0.16207825440E+03  0.16639398710E+03 -0.38593409885E+02  0.23547268139E+03  0.12699999809E+01 0.  1.
       -4    1    3    3    0  502 -0.16207825440E+03 -0.16639398710E+03  0.40627103918E+03  0.46798941192E+03  0.12699999809E+01 0. -1.
</event>
<event>
 5   0  0.6078658E-03  0.6001062E+03  0.7818609E-02  0.9905186E-01
        1   -1    0    0  501    0  0.00000000000E+00  0.00000000000E+00  0.80793429945E+03  0.80793429947E+03  0.50400001928E-02 0.  1.
       -1   -1    0    0    0  501  0.00000000000E+00  0.00000000000E+00 -0.11143461601E+03  0.11143461612E+03  0.50400001928E-02 0. -1.
    10030    2    1    2    0    0  0.00000000000E+00  0.00000000000E+00  0.69649968345E+03  0.91936891559E+03  0.60010615220E+03 0.  0.
        2    1    3    3  502    0  0.21635668809E+03 -0.12795934525E+03  0.97224241979E+02  0.26951134253E+03  0.25500000920E-02 0. -1.
       -2    1    3    3    0  502 -0.21635668809E+03  0.12795934525E+03  0.59927544147E+03  0.64985757307E+03  0.25500000920E-02 0.  1.
</event>
<event>
 5   0  0.5790967E-03  0.6009419E+03  0.7818609E-02  0.9903454E-01
        1   -1    0    0  501    0  0.00000000000E+00  0.00000000000E+00  0.30454379847E+03  0.30454379851E+03  0.50400001928E-02 0. -1.
       -1   -1    0    0    0  501  0.00000000000E+00  0.00000000000E+00 -0.29645256155E+03  0.29645256160E+03  0.50400001928E-02 0.  1.
    10030    2    1    2    0    0  0.00000000000E+00  0.00000000000E+00  0.80912369186E+01  0.60099636011E+03  0.60094189133E+03 0.  0.
        3    1    3    3  502    0  0.24497145565E+03 -0.93791425795E+02  0.15060218249E+03  0.30247127667E+03  0.10100000352E+00 0.  1.
       -3    1    3    3    0  502 -0.24497145565E+03  0.93791425795E+02 -0.14251094557E+03  0.29852508344E+03  0.10100000352E+00 0. -1.
</event>
<event>
 5   0  0.9162342E-03  0.6000905E+03  0.7818609E-02  0.9905218E-01
       -2   -1    0    0    0  501  0.00000000000E+00  0.00000000000E+00  0.58317852356E+02  0.58317852412E+02  0.25500000920E-02 0.  1.
        2   -1    0    0  501    0  0.00000000000E+00  0.00000000000E+00 -0.15437324269E+04  0.15437324269E+04  0.25500000920E-02 0. -1.
    10030    2    1    2    0    0  0.00000000000E+00  0.00000000000E+00 -0.14854145746E+04  0.16020502794E+04  0.60009052583E+03 0.  0.
        5    1    3    3  502    0 -0.29829245541E+03 -0.18372606433E+02 -0.67262482121E+03  0.73604495904E+03  0.46999998093E+01 0.  1.
       -5    1    3    3    0  502  0.29829245541E+03  0.18372606433E+02 -0.81278975337E+03  0.86600532031E+03  0.46999998093E+01 0. -1.
</event>
<event>
 5   0  0.6078658E-03  0.5993658E+03  0.7818609E-02  0.9906723E-01
        1   -1    0    0  501    0  0.00000000000E+00  0.00000000000E+00  0.10447884743E+04  0.10447884743E+04  0.50400001928E-02 0. -1.
       -1   -1    0    0    0  501  0.00000000000E+00  0.00000000000E+00 -0.85959835299E+02  0.85959835446E+02  0.50400001928E-02 0.  1.
    10030    2    1    2    0    0  0.00000000000E+00  0.00000000000E+00  0.95882863903E+03  0.11307483098E+04  0.59936581573E+03 0.  0.
        2    1    3    3  502    0 -0.25555319275E+03  0.13350664819E+03  0.63358781898E+03  0.69610702036E+03  0.25500000920E-02 0.  1.
       -2    1    3    3    0  502  0.25555319275E+03 -0.13350664819E+03  0.32524082005E+03  0.43464128942E+03  0.25500000920E-02 0. -1.
</event>
<event>
 5   0  0.5790967E-03  0.6004729E+03  0.7818609E-02  0.9904426E-01
       -1   -1    0    0    0  501  0.00000000000E+00  0.00000000000E+00  0.69081229737E+02  0.69081229921E+02  0.50400001928E-02 0. -1.
        1   -1    0    0  501    0  0.00000000000E+00  0.00000000000E+00 -0.13048683742E+04  0.13048683742E+04  0.50400001928E-02 0.  1.
    10030    2    1    2    0    0  0.00000000000E+00  0.00000000000E+00 -0.12357871444E+04  0.13739496041E+04  0.60047285389E+03 0.  0.
        3    1    3    3  502    0  0.13207769350E+03  0.26052385917E+03 -0.45896106253E+03  0.54402432431E+03  0.10100000352E+00 0. -1.
       -3    1    3    3    0  502 -0.13207769350E+03 -0.26052385917E+03 -0.77682608189E+03  0.82992527978E+03  0.10100000352E+00 0.  1.
</event>
<event>
 5   0  0.5819446E-03  0.6010175E+03  0.7818609E-02  0.9903297E-01
       -1   -1    0    0    0  501  0.00000000000E+00  0.00000000000E+00  0.38840830551E+03  0.38840830554E+03  0.50400001928E-02 0.  1.
        1   -1    0    0  501    0  0.00000000000E+00  0.00000000000E+00 -0.23250148564E+03  0.23250148570E+03  0.50400001928E-02 0. -1.
    10030    2    1    2    0    0  0.00000000000E+00  0.00000000000E+00  0.15590681986E+03  0.62090979124E+03  0.60101749756E+03 0.  0.
        5    1    3    3  502    0 -0.25107534689E+03  0.14203292558E+03 -0.89204400589E+01  0.28864137959E+03  0.46999998093E+01 0. -1.
       -5    1    3    3    0  502  0.25107534689E+03 -0.14203292558E+03  0.16482725992E+03  0.33226841165E+03  0.46999998093E+01 0.  1.
</event>
<event>
 5   0  0.3806250E-03  0.6002949E+03  0.7818609E-02  0.9904795E-01
        3   -1    0    0  501    0  0.00000000000E+00  0.00000000000E+00  0.31821400937E+03  0.31821402540E+03  0.10100000352E+00 0. -1.
       -3   -1    0    0    0  501  0.00000000000E+00  0.00000000000E+00 -0.28310654360E+03  0.28310656161E+03  0.10100000352E+00 0.  1.
    10030    2    1    2    0    0  0.00000000000E+00  0.00000000000E+00  0.35107465774E+02  0.60132058702E+03  0.60029485606E+03 0.  0.
        5    1    3    3  502    0 -0.42306134198E+02  0.27389913456E+03 -0.97777022727E+02  0.29392682946E+03  0.46999998093E+01 0.  1.
       -5    1    3    3    0  502  0.42306134198E+02 -0.27389913456E+03  0.13288448850E+03  0.30739375756E+03  0.46999998093E+01 0. -1.
</event>
<event>
 5   0  0.9391405E-03  0.5998240E+03  0.7818609E-02  0.9905771E-01
       -2   -1    0    0    0  501  0.00000000000E+00  0.00000000000E+00  0.13329594667E+03  0.13329594669E+03  0.25500000920E-02 0. -1.
        2   -1    0    0  501    0  0.00000000000E+00  0.00000000000E+00 -0.67479321347E+03  0.67479321348E+03  0.25500000920E-02 0.  1.
    10030    2    1    2    0    0  0.00000000000E+00  0.00000000000E+00 -0.54149726681E+03  0.80808916017E+03  0.59982397487E+03 0.  0.
        2    1    3    3  502    0  0.26102821009E+03  0.13724549060E+03 -0.19726513493E+03  0.35480358597E+03  0.25500000920E-02 0.  1.
       -2    1    3    3    0  502 -0.26102821009E+03 -0.13724549060E+03 -0.34423213187E+03  0.45328557420E+03  0.25500000920E-02 0. -1.
</event>
<event>
 5   0  0.9391405E-03  0.5994156E+03  0.7818609E-02  0.9906619E-01
        2   -1    0    0  501    0  0.00000000000E+00  0.00000000000E+00  0.18481550475E+04  0.18481550475E+04  0.25500000920E-02 0. -1.
       -2   -1    0    0    0  501  0.00000000000E+00  0.00000000000E+00 -0.48602389001E+02  0.48602389068E+02  0.25500000920E-02 0.  1.
    10030    2    1    2    0    0  0.00000000000E+00  0.00000000000E+00  0.17995526585E+04  0.18967574366E+04  0.59941555075E+03 0.  0.
        2    1    3    3  502    0 -0.12042295269E+03  0.23553545034E+03  0.45399534541E+03  0.52544306025E+03  0.25500000920E-02 0.  1.
       -2    1    3    3    0  502  0.12042295269E+03 -0.23553545034E+03  0.13455573131E+04  0.13713143764E+04  0.25500000920E-02 0. -1.
</event>
<event>
 5   0  0.9822607E-03  0.5999836E+03  0.7818609E-02  0.9905440E-01
        2   -1    0    0  501    0  0.00000000000E+00  0.00000000000E+00  0.82429638599E+03  0.82429638600E+03  0.25500000920E-02 0.  1.
       -2   -1    0    0    0  501  0.00000000000E+00  0.00000000000E+00 -0.10917805437E+03  0.10917805440E+03  0.25500000920E-02 0. -1.
    10030    2    1    2    0    0  0.00000000000E+00  0.00000000000E+00  0.71511833163E+03  0.93347444039E+03  0.59998358531E+03 0.  0.
        3    1    3    3  502    0  0.40011536408E+02  0.29729022753E+03  0.35202270955E+03  0.46249583854E+03  0.10100000352E+00 0. -1.
       -3    1    3    3    0  502 -0.40011536408E+02 -0.29729022753E+03  0.36309562208E+03  0.47097860185E+03  0.10100000352E+00 0.  1.
</event>
<event>
 5   0  0.9303190E-03  0.6011214E+03  0.7818609E-02  0.9903082E-01
       -2   -1    0    0    0  501  0.00000000000E+00  0.00000000000E+00  0.10459766204E+03  0.10459766207E+03  0.25500000920E-02 0. -1.
        2   -1    0    0  501    0  0.00000000000E+00  0.00000000000E+00 -0.86365925004E+03  0.86365925005E+03  0.25500000920E-02 0.  1.
    10030    2    1    2    0    0  0.00000000000E+00  0.00000000000E+00 -0.75906158800E+03  0.96825691212E+03  0.60112141326E+03 0.  0.
        4    1    3    3  502    0 -0.22289073102E+03 -0.19759151826E+03 -0.44421080855E+03  0.53483412513E+03  0.12699999809E+01 0.  1.
       -4    1    3    3    0  502  0.22289073102E+03  0.19759151826E+03 -0.31485077945E+03  0.43342278699E+03  0.12699999809E+01 0. -1.
</event>
<event>
 5   0  0.5765045E-03  0.5986452E+03  0.7818609E-02  0.9908221E-01
        1   -1    0    0  501    0  0.00000000000E+00  0.00000000000E+00  0.23495719254E+03  0.23495719259E+03  0.50400001928E-02 0.  1.
       -1   -1    0    0    0  501  0.00000000000E+00  0.00000000000E+00 -0.38132054238E+03  0.38132054241E+03  0.50400001928E-02 0. -1.
    10030    2    1    2    0    0  0.00000000000E+00  0.00000000000E+00 -0.14636334984E+03  0.61627773500E+03  0.59864515072E+03 0.  0.
        1    1    3    3  502    0 -0.24925635594E+03  0.15517845015E+03 -0.13307539991E+03  0.32236337331E+03  0.50400001928E-02 0. -1.
       -1    1    3    3    0  502  0.24925635594E+03 -0.15517845015E+03 -0.13287949925E+02  0.29391436169E+03  0.50400001928E-02 0.  1.
</event>
<event>
 5   0  0.9303190E-03  0.6002328E+03  0.7818609E-02  0.9904923E-01
        2   -1    0    0  501    0  0.00000000000E+00  0.00000000000E+00  0.57647024834E+03  0.57647024835E+03  0.25500000920E-02 0. -1.
       -2   -1    0    0    0  501  0.00000000000E+00  0.00000000000E+00 -0.15624369901E+03  0.15624369903E+03  0.25500000920E-02 0.  1.
    10030    2    1    2    0    0  0.00000000000E+00  0.00000000000E+00  0.42022654933E+03  0.73271394737E+03  0.60023276811E+03 0.  0.
        4    1    3    3  502    0 -0.28837573505E+03  0.80885486067E+02  0.23344156492E+03  0.37973622892E+03  0.12699999809E+01 0.  1.
       -4    1    3    3    0  502  0.28837573505E+03 -0.80885486067E+02  0.18678498441E+03  0.35297771845E+03  0.12699999809E+01 0. -1.
</event>
<event>
 5   0  0.5891927E-03  0.6008333E+03  0.7818609E-02  0.9903679E-01
        1   -1    0    0  501    0  0.00000000000E+00  0.00000000000E+00  0.17073061122E+03  0.17073061129E+03  0.50400001928E-02 0. -1.
       -1   -1    0    0    0  501  0.00000000000E+00  0.00000000000E+00 -0.52861142092E+03  0.52861142094E+03  0.50400001928E-02 0.  1.
    10030    2    1    2    0    0  0.00000000000E+00  0.00000000000E+00 -0.35788080970E+03  0.69934203223E+03  0.60083325814E+03 0.  0.
        4    1    3    3  502    0 -0.23131077431E+03  0.14613546869E+03 -0.34552495451E+02  0.27578204685E+03  0.12699999809E+01 0. -1.
       -4    1    3    3    0  502  0.23131077431E+03 -0.14613546869E+03 -0.32332831425E+03  0.42355998538E+03  0.12699999809E+01 0.  1.
</event>
<event>
 5   0  0.9028473E-03  0.5992782E+03  0.7818609E-02  0.9906905E-01
        2   -1    0    0  501    0  0.00000000000E+00  0.00000000000E+00  0.70257354502E+03  0.70257354503E+03  0.25500000920E-02 0.  1.
       -2   -1    0    0    0  501  0.00000000000E+00  0.00000000000E+00 -0.12779243727E+03  0.12779243729E+03  0.25500000920E-02 0. -1.
    10030    2    1    2    0    0  0.00000000000E+00  0.00000000000E+00  0.57478110776E+03  0.83036598232E+03  0.59927818479E+03 0.  0.
        1    1    3    3  502    0  0.45000086051E+02  0.29945543751E+02  0.69576221694E+03  0.69785872917E+03  0.50400001928E-02 0.  1.
       -1    1    3    3    0  502 -0.45000086051E+02 -0.29945543751E+02 -0.12098110918E+03  0.13250725315E+03  0.50400001928E-02 0. -1.
</event>
<event>
 5   0  0.5790967E-03  0.6011205E+03  0.7818609E-02  0.9903084E-01
       -1   -1    0    0    0  501  0.00000000000E+00  0.00000000000E+00  0.20516283917E+03  0.20516283924E+03  0.50400001928E-02 0. -1.
        1   -1    0    0  501    0  0.00000000000E+00  0.00000000000E+00 -0.44031588945E+03  0.44031588948E+03  0.50400001928E-02 0.  1.
    10030    2    1    2    0    0  0.00000000000E+00  0.00000000000E+00 -0.23515305028E+03  0.64547872872E+03  0.60112048058E+03 0.  0.
        3    1    3    3  502    0 -0.21771511415E+03  0.16315603738E+03 -0.25473933286E+03  0.37270886945E+03  0.10100000352E+00 0. -1.
       -3    1    3    3    0  502  0.21771511415E+03 -0.16315603738E+03  0.19586282576E+02  0.27276985927E+03  0.10100000352E+00 0.  1.
</event>
<event>
 5   0  0.9822607E-03  0.6002085E+03  0.7818609E-02  0.9904974E-01
       -2   -1    0    0    0  501  0.00000000000E+00  0.00000000000E+00  0.17702809145E+03  0.17702809147E+03  0.25500000920E-02 0.  1.
        2   -1    0    0  501    0  0.00000000000E+00  0.00000000000E+00 -0.50874731098E+03  0.50874731098E+03  0.25500000920E-02 0. -1.
    10030    2    1    2    0    0  0.00000000000E+00  0.00000000000E+00 -0.33171921953E+03  0.68577540245E+03  0.60020851544E+03 0.  0.
        3    1    3    3  502    0  0.97264011966E+02 -0.23977252623E+03 -0.33955684499E+03  0.42690749998E+03  0.10100000352E+00 0. -1.
       -3    1    3    3    0  502 -0.97264011966E+02  0.23977252623E+03  0.78376254648E+01  0.25886790247E+03  0.10100000352E+00 0.  1.
</event>
<event>
 5   0  0.5819446E-03  0.5987720E+03  0.7818609E-02  0.9907957E-01
       -1   -1    0    0    0  501  0.00000000000E+00  0.00000000000E+00  0.14000813523E+03  0.14000813532E+03  0.50400001928E-02 0. -1.
        1   -1    0    0  501    0  0.00000000000E+00  0.00000000000E+00 -0.64019130423E+03  0.64019130425E+03  0.50400001928E-02 0.  1.
    10030    2    1    2    0    0  0.00000000000E+00  0.00000000000E+00 -0.50018316900E+03  0.78019943957E+03  0.59877204591E+03 0.  0.
        5    1    3    3  502    0  0.50765580340E+02  0.16991160435E+03  0.64152262167E+02  0.18863907384E+03  0.46999998093E+01 0. -1.
       -5    1    3    3    0  502 -0.50765580340E+02 -0.16991160435E+03 -0.56433543117E+03  0.59156036573E+03  0.46999998093E+01 0.  1.
</event>
<event>
 5   0  0.9028473E-03  0.5997854E+03  0.7818609E-02  0.9905851E-01
        2   -1    0    0  501    0  0.00000000000E+00  0.00000000000E+00  0.49421877804E+03  0.49421877805E+03  0.25500000920E-02 0.  1.
       -2   -1    0    0    0  501  0.00000000000E+00  0.00000000000E+00 -0.18197534417E+03  0.18197534419E+03  0.25500000920E-02 0. -1.
    10030    2    1    2    0    0  0.00000000000E+00  0.00000000000E+00  0.31224343388E+03  0.67619412224E+03  0.59978540241E+03 0.  0.
        1    1    3    3  502    0 -0.71329147966E+02 -0.72662014833E+02  0.47413463768E+03  0.48494460552E+03  0.50400001928E-02 0.  1.
       -1    1    3    3    0  502  0.71329147966E+02  0.72662014833E+02 -0.16189120381E+03  0.19124951672E+03  0.50400001928E-02 0. -1.
</event>
<event>
 5   0  0.9822607E-03  0.5990784E+03  0.7818609E-02  0.9907320E-01
       -2   -1    0    0    0  501  0.00000000000E+00  0.00000000000E+00  0.13374377710E+03  0.13374377713E+03  0.25500000920E-02 0.  1.
        2   -1    0    0  501    0  0.00000000000E+00  0.00000000000E+00 -0.67086279585E+03  0.67086279585E+03  0.25500000920E-02 0. -1.
    10030    2    1    2    0    0  0.00000000000E+00  0.00000000000E+00 -0.53711901874E+03  0.80460657298E+03  0.59907837299E+03 0.  0.
        3    1    3    3  502    0 -0.11744742797E+03 -0.18094047939E+03 -0.54768104098E+03  0.58863221817E+03  0.10100000352E+00 0. -1.
       -3    1    3    3    0  502  0.11744742797E+03  0.18094047939E+03  0.10562022234E+02  0.21597435481E+03  0.10100000352E+00 0.  1.
</event>
<event>
 5   0  0.5819446E-03  0.6048520E+03  0.7818609E-02  0.9895390E-01
        1   -1    0    0  501    0  0.00000000000E+00  0.00000000000E+00  0.63585908306E+03  0.63585908308E+03  0.50400001928E-02 0.  1.
       -1   -1    0    0    0  501  0.00000000000E+00  0.00000000000E+00 -0.14383925884E+03  0.14383925893E+03  0.50400001928E-02 0. -1.
    10030    2    1    2    0    0  0.00000000000E+00  0.00000000000E+00  0.49201982422E+03  0.77969834201E+03  0.60485204563E+03 0.  0.
        5    1    3    3  502    0 -0.17012217334E+03  0.19871941454E+03  0.44154339472E+03  0.51323836469E+03  0.46999998093E+01 0.  1.
       -5    1    3    3    0  502  0.17012217334E+03 -0.19871941454E+03  0.50476429504E+02  0.26645997731E+03  0.46999998093E+01 0. -1.
</event>
<event>
 5   0  0.5891927E-03  0.6001755E+03  0.7818609E-02  0.9905042E-01
        1   -1    0    0  501    0  0.00000000000E+00  0.00000000000E+00  0.69438339459E+03  0.69438339461E+03  0.50400001928E-02 0. -1.
       -1   -1    0    0    0  501  0.00000000000E+00  0.00000000000E+00 -0.12968724878E+03  0.12968724888E+03  0.50400001928E-02 0.  1.
    10030    2    1    2    0    0  0.00000000000E+00  0.00000000000E+00  0.56469614581E+03  0.82407064349E+03  0.60017554795E+03 0.  0.
        4    1    3    3  502    0 -0.20527749092E+03  0.13754942610E+03  0.48556971460E+02  0.25182947658E+03  0.12699999809E+01 0.  1.
       -4    1    3    3    0  502  0.20527749092E+03 -0.13754942610E+03  0.51613917435E+03  0.57224116690E+03  0.12699999809E+01 0. -1.
</event>
<event>
 5   0  0.6078658E-03  0.6001248E+03  0.7818609E-02  0.9905147E-01
        1   -1    0    0  501    0  0.00000000000E+00  0.00000000000E+00  0.24355476090E+03  0.24355476095E+03  0.50400001928E-02 0.  1.
       -1   -1    0    0    0  501  0.00000000000E+00  0.00000000000E+00 -0.36968047345E+03  0.36968047348E+03  0.50400001928E-02 0. -1.
    10030    2    1    2    0    0  0.00000000000E+00  0.00000000000E+00 -0.12612571255E+03  0.61323523443E+03  0.60012478484E+03 0.  0.
        2    1    3    3  502    0  0.18032403080E+03  0.21094306715E+03  0.53551715885E+02  0.28263318974E+03  0.25500000920E-02 0.  1.
       -2    1    3    3    0  502 -0.18032403080E+03 -0.21094306715E+03 -0.17967742843E+03  0.33060204469E+03  0.25500000920E-02 0. -1.
</event>
<event>
 5   0  0.9303190E-03  0.5972775E+03  0.7818609E-02  0.9911071E-01
        2   -1    0    0  501    0  0.00000000000E+00  0.00000000000E+00  0.53819989078E+03  0.53819989079E+03  0.25500000920E-02 0. -1.
       -2   -1    0    0    0  501  0.00000000000E+00  0.00000000000E+00 -0.16571000079E+03  0.16571000081E+03  0.25500000920E-02 0.  1.
    10030    2    1    2    0    0  0.00000000000E+00  0.00000000000E+00  0.37248988999E+03  0.70390989159E+03  0.59727750446E+03 0.  0.
        4    1    3    3  502    0 -0.15801891597E+03 -0.21794844938E+03  0.33890561113E+02  0.27133316683E+03  0.12699999809E+01 0.  1.
       -4    1    3    3    0  502  0.15801891597E+03  0.21794844938E+03  0.33859932888E+03  0.43257672476E+03  0.12699999809E+01 0. -1.
</event>
<event>
 5   0  0.9028473E-03  0.6007016E+03  0.7818609E-02  0.9903951E-01
        2   -1    0    0  501    0  0.00000000000E+00  0.00000000000E+00  0.79171577046E+03  0.79171577047E+03  0.25500000920E-02 0.  1.
       -2   -1    0    0    0  501  0.00000000000E+00  0.00000000000E+00 -0.11394317772E+03  0.11394317775E+03  0.25500000920E-02 0. -1.
    10030    2    1    2    0    0  0.00000000000E+00  0.00000000000E+00  0.67777259274E+03  0.90565894822E+03  0.60070162561E+03 0.  0.
        1    1    3    3  502    0 -0.23797451459E+03 -0.11116233443E+03  0.11925424365E+03  0.28846231789E+03  0.50400001928E-02 0. -1.
       -1    1    3    3    0  502  0.23797451459E+03  0.11116233443E+03  0.55851834909E+03  0.61719663033E+03  0.50400001928E-02 0.  1.
</event>
<event>
 5   0  0.5765045E-03  0.6007197E+03  0.7818609E-02  0.9903914E-01
        1   -1    0    0  501    0  0.00000000000E+00  0.00000000000E+00  0.31603784400E+03  0.31603784404E+03  0.50400001928E-02 0. -1.
       -1   -1    0    0    0  501  0.00000000000E+00  0.00000000000E+00 -0.28545961502E+03  0.28545961507E+03  0.50400001928E-02 0.  1.
    10030    2    1    2    0    0  0.00000000000E+00  0.00000000000E+00  0.30578228975E+02  0.60149745911E+03  0.60071970604E+03 0.  0.
        1    1    3    3  502    0  0.80190411580E+02 -0.23732026753E+03  0.18122823843E+03  0.30918454994E+03  0.50400001928E-02 0. -1.
       -1    1    3    3    0  502 -0.80190411580E+02  0.23732026753E+03 -0.15065000945E+03  0.29231290917E+03  0.50400001928E-02 0.  1.
</event>
<event>
 5   0  0.9162342E-03  0.6000975E+03  0.7818609E-02  0.9905204E-01
        2   -1    0    0  501    0  0.00000000000E+00  0.00000000000E+00  0.11019709977E+04  0.11019709977E+04  0.25500000920E-02 0.  1.
       -2   -1    0    0    0  501  0.00000000000E+00  0.00000000000E+00 -0.81698394294E+02  0.81698394334E+02  0.25500000920E-02 0. -1.
    10030    2    1    2    0    0  0.00000000000E+00  0.00000000000E+00  0.10202726034E+04  0.11836693920E+04  0.60009752905E+03 0.  0.
        5    1    3    3  502    0 -0.87609377561E+02  0.14493742810E+01  0.10760976328E+04  0.10796692591E+04  0.46999998093E+01 0.  1.
       -5    1    3    3    0  502  0.87609377561E+02 -0.14493742810E+01 -0.55825029469E+02  0.10400013287E+03  0.46999998093E+01 0. -1.
</event>
<event>
 5   0  0.5891927E-03  0.5999038E+03  0.7818609E-02  0.9905606E-01
        1   -1    0    0  501    0  0.00000000000E+00  0.00000000000E+00  0.10495998830E+04  0.10495998830E+04  0.50400001928E-02 0. -1.
       -1   -1    0    0    0  501  0.00000000000E+00  0.00000000000E+00 -0.85719463234E+02  0.85719463382E+02  0.50400001928E-02 0.  1.
    10030    2    1    2    0    0  0.00000000000E+00  0.00000000000E+00  0.96388041976E+03  0.11353193464E+04  0.59990378786E+03 0.  0.
        4    1    3    3  502    0  0.19109582784E+03  0.21595128166E+03  0.63819438327E+03  0.70031868118E+03  0.12699999809E+01 0. -1.
       -4    1    3    3    0  502 -0.19109582784E+03 -0.21595128166E+03  0.32568603648E+03  0.43500066520E+03  0.12699999809E+01 0.  1.
</event>
<event>
 5   0  0.5790967E-03  0.6008822E+03  0.7818609E-02  0.9903578E-01
        1   -1    0    0  501    0  0.00000000000E+00  0.00000000000E+00  0.10174386619E+04  0.10174386619E+04  0.50400001928E-02 0. -1.
       -1   -1    0    0    0  501  0.00000000000E+00  0.00000000000E+00 -0.88717726381E+02  0.88717726524E+02  0.50400001928E-02 0.  1.
    10030    2    1    2    0    0  0.00000000000E+00  0.00000000000E+00  0.92872093554E+03  0.11061563885E+04  0.60088216783E+03 0.  0.
        3    1    3    3  502    0  0.12241445296E+03 -0.12928800589E+03  0.90985577193E+03  0.92711284247E+03  0.10100000352E+00 0. -1.
       -3    1    3    3    0  502 -0.12241445296E+03  0.12928800589E+03  0.18865163610E+02  0.17904354599E+03  0.10100000352E+00 0.  1.
</event>
<event>
 5   0  0.3806250E-03  0.5995312E+03  0.7818609E-02  0.9906379E-01
        3   -1    0    0  501    0  0.00000000000E+00  0.00000000000E+00  0.10328124668E+03  0.10328129607E+03  0.10100000352E+00 0. -1.
       -3   -1    0    0    0  501  0.00000000000E+00  0.00000000000E+00 -0.87004564658E+03  0.87004565245E+03  0.10100000352E+00 0.  1.
    10030    2    1    2    0    0  0.00000000000E+00  0.00000000000E+00 -0.76676439990E+03  0.97332694851E+03  0.59953123667E+03 0.  0.
        2    1    3    3  502    0 -0.15769401933E+03  0.16351727658E+03 -0.65851256200E+02  0.23651995988E+03  0.25500000920E-02 0. -1.
       -2    1    3    3    0  502  0.15769401933E+03 -0.16351727658E+03 -0.70091314370E+03  0.73680698863E+03  0.25500000920E-02 0.  1.
</event>
<event>
 5   0  0.6078658E-03  0.6000244E+03  0.7818609E-02  0.9905355E-01
        1   -1    0    0  501    0  0.00000000000E+00  0.00000000000E+00  0.21845005698E+03  0.21845005704E+03  0.50400001928E-02 0. -1.
       -1   -1    0    0    0  501  0.00000000000E+00  0.00000000000E+00 -0.41202702246E+03  0.41202702249E+03  0.50400001928E-02 0.  1.
    10030    2    1    2    0    0  0.00000000000E+00  0.00000000000E+00 -0.19357696548E+03  0.63047707953E+03  0.60002442138E+03 0.  0.
        2    1    3    3  502    0  0.93569629531E+02  0.28388599098E+03 -0.69777910359E+02  0.30694541571E+03  0.25500000920E-02 0.  1.
       -2    1    3    3    0  502 -0.93569629531E+02 -0.28388599098E+03 -0.12379905512E+03  0.32353166383E+03  0.25500000920E-02 0. -1.
</event>
<event>
 5   0  0.3806250E-03  0.6011618E+03  0.7818609E-02  0.9902999E-01
        3   -1    0    0  501    0  0.00000000000E+00  0.00000000000E+00  0.10679909805E+03  0.10679914581E+03  0.10100000352E+00 0. -1.
       -3   -1    0    0    0  501  0.00000000000E+00  0.00000000000E+00 -0.84597010721E+03  0.84597011324E+03  0.10100000352E+00 0.  1.
    10030    2    1    2    0    0  0.00000000000E+00  0.00000000000E+00 -0.73917100916E+03  0.95276925905E+03  0.60116177540E+03 0.  0.
        4    1    3    3  502    0 -0.21216541621E+02 -0.13199583909E+03 -0.79625160133E+03  0.80739783793E+03  0.12699999809E+01 0.  1.
       -4    1    3    3    0  502  0.21216541621E+02  0.13199583909E+03  0.57080592170E+02  0.14537142111E+03  0.12699999809E+01 0. -1.
</event>
<event>
 5   0  0.9303190E-03  0.6004451E+03  0.7818609E-02  0.9904483E-01
        2   -1    0    0  501    0  0.00000000000E+00  0.00000000000E+00  0.69199631121E+03  0.69199631122E+03  0.25500000920E-02 0.  1.
       -2   -1    0    0    0  501  0.00000000000E+00  0.00000000000E+00 -0.13025154460E+03  0.13025154462E+03  0.25500000920E-02 0. -1.
    10030    2    1    2    0    0  0.00000000000E+00  0.00000000000E+00  0.56174476662E+03  0.82224785584E+03  0.60044512956E+03 0.  0.
        4    1    3    3  502    0 -0.32688872073E+02  0.10862527959E+03  0.66151543788E+03  0.67117233344E+03  0.12699999809E+01 0.  1.
       -4    1    3    3    0  502  0.32688872073E+02 -0.10862527959E+03 -0.99770671264E+02  0.15107552240E+03  0.12699999809E+01 0. -1.
</event>
<event>
 5   0  0.5765045E-03  0.6000754E+03  0.7818609E-02  0.9905250E-01
        1   -1    0    0  501    0  0.00000000000E+00  0.00000000000E+00  0.17631672468E+03  0.17631672476E+03  0.50400001928E-02 0.  1.
       -1   -1    0    0    0  501  0.00000000000E+00  0.00000000000E+00 -0.51057341041E+03  0.51057341044E+03  0.50400001928E-02 0. -1.
    10030    2    1    2    0    0  0.00000000000E+00  0.00000000000E+00 -0.33425668573E+03  0.68689013520E+03  0.60007543349E+03 0.  0.
        1    1    3    3  502    0  0.55229692180E+02  0.92328753736E+02  0.15347760672E+03  0.18743076976E+03  0.50400001928E-02 0.  1.
       -1    1    3    3    0  502 -0.55229692180E+02 -0.92328753736E+02 -0.48773429245E+03  0.49945936543E+03  0.50400001928E-02 0. -1.
</event>
<event>
 5   0  0.5790967E-03  0.5981426E+03  0.7818609E-02  0.9909267E-01
       -1   -1    0    0    0  501  0.00000000000E+00  0.00000000000E+00  0.12605041712E+03  0.12605041722E+03  0.50400001928E-02 0. -1.
        1   -1    0    0  501    0  0.00000000000E+00  0.00000000000E+00 -0.70958618370E+03  0.70958618372E+03  0.50400001928E-02 0.  1.
    10030    2    1    2    0    0  0.00000000000E+00  0.00000000000E+00 -0.58353576658E+03  0.83563660094E+03  0.59814257326E+03 0.  0.
        3    1    3    3  502    0 -0.23556136532E+03  0.78804495404E+02 -0.59066066825E+02  0.25531963454E+03  0.10100000352E+00 0. -1.
       -3    1    3    3    0  502  0.23556136532E+03 -0.78804495404E+02 -0.52446969976E+03  0.58031696640E+03  0.10100000352E+00 0.  1.
</event>
<event>
 5   0  0.9391405E-03  0.5986510E+03  0.7818609E-02  0.9908209E-01
       -2   -1    0    0    0  501  0.00000000000E+00  0.00000000000E+00  0.88318676320E+02  0.88318676357E+02  0.25500000920E-02 0.  1.
        2   -1    0    0  501    0  0.00000000000E+00  0.00000000000E+00 -0.10144599340E+04  0.10144599340E+04  0.25500000920E-02 0. -1.
    10030    2    1    2    0    0  0.00000000000E+00  0.00000000000E+00 -0.92614125770E+03  0.11027786104E+04  0.59865101211E+03 0.  0.
        2    1    3    3  502    0 -0.76949290261E+02  0.23952473371E+03 -0.76182402914E+03  0.80228993681E+03  0.25500000920E-02 0. -1.
       -2    1    3    3    0  502  0.76949290261E+02 -0.23952473371E+03 -0.16431722855E+03  0.30048867356E+03  0.25500000920E-02 0.  1.
</event>
<event>
 5   0  0.9303190E-03  0.5998884E+03  0.7818609E-02  0.9905638E-01
        2   -1    0    0  501    0  0.00000000000E+00  0.00000000000E+00  0.58458320005E+03  0.58458320005E+03  0.25500000920E-02 0.  1.
       -2   -1    0    0    0  501  0.00000000000E+00  0.00000000000E+00 -0.15389856841E+03  0.15389856843E+03  0.25500000920E-02 0. -1.
    10030    2    1    2    0    0  0.00000000000E+00  0.00000000000E+00  0.43068463164E+03  0.73848176848E+03  0.59988838166E+03 0.  0.
        4    1    3    3  502    0 -0.11459913932E+03 -0.97452848539E+02  0.53478238133E+03  0.55553922337E+03  0.12699999809E+01 0.  1.
       -4    1    3    3    0  502  0.11459913932E+03  0.97452848539E+02 -0.10409774969E+03  0.18294254511E+03  0.12699999809E+01 0. -1.
</event>
<event>
 5   0  0.5819446E-03  0.6009074E+03  0.7818609E-02  0.9903525E-01
       -1   -1    0    0    0  501  0.00000000000E+00  0.00000000000E+00  0.35778328763E+02  0.35778329118E+02  0.50400001928E-02 0.  1.
        1   -1    0    0  501    0  0.00000000000E+00  0.00000000000E+00 -0.25231036589E+04  0.25231036589E+04  0.50400001928E-02 0. -1.
    10030    2    1    2    0    0  0.00000000000E+00  0.00000000000E+00 -0.24873253301E+04  0.25588819880E+04  0.60090742272E+03 0.  0.
        5    1    3    3  502    0 -0.12894368494E+03 -0.92327405305E+02 -0.15715804210E+03  0.22331942113E+03  0.46999998093E+01 0.  1.
       -5    1    3    3    0  502  0.12894368494E+03  0.92327405305E+02 -0.23301672880E+04  0.23355625669E+04  0.46999998093E+01 0. -1.
</event>
<event>
 5   0  0.9303190E-03  0.5817805E+03  0.7818609E-02  0.9943944E-01
        2   -1    0    0  501    0  0.00000000000E+00  0.00000000000E+00  0.18890096998E+03  0.18890097000E+03  0.25500000920E-02 0.  1.
       -2   -1    0    0    0  501  0.00000000000E+00  0.00000000000E+00 -0.44794438375E+03  0.44794438376E+03  0.25500000920E-02 0. -1.
    10030    2    1    2    0    0  0.00000000000E+00  0.00000000000E+00 -0.25904341377E+03  0.63684535376E+03  0.58178046924E+03 0.  0.
        4    1    3    3  502    0 -0.13489292720E+03 -0.23334244416E+03 -0.97553220280E+01  0.26970646500E+03  0.12699999809E+01 0.  1.
       -4    1    3    3    0  502  0.13489292720E+03  0.23334244416E+03 -0.24928809174E+03  0.36713888876E+03  0.12699999809E+01 0. -1.
</event>
<event>
 5   0  0.6078658E-03  0.6001255E+03  0.7818609E-02  0.9905146E-01
        1   -1    0    0  501    0  0.00000000000E+00  0.00000000000E+00  0.13217987822E+03  0.13217987832E+03  0.50400001928E-02 0. -1.
       -1   -1    0    0    0  501  0.00000000000E+00  0.00000000000E+00 -0.68117507892E+03  0.68117507894E+03  0.50400001928E-02 0.  1.
    10030    2    1    2    0    0  0.00000000000E+00  0.00000000000E+00 -0.54899520070E+03  0.81335495726E+03  0.60012545031E+03 0.  0.
        2    1    3    3  502    0 -0.12172444186E+03  0.10317565255E+03 -0.61890481805E+03  0.63914413776E+03  0.25500000920E-02 0.  1.
       -2    1    3    3    0  502  0.12172444186E+03 -0.10317565255E+03  0.69909617350E+02  0.17421081950E+03  0.25500000920E-02 0. -1.
</event>
<event>
 5   0  0.9162342E-03  0.5977938E+03  0.7818609E-02  0.9909994E-01
        2   -1    0    0  501    0  0.00000000000E+00  0.00000000000E+00  0.10698208181E+04  0.10698208181E+04  0.25500000920E-02 0. -1.
       -2   -1    0    0    0  501  0.00000000000E+00  0.00000000000E+00 -0.83508714884E+02  0.83508714923E+02  0.25500000920E-02 0.  1.
    10030    2    1    2    0    0  0.00000000000E+00  0.00000000000E+00  0.98631210323E+03  0.11533295330E+04  0.59779381630E+03 0.  0.
        5    1    3    3  502    0  0.68138174590E+02  0.29098809328E+03  0.49436157867E+03  0.57769571725E+03  0.46999998093E+01 0. -1.
       -5    1    3    3    0  502 -0.68138174590E+02 -0.29098809328E+03  0.49195052456E+03  0.57563381579E+03  0.46999998093E+01 0.  1.
</event>
<event>
 5   0  0.6078658E-03  0.6001824E+03  0.7818609E-02  0.9905028E-01
        1   -1    0    0  501    0  0.00000000000E+00  0.00000000000E+00  0.11017792797E+04  0.11017792797E+04  0.50400001928E-02 0. -1.
       -1   -1    0    0    0  501  0.00000000000E+00  0.00000000000E+00 -0.81735732054E+02  0.81735732209E+02  0.50400001928E-02 0.  1.
    10030    2    1    2    0    0  0.00000000000E+00  0.00000000000E+00  0.10200435476E+04  0.11835150119E+04  0.60018242588E+03 0.  0.
        2    1    3    3  502    0 -0.27326919947E+03 -0.96285685960E+02  0.66413184797E+03  0.72458132752E+03  0.25500000920E-02 0.  1.
       -2    1    3    3    0  502  0.27326919947E+03  0.96285685960E+02  0.35591169965E+03  0.45893368437E+03  0.25500000920E-02 0. -1.
</event>
<event>
 5   0  0.9028473E-03  0.6006699E+03  0.7818609E-02  0.9904017E-01
       -2   -1    0    0    0  501  0.00000000000E+00  0.00000000000E+00  0.10012819488E+03  0.10012819492E+03  0.25500000920E-02 0. -1.
        2   -1    0    0  501    0  0.00000000000E+00  0.00000000000E+00 -0.90085600013E+03  0.90085600014E+03  0.25500000920E-02 0.  1.
    10030    2    1    2    0    0  0.00000000000E+00  0.00000000000E+00 -0.80072780525E+03  0.10009841951E+04  0.60066990989E+03 0.  0.
        1    1    3    3  502    0 -0.13338469499E+03 -0.22203630209E+03 -0.14703396682E+03  0.29784322005E+03  0.50400001928E-02 0. -1.
       -1    1    3    3    0  502  0.13338469499E+03  0.22203630209E+03 -0.65369383843E+03  0.70314097501E+03  0.50400001928E-02 0.  1.
</event>
<event>
 5   0  0.9162342E-03  0.6000612E+03  0.7818609E-02  0.9905279E-01
       -2   -1    0    0    0  501  0.00000000000E+00  0.00000000000E+00  0.13287024025E+03  0.13287024027E+03  0.25500000920E-02 0. -1.
        2   -1    0    0  501    0  0.00000000000E+00  0.00000000000E+00 -0.67749076682E+03  0.67749076682E+03  0.25500000920E-02 0.  1.
    10030    2    1    2    0    0  0.00000000000E+00  0.00000000000E+00 -0.54462052657E+03  0.81036100710E+03  0.60006120010E+03 0.  0.
        5    1    3    3  502    0 -0.10959549579E+03  0.19396150269E+03 -0.54362930192E+03  0.58752629314E+03  0.46999998093E+01 0.  1.
       -5    1    3    3    0  502  0.10959549579E+03 -0.19396150269E+03 -0.99122465046E+00  0.22283471396E+03  0.46999998093E+01 0. -1.
</event>
<event>
 5   0  0.9391405E-03  0.5994955E+03  0.7818609E-02  0.9906453E-01
        2   -1    0    0  501    0  0.00000000000E+00  0.00000000000E+00  0.14362174623E+04  0.14362174623E+04  0.25500000920E-02 0.  1.
       -2   -1    0    0    0  501  0.00000000000E+00  0.00000000000E+00 -0.62559266205E+02  0.62559266257E+02  0.25500000920E-02 0. -1.
    10030    2    1    2    0    0  0.00000000000E+00  0.00000000000E+00  0.13736581960E+04  0.14987767285E+04  0.59949548986E+03 0.  0.
        2    1    3    3  502    0 -0.11788049617E+03 -0.10482181202E+03  0.13240524775E+04  0.13334160591E+04  0.25500000920E-02 0.  1.
       -2    1    3    3    0  502  0.11788049617E+03  0.10482181202E+03  0.49605718567E+02  0.16536066937E+03  0.25500000920E-02 0. -1.
</event>
<event>
 5   0  0.5819446E-03  0.5980680E+03  0.7818609E-02  0.9909422E-01
       -1   -1    0    0    0  501  0.00000000000E+00  0.00000000000E+00  0.96432131256E+02  0.96432131387E+02  0.50400001928E-02 0.  1.
        1   -1    0    0  501    0  0.00000000000E+00  0.00000000000E+00 -0.92729813274E+03  0.92729813275E+03  0.50400001928E-02 0. -1.
    10030    2    1    2    0    0  0.00000000000E+00  0.00000000000E+00 -0.83086600148E+03  0.10237302641E+04  0.59806800725E+03 0.  0.
        5    1    3    3  502    0 -0.21326373033E+03 -0.13697186549E+03 -0.14393891088E+03  0.29151879986E+03  0.46999998093E+01 0.  1.
       -5    1    3    3    0  502  0.21326373033E+03  0.13697186549E+03 -0.68692709060E+03  0.73221146427E+03  0.46999998093E+01 0. -1.
</event>
<event>
 5   0  0.9303190E-03  0.6010808E+03  0.7818609E-02  0.9903166E-01
        2   -1    0    0  501    0  0.00000000000E+00  0.00000000000E+00  0.56254611403E+03  0.56254611403E+03  0.25500000920E-02 0.  1.
       -2   -1    0    0    0  501  0.00000000000E+00  0.00000000000E+00 -0.16056375907E+03  0.16056375909E+03  0.25500000920E-02 0. -1.
    10030    2    1    2    0    0  0.00000000000E+00  0.00000000000E+00  0.40198235496E+03  0.72310987312E+03  0.60108075573E+03 0.  0.
        4    1    3    3  502    0  0.99862702073E+02 -0.72075726582E+02  0.53079194911E+03  0.54489372887E+03  0.12699999809E+01 0.  1.
       -4    1    3    3    0  502 -0.99862702073E+02  0.72075726582E+02 -0.12880959415E+03  0.17821614425E+03  0.12699999809E+01 0. -1.
</event>
<event>
 5   0  0.9162342E-03  0.6001824E+03  0.7818609E-02  0.9905028E-01
        2   -1    0    0  501    0  0.00000000000E+00  0.00000000000E+00  0.61840609432E+03  0.61840609433E+03  0.25500000920E-02 0. -1.
       -2   -1    0    0    0  501  0.00000000000E+00  0.00000000000E+00 -0.14562394410E+03  0.14562394412E+03  0.25500000920E-02 0.  1.
    10030    2    1    2    0    0  0.00000000000E+00  0.00000000000E+00  0.47278215022E+03  0.76403003845E+03  0.60018242068E+03 0.  0.
        5    1    3    3  502    0  0.16088634816E+02 -0.24156581919E+03  0.10744595516E+02  0.24238487062E+03  0.46999998093E+01 0.  1.
       -5    1    3    3    0  502 -0.16088634816E+02  0.24156581919E+03  0.46203755470E+03  0.52164516784E+03  0.46999998093E+01 0. -1.
</event>
<event>
 5   0  0.5891927E-03  0.6004819E+03  0.7818609E-02  0.9904407E-01
       -1   -1    0    0    0  501  0.00000000000E+00  0.00000000000E+00  0.16342151890E+03  0.16342151898E+03  0.50400001928E-02 0.  1.
        1   -1    0    0  501    0  0.00000000000E+00  0.00000000000E+00 -0.55160805768E+03  0.55160805771E+03  0.50400001928E-02 0. -1.
    10030    2    1    2    0    0  0.00000000000E+00  0.00000000000E+00 -0.38818653878E+03  0.71502957669E+03  0.60048189535E+03 0.  0.
        4    1    3    3  502    0 -0.76155295372E+02 -0.24870218340E+03 -0.37266992843E+03  0.45446330270E+03  0.12699999809E+01 0. -1.
       -4    1    3    3    0  502  0.76155295372E+02  0.24870218340E+03 -0.15516610351E+02  0.26056627399E+03  0.12699999809E+01 0.  1.
</event>
<event>
 5   0  0.3806250E-03  0.5993652E+03  0.7818609E-02  0.9906724E-01
        4   -1    0    0  501    0  0.00000000000E+00  0.00000000000E+00  0.13610430386E+03  0.13611022896E+03  0.12699999809E+01 0. -1.
       -4   -1    0    0    0  501  0.00000000000E+00  0.00000000000E+00 -0.65983821679E+03  0.65983943899E+03  0.12699999809E+01 0.  1.
    10030    2    1    2    0    0  0.00000000000E+00  0.00000000000E+00 -0.52373391293E+03  0.79594966795E+03  0.59936521617E+03 0.  0.
        2    1    3    3  502    0 -0.21266189409E+03  0.19351087446E+03 -0.37406522916E+03  0.47180116088E+03  0.25500000920E-02 0.  1.
       -2    1    3    3    0  502  0.21266189409E+03 -0.19351087446E+03 -0.14966868377E+03  0.32414850708E+03  0.25500000920E-02 0. -1.
</event>
<event>
 5   0  0.9162342E-03  0.5998172E+03  0.7818609E-02  0.9905785E-01
        2   -1    0    0  501    0  0.00000000000E+00  0.00000000000E+00  0.14869493854E+04  0.14869493854E+04  0.25500000920E-02 0.  1.
       -2   -1    0    0    0  501  0.00000000000E+00  0.00000000000E+00 -0.60489735364E+02  0.60489735417E+02  0.25500000920E-02 0. -1.
    10030    2    1    2    0    0  0.00000000000E+00  0.00000000000E+00  0.14264596500E+04  0.15474391208E+04  0.59981722171E+03 0.  0.
        5    1    3    3  502    0  0.20172988139E+03 -0.11542454464E+03  0.12020780106E+04  0.12243493799E+04  0.46999998093E+01 0.  1.
       -5    1    3    3    0  502 -0.20172988139E+03  0.11542454464E+03  0.22438163941E+03  0.32308974087E+03  0.46999998093E+01 0. -1.
</event>
<event>
 5   0  0.5790967E-03  0.5999504E+03  0.7818609E-02  0.9905509E-01
       -1   -1    0    0    0  501  0.00000000000E+00  0.00000000000E+00  0.85084429904E+02  0.85084430053E+02  0.50400001928E-02 0. -1.
        1   -1    0    0  501    0  0.00000000000E+00  0.00000000000E+00 -0.10575981181E+04  0.10575981181E+04  0.50400001928E-02 0.  1.
    10030    2    1    2    0    0  0.00000000000E+00  0.00000000000E+00 -0.97251368819E+03  0.11426825482E+04  0.59995044141E+03 0.  0.
        3    1    3    3  502    0 -0.26603681266E+03 -0.10372156615E+03 -0.66135189641E+03  0.72036108311E+03  0.10100000352E+00 0. -1.
       -3    1    3    3    0  502  0.26603681266E+03  0.10372156615E+03 -0.31116179177E+03  0.42232146504E+03  0.10100000352E+00 0.  1.
</event>
<event>
 5   0  0.9028473E-03  0.6017760E+03  0.7818609E-02  0.9901728E-01
        2   -1    0    0  501    0  0.00000000000E+00  0.00000000000E+00  0.25254677319E+03  0.25254677320E+03  0.25500000920E-02 0.  1.
       -2   -1    0    0    0  501  0.00000000000E+00  0.00000000000E+00 -0.35848249501E+03  0.35848249502E+03  0.25500000920E-02 0. -1.
    10030    2    1    2    0    0  0.00000000000E+00  0.00000000000E+00 -0.10593572182E+03  0.61102926822E+03  0.60177602932E+03 0.  0.
        1    1    3    3  502    0 -0.21717960661E+03 -0.40618411949E+01  0.15844055267E+03  0.26886221162E+03  0.50400001928E-02 0.  1.
       -1    1    3    3    0  502  0.21717960661E+03  0.40618411949E+01 -0.26437627450E+03  0.34216705660E+03  0.50400001928E-02 0. -1.
</event>
<event>
 5   0  0.5765045E-03  0.6012794E+03  0.7818609E-02  0.9902755E-01
        1   -1    0    0  501    0  0.00000000000E+00  0.00000000000E+00  0.18221018404E+03  0.18221018411E+03  0.50400001928E-02 0. -1.
       -1   -1    0    0    0  501  0.00000000000E+00  0.00000000000E+00 -0.49604386134E+03  0.49604386136E+03  0.50400001928E-02 0.  1.
    10030    2    1    2    0    0  0.00000000000E+00  0.00000000000E+00 -0.31383367730E+03  0.67825404547E+03  0.60127944684E+03 0.  0.
        1    1    3    3  502    0 -0.28683035166E+02 -0.26583255880E+03 -0.31197142827E+03  0.41087204567E+03  0.50400001928E-02 0.  1.
       -1    1    3    3    0  502  0.28683035166E+02  0.26583255880E+03 -0.18622490244E+01  0.26738199981E+03  0.50400001928E-02 0. -1.
</event>
<event>
 5   0  0.9028473E-03  0.5987712E+03  0.7818609E-02  0.9907959E-01
       -2   -1    0    0    0  501  0.00000000000E+00  0.00000000000E+00  0.16663866998E+03  0.16663867000E+03  0.25500000920E-02 0. -1.
        2   -1    0    0  501    0  0.00000000000E+00  0.00000000000E+00 -0.53788080542E+03  0.53788080542E+03  0.25500000920E-02 0.  1.
    10030    2    1    2    0    0  0.00000000000E+00  0.00000000000E+00 -0.37124213544E+03  0.70451947543E+03  0.59877121518E+03 0.  0.
        1    1    3    3  502    0 -0.23684638170E+03  0.17044342644E+03 -0.10682717025E+03  0.31073978578E+03  0.50400001928E-02 0.  1.
       -1    1    3    3    0  502  0.23684638170E+03 -0.17044342644E+03 -0.26441496518E+03  0.39377968964E+03  0.50400001928E-02 0. -1.
</event>
<event>
 5   0  0.9028473E-03  0.6004152E+03  0.7818609E-02  0.9904545E-01
       -2   -1    0    0    0  501  0.00000000000E+00  0.00000000000E+00  0.76184752634E+02  0.76184752677E+02  0.25500000920E-02 0. -1.
        2   -1    0    0  501    0  0.00000000000E+00  0.00000000000E+00 -0.11829743639E+04  0.11829743639E+04  0.25500000920E-02 0.  1.
    10030    2    1    2    0    0  0.00000000000E+00  0.00000000000E+00 -0.11067896113E+04  0.12591591166E+04  0.60041522071E+03 0.  0.
        1    1    3    3  502    0  0.12940260995E+03 -0.43637028511E+02 -0.11140646114E+04  0.11224033073E+04  0.50400001928E-02 0.  1.
       -1    1    3    3    0  502 -0.12940260995E+03  0.43637028511E+02  0.72750001861E+01  0.13675580928E+03  0.50400001928E-02 0. -1.
</event>
<event>
 5   0  0.9162342E-03  0.6000932E+03  0.7818609E-02  0.9905213E-01
        2   -1    0    0  501    0  0.00000000000E+00  0.00000000000E+00  0.12274357362E+04  0.12274357362E+04  0.25500000920E-02 0. -1.
       -2   -1    0    0    0  501  0.00000000000E+00  0.00000000000E+00 -0.73346379162E+02  0.73346379206E+02  0.25500000920E-02 0.  1.
    10030    2    1    2    0    0  0.00000000000E+00  0.00000000000E+00  0.11540893570E+04  0.13007821154E+04  0.60009321587E+03 0.  0.
        5    1    3    3  502    0  0.19928109827E+02 -0.29498365308E+03  0.46665717651E+03  0.55245225634E+03  0.46999998093E+01 0.  1.
       -5    1    3    3    0  502 -0.19928109827E+02  0.29498365308E+03  0.68743218050E+03  0.74832985905E+03  0.46999998093E+01 0. -1.
</event>
<event>
 5   0  0.9822607E-03  0.6001302E+03  0.7818609E-02  0.9905136E-01
        2   -1    0    0  501    0  0.00000000000E+00  0.00000000000E+00  0.28435945554E+03  0.28435945555E+03  0.25500000920E-02 0.  1.
       -2   -1    0    0    0  501  0.00000000000E+00  0.00000000000E+00 -0.31663819210E+03  0.31663819211E+03  0.25500000920E-02 0. -1.
    10030    2    1    2    0    0  0.00000000000E+00  0.00000000000E+00 -0.32278736559E+02  0.60099764766E+03  0.60013019892E+03 0.  0.
        3    1    3    3  502    0 -0.24526823156E+02  0.25960559983E+03 -0.16482087013E+03  0.30848429773E+03  0.10100000352E+00 0. -1.
       -3    1    3    3    0  502  0.24526823156E+02 -0.25960559983E+03  0.13254213357E+03  0.29251334993E+03  0.10100000352E+00 0.  1.
</event>
<event>
 5   0  0.6078658E-03  0.6019242E+03  0.7818609E-02  0.9901422E-01
        1   -1    0    0  501    0  0.00000000000E+00  0.00000000000E+00  0.76814608090E+03  0.76814608092E+03  0.50400001928E-02 0.  1.
       -1   -1    0    0    0  501  0.00000000000E+00  0.00000000000E+00 -0.11791791303E+03  0.11791791314E+03  0.50400001928E-02 0. -1.
    10030    2    1    2    0    0  0.00000000000E+00  0.00000000000E+00  0.65022816787E+03  0.88606399406E+03  0.60192419064E+03 0.  0.
        2    1    3    3  502    0 -0.85592309715E+01  0.16183216075E+03  0.69843330762E+03  0.71698814069E+03  0.25500000920E-02 0.  1.
       -2    1    3    3    0  502  0.85592309715E+01 -0.16183216075E+03 -0.48205139754E+02  0.16907585337E+03  0.25500000920E-02 0. -1.
</event>
<event>
 5   0  0.5790967E-03  0.6056193E+03  0.7818609E-02  0.9893816E-01
        1   -1    0    0  501    0  0.00000000000E+00  0.00000000000E+00  0.13275204146E+03  0.13275204155E+03  0.50400001928E-02 0. -1.
       -1   -1    0    0    0  501  0.00000000000E+00  0.00000000000E+00 -0.69071394424E+03  0.69071394426E+03  0.50400001928E-02 0.  1.
    10030    2    1    2    0    0  0.00000000000E+00  0.00000000000E+00 -0.55796190278E+03  0.82346598581E+03  0.60561930685E+03 0.  0.
        3    1    3    3  502    0  0.18327052849E+03  0.70341021623E+02 -0.59247490344E+03  0.62414939505E+03  0.10100000352E+00 0.  1.
       -3    1    3    3    0  502 -0.18327052849E+03 -0.70341021623E+02  0.34513000661E+02  0.19931659076E+03  0.10100000352E+00 0. -1.
</event>
<event>
 5   0  0.5819446E-03  0.6003247E+03  0.7818609E-02  0.9904733E-01
       -1   -1    0    0    0  501  0.00000000000E+00  0.00000000000E+00  0.30807804059E+03  0.30807804063E+03  0.50400001928E-02 0. -1.
        1   -1    0    0  501    0  0.00000000000E+00  0.00000000000E+00 -0.29245000754E+03  0.29245000759E+03  0.50400001928E-02 0.  1.
    10030    2    1    2    0    0  0.00000000000E+00  0.00000000000E+00  0.15628033044E+02  0.60052804822E+03  0.60032466323E+03 0.  0.
        5    1    3    3  502    0  0.26931581269E+03  0.11203211286E+02 -0.12421106107E+03  0.29682822743E+03  0.46999998093E+01 0.  1.
       -5    1    3    3    0  502 -0.26931581269E+03 -0.11203211286E+02  0.13983909412E+03  0.30369982079E+03  0.46999998093E+01 0. -1.
</event>
<event>
 5   0  0.3806250E-03  0.6001543E+03  0.7818609E-02  0.9905086E-01
        3   -1    0    0  501    0  0.00000000000E+00  0.00000000000E+00  0.10801544232E+03  0.10801548954E+03  0.10100000352E+00 0. -1.
       -3   -1    0    0    0  501  0.00000000000E+00  0.00000000000E+00 -0.83364252198E+03  0.83364252810E+03  0.10100000352E+00 0.  1.
    10030    2    1    2    0    0  0.00000000000E+00  0.00000000000E+00 -0.72562707966E+03  0.94165801765E+03  0.60015428304E+03 0.  0.
        1    1    3    3  502    0  0.26087891332E+03  0.68592907360E+02 -0.15653877460E+03  0.31187687047E+03  0.50400001928E-02 0. -1.
       -1    1    3    3    0  502 -0.26087891332E+03 -0.68592907360E+02 -0.56908830507E+03  0.62978114718E+03  0.50400001928E-02 0.  1.
</event>
<event>
 5   0  0.6078658E-03  0.6000355E+03  0.7818609E-02  0.9905332E-01
       -1   -1    0    0    0  501  0.00000000000E+00  0.00000000000E+00  0.90737954707E+03  0.90737954709E+03  0.50400001928E-02 0.  1.
        1   -1    0    0  501    0  0.00000000000E+00  0.00000000000E+00 -0.99198444508E+02  0.99198444636E+02  0.50400001928E-02 0. -1.
    10030    2    1    2    0    0  0.00000000000E+00  0.00000000000E+00  0.80818110257E+03  0.10065779917E+04  0.60003546469E+03 0.  0.
        2    1    3    3  502    0  0.25375252146E+03  0.14665238358E+03  0.51168000773E+03  0.58967253122E+03  0.25500000920E-02 0.  1.
       -2    1    3    3    0  502 -0.25375252146E+03 -0.14665238358E+03  0.29650109483E+03  0.41690546051E+03  0.25500000920E-02 0. -1.
</event>
<event>
 5   0  0.5765045E-03  0.5966745E+03  0.7818609E-02  0.9912329E-01
        1   -1    0    0  501    0  0.00000000000E+00  0.00000000000E+00  0.87882712002E+02  0.87882712147E+02  0.50400001928E-02 0.  1.
       -1   -1    0    0    0  501  0.00000000000E+00  0.00000000000E+00 -0.10127716738E+04  0.10127716738E+04  0.50400001928E-02 0. -1.
    10030    2    1    2    0    0  0.00000000000E+00  0.00000000000E+00 -0.92488896183E+03  0.11006543860E+04  0.59667452240E+03 0.  0.
        1    1    3    3  502    0 -0.29027586189E+03  0.61845764572E+02 -0.51839988484E+03  0.59734698059E+03  0.50400001928E-02 0.  1.
       -1    1    3    3    0  502  0.29027586189E+03 -0.61845764572E+02 -0.40648907698E+03  0.50330740539E+03  0.50400001928E-02 0. -1.
</event>
<event>
 5   0  0.9303190E-03  0.6121802E+03  0.7818609E-02  0.9880453E-01
       -2   -1    0    0    0  501  0.00000000000E+00  0.00000000000E+00  0.19223615611E+03  0.19223615613E+03  0.25500000920E-02 0.  1.
        2   -1    0    0  501    0  0.00000000000E+00  0.00000000000E+00 -0.48737535156E+03  0.48737535157E+03  0.25500000920E-02 0. -1.
    10030    2    1    2    0    0  0.00000000000E+00  0.00000000000E+00 -0.29513919545E+03  0.67961150770E+03  0.61218024854E+03 0.  0.
        4    1    3    3  502    0 -0.24253615217E+03 -0.18418038693E+03 -0.18166675100E+03  0.35461334064E+03  0.12699999809E+01 0. -1.
       -4    1    3    3    0  502  0.24253615217E+03  0.18418038693E+03 -0.11347244445E+03  0.32499816706E+03  0.12699999809E+01 0.  1.
</event>
<event>
 5   0  0.5790967E-03  0.5990028E+03  0.7818609E-02  0.9907477E-01
        1   -1    0    0  501    0  0.00000000000E+00  0.00000000000E+00  0.72964133078E+03  0.72964133079E+03  0.50400001928E-02 0.  1.
       -1   -1    0    0    0  501  0.00000000000E+00  0.00000000000E+00 -0.12293861068E+03  0.12293861078E+03  0.50400001928E-02 0. -1.
    10030    2    1    2    0    0  0.00000000000E+00  0.00000000000E+00  0.60670272010E+03  0.85257994157E+03  0.59900280984E+03 0.  0.
        3    1    3    3  502    0  0.22440923081E+03 -0.52346234698E+02  0.31046496771E+02  0.23251564748E+03  0.10100000352E+00 0. -1.
       -3    1    3    3    0  502 -0.22440923081E+03  0.52346234698E+02  0.57565622333E+03  0.62006429410E+03  0.10100000352E+00 0.  1.
</event>
<event>
 5   0  0.9391405E-03  0.6012096E+03  0.7818609E-02  0.9902900E-01
        2   -1    0    0  501    0  0.00000000000E+00  0.00000000000E+00  0.39019510450E+03  0.39019510451E+03  0.25500000920E-02 0.  1.
       -2   -1    0    0    0  501  0.00000000000E+00  0.00000000000E+00 -0.23158479186E+03  0.23158479187E+03  0.25500000920E-02 0. -1.
    10030    2    1    2    0    0  0.00000000000E+00  0.00000000000E+00  0.15861031264E+03  0.62177989638E+03  0.60120962090E+03 0.  0.
        2    1    3    3  502    0 -0.64064339801E+02  0.13539776780E+03 -0.19023919522E+03  0.24213167196E+03  0.25500000920E-02 0. -1.
       -2    1    3    3    0  502  0.64064339801E+02 -0.13539776780E+03  0.34884950787E+03  0.37964822442E+03  0.25500000920E-02 0.  1.
</event>
<event>
 5   0  0.5819446E-03  0.5994327E+03  0.7818609E-02  0.9906584E-01
       -1   -1    0    0    0  501  0.00000000000E+00  0.00000000000E+00  0.11288213022E+03  0.11288213033E+03  0.50400001928E-02 0.  1.
        1   -1    0    0  501    0  0.00000000000E+00  0.00000000000E+00 -0.79578493658E+03  0.79578493659E+03  0.50400001928E-02 0. -1.
    10030    2    1    2    0    0  0.00000000000E+00  0.00000000000E+00 -0.68290280636E+03  0.90866706692E+03  0.59943272815E+03 0.  0.
        5    1    3    3  502    0 -0.25490592281E+03 -0.15479686328E+03 -0.29677256409E+03  0.42075544341E+03  0.46999998093E+01 0.  1.
       -5    1    3    3    0  502  0.25490592281E+03  0.15479686328E+03 -0.38613024227E+03  0.48791162351E+03  0.46999998093E+01 0. -1.
</event>
<event>
 5   0  0.9303190E-03  0.5993727E+03  0.7818609E-02  0.9906708E-01
       -2   -1    0    0    0  501  0.00000000000E+00  0.00000000000E+00  0.20844293588E+03  0.20844293589E+03  0.25500000920E-02 0.  1.
        2   -1    0    0  501    0  0.00000000000E+00  0.00000000000E+00 -0.43087047114E+03  0.43087047115E+03  0.25500000920E-02 0. -1.
    10030    2    1    2    0    0  0.00000000000E+00  0.00000000000E+00 -0.22242753526E+03  0.63931340704E+03  0.59937269205E+03 0.  0.
        4    1    3    3  502    0 -0.24604429964E+03 -0.15807608278E+03 -0.41396268893E+02  0.29536605985E+03  0.12699999809E+01 0.  1.
       -4    1    3    3    0  502  0.24604429964E+03  0.15807608278E+03 -0.18103126637E+03  0.34394734719E+03  0.12699999809E+01 0. -1.
</event>
<event>
 5   0  0.9028473E-03  0.5959097E+03  0.7818609E-02  0.9913929E-01
       -2   -1    0    0    0  501  0.00000000000E+00  0.00000000000E+00  0.34831974271E+03  0.34831974272E+03  0.25500000920E-02 0.  1.
        2   -1    0    0  501    0  0.00000000000E+00  0.00000000000E+00 -0.25487244585E+03  0.25487244586E+03  0.25500000920E-02 0. -1.
    10030    2    1    2    0    0  0.00000000000E+00  0.00000000000E+00  0.93447296862E+02  0.60319218859E+03  0.59590974072E+03 0.  0.
        1    1    3    3  502    0 -0.41026525331E+01  0.23228716854E+02  0.34737313967E+03  0.34817309378E+03  0.50400001928E-02 0.  1.
       -1    1    3    3    0  502  0.41026525331E+01 -0.23228716854E+02 -0.25392584281E+03  0.25501909480E+03  0.50400001928E-02 0. -1.
</event>
<event>
 5   0  0.9028473E-03  0.5905282E+03  0.7818609E-02  0.9925254E-01
        2   -1    0    0  501    0  0.00000000000E+00  0.00000000000E+00  0.30478504856E+03  0.30478504857E+03  0.25500000920E-02 0. -1.
       -2   -1    0    0    0  501  0.00000000000E+00  0.00000000000E+00 -0.28604057815E+03  0.28604057816E+03  0.25500000920E-02 0.  1.
    10030    2    1    2    0    0  0.00000000000E+00  0.00000000000E+00  0.18744470407E+02  0.59082562673E+03  0.59052820935E+03 0.  0.
        1    1    3    3  502    0 -0.92349664198E+02 -0.68765511910E+02 -0.26265389768E+03  0.28678254148E+03  0.50400001928E-02 0.  1.
       -1    1    3    3    0  502  0.92349664198E+02  0.68765511910E+02  0.28139836808E+03  0.30404308526E+03  0.50400001928E-02 0. -1.
</event>
<event>
 5   0  0.6078658E-03  0.6000070E+03  0.7818609E-02  0.9905392E-01
        1   -1    0    0  501    0  0.00000000000E+00  0.00000000000E+00  0.88144113535E+03  0.88144113537E+03  0.50400001928E-02 0.  1.
       -1   -1    0    0    0  501  0.00000000000E+00  0.00000000000E+00 -0.10210789518E+03  0.10210789530E+03  0.50400001928E-02 0. -1.
    10030    2    1    2    0    0  0.00000000000E+00  0.00000000000E+00  0.77933324017E+03  0.98354903067E+03  0.60000699704E+03 0.  0.
        2    1    3    3  502    0  0.63885309151E+02  0.27314210703E+02  0.86807084542E+03  0.87084693920E+03  0.25500000920E-02 0.  1.
       -2    1    3    3    0  502 -0.63885309151E+02 -0.27314210703E+02 -0.88737605247E+02  0.11270209148E+03  0.25500000920E-02 0. -1.
</event>
<event>
 5   0  0.9303190E-03  0.5994038E+03  0.7818609E-02  0.9906644E-01
        2   -1    0    0  501    0  0.00000000000E+00  0.00000000000E+00  0.11807108374E+04  0.11807108374E+04  0.25500000920E-02 0. -1.
       -2   -1    0    0    0  501  0.00000000000E+00  0.00000000000E+00 -0.76073851988E+02  0.76073852031E+02  0.25500000920E-02 0.  1.
    10030    2    1    2    0    0  0.00000000000E+00  0.00000000000E+00  0.11046369854E+04  0.12567846894E+04  0.59940377547E+03 0.  0.
        4    1    3    3  502    0  0.27093657065E+03  0.10957207668E+03  0.69150916710E+03  0.75073244661E+03  0.12699999809E+01 0. -1.
       -4    1    3    3    0  502 -0.27093657065E+03 -0.10957207668E+03  0.41312781827E+03  0.50605224279E+03  0.12699999809E+01 0.  1.
</event>
<event>
 5   0  0.9303190E-03  0.6001595E+03  0.7818609E-02  0.9905075E-01
        2   -1    0    0  501    0  0.00000000000E+00  0.00000000000E+00  0.41455767388E+03  0.41455767388E+03  0.25500000920E-02 0.  1.
       -2   -1    0    0    0  501  0.00000000000E+00  0.00000000000E+00 -0.21721430052E+03  0.21721430053E+03  0.25500000920E-02 0. -1.
    10030    2    1    2    0    0  0.00000000000E+00  0.00000000000E+00  0.19734337336E+03  0.63177197442E+03  0.60015949601E+03 0.  0.
        4    1    3    3  502    0 -0.21273983595E+03 -0.19783692846E+03  0.19556050513E+02  0.29117304147E+03  0.12699999809E+01 0. -1.
       -4    1    3    3    0  502  0.21273983595E+03  0.19783692846E+03  0.17778732284E+03  0.34059893295E+03  0.12699999809E+01 0.  1.
</event>
<event>
 5   0  0.3806250E-03  0.6015608E+03  0.7818609E-02  0.9902173E-01
       -4   -1    0    0    0  501  0.00000000000E+00  0.00000000000E+00  0.46064039676E+03  0.46064214747E+03  0.12699999809E+01 0.  1.
        4   -1    0    0  501    0  0.00000000000E+00  0.00000000000E+00 -0.19639381532E+03  0.19639792156E+03  0.12699999809E+01 0. -1.
    10030    2    1    2    0    0  0.00000000000E+00  0.00000000000E+00  0.26424658144E+03  0.65704006903E+03  0.60156080034E+03 0.  0.
        2    1    3    3  502    0  0.65622138959E+02  0.11324883253E+03 -0.16366075421E+03  0.20956241473E+03  0.25500000920E-02 0. -1.
       -2    1    3    3    0  502 -0.65622138959E+02 -0.11324883253E+03  0.42790733565E+03  0.44747765430E+03  0.25500000920E-02 0.  1.
</event>
<event>
 5   0  0.9303190E-03  0.5967319E+03  0.7818609E-02  0.9912210E-01
       -2   -1    0    0    0  501  0.00000000000E+00  0.00000000000E+00  0.78766549302E+02  0.78766549343E+02  0.25500000920E-02 0. -1.
        2   -1    0    0  501    0  0.00000000000E+00  0.00000000000E+00 -0.11302036964E+04  0.11302036964E+04  0.25500000920E-02 0.  1.
    10030    2    1    2    0    0  0.00000000000E+00  0.00000000000E+00 -0.10514371471E+04  0.12089702457E+04  0.59673191702E+03 0.  0.
        4    1    3    3  502    0  0.17368662870E+03 -0.26037255099E+02 -0.10143787667E+04  0.10294711647E+04  0.12699999809E+01 0.  1.
       -4    1    3    3    0  502 -0.17368662870E+03  0.26037255099E+02 -0.37058380365E+02  0.17949908105E+03  0.12699999809E+01 0. -1.
</event>
<event>
 5   0  0.5790967E-03  0.6154189E+03  0.7818609E-02  0.9873923E-01
       -1   -1    0    0    0  501  0.00000000000E+00  0.00000000000E+00  0.34315056280E+03  0.34315056284E+03  0.50400001928E-02 0. -1.
        1   -1    0    0  501    0  0.00000000000E+00  0.00000000000E+00 -0.27592870739E+03  0.27592870744E+03  0.50400001928E-02 0.  1.
    10030    2    1    2    0    0  0.00000000000E+00  0.00000000000E+00  0.67221855410E+02  0.61907927027E+03  0.61541885333E+03 0.  0.
        3    1    3    3  502    0 -0.18167321691E+03 -0.13905660461E+03 -0.17338758322E+03  0.28706299177E+03  0.10100000352E+00 0.  1.
       -3    1    3    3    0  502  0.18167321691E+03  0.13905660461E+03  0.24060943863E+03  0.33201627850E+03  0.10100000352E+00 0. -1.
</event>
<event>
 5   0  0.5819446E-03  0.5999667E+03  0.7818609E-02  0.9905475E-01
        1   -1    0    0  501    0  0.00000000000E+00  0.00000000000E+00  0.32633779358E+03  0.32633779362E+03  0.50400001928E-02 0. -1.
       -1   -1    0    0    0  501  0.00000000000E+00  0.00000000000E+00 -0.27575725689E+03  0.27575725694E+03  0.50400001928E-02 0.  1.
    10030    2    1    2    0    0  0.00000000000E+00  0.00000000000E+00  0.50580536685E+02  0.60209505056E+03  0.59996671509E+03 0.  0.
        5    1    3    3  502    0 -0.22227829276E+03  0.24624299936E+01 -0.17680490250E+03  0.28407000289E+03  0.46999998093E+01 0.  1.
       -5    1    3    3    0  502  0.22227829276E+03 -0.24624299936E+01  0.22738543918E+03  0.31802504767E+03  0.46999998093E+01 0. -1.
</event>
<event>
 5   0  0.5790967E-03  0.6008140E+03  0.7818609E-02  0.9903719E-01
       -1   -1    0    0    0  501  0.00000000000E+00  0.00000000000E+00  0.16092797154E+03  0.16092797162E+03  0.50400001928E-02 0.  1.
        1   -1    0    0  501    0  0.00000000000E+00  0.00000000000E+00 -0.56077491393E+03  0.56077491395E+03  0.50400001928E-02 0. -1.
    10030    2    1    2    0    0  0.00000000000E+00  0.00000000000E+00 -0.39984694239E+03  0.72170288557E+03  0.60081401257E+03 0.  0.
        3    1    3    3  502    0 -0.18484534014E+03 -0.47678126987E+02 -0.47855038865E+03  0.51521984457E+03  0.10100000352E+00 0. -1.
       -3    1    3    3    0  502  0.18484534014E+03  0.47678126987E+02  0.78703446263E+02  0.20648304100E+03  0.10100000352E+00 0.  1.
</event>
<event>
 5   0  0.3806250E-03  0.6017176E+03  0.7818609E-02  0.9901849E-01
        4   -1    0    0  501    0  0.00000000000E+00  0.00000000000E+00  0.61071013158E+03  0.61071145209E+03  0.12699999809E+01 0. -1.
       -4   -1    0    0    0  501  0.00000000000E+00  0.00000000000E+00 -0.14821018669E+03  0.14821562785E+03  0.12699999809E+01 0.  1.
    10030    2    1    2    0    0  0.00000000000E+00  0.00000000000E+00  0.46249994490E+03  0.75892707994E+03  0.60171763613E+03 0.  0.
        1    1    3    3  502    0 -0.15137615766E+03  0.19515962224E+03  0.44793126243E+03  0.51151191105E+03  0.50400001928E-02 0. -1.
       -1    1    3    3    0  502  0.15137615766E+03 -0.19515962224E+03  0.14568682462E+02  0.24741516888E+03  0.50400001928E-02 0.  1.
</event>
<event>
 5   0  0.9822607E-03  0.5997781E+03  0.7818609E-02  0.9905866E-01
        2   -1    0    0  501    0  0.00000000000E+00  0.00000000000E+00  0.23872485075E+03  0.23872485077E+03  0.25500000920E-02 0.  1.
       -2   -1    0    0    0  501  0.00000000000E+00  0.00000000000E+00 -0.37672430520E+03  0.37672430521E+03  0.25500000920E-02 0. -1.
    10030    2    1    2    0    0  0.00000000000E+00  0.00000000000E+00 -0.13799945445E+03  0.61544915598E+03  0.59977813745E+03 0.  0.
        3    1    3    3  502    0 -0.20544320978E+03  0.15993214907E+03 -0.22171101725E+03  0.34196635817E+03  0.10100000352E+00 0. -1.
       -3    1    3    3    0  502  0.20544320978E+03 -0.15993214907E+03  0.83711562800E+02  0.27348279781E+03  0.10100000352E+00 0.  1.
</event>
<event>
 5   0  0.9162342E-03  0.5992315E+03  0.7818609E-02  0.9907002E-01
       -2   -1    0    0    0  501  0.00000000000E+00  0.00000000000E+00  0.53625760829E+03  0.53625760829E+03  0.25500000920E-02 0.  1.
        2   -1    0    0  501    0  0.00000000000E+00  0.00000000000E+00 -0.16740015892E+03  0.16740015894E+03  0.25500000920E-02 0. -1.
    10030    2    1    2    0    0  0.00000000000E+00  0.00000000000E+00  0.36885744937E+03  0.70365776723E+03  0.59923153741E+03 0.  0.
        5    1    3    3  502    0 -0.39634352430E+02  0.20295811922E+03  0.43896211963E+03  0.48525530653E+03  0.46999998093E+01 0.  1.
       -5    1    3    3    0  502  0.39634352430E+02 -0.20295811922E+03 -0.70104670255E+02  0.21840246070E+03  0.46999998093E+01 0. -1.
</event>
<event>
 5   0  0.9391405E-03  0.5964791E+03  0.7818609E-02  0.9912738E-01
       -2   -1    0    0    0  501  0.00000000000E+00  0.00000000000E+00  0.13537054970E+03  0.13537054973E+03  0.25500000920E-02 0. -1.
        2   -1    0    0  501    0  0.00000000000E+00  0.00000000000E+00 -0.65706188706E+03  0.65706188706E+03  0.25500000920E-02 0.  1.
    10030    2    1    2    0    0  0.00000000000E+00  0.00000000000E+00 -0.52169133735E+03  0.79243243679E+03  0.59647909889E+03 0.  0.
        2    1    3    3  502    0 -0.14755878933E+03  0.53661410180E+02 -0.59770701117E+03  0.61798609569E+03  0.25500000920E-02 0.  1.
       -2    1    3    3    0  502  0.14755878933E+03 -0.53661410180E+02  0.76015673819E+02  0.17444634110E+03  0.25500000920E-02 0. -1.
</event>
<event>
 5   0  0.6078658E-03  0.6039711E+03  0.7818609E-02  0.9897201E-01
       -1   -1    0    0    0  501  0.00000000000E+00  0.00000000000E+00  0.50825204514E+03  0.50825204517E+03  0.50400001928E-02 0. -1.
        1   -1    0    0  501    0  0.00000000000E+00  0.00000000000E+00 -0.17942921152E+03  0.17942921159E+03  0.50400001928E-02 0.  1.
    10030    2    1    2    0    0  0.00000000000E+00  0.00000000000E+00  0.32882283362E+03  0.68768125675E+03  0.60397107131E+03 0.  0.
        2    1    3    3  502    0  0.75213634441E+02 -0.18895620903E+03  0.41858635188E+03  0.46537734552E+03  0.25500000920E-02 0. -1.
       -2    1    3    3    0  502 -0.75213634441E+02  0.18895620903E+03 -0.89763518257E+02  0.22230391124E+03  0.25500000920E-02 0.  1.
</event>
<event>
 5   0  0.9028473E-03  0.6002027E+03  0.7818609E-02  0.9904986E-01
       -2   -1    0    0    0  501  0.00000000000E+00  0.00000000000E+00  0.13763636367E+03  0.13763636369E+03  0.25500000920E-02 0.  1.
        2   -1    0    0  501    0  0.00000000000E+00  0.00000000000E+00 -0.65433890934E+03  0.65433890934E+03  0.25500000920E-02 0. -1.
    10030    2    1    2    0    0  0.00000000000E+00  0.00000000000E+00 -0.51670254567E+03  0.79197527304E+03  0.60020272609E+03 0.  0.
        1    1    3    3  502    0  0.12208757521E+03 -0.27367070798E+03 -0.27961941698E+03  0.40986345385E+03  0.50400001928E-02 0.  1.
       -1    1    3    3    0  502 -0.12208757521E+03  0.27367070798E+03 -0.23708312869E+03  0.38211181918E+03  0.50400001928E-02 0. -1.
</event>
<event>
 5   0  0.5819446E-03  0.6002621E+03  0.7818609E-02  0.9904862E-01
       -1   -1    0    0    0  501  0.00000000000E+00  0.00000000000E+00  0.13069402658E+03  0.13069402668E+03  0.50400001928E-02 0.  1.
        1   -1    0    0  501    0  0.00000000000E+00  0.00000000000E+00 -0.68923303751E+03  0.68923303753E+03  0.50400001928E-02 0. -1.
    10030    2    1    2    0    0  0.00000000000E+00  0.00000000000E+00 -0.55853901093E+03  0.81992706421E+03  0.60026207934E+03 0.  0.
        5    1    3    3  502    0 -0.13520258094E+03  0.24614504818E+03 -0.13477934840E+03  0.31153600978E+03  0.46999998093E+01 0.  1.
       -5    1    3    3    0  502  0.13520258094E+03 -0.24614504818E+03 -0.42375966253E+03  0.50839105443E+03  0.46999998093E+01 0. -1.
</event>
<event>
 5   0  0.3806250E-03  0.6010785E+03  0.7818609E-02  0.9903171E-01
       -4   -1    0    0    0  501  0.00000000000E+00  0.00000000000E+00  0.55350823181E+03  0.55350968879E+03  0.12699999809E+01 0.  1.
        4   -1    0    0  501    0  0.00000000000E+00  0.00000000000E+00 -0.16318012058E+03  0.16318506259E+03  0.12699999809E+01 0. -1.
    10030    2    1    2    0    0  0.00000000000E+00  0.00000000000E+00  0.39032811123E+03  0.71669475137E+03  0.60107847427E+03 0.  0.
        2    1    3    3  502    0  0.25877535632E+03  0.59193752187E+02  0.27151900171E+02  0.26684416993E+03  0.25500000920E-02 0. -1.
       -2    1    3    3    0  502 -0.25877535632E+03 -0.59193752187E+02  0.36317621106E+03  0.44985058144E+03  0.25500000920E-02 0.  1.
</event>
<event>
 5   0  0.5765045E-03  0.6010377E+03  0.7818609E-02  0.9903255E-01
       -1   -1    0    0    0  501  0.00000000000E+00  0.00000000000E+00  0.14995339417E+03  0.14995339426E+03  0.50400001928E-02 0.  1.
        1   -1    0    0  501    0  0.00000000000E+00  0.00000000000E+00 -0.60226432507E+03  0.60226432509E+03  0.50400001928E-02 0. -1.
    10030    2    1    2    0    0  0.00000000000E+00  0.00000000000E+00 -0.45231093090E+03  0.75221771935E+03  0.60103770189E+03 0.  0.
        1    1    3    3  502    0 -0.54830196297E+02 -0.10325719692E+03  0.12032488008E+03  0.16776911495E+03  0.50400001928E-02 0.  1.
       -1    1    3    3    0  502  0.54830196297E+02  0.10325719692E+03 -0.57263581098E+03  0.58444860439E+03  0.50400001928E-02 0. -1.
</event>
<event>
 5   0  0.3806250E-03  0.5981408E+03  0.7818609E-02  0.9909271E-01
        3   -1    0    0  501    0  0.00000000000E+00  0.00000000000E+00  0.16937291770E+03  0.16937294782E+03  0.10100000352E+00 0.  1.
       -3   -1    0    0    0  501  0.00000000000E+00  0.00000000000E+00 -0.52808379770E+03  0.52808380736E+03  0.10100000352E+00 0. -1.
    10030    2    1    2    0    0  0.00000000000E+00  0.00000000000E+00 -0.35871088000E+03  0.69745675518E+03  0.59814081111E+03 0.  0.
        1    1    3    3  502    0 -0.17415589452E+03 -0.22304288889E+03 -0.66516026355E+02  0.29069363197E+03  0.50400001928E-02 0.  1.
       -1    1    3    3    0  502  0.17415589452E+03  0.22304288889E+03 -0.29219485364E+03  0.40676312321E+03  0.50400001928E-02 0. -1.
</event>
<event>
 5   0  0.5790967E-03  0.5988822E+03  0.7818609E-02  0.9907728E-01
       -1   -1    0    0    0  501  0.00000000000E+00  0.00000000000E+00  0.56658186782E+03  0.56658186785E+03  0.50400001928E-02 0.  1.
        1   -1    0    0  501    0  0.00000000000E+00  0.00000000000E+00 -0.15825597703E+03  0.15825597711E+03  0.50400001928E-02 0. -1.
    10030    2    1    2    0    0  0.00000000000E+00  0.00000000000E+00  0.40832589079E+03  0.72483784496E+03  0.59888218239E+03 0.  0.
        3    1    3    3  502    0 -0.36186063679E+02  0.15089767139E+03 -0.10579524378E+03  0.18780889820E+03  0.10100000352E+00 0. -1.
       -3    1    3    3    0  502  0.36186063679E+02 -0.15089767139E+03  0.51412113457E+03  0.53702894675E+03  0.10100000352E+00 0.  1.
</event>
<event>
 5   0  0.6078658E-03  0.6000158E+03  0.7818609E-02  0.9905373E-01
        1   -1    0    0  501    0  0.00000000000E+00  0.00000000000E+00  0.28273229487E+03  0.28273229491E+03  0.50400001928E-02 0. -1.
       -1   -1    0    0    0  501  0.00000000000E+00  0.00000000000E+00 -0.31833903697E+03  0.31833903701E+03  0.50400001928E-02 0.  1.
    10030    2    1    2    0    0  0.00000000000E+00  0.00000000000E+00 -0.35606742106E+02  0.60107133192E+03  0.60001575477E+03 0.  0.
        2    1    3    3  502    0  0.12648078970E+03  0.24406380220E+03 -0.13818214525E+03  0.30766675963E+03  0.25500000920E-02 0.  1.
       -2    1    3    3    0  502 -0.12648078970E+03 -0.24406380220E+03  0.10257540314E+03  0.29340457230E+03  0.25500000920E-02 0. -1.
</event>
<event>
 5   0  0.5790967E-03  0.5999070E+03  0.7818609E-02  0.9905599E-01
        1   -1    0    0  501    0  0.00000000000E+00  0.00000000000E+00  0.12436823761E+03  0.12436823771E+03  0.50400001928E-02 0.  1.
       -1   -1    0    0    0  501  0.00000000000E+00  0.00000000000E+00 -0.72343321753E+03  0.72343321754E+03  0.50400001928E-02 0. -1.
    10030    2    1    2    0    0  0.00000000000E+00  0.00000000000E+00 -0.59906497992E+03  0.84780145525E+03  0.59990704061E+03 0.  0.
        3    1    3    3  502    0 -0.45058292182E+02 -0.50248257313E+02  0.11349815185E+03  0.13204914893E+03  0.10100000352E+00 0.  1.
       -3    1    3    3    0  502  0.45058292182E+02  0.50248257313E+02 -0.71256313177E+03  0.71575230633E+03  0.10100000352E+00 0. -1.
</event>
<event>
 5   0  0.5891927E-03  0.5997366E+03  0.7818609E-02  0.9905953E-01
       -1   -1    0    0    0  501  0.00000000000E+00  0.00000000000E+00  0.14433517919E+03  0.14433517928E+03  0.50400001928E-02 0.  1.
        1   -1    0    0  501    0  0.00000000000E+00  0.00000000000E+00 -0.62300116887E+03  0.62300116889E+03  0.50400001928E-02 0. -1.
    10030    2    1    2    0    0  0.00000000000E+00  0.00000000000E+00 -0.47866598968E+03  0.76733634817E+03  0.59973656012E+03 0.  0.
        4    1    3    3  502    0 -0.39225374629E+02  0.29610393956E+03 -0.20540450679E+03  0.36250351356E+03  0.12699999809E+01 0. -1.
       -4    1    3    3    0  502  0.39225374629E+02 -0.29610393956E+03 -0.27326148290E+03  0.40483283461E+03  0.12699999809E+01 0.  1.
</event>
<event>
 5   0  0.3806250E-03  0.6001726E+03  0.7818609E-02  0.9905048E-01
       -4   -1    0    0    0  501  0.00000000000E+00  0.00000000000E+00  0.17987082193E+03  0.17987530537E+03  0.12699999809E+01 0.  1.
        4   -1    0    0  501    0  0.00000000000E+00  0.00000000000E+00 -0.50063548226E+03  0.50063709311E+03  0.12699999809E+01 0. -1.
    10030    2    1    2    0    0  0.00000000000E+00  0.00000000000E+00 -0.32076466033E+03  0.68051239848E+03  0.60017260615E+03 0.  0.
        1    1    3    3  502    0 -0.77531926177E+02  0.66091338963E+02  0.15966496616E+03  0.18939948814E+03  0.50400001928E-02 0.  1.
       -1    1    3    3    0  502  0.77531926177E+02 -0.66091338963E+02 -0.48042962650E+03  0.49111291034E+03  0.50400001928E-02 0. -1.
</event>
<event>
 5   0  0.9391405E-03  0.5998908E+03  0.7818609E-02  0.9905633E-01
        2   -1    0    0  501    0  0.00000000000E+00  0.00000000000E+00  0.15435691554E+04  0.15435691554E+04  0.25500000920E-02 0. -1.
       -2   -1    0    0    0  501  0.00000000000E+00  0.00000000000E+00 -0.58285205964E+02  0.58285206019E+02  0.25500000920E-02 0.  1.
    10030    2    1    2    0    0  0.00000000000E+00  0.00000000000E+00  0.14852839495E+04  0.16018543614E+04  0.59989081070E+03 0.  0.
        2    1    3    3  502    0 -0.43005273284E+02 -0.20891305849E+03  0.13057602867E+04  0.13230661532E+04  0.25500000920E-02 0. -1.
       -2    1    3    3    0  502  0.43005273284E+02  0.20891305849E+03  0.17952366278E+03  0.27878820822E+03  0.25500000920E-02 0.  1.
</event>
<event>
 5   0  0.6078658E-03  0.5995313E+03  0.7818609E-02  0.9906379E-01
       -1   -1    0    0    0  501  0.00000000000E+00  0.00000000000E+00  0.30913373747E+03  0.30913373751E+03  0.50400001928E-02 0.  1.
        1   -1    0    0  501    0  0.00000000000E+00  0.00000000000E+00 -0.29068145952E+03  0.29068145956E+03  0.50400001928E-02 0. -1.
    10030    2    1    2    0    0  0.00000000000E+00  0.00000000000E+00  0.18452277947E+02  0.59981519707E+03  0.59953130367E+03 0.  0.
        2    1    3    3  502    0 -0.10972584177E+03 -0.21702453964E+03 -0.16612817431E+03  0.29451312613E+03  0.25500000920E-02 0. -1.
       -2    1    3    3    0  502  0.10972584177E+03  0.21702453964E+03  0.18458045226E+03  0.30530207094E+03  0.25500000920E-02 0.  1.
</event>
<event>
 5   0  0.5819446E-03  0.6004395E+03  0.7818609E-02  0.9904495E-01
        1   -1    0    0  501    0  0.00000000000E+00  0.00000000000E+00  0.13796027718E+03  0.13796027727E+03  0.50400001928E-02 0.  1.
       -1   -1    0    0    0  501  0.00000000000E+00  0.00000000000E+00 -0.65331781317E+03  0.65331781319E+03  0.50400001928E-02 0. -1.
    10030    2    1    2    0    0  0.00000000000E+00  0.00000000000E+00 -0.51535753599E+03  0.79127809046E+03  0.60043952780E+03 0.  0.
        5    1    3    3  502    0 -0.12192018490E+03 -0.23783893814E+02 -0.61781008661E+03  0.63019171544E+03  0.46999998093E+01 0. -1.
       -5    1    3    3    0  502  0.12192018490E+03  0.23783893814E+02  0.10245255063E+03  0.16108637502E+03  0.46999998093E+01 0.  1.
</event>
<event>
 5   0  0.5819446E-03  0.5994240E+03  0.7818609E-02  0.9906602E-01
        1   -1    0    0  501    0  0.00000000000E+00  0.00000000000E+00  0.17603814369E+04  0.17603814369E+04  0.50400001928E-02 0.  1.
       -1   -1    0    0    0  501  0.00000000000E+00  0.00000000000E+00 -0.51027170110E+02  0.51027170359E+02  0.50400001928E-02 0. -1.
    10030    2    1    2    0    0  0.00000000000E+00  0.00000000000E+00  0.17093542668E+04  0.18114086073E+04  0.59942400109E+03 0.  0.
        5    1    3    3  502    0  0.14868653714E+03 -0.21036368571E+02  0.70986751511E+02  0.16616685596E+03  0.46999998093E+01 0. -1.
       -5    1    3    3    0  502 -0.14868653714E+03  0.21036368571E+02  0.16383675153E+04  0.16452417513E+04  0.46999998093E+01 0.  1.
</event>
<event>
 5   0  0.9822607E-03  0.6022991E+03  0.7818609E-02  0.9900648E-01
        2   -1    0    0  501    0  0.00000000000E+00  0.00000000000E+00  0.72639976048E+03  0.72639976049E+03  0.25500000920E-02 0. -1.
       -2   -1    0    0    0  501  0.00000000000E+00  0.00000000000E+00 -0.12485006939E+03  0.12485006941E+03  0.25500000920E-02 0.  1.
    10030    2    1    2    0    0  0.00000000000E+00  0.00000000000E+00  0.60154969109E+03  0.85124982990E+03  0.60229913004E+03 0.  0.
        3    1    3    3  502    0 -0.16561069916E+03 -0.15005455524E+02  0.65562859719E+03  0.67638815411E+03  0.10100000352E+00 0. -1.
       -3    1    3    3    0  502  0.16561069916E+03  0.15005455524E+02 -0.54078906095E+02  0.17486167579E+03  0.10100000352E+00 0.  1.
</event>
<event>
 5   0  0.9822607E-03  0.5996888E+03  0.7818609E-02  0.9906052E-01
        2   -1    0    0  501    0  0.00000000000E+00  0.00000000000E+00  0.17295270463E+03  0.17295270465E+03  0.25500000920E-02 0.  1.
       -2   -1    0    0    0  501  0.00000000000E+00  0.00000000000E+00 -0.51983376863E+03  0.51983376864E+03  0.25500000920E-02 0. -1.
    10030    2    1    2    0    0  0.00000000000E+00  0.00000000000E+00 -0.34688106400E+03  0.69278647329E+03  0.59968877345E+03 0.  0.
        3    1    3    3  502    0 -0.15834344480E+03 -0.23717186533E+02 -0.46631578749E+03  0.49303709324E+03  0.10100000352E+00 0. -1.
       -3    1    3    3    0  502  0.15834344480E+03  0.23717186533E+02  0.11943472349E+03  0.19974938004E+03  0.10100000352E+00 0.  1.
</event>
<event>
 5   0  0.9303190E-03  0.5997228E+03  0.7818609E-02  0.9905981E-01
       -2   -1    0    0    0  501  0.00000000000E+00  0.00000000000E+00  0.97379852000E+02  0.97379852033E+02  0.25500000920E-02 0. -1.
        2   -1    0    0  501    0  0.00000000000E+00  0.00000000000E+00 -0.92336199419E+03  0.92336199419E+03  0.25500000920E-02 0.  1.
    10030    2    1    2    0    0  0.00000000000E+00  0.00000000000E+00 -0.82598214219E+03  0.10207418462E+04  0.59972278381E+03 0.  0.
        4    1    3    3  502    0 -0.13339957697E+03 -0.18620547546E+03 -0.74235475720E+03  0.77689132101E+03  0.12699999809E+01 0.  1.
       -4    1    3    3    0  502  0.13339957697E+03  0.18620547546E+03 -0.83627384989E+02  0.24385052521E+03  0.12699999809E+01 0. -1.
</event>
<event>
 5   0  0.9822607E-03  0.5995674E+03  0.7818609E-02  0.9906304E-01
       -2   -1    0    0    0  501  0.00000000000E+00  0.00000000000E+00  0.50544674665E+02  0.50544674730E+02  0.25500000920E-02 0. -1.
        2   -1    0    0  501    0  0.00000000000E+00  0.00000000000E+00 -0.17780364333E+04  0.17780364333E+04  0.25500000920E-02 0.  1.
    10030    2    1    2    0    0  0.00000000000E+00  0.00000000000E+00 -0.17274917586E+04  0.18285811080E+04  0.59956742114E+03 0.  0.
        3    1    3    3  502    0  0.13507902014E+03 -0.25114115209E+03 -0.11457861606E+04  0.11807388179E+04  0.10100000352E+00 0.  1.
       -3    1    3    3    0  502 -0.13507902014E+03  0.25114115209E+03 -0.58170559797E+03  0.64784229012E+03  0.10100000352E+00 0. -1.
</event>
<event>
 5   0  0.9028473E-03  0.6007048E+03  0.7818609E-02  0.9903945E-01
        2   -1    0    0  501    0  0.00000000000E+00  0.00000000000E+00  0.22135487330E+04  0.22135487330E+04  0.25500000920E-02 0.  1.
       -2   -1    0    0    0  501  0.00000000000E+00  0.00000000000E+00 -0.40754270462E+02  0.40754270542E+02  0.25500000920E-02 0. -1.
    10030    2    1    2    0    0  0.00000000000E+00  0.00000000000E+00  0.21727944626E+04  0.22543030036E+04  0.60070479884E+03 0.  0.
        1    1    3    3  502    0  0.47394200701E+02 -0.28400461852E+03  0.14071812504E+04  0.14363369747E+04  0.50400001928E-02 0.  1.
       -1    1    3    3    0  502 -0.47394200701E+02  0.28400461852E+03  0.76561321220E+03  0.81796602883E+03  0.50400001928E-02 0. -1.
</event>
<event>
 5   0  0.9822607E-03  0.6004691E+03  0.7818609E-02  0.9904433E-01
       -2   -1    0    0    0  501  0.00000000000E+00  0.00000000000E+00  0.10891340495E+03  0.10891340498E+03  0.25500000920E-02 0.  1.
        2   -1    0    0  501    0  0.00000000000E+00  0.00000000000E+00 -0.82763707305E+03  0.82763707306E+03  0.25500000920E-02 0. -1.
    10030    2    1    2    0    0  0.00000000000E+00  0.00000000000E+00 -0.71872366810E+03  0.93655047804E+03  0.60046905568E+03 0.  0.
        3    1    3    3  502    0  0.28735622807E+03  0.62094832708E+02 -0.26434316569E+03  0.39535640820E+03  0.10100000352E+00 0.  1.
       -3    1    3    3    0  502 -0.28735622807E+03 -0.62094832708E+02 -0.45438050241E+03  0.54119406984E+03  0.10100000352E+00 0. -1.
</event>
<event>
 5   0  0.9162342E-03  0.5992793E+03  0.7818609E-02  0.9906902E-01
       -2   -1    0    0    0  501  0.00000000000E+00  0.00000000000E+00  0.46092161413E+02  0.46092161484E+02  0.25500000920E-02 0.  1.
        2   -1    0    0  501    0  0.00000000000E+00  0.00000000000E+00 -0.19479215726E+04  0.19479215726E+04  0.25500000920E-02 0. -1.
    10030    2    1    2    0    0  0.00000000000E+00  0.00000000000E+00 -0.19018294112E+04  0.19940137341E+04  0.59927928587E+03 0.  0.
        5    1    3    3  502    0 -0.29641577600E+03 -0.43322959260E+02 -0.93508455929E+03  0.98190855688E+03  0.46999998093E+01 0. -1.
       -5    1    3    3    0  502  0.29641577600E+03  0.43322959260E+02 -0.96674485195E+03  0.10121051773E+04  0.46999998093E+01 0.  1.
</event>
<event>
 5   0  0.5790967E-03  0.5984802E+03  0.7818609E-02  0.9908564E-01
       -1   -1    0    0    0  501  0.00000000000E+00  0.00000000000E+00  0.20515126528E+03  0.20515126534E+03  0.50400001928E-02 0.  1.
        1   -1    0    0  501    0  0.00000000000E+00  0.00000000000E+00 -0.43648098493E+03  0.43648098496E+03  0.50400001928E-02 0. -1.
    10030    2    1    2    0    0  0.00000000000E+00  0.00000000000E+00 -0.23132971965E+03  0.64163225030E+03  0.59848016294E+03 0.  0.
        3    1    3    3  502    0  0.22428367975E+03 -0.31850274165E+02 -0.32527948163E+03  0.39638915265E+03  0.10100000352E+00 0. -1.
       -3    1    3    3    0  502 -0.22428367975E+03  0.31850274165E+02  0.93949761981E+02  0.24524309765E+03  0.10100000352E+00 0.  1.
</event>
<event>
 5   0  0.3806250E-03  0.5999371E+03  0.7818609E-02  0.9905537E-01
        3   -1    0    0  501    0  0.00000000000E+00  0.00000000000E+00  0.80607862862E+02  0.80607926138E+02  0.10100000352E+00 0.  1.
       -3   -1    0    0    0  501  0.00000000000E+00  0.00000000000E+00 -0.11162817399E+04  0.11162817445E+04  0.10100000352E+00 0. -1.
    10030    2    1    2    0    0  0.00000000000E+00  0.00000000000E+00 -0.10356738770E+04  0.11968896706E+04  0.59993708339E+03 0.  0.
        1    1    3    3  502    0 -0.11133871009E+03  0.23374467710E+02 -0.10715722063E+04  0.10775943892E+04  0.50400001928E-02 0. -1.
       -1    1    3    3    0  502  0.11133871009E+03 -0.23374467710E+02  0.35898329306E+02  0.11929528145E+03  0.50400001928E-02 0.  1.
</event>
<event>
 5   0  0.5765045E-03  0.5999574E+03  0.7818609E-02  0.9905494E-01
       -1   -1    0    0    0  501  0.00000000000E+00  0.00000000000E+00  0.10630223172E+04  0.10630223172E+04  0.50400001928E-02 0. -1.
        1   -1    0    0  501    0  0.00000000000E+00  0.00000000000E+00 -0.84652249953E+02  0.84652250103E+02  0.50400001928E-02 0.  1.
    10030    2    1    2    0    0  0.00000000000E+00  0.00000000000E+00  0.97837006722E+03  0.11476745673E+04  0.59995743513E+03 0.  0.
        1    1    3    3  502    0 -0.15608890160E+03 -0.20909590177E+03  0.77228777061E+03  0.81517681640E+03  0.50400001928E-02 0. -1.
       -1    1    3    3    0  502  0.15608890160E+03  0.20909590177E+03  0.20608229661E+03  0.33249775089E+03  0.50400001928E-02 0.  1.
</event>
<event>
 5   0  0.5790967E-03  0.6002694E+03  0.7818609E-02  0.9904847E-01
       -1   -1    0    0    0  501  0.00000000000E+00  0.00000000000E+00  0.20404380436E+03  0.20404380442E+03  0.50400001928E-02 0. -1.
        1   -1    0    0  501    0  0.00000000000E+00  0.00000000000E+00 -0.44147788121E+03  0.44147788124E+03  0.50400001928E-02 0.  1.
    10030    2    1    2    0    0  0.00000000000E+00  0.00000000000E+00 -0.23743407685E+03  0.64552168567E+03  0.60026936105E+03 0.  0.
        3    1    3    3  502    0  0.16623499725E+03  0.24951748834E+03 -0.13345277774E+03  0.32818090344E+03  0.10100000352E+00 0.  1.
       -3    1    3    3    0  502 -0.16623499725E+03 -0.24951748834E+03 -0.10398129911E+03  0.31734078222E+03  0.10100000352E+00 0. -1.
</event>
<event>
 5   0  0.5891927E-03  0.5992041E+03  0.7818609E-02  0.9907059E-01
       -1   -1    0    0    0  501  0.00000000000E+00  0.00000000000E+00  0.17174005977E+03  0.17174005985E+03  0.50400001928E-02 0.  1.
        1   -1    0    0  501    0  0.00000000000E+00  0.00000000000E+00 -0.52265845427E+03  0.52265845430E+03  0.50400001928E-02 0. -1.
    10030    2    1    2    0    0  0.00000000000E+00  0.00000000000E+00 -0.35091839450E+03  0.69439851414E+03  0.59920411952E+03 0.  0.
        4    1    3    3  502    0 -0.70094899237E+02  0.11511948109E+02  0.16183703343E+03  0.17674461275E+03  0.12699999809E+01 0.  1.
       -4    1    3    3    0  502  0.70094899237E+02 -0.11511948109E+02 -0.51275542793E+03  0.51765390139E+03  0.12699999809E+01 0. -1.
</event>
<event>
 5   0  0.5891927E-03  0.5989674E+03  0.7818609E-02  0.9907551E-01
        1   -1    0    0  501    0  0.00000000000E+00  0.00000000000E+00  0.35034538330E+03  0.35034538334E+03  0.50400001928E-02 0.  1.
       -1   -1    0    0    0  501  0.00000000000E+00  0.00000000000E+00 -0.25600588936E+03  0.25600588941E+03  0.50400001928E-02 0. -1.
    10030    2    1    2    0    0  0.00000000000E+00  0.00000000000E+00  0.94339493942E+02  0.60635127274E+03  0.59896738295E+03 0.  0.
        4    1    3    3  502    0  0.65088942825E+02 -0.29232072984E+03  0.46215261945E+02  0.30302713230E+03  0.12699999809E+01 0.  1.
       -4    1    3    3    0  502 -0.65088942825E+02  0.29232072984E+03  0.48124231997E+02  0.30332414045E+03  0.12699999809E+01 0. -1.
</event>
<event>
 5   0  0.9303190E-03  0.5998026E+03  0.7818609E-02  0.9905816E-01
        2   -1    0    0  501    0  0.00000000000E+00  0.00000000000E+00  0.17940579087E+04  0.17940579087E+04  0.25500000920E-02 0.  1.
       -2   -1    0    0    0  501  0.00000000000E+00  0.00000000000E+00 -0.50132596981E+02  0.50132597046E+02  0.25500000920E-02 0. -1.
    10030    2    1    2    0    0  0.00000000000E+00  0.00000000000E+00  0.17439253117E+04  0.18441905058E+04  0.59980257472E+03 0.  0.
        4    1    3    3  502    0 -0.85875433063E+02 -0.77883760440E+02  0.21560248132E+02  0.11792763605E+03  0.12699999809E+01 0. -1.
       -4    1    3    3    0  502  0.85875433063E+02  0.77883760440E+02  0.17223650636E+04  0.17262628697E+04  0.12699999809E+01 0.  1.
</event>
<event>
 5   0  0.9162342E-03  0.5992080E+03  0.7818609E-02  0.9907051E-01
        2   -1    0    0  501    0  0.00000000000E+00  0.00000000000E+00  0.45583290737E+03  0.45583290737E+03  0.25500000920E-02 0. -1.
       -2   -1    0    0    0  501  0.00000000000E+00  0.00000000000E+00 -0.19691986505E+03  0.19691986507E+03  0.25500000920E-02 0.  1.
    10030    2    1    2    0    0  0.00000000000E+00  0.00000000000E+00  0.25891304232E+03  0.65275277244E+03  0.59920799264E+03 0.  0.
        5    1    3    3  502    0 -0.31341238755E+02 -0.27579271532E+03  0.67085492389E+01  0.27768865606E+03  0.46999998093E+01 0.  1.
       -5    1    3    3    0  502  0.31341238755E+02  0.27579271532E+03  0.25220449308E+03  0.37506411638E+03  0.46999998093E+01 0. -1.
</event>
<event>
 5   0  0.5891927E-03  0.5998633E+03  0.7818609E-02  0.9905690E-01
       -1   -1    0    0    0  501  0.00000000000E+00  0.00000000000E+00  0.12385545785E+03  0.12385545796E+03  0.50400001928E-02 0.  1.
        1   -1    0    0  501    0  0.00000000000E+00  0.00000000000E+00 -0.72632251092E+03  0.72632251094E+03  0.50400001928E-02 0. -1.
    10030    2    1    2    0    0  0.00000000000E+00  0.00000000000E+00 -0.60246705307E+03  0.85017796889E+03  0.59986334174E+03 0.  0.
        4    1    3    3  502    0 -0.31152480539E+02  0.83709643318E+02 -0.70703204362E+03  0.71265258369E+03  0.12699999809E+01 0. -1.
       -4    1    3    3    0  502  0.31152480539E+02 -0.83709643318E+02  0.10456499055E+03  0.13752538521E+03  0.12699999809E+01 0.  1.
</event>
<event>
 5   0  0.9822607E-03  0.5993883E+03  0.7818609E-02  0.9906676E-01
       -2   -1    0    0    0  501  0.00000000000E+00  0.00000000000E+00  0.88701312201E+02  0.88701312238E+02  0.25500000920E-02 0.  1.
        2   -1    0    0  501    0  0.00000000000E+00  0.00000000000E+00 -0.10125732400E+04  0.10125732400E+04  0.25500000920E-02 0. -1.
    10030    2    1    2    0    0  0.00000000000E+00  0.00000000000E+00 -0.92387192777E+03  0.11012745522E+04  0.59938827185E+03 0.  0.
        3    1    3    3  502    0  0.55711704273E+02  0.16447693624E+03 -0.91071171436E+03  0.92712043091E+03  0.10100000352E+00 0. -1.
       -3    1    3    3    0  502 -0.55711704273E+02 -0.16447693624E+03 -0.13160213414E+02  0.17415412130E+03  0.10100000352E+00 0.  1.
</event>
<event>
 5   0  0.9028473E-03  0.5990475E+03  0.7818609E-02  0.9907384E-01
       -2   -1    0    0    0  501  0.00000000000E+00  0.00000000000E+00  0.69956581439E+02  0.69956581485E+02  0.25500000920E-02 0.  1.
        2   -1    0    0  501    0  0.00000000000E+00  0.00000000000E+00 -0.12824308405E+04  0.12824308405E+04  0.25500000920E-02 0. -1.
    10030    2    1    2    0    0  0.00000000000E+00  0.00000000000E+00 -0.12124742591E+04  0.13523874220E+04  0.59904750252E+03 0.  0.
        1    1    3    3  502    0 -0.94284933227E+02 -0.26087977967E+01 -0.12480286466E+04  0.12515877744E+04  0.50400001928E-02 0. -1.
       -1    1    3    3    0  502  0.94284933227E+02  0.26087977967E+01  0.35554387466E+02  0.10079964758E+03  0.50400001928E-02 0.  1.
</event>
<event>
 5   0  0.3806250E-03  0.6001447E+03  0.7818609E-02  0.9905106E-01
        3   -1    0    0  501    0  0.00000000000E+00  0.00000000000E+00  0.46354606456E+03  0.46354607556E+03  0.10100000352E+00 0.  1.
       -3   -1    0    0    0  501  0.00000000000E+00  0.00000000000E+00 -0.19424909389E+03  0.19424912014E+03  0.10100000352E+00 0. -1.
    10030    2    1    2    0    0  0.00000000000E+00  0.00000000000E+00  0.26929697067E+03  0.65779519570E+03  0.60014470011E+03 0.  0.
        3    1    3    3  502    0  0.52393806297E+02  0.22749868599E+03 -0.71989222470E+02  0.24430149696E+03  0.10100000352E+00 0.  1.
       -3    1    3    3    0  502 -0.52393806297E+02 -0.22749868599E+03  0.34128619314E+03  0.41349369874E+03  0.10100000352E+00 0. -1.
</event>
<event>
 5   0  0.9391405E-03  0.6021568E+03  0.7818609E-02  0.9900942E-01
       -2   -1    0    0    0  501  0.00000000000E+00  0.00000000000E+00  0.31163562069E+03  0.31163562070E+03  0.25500000920E-02 0.  1.
        2   -1    0    0  501    0  0.00000000000E+00  0.00000000000E+00 -0.29087879950E+03  0.29087879951E+03  0.25500000920E-02 0. -1.
    10030    2    1    2    0    0  0.00000000000E+00  0.00000000000E+00  0.20756821189E+02  0.60251442021E+03  0.60215677438E+03 0.  0.
        2    1    3    3  502    0 -0.25682229659E+03  0.15475434791E+03 -0.16870005725E+02  0.30031849314E+03  0.25500000920E-02 0. -1.
       -2    1    3    3    0  502  0.25682229659E+03 -0.15475434791E+03  0.37626826914E+02  0.30219592706E+03  0.25500000920E-02 0.  1.
</event>
<event>
 5   0  0.3806250E-03  0.5999590E+03  0.7818609E-02  0.9905491E-01
       -4   -1    0    0    0  501  0.00000000000E+00  0.00000000000E+00  0.34237289573E+03  0.34237525119E+03  0.12699999809E+01 0. -1.
        4   -1    0    0  501    0  0.00000000000E+00  0.00000000000E+00 -0.26283052509E+03  0.26283359340E+03  0.12699999809E+01 0.  1.
    10030    2    1    2    0    0  0.00000000000E+00  0.00000000000E+00  0.79542370639E+02  0.60520884460E+03  0.59995896264E+03 0.  0.
        2    1    3    3  502    0 -0.76636292642E+02 -0.63722279131E+01  0.33226351337E+03  0.34104657888E+03  0.25500000920E-02 0. -1.
       -2    1    3    3    0  502  0.76636292642E+02  0.63722279131E+01 -0.25272114273E+03  0.26416226572E+03  0.25500000920E-02 0.  1.
</event>
<event>
 5   0  0.5891927E-03  0.6036690E+03  0.7818609E-02  0.9897823E-01
        1   -1    0    0  501    0  0.00000000000E+00  0.00000000000E+00  0.81036074160E+03  0.81036074162E+03  0.50400001928E-02 0.  1.
       -1   -1    0    0    0  501  0.00000000000E+00  0.00000000000E+00 -0.11242406771E+03  0.11242406782E+03  0.50400001928E-02 0. -1.
    10030    2    1    2    0    0  0.00000000000E+00  0.00000000000E+00  0.69793667390E+03  0.92278480944E+03  0.60366895212E+03 0.  0.
        4    1    3    3  502    0  0.11097888382E+03 -0.94030563671E+02 -0.55307704537E+02  0.15562331008E+03  0.12699999809E+01 0. -1.
       -4    1    3    3    0  502 -0.11097888382E+03  0.94030563671E+02  0.75324437843E+03  0.76716149936E+03  0.12699999809E+01 0.  1.
</event>
<event>
 5   0  0.9162342E-03  0.5992500E+03  0.7818609E-02  0.9906963E-01
        2   -1    0    0  501    0  0.00000000000E+00  0.00000000000E+00  0.82296611235E+03  0.82296611235E+03  0.25500000920E-02 0. -1.
       -2   -1    0    0    0  501  0.00000000000E+00  0.00000000000E+00 -0.10908727586E+03  0.10908727589E+03  0.25500000920E-02 0.  1.
    10030    2    1    2    0    0  0.00000000000E+00  0.00000000000E+00  0.71387883649E+03  0.93205338825E+03  0.59924996901E+03 0.  0.
        5    1    3    3  502    0  0.21985670442E+03  0.15841016549E+03  0.55565106324E+03  0.61822402500E+03  0.46999998093E+01 0. -1.
       -5    1    3    3    0  502 -0.21985670442E+03 -0.15841016549E+03  0.15822777325E+03  0.31382936325E+03  0.46999998093E+01 0.  1.
</event>
<event>
 5   0  0.9162342E-03  0.5891023E+03  0.7818609E-02  0.9928277E-01
        2   -1    0    0  501    0  0.00000000000E+00  0.00000000000E+00  0.92552064889E+03  0.92552064889E+03  0.25500000920E-02 0. -1.
       -2   -1    0    0    0  501  0.00000000000E+00  0.00000000000E+00 -0.93742228135E+02  0.93742228170E+02  0.25500000920E-02 0.  1.
    10030    2    1    2    0    0  0.00000000000E+00  0.00000000000E+00  0.83177842076E+03  0.10192628771E+04  0.58910225880E+03 0.  0.
        5    1    3    3  502    0  0.31079185185E+02  0.11949124865E+03  0.87851616738E+03  0.88716222902E+03  0.46999998093E+01 0. -1.
       -5    1    3    3    0  502 -0.31079185185E+02 -0.11949124865E+03 -0.46737746626E+02  0.13210064804E+03  0.46999998093E+01 0.  1.
</event>
<event>
 5   0  0.5819446E-03  0.5998830E+03  0.7818609E-02  0.9905649E-01
        1   -1    0    0  501    0  0.00000000000E+00  0.00000000000E+00  0.76031142823E+03  0.76031142825E+03  0.50400001928E-02 0.  1.
       -1   -1    0    0    0  501  0.00000000000E+00  0.00000000000E+00 -0.11832639198E+03  0.11832639208E+03  0.50400001928E-02 0. -1.
    10030    2    1    2    0    0  0.00000000000E+00  0.00000000000E+00  0.64198503625E+03  0.87863782033E+03  0.59988301571E+03 0.  0.
        5    1    3    3  502    0  0.48861197816E+00  0.16065637018E+03  0.69191323626E+03  0.71033564217E+03  0.46999998093E+01 0.  1.
       -5    1    3    3    0  502 -0.48861197816E+00 -0.16065637018E+03 -0.49928200004E+02  0.16830217817E+03  0.46999998093E+01 0. -1.
</event>
<event>
 5   0  0.5891927E-03  0.5999137E+03  0.7818609E-02  0.9905585E-01
       -1   -1    0    0    0  501  0.00000000000E+00  0.00000000000E+00  0.99636700572E+02  0.99636700699E+02  0.50400001928E-02 0. -1.
        1   -1    0    0  501    0  0.00000000000E+00  0.00000000000E+00 -0.90302184445E+03  0.90302184446E+03  0.50400001928E-02 0.  1.
    10030    2    1    2    0    0  0.00000000000E+00  0.00000000000E+00 -0.80338514388E+03  0.10026585452E+04  0.59991371778E+03 0.  0.
        4    1    3    3  502    0 -0.11971053413E+03  0.35160513056E+02  0.54204882935E+02  0.13603917044E+03  0.12699999809E+01 0. -1.
       -4    1    3    3    0  502  0.11971053413E+03 -0.35160513056E+02 -0.85759002681E+03  0.86661937472E+03  0.12699999809E+01 0.  1.
</event>
<event>
 5   0  0.5790967E-03  0.6011113E+03  0.7818609E-02  0.9903103E-01
       -1   -1    0    0    0  501  0.00000000000E+00  0.00000000000E+00  0.31443473905E+03  0.31443473910E+03  0.50400001928E-02 0.  1.
        1   -1    0    0  501    0  0.00000000000E+00  0.00000000000E+00 -0.28728918724E+03  0.28728918729E+03  0.50400001928E-02 0. -1.
    10030    2    1    2    0    0  0.00000000000E+00  0.00000000000E+00  0.27145551813E+02  0.60172392638E+03  0.60111130633E+03 0.  0.
        3    1    3    3  502    0 -0.10896475890E+02 -0.92698304370E+02 -0.27241399967E+03  0.28796025114E+03  0.10100000352E+00 0. -1.
       -3    1    3    3    0  502  0.10896475890E+02  0.92698304370E+02  0.29955955148E+03  0.31376367524E+03  0.10100000352E+00 0.  1.
</event>
<event>
 5   0  0.3806250E-03  0.6003454E+03  0.7818609E-02  0.9904690E-01
       -3   -1    0    0    0  501  0.00000000000E+00  0.00000000000E+00  0.14163310136E+03  0.14163313737E+03  0.10100000352E+00 0.  1.
        3   -1    0    0  501    0  0.00000000000E+00  0.00000000000E+00 -0.63617636019E+03  0.63617636821E+03  0.10100000352E+00 0. -1.
    10030    2    1    2    0    0  0.00000000000E+00  0.00000000000E+00 -0.49454325883E+03  0.77780950558E+03  0.60034539402E+03 0.  0.
        3    1    3    3  502    0  0.13220166810E+02 -0.29479415957E+03 -0.17601028260E+03  0.34359569134E+03  0.10100000352E+00 0.  1.
       -3    1    3    3    0  502 -0.13220166810E+02  0.29479415957E+03 -0.31853297623E+03  0.43421381424E+03  0.10100000352E+00 0. -1.
</event>
<event>
 5   0  0.3806250E-03  0.6000634E+03  0.7818609E-02  0.9905275E-01
       -3   -1    0    0    0  501  0.00000000000E+00  0.00000000000E+00  0.97941465179E+03  0.97941465699E+03  0.10100000352E+00 0. -1.
        3   -1    0    0  501    0  0.00000000000E+00  0.00000000000E+00 -0.91911010999E+02  0.91911066493E+02  0.10100000352E+00 0.  1.
    10030    2    1    2    0    0  0.00000000000E+00  0.00000000000E+00  0.88750364079E+03  0.10713257235E+04  0.60006340781E+03 0.  0.
        4    1    3    3  502    0  0.54430514796E+02  0.29073262040E+03  0.35396300586E+03  0.46128034851E+03  0.12699999809E+01 0.  1.
       -4    1    3    3    0  502 -0.54430514796E+02 -0.29073262040E+03  0.53354063493E+03  0.61004537497E+03  0.12699999809E+01 0. -1.
</event>
<event>
 5   0  0.5819446E-03  0.6004347E+03  0.7818609E-02  0.9904505E-01
       -1   -1    0    0    0  501  0.00000000000E+00  0.00000000000E+00  0.22036697525E+03  0.22036697531E+03  0.50400001928E-02 0.  1.
        1   -1    0    0  501    0  0.00000000000E+00  0.00000000000E+00 -0.40900169343E+03  0.40900169346E+03  0.50400001928E-02 0. -1.
    10030    2    1    2    0    0  0.00000000000E+00  0.00000000000E+00 -0.18863471818E+03  0.62936866877E+03  0.60043472944E+03 0.  0.
        5    1    3    3  502    0  0.23194375480E+03  0.22809137713E+02  0.10398206920E+03  0.25524992236E+03  0.46999998093E+01 0.  1.
       -5    1    3    3    0  502 -0.23194375480E+03 -0.22809137713E+02 -0.29261678738E+03  0.37411874640E+03  0.46999998093E+01 0. -1.
</event>
<event>
 5   0  0.5891927E-03  0.6000998E+03  0.7818609E-02  0.9905199E-01
        1   -1    0    0  501    0  0.00000000000E+00  0.00000000000E+00  0.24007867217E+03  0.24007867222E+03  0.50400001928E-02 0.  1.
       -1   -1    0    0    0  501  0.00000000000E+00  0.00000000000E+00 -0.37500180252E+03  0.37500180255E+03  0.50400001928E-02 0. -1.
    10030    2    1    2    0    0  0.00000000000E+00  0.00000000000E+00 -0.13492313035E+03  0.61508047477E+03  0.60009977449E+03 0.  0.
        4    1    3    3  502    0  0.17699539022E+03 -0.21987986453E+03  0.36832198730E+02  0.28466251377E+03  0.12699999809E+01 0. -1.
       -4    1    3    3    0  502 -0.17699539022E+03  0.21987986453E+03 -0.17175532908E+03  0.33041796100E+03  0.12699999809E+01 0.  1.
</event>
<event>
 5   0  0.5819446E-03  0.6003849E+03  0.7818609E-02  0.9904608E-01
       -1   -1    0    0    0  501  0.00000000000E+00  0.00000000000E+00  0.53312457321E+03  0.53312457323E+03  0.50400001928E-02 0.  1.
        1   -1    0    0  501    0  0.00000000000E+00  0.00000000000E+00 -0.16903274249E+03  0.16903274256E+03  0.50400001928E-02 0. -1.
    10030    2    1    2    0    0  0.00000000000E+00  0.00000000000E+00  0.36409183072E+03  0.70215731579E+03  0.60038490564E+03 0.  0.
        5    1    3    3  502    0 -0.29945559949E+03 -0.89987478318E+01  0.20357209100E+03  0.36224069313E+03  0.46999998093E+01 0. -1.
       -5    1    3    3    0  502  0.29945559949E+03  0.89987478318E+01  0.16051973972E+03  0.33991662266E+03  0.46999998093E+01 0.  1.
</event>
<event>
 5   0  0.9028473E-03  0.5945314E+03  0.7818609E-02  0.9916817E-01
        2   -1    0    0  501    0  0.00000000000E+00  0.00000000000E+00  0.12333448000E+04  0.12333448000E+04  0.25500000920E-02 0. -1.
       -2   -1    0    0    0  501  0.00000000000E+00  0.00000000000E+00 -0.71648171396E+02  0.71648171442E+02  0.25500000920E-02 0.  1.
    10030    2    1    2    0    0  0.00000000000E+00  0.00000000000E+00  0.11616966286E+04  0.13049929714E+04  0.59453141094E+03 0.  0.
        1    1    3    3  502    0  0.16246085438E+03  0.14844365842E+03  0.10195059691E+04  0.10429868024E+04  0.50400001928E-02 0. -1.
       -1    1    3    3    0  502 -0.16246085438E+03 -0.14844365842E+03  0.14219065948E+03  0.26200616901E+03  0.50400001928E-02 0.  1.
</event>
<event>
 5   0  0.5765045E-03  0.5993704E+03  0.7818609E-02  0.9906713E-01
        1   -1    0    0  501    0  0.00000000000E+00  0.00000000000E+00  0.10251352787E+04  0.10251352787E+04  0.50400001928E-02 0. -1.
       -1   -1    0    0    0  501  0.00000000000E+00  0.00000000000E+00 -0.87609124614E+02  0.87609124758E+02  0.50400001928E-02 0.  1.
    10030    2    1    2    0    0  0.00000000000E+00  0.00000000000E+00  0.93752615410E+03  0.11127444035E+04  0.59937035117E+03 0.  0.
        1    1    3    3  502    0 -0.21136123987E+03 -0.19762177906E+03  0.32396310935E+03  0.43437315470E+03  0.50400001928E-02 0.  1.
       -1    1    3    3    0  502  0.21136123987E+03  0.19762177906E+03  0.61356304475E+03  0.67837124879E+03  0.50400001928E-02 0. -1.
</event>
<event>
 5   0  0.9303190E-03  0.5995573E+03  0.7818609E-02  0.9906325E-01
       -2   -1    0    0    0  501  0.00000000000E+00  0.00000000000E+00  0.25604210566E+03  0.25604210567E+03  0.25500000920E-02 0.  1.
        2   -1    0    0  501    0  0.00000000000E+00  0.00000000000E+00 -0.35098617696E+03  0.35098617696E+03  0.25500000920E-02 0. -1.
    10030    2    1    2    0    0  0.00000000000E+00  0.00000000000E+00 -0.94944071298E+02  0.60702828263E+03  0.59955730272E+03 0.  0.
        4    1    3    3  502    0 -0.28203652075E+03 -0.96572989974E+02 -0.79403667903E+02  0.30850850362E+03  0.12699999809E+01 0. -1.
       -4    1    3    3    0  502  0.28203652075E+03  0.96572989974E+02 -0.15540403395E+02  0.29851977902E+03  0.12699999809E+01 0.  1.
</event>
<event>
 5   0  0.9162342E-03  0.5999959E+03  0.7818609E-02  0.9905415E-01
       -2   -1    0    0    0  501  0.00000000000E+00  0.00000000000E+00  0.86523606637E+02  0.86523606675E+02  0.25500000920E-02 0.  1.
        2   -1    0    0  501    0  0.00000000000E+00  0.00000000000E+00 -0.10401643751E+04  0.10401643751E+04  0.25500000920E-02 0. -1.
    10030    2    1    2    0    0  0.00000000000E+00  0.00000000000E+00 -0.95364076850E+03  0.11266879818E+04  0.59999591084E+03 0.  0.
        5    1    3    3  502    0 -0.23485468434E+03 -0.14751881724E+03 -0.69140389603E+03  0.74496977230E+03  0.46999998093E+01 0. -1.
       -5    1    3    3    0  502  0.23485468434E+03  0.14751881724E+03 -0.26223687247E+03  0.38171820952E+03  0.46999998093E+01 0.  1.
</event>
<event>
 5   0  0.3806250E-03  0.6002148E+03  0.7818609E-02  0.9904961E-01
        4   -1    0    0  501    0  0.00000000000E+00  0.00000000000E+00  0.43196233576E+03  0.43196420270E+03  0.12699999809E+01 0. -1.
       -4   -1    0    0    0  501  0.00000000000E+00  0.00000000000E+00 -0.20849644550E+03  0.20850031340E+03  0.12699999809E+01 0.  1.
    10030    2    1    2    0    0  0.00000000000E+00  0.00000000000E+00  0.22346589026E+03  0.64046451610E+03  0.60021478845E+03 0.  0.
        1    1    3    3  502    0 -0.26017717879E+03  0.10043370131E+03 -0.65391370375E+01  0.27896568438E+03  0.50400001928E-02 0.  1.
       -1    1    3    3    0  502  0.26017717879E+03 -0.10043370131E+03  0.23000502730E+03  0.36149883172E+03  0.50400001928E-02 0. -1.
</event>
<event>
 5   0  0.5765045E-03  0.6002409E+03  0.7818609E-02  0.9904906E-01
       -1   -1    0    0    0  501  0.00000000000E+00  0.00000000000E+00  0.92877540793E+02  0.92877540930E+02  0.50400001928E-02 0.  1.
        1   -1    0    0  501    0  0.00000000000E+00  0.00000000000E+00 -0.96979621726E+03  0.96979621728E+03  0.50400001928E-02 0. -1.
    10030    2    1    2    0    0  0.00000000000E+00  0.00000000000E+00 -0.87691867647E+03  0.10626737582E+04  0.60024091100E+03 0.  0.
        1    1    3    3  502    0 -0.32682295438E+02 -0.24240571928E+03 -0.74634627920E+03  0.78540526716E+03  0.50400001928E-02 0. -1.
       -1    1    3    3    0  502  0.32682295438E+02  0.24240571928E+03 -0.13057239727E+03  0.27726849105E+03  0.50400001928E-02 0.  1.
</event>
<event>
 5   0  0.9391405E-03  0.6031536E+03  0.7818609E-02  0.9898885E-01
       -2   -1    0    0    0  501  0.00000000000E+00  0.00000000000E+00  0.90365478490E+02  0.90365478526E+02  0.25500000920E-02 0. -1.
        2   -1    0    0  501    0  0.00000000000E+00  0.00000000000E+00 -0.10064525603E+04  0.10064525603E+04  0.25500000920E-02 0.  1.
    10030    2    1    2    0    0  0.00000000000E+00  0.00000000000E+00 -0.91608708179E+03  0.10968180388E+04  0.60315360302E+03 0.  0.
        2    1    3    3  502    0  0.27666167493E+03  0.13098038112E+02 -0.67500888528E+03  0.72962335228E+03  0.25500000920E-02 0. -1.
       -2    1    3    3    0  502 -0.27666167493E+03 -0.13098038112E+02 -0.24107819651E+03  0.36719468653E+03  0.25500000920E-02 0.  1.
</event>
<event>
 5   0  0.5790967E-03  0.5996604E+03  0.7818609E-02  0.9906111E-01
        1   -1    0    0  501    0  0.00000000000E+00  0.00000000000E+00  0.72220450286E+02  0.72220450462E+02  0.50400001928E-02 0. -1.
       -1   -1    0    0    0  501  0.00000000000E+00  0.00000000000E+00 -0.12447739406E+04  0.12447739406E+04  0.50400001928E-02 0.  1.
    10030    2    1    2    0    0  0.00000000000E+00  0.00000000000E+00 -0.11725534903E+04  0.13169943911E+04  0.59966035259E+03 0.  0.
        3    1    3    3  502    0 -0.10951980249E+03 -0.27910976380E+03 -0.58875861491E+03  0.66070686709E+03  0.10100000352E+00 0. -1.
       -3    1    3    3    0  502  0.10951980249E+03  0.27910976380E+03 -0.58379487540E+03  0.65628752398E+03  0.10100000352E+00 0.  1.
</event>
<event>
 5   0  0.5790967E-03  0.5989231E+03  0.7818609E-02  0.9907643E-01
        1   -1    0    0  501    0  0.00000000000E+00  0.00000000000E+00  0.24674026718E+03  0.24674026723E+03  0.50400001928E-02 0.  1.
       -1   -1    0    0    0  501  0.00000000000E+00  0.00000000000E+00 -0.36344789292E+03  0.36344789296E+03  0.50400001928E-02 0. -1.
    10030    2    1    2    0    0  0.00000000000E+00  0.00000000000E+00 -0.11670762574E+03  0.61018816019E+03  0.59892313441E+03 0.  0.
        3    1    3    3  502    0  0.12578169283E+02 -0.18051177496E+03  0.18474367829E+03  0.25859804351E+03  0.10100000352E+00 0.  1.
       -3    1    3    3    0  502 -0.12578169283E+02  0.18051177496E+03 -0.30145130403E+03  0.35159011668E+03  0.10100000352E+00 0. -1.
</event>
<event>
 5   0  0.9391405E-03  0.6008526E+03  0.7818609E-02  0.9903639E-01
        2   -1    0    0  501    0  0.00000000000E+00  0.00000000000E+00  0.60791379298E+03  0.60791379299E+03  0.25500000920E-02 0.  1.
       -2   -1    0    0    0  501  0.00000000000E+00  0.00000000000E+00 -0.14846835373E+03  0.14846835375E+03  0.25500000920E-02 0. -1.
    10030    2    1    2    0    0  0.00000000000E+00  0.00000000000E+00  0.45944543925E+03  0.75638214674E+03  0.60085259445E+03 0.  0.
        2    1    3    3  502    0  0.96642783516E+02 -0.15686362616E+03  0.52844378025E+03  0.55964171906E+03  0.25500000920E-02 0.  1.
       -2    1    3    3    0  502 -0.96642783516E+02  0.15686362616E+03 -0.68998340998E+02  0.19674042769E+03  0.25500000920E-02 0. -1.
</event>
<event>
 5   0  0.5790967E-03  0.5989975E+03  0.7818609E-02  0.9907488E-01
       -1   -1    0    0    0  501  0.00000000000E+00  0.00000000000E+00  0.64537279337E+02  0.64537279534E+02  0.50400001928E-02 0.  1.
        1   -1    0    0  501    0  0.00000000000E+00  0.00000000000E+00 -0.13898864744E+04  0.13898864744E+04  0.50400001928E-02 0. -1.
    10030    2    1    2    0    0  0.00000000000E+00  0.00000000000E+00 -0.13253491951E+04  0.14544237540E+04  0.59899746843E+03 0.  0.
        3    1    3    3  502    0  0.51230082056E+02 -0.23499682293E+03 -0.10960164144E+04  0.11220962610E+04  0.10100000352E+00 0. -1.
       -3    1    3    3    0  502 -0.51230082056E+02  0.23499682293E+03 -0.22933278072E+03  0.33232749301E+03  0.10100000352E+00 0.  1.
</event>
<event>
 5   0  0.9822607E-03  0.5988218E+03  0.7818609E-02  0.9907854E-01
        2   -1    0    0  501    0  0.00000000000E+00  0.00000000000E+00  0.11247968792E+03  0.11247968795E+03  0.25500000920E-02 0. -1.
       -2   -1    0    0    0  501  0.00000000000E+00  0.00000000000E+00 -0.79700501664E+03  0.79700501664E+03  0.25500000920E-02 0.  1.
    10030    2    1    2    0    0  0.00000000000E+00  0.00000000000E+00 -0.68452532872E+03  0.90948470460E+03  0.59882176166E+03 0.  0.
        3    1    3    3  502    0 -0.27872097096E+03  0.10283402508E+03 -0.28570635064E+03  0.41217513919E+03  0.10100000352E+00 0. -1.
       -3    1    3    3    0  502  0.27872097096E+03 -0.10283402508E+03 -0.39881897807E+03  0.49730956540E+03  0.10100000352E+00 0.  1.
</event>
<event>
 5   0  0.9822607E-03  0.6001526E+03  0.7818609E-02  0.9905090E-01
        2   -1    0    0  501    0  0.00000000000E+00  0.00000000000E+00  0.17966988478E+04  0.17966988478E+04  0.25500000920E-02 0. -1.
       -2   -1    0    0    0  501  0.00000000000E+00  0.00000000000E+00 -0.50117343113E+02  0.50117343178E+02  0.25500000920E-02 0.  1.
    10030    2    1    2    0    0  0.00000000000E+00  0.00000000000E+00  0.17465815047E+04  0.18468161910E+04  0.60015255623E+03 0.  0.
        3    1    3    3  502    0  0.15171739067E+03  0.12545382859E+03  0.15701961756E+04  0.15824894533E+04  0.10100000352E+00 0. -1.
       -3    1    3    3    0  502 -0.15171739067E+03 -0.12545382859E+03  0.17638532912E+03  0.26432673771E+03  0.10100000352E+00 0.  1.
</event>
<event>
 5   0  0.9391405E-03  0.6063093E+03  0.7818609E-02  0.9892402E-01
       -2   -1    0    0    0  501  0.00000000000E+00  0.00000000000E+00  0.97165012569E+02  0.97165012603E+02  0.25500000920E-02 0.  1.
        2   -1    0    0  501    0  0.00000000000E+00  0.00000000000E+00 -0.94584177515E+03  0.94584177515E+03  0.25500000920E-02 0. -1.
    10030    2    1    2    0    0  0.00000000000E+00  0.00000000000E+00 -0.84867676258E+03  0.10430067878E+04  0.60630925439E+03 0.  0.
        2    1    3    3  502    0  0.70880662213E+01  0.12371353988E+03  0.51608290258E+02  0.13423373743E+03  0.25500000920E-02 0.  1.
       -2    1    3    3    0  502 -0.70880662213E+01 -0.12371353988E+03 -0.90028505284E+03  0.90877305033E+03  0.25500000920E-02 0. -1.
</event>
<event>
 5   0  0.5891927E-03  0.6000097E+03  0.7818609E-02  0.9905386E-01
       -1   -1    0    0    0  501  0.00000000000E+00  0.00000000000E+00  0.11652085427E+03  0.11652085438E+03  0.50400001928E-02 0.  1.
        1   -1    0    0  501    0  0.00000000000E+00  0.00000000000E+00 -0.77241886669E+03  0.77241886671E+03  0.50400001928E-02 0. -1.
    10030    2    1    2    0    0  0.00000000000E+00  0.00000000000E+00 -0.65589801242E+03  0.88893972109E+03  0.60000968746E+03 0.  0.
        4    1    3    3  502    0  0.17089212206E+03 -0.69011175849E+02 -0.67865429749E+03  0.70323532915E+03  0.12699999809E+01 0. -1.
       -4    1    3    3    0  502 -0.17089212206E+03  0.69011175849E+02  0.22756285066E+02  0.18570439194E+03  0.12699999809E+01 0.  1.
</event>
<event>
 5   0  0.9028473E-03  0.5997488E+03  0.7818609E-02  0.9905927E-01
        2   -1    0    0  501    0  0.00000000000E+00  0.00000000000E+00  0.90345731527E+03  0.90345731528E+03  0.25500000920E-02 0. -1.
       -2   -1    0    0    0  501  0.00000000000E+00  0.00000000000E+00 -0.99533944521E+02  0.99533944554E+02  0.25500000920E-02 0.  1.
    10030    2    1    2    0    0  0.00000000000E+00  0.00000000000E+00  0.80392337075E+03  0.10029912598E+04  0.59974884848E+03 0.  0.
        1    1    3    3  502    0 -0.53224394248E+02 -0.26114295369E+03  0.17207444287E+03  0.31723507423E+03  0.50400001928E-02 0.  1.
       -1    1    3    3    0  502  0.53224394248E+02  0.26114295369E+03  0.63184892788E+03  0.68575618560E+03  0.50400001928E-02 0. -1.
</event>
<event>
 5   0  0.9391405E-03  0.6003590E+03  0.7818609E-02  0.9904662E-01
        2   -1    0    0  501    0  0.00000000000E+00  0.00000000000E+00  0.11161384287E+04  0.11161384287E+04  0.25500000920E-02 0. -1.
       -2   -1    0    0    0  501  0.00000000000E+00  0.00000000000E+00 -0.80731673476E+02  0.80731673516E+02  0.25500000920E-02 0.  1.
    10030    2    1    2    0    0  0.00000000000E+00  0.00000000000E+00  0.10354067552E+04  0.11968701022E+04  0.60035896998E+03 0.  0.
        2    1    3    3  502    0 -0.41887690754E+02  0.23140366445E+03  0.14577451476E+03  0.27668112281E+03  0.25500000920E-02 0.  1.
       -2    1    3    3    0  502  0.41887690754E+02 -0.23140366445E+03  0.88963224048E+03  0.92018897944E+03  0.25500000920E-02 0. -1.
</event>
<event>
 5   0  0.9028473E-03  0.5993509E+03  0.7818609E-02  0.9906754E-01
        2   -1    0    0  501    0  0.00000000000E+00  0.00000000000E+00  0.29930485928E+03  0.29930485929E+03  0.25500000920E-02 0.  1.
       -2   -1    0    0    0  501  0.00000000000E+00  0.00000000000E+00 -0.30004649852E+03  0.30004649853E+03  0.25500000920E-02 0. -1.
    10030    2    1    2    0    0  0.00000000000E+00  0.00000000000E+00 -0.74163923923E+00  0.59935135782E+03  0.59935089897E+03 0.  0.
        1    1    3    3  502    0 -0.51189000309E+02  0.29526822001E+03 -0.16897215857E+01  0.29967731093E+03  0.50400001928E-02 0.  1.
       -1    1    3    3    0  502  0.51189000309E+02 -0.29526822001E+03  0.94808234649E+00  0.29967404690E+03  0.50400001928E-02 0. -1.
</event>
<event>
 5   0  0.9822607E-03  0.5992542E+03  0.7818609E-02  0.9906954E-01
       -2   -1    0    0    0  501  0.00000000000E+00  0.00000000000E+00  0.21942659689E+04  0.21942659689E+04  0.25500000920E-02 0.  1.
        2   -1    0    0  501    0  0.00000000000E+00  0.00000000000E+00 -0.40914096260E+02  0.40914096339E+02  0.25500000920E-02 0. -1.
    10030    2    1    2    0    0  0.00000000000E+00  0.00000000000E+00  0.21533518727E+04  0.22351800653E+04  0.59925423374E+03 0.  0.
        3    1    3    3  502    0  0.92044892161E+02  0.96092985724E+02  0.75340712112E+02  0.15291290718E+03  0.10100000352E+00 0. -1.
       -3    1    3    3    0  502 -0.92044892161E+02 -0.96092985724E+02  0.20780111605E+04  0.20822671581E+04  0.10100000352E+00 0.  1.
</event>
<event>
 5   0  0.3806250E-03  0.5999085E+03  0.7818609E-02  0.9905596E-01
        4   -1    0    0  501    0  0.00000000000E+00  0.00000000000E+00  0.59676725887E+03  0.59676861023E+03  0.12699999809E+01 0. -1.
       -4   -1    0    0    0  501  0.00000000000E+00  0.00000000000E+00 -0.15076238267E+03  0.15076773172E+03  0.12699999809E+01 0.  1.
    10030    2    1    2    0    0  0.00000000000E+00  0.00000000000E+00  0.44600487620E+03  0.74753634196E+03  0.59990852049E+03 0.  0.
        4    1    3    3  502    0  0.26974632894E+03  0.10998755021E+03  0.31208307590E+03  0.42691662224E+03  0.12699999809E+01 0.  1.
       -4    1    3    3    0  502 -0.26974632894E+03 -0.10998755021E+03  0.13392180030E+03  0.32061971972E+03  0.12699999809E+01 0. -1.
</event>
<event>
 5   0  0.9028473E-03  0.5990576E+03  0.7818609E-02  0.9907363E-01
       -2   -1    0    0    0  501  0.00000000000E+00  0.00000000000E+00  0.46811979590E+02  0.46811979659E+02  0.25500000920E-02 0. -1.
        2   -1    0    0  501    0  0.00000000000E+00  0.00000000000E+00 -0.19165497995E+04  0.19165497995E+04  0.25500000920E-02 0.  1.
    10030    2    1    2    0    0  0.00000000000E+00  0.00000000000E+00 -0.18697378199E+04  0.19633617792E+04  0.59905756040E+03 0.  0.
        1    1    3    3  502    0  0.22307136857E+03  0.19701309607E+03 -0.10456482734E+04  0.10871776797E+04  0.50400001928E-02 0. -1.
       -1    1    3    3    0  502 -0.22307136857E+03 -0.19701309607E+03 -0.82408954647E+03  0.87618409945E+03  0.50400001928E-02 0.  1.
</event>
<event>
 5   0  0.9303190E-03  0.6000791E+03  0.7818609E-02  0.9905242E-01
        2   -1    0    0  501    0  0.00000000000E+00  0.00000000000E+00  0.41625896400E+03  0.41625896401E+03  0.25500000920E-02 0. -1.
       -2   -1    0    0    0  501  0.00000000000E+00  0.00000000000E+00 -0.21626860185E+03  0.21626860186E+03  0.25500000920E-02 0.  1.
    10030    2    1    2    0    0  0.00000000000E+00  0.00000000000E+00  0.19999036215E+03  0.63252756587E+03  0.60007914197E+03 0.  0.
        4    1    3    3  502    0  0.10444830069E+03 -0.27356159890E+03  0.16892817059E+03  0.33805877541E+03  0.12699999809E+01 0. -1.
       -4    1    3    3    0  502 -0.10444830069E+03  0.27356159890E+03  0.31062191566E+02  0.29446879046E+03  0.12699999809E+01 0.  1.
</event>
<event>
 5   0  0.5765045E-03  0.6021139E+03  0.7818609E-02  0.9901030E-01
       -1   -1    0    0    0  501  0.00000000000E+00  0.00000000000E+00  0.18698136140E+03  0.18698136147E+03  0.50400001928E-02 0. -1.
        1   -1    0    0  501    0  0.00000000000E+00  0.00000000000E+00 -0.48472905372E+03  0.48472905375E+03  0.50400001928E-02 0.  1.
    10030    2    1    2    0    0  0.00000000000E+00  0.00000000000E+00 -0.29774769232E+03  0.67171041522E+03  0.60211393741E+03 0.  0.
        1    1    3    3  502    0 -0.83195604930E+02  0.28696045174E+03 -0.19012777331E+03  0.35414175093E+03  0.50400001928E-02 0. -1.
       -1    1    3    3    0  502  0.83195604930E+02 -0.28696045174E+03 -0.10761991902E+03  0.31756866429E+03  0.50400001928E-02 0.  1.
</event>
<event>
 5   0  0.3806250E-03  0.6006478E+03  0.7818609E-02  0.9904063E-01
       -4   -1    0    0    0  501  0.00000000000E+00  0.00000000000E+00  0.41728201637E+03  0.41728394899E+03  0.12699999809E+01 0. -1.
        4   -1    0    0  501    0  0.00000000000E+00  0.00000000000E+00 -0.21614312536E+03  0.21614685642E+03  0.12699999809E+01 0.  1.
    10030    2    1    2    0    0  0.00000000000E+00  0.00000000000E+00  0.20113889101E+03  0.63343080541E+03  0.60064776014E+03 0.  0.
        5    1    3    3  502    0 -0.29830617731E+02 -0.11245108267E+03 -0.19137433088E+03  0.22401191099E+03  0.46999998093E+01 0.  1.
       -5    1    3    3    0  502  0.29830617731E+02  0.11245108267E+03  0.39251322189E+03  0.40941889442E+03  0.46999998093E+01 0. -1.
</event>
<event>
 5   0  0.5819446E-03  0.5987423E+03  0.7818609E-02  0.9908019E-01
        1   -1    0    0  501    0  0.00000000000E+00  0.00000000000E+00  0.66538447661E+03  0.66538447663E+03  0.50400001928E-02 0.  1.
       -1   -1    0    0    0  501  0.00000000000E+00  0.00000000000E+00 -0.13469369757E+03  0.13469369767E+03  0.50400001928E-02 0. -1.
    10030    2    1    2    0    0  0.00000000000E+00  0.00000000000E+00  0.53069077904E+03  0.80007817430E+03  0.59874233359E+03 0.  0.
        5    1    3    3  502    0 -0.13473439774E+03 -0.21880478727E+03  0.60185851963E+02  0.26395704128E+03  0.46999998093E+01 0. -1.
       -5    1    3    3    0  502  0.13473439774E+03  0.21880478727E+03  0.47050492707E+03  0.53612113302E+03  0.46999998093E+01 0.  1.
</event>
<event>
 5   0  0.5819446E-03  0.5855826E+03  0.7818609E-02  0.9935777E-01
       -1   -1    0    0    0  501  0.00000000000E+00  0.00000000000E+00  0.41211511045E+03  0.41211511049E+03  0.50400001928E-02 0. -1.
        1   -1    0    0  501    0  0.00000000000E+00  0.00000000000E+00 -0.20801650899E+03  0.20801650905E+03  0.50400001928E-02 0.  1.
    10030    2    1    2    0    0  0.00000000000E+00  0.00000000000E+00  0.20409860147E+03  0.62013161953E+03  0.58558260427E+03 0.  0.
        5    1    3    3  502    0 -0.23292953180E+03 -0.86965120741E+02  0.26571715970E+03  0.36393240852E+03  0.46999998093E+01 0. -1.
       -5    1    3    3    0  502  0.23292953180E+03  0.86965120741E+02 -0.61618558237E+02  0.25619921102E+03  0.46999998093E+01 0.  1.
</event>
<event>
 5   0  0.5765045E-03  0.5989859E+03  0.7818609E-02  0.9907512E-01
        1   -1    0    0  501    0  0.00000000000E+00  0.00000000000E+00  0.23021898975E+04  0.23021898975E+04  0.50400001928E-02 0. -1.
       -1   -1    0    0    0  501  0.00000000000E+00  0.00000000000E+00 -0.38961175257E+02  0.38961175583E+02  0.50400001928E-02 0.  1.
    10030    2    1    2    0    0  0.00000000000E+00  0.00000000000E+00  0.22632287223E+04  0.23411510731E+04  0.59898589119E+03 0.  0.
        1    1    3    3  502    0 -0.26259485356E+03 -0.14117970613E+03  0.10204954889E+04  0.10631551201E+04  0.50400001928E-02 0.  1.
       -1    1    3    3    0  502  0.26259485356E+03  0.14117970613E+03  0.12427332334E+04  0.12779959530E+04  0.50400001928E-02 0. -1.
</event>
<event>
 5   0  0.9303190E-03  0.5989035E+03  0.7818609E-02  0.9907684E-01
       -2   -1    0    0    0  501  0.00000000000E+00  0.00000000000E+00  0.18948136733E+03  0.18948136735E+03  0.25500000920E-02 0. -1.
        2   -1    0    0  501    0  0.00000000000E+00  0.00000000000E+00 -0.47324627459E+03  0.47324627460E+03  0.25500000920E-02 0.  1.
    10030    2    1    2    0    0  0.00000000000E+00  0.00000000000E+00 -0.28376490726E+03  0.66272764194E+03  0.59890350208E+03 0.  0.
        4    1    3    3  502    0  0.40789316544E+02 -0.17351010478E+03  0.12438514101E+03  0.21735409131E+03  0.12699999809E+01 0. -1.
       -4    1    3    3    0  502 -0.40789316544E+02  0.17351010478E+03 -0.40815004827E+03  0.44537355064E+03  0.12699999809E+01 0.  1.
</event>
<event>
 5   0  0.5765045E-03  0.5998646E+03  0.7818609E-02  0.9905687E-01
        1   -1    0    0  501    0  0.00000000000E+00  0.00000000000E+00  0.27707061731E+03  0.27707061735E+03  0.50400001928E-02 0.  1.
       -1   -1    0    0    0  501  0.00000000000E+00  0.00000000000E+00 -0.32468031602E+03  0.32468031606E+03  0.50400001928E-02 0. -1.
    10030    2    1    2    0    0  0.00000000000E+00  0.00000000000E+00 -0.47609698713E+02  0.60175093342E+03  0.59986457009E+03 0.  0.
        1    1    3    3  502    0 -0.14135680233E+03  0.24032566171E+03  0.87092355301E+02  0.29210143378E+03  0.50400001928E-02 0.  1.
       -1    1    3    3    0  502  0.14135680233E+03 -0.24032566171E+03 -0.13470205401E+03  0.30964949963E+03  0.50400001928E-02 0. -1.
</event>
<event>
 5   0  0.9162342E-03  0.5994400E+03  0.7818609E-02  0.9906569E-01
        2   -1    0    0  501    0  0.00000000000E+00  0.00000000000E+00  0.47171402724E+03  0.47171402725E+03  0.25500000920E-02 0.  1.
       -2   -1    0    0    0  501  0.00000000000E+00  0.00000000000E+00 -0.19043756668E+03  0.19043756670E+03  0.25500000920E-02 0. -1.
    10030    2    1    2    0    0  0.00000000000E+00  0.00000000000E+00  0.28127646056E+03  0.66215159395E+03  0.59943997706E+03 0.  0.
        5    1    3    3  502    0 -0.14293496831E+03 -0.36972766661E+02  0.42871377084E+03  0.45344787788E+03  0.46999998093E+01 0.  1.
       -5    1    3    3    0  502  0.14293496831E+03  0.36972766661E+02 -0.14743731028E+03  0.20870371607E+03  0.46999998093E+01 0. -1.
</event>
<event>
 5   0  0.9162342E-03  0.6004061E+03  0.7818609E-02  0.9904564E-01
       -2   -1    0    0    0  501  0.00000000000E+00  0.00000000000E+00  0.10982518292E+03  0.10982518295E+03  0.25500000920E-02 0.  1.
        2   -1    0    0  501    0  0.00000000000E+00  0.00000000000E+00 -0.82059398213E+03  0.82059398213E+03  0.25500000920E-02 0. -1.
    10030    2    1    2    0    0  0.00000000000E+00  0.00000000000E+00 -0.71076879920E+03  0.93041916508E+03  0.60040614324E+03 0.  0.
        5    1    3    3  502    0 -0.25793576678E+03 -0.52820328242E+02 -0.57876491657E+03  0.63585514507E+03  0.46999998093E+01 0. -1.
       -5    1    3    3    0  502  0.25793576678E+03  0.52820328242E+02 -0.13200388264E+03  0.29456402002E+03  0.46999998093E+01 0.  1.
</event>
<event>
 5   0  0.9162342E-03  0.5997071E+03  0.7818609E-02  0.9906014E-01
       -2   -1    0    0    0  501  0.00000000000E+00  0.00000000000E+00  0.60849933714E+02  0.60849933767E+02  0.25500000920E-02 0.  1.
        2   -1    0    0  501    0  0.00000000000E+00  0.00000000000E+00 -0.14776046947E+04  0.14776046947E+04  0.25500000920E-02 0. -1.
    10030    2    1    2    0    0  0.00000000000E+00  0.00000000000E+00 -0.14167547610E+04  0.15384546284E+04  0.59970708773E+03 0.  0.
        5    1    3    3  502    0  0.11060239875E+03 -0.83170996986E+02 -0.13906803774E+04  0.13975565489E+04  0.46999998093E+01 0. -1.
       -5    1    3    3    0  502 -0.11060239875E+03  0.83170996986E+02 -0.26074383609E+02  0.14089807957E+03  0.46999998093E+01 0.  1.
</event>
<event>
 5   0  0.3806250E-03  0.5998535E+03  0.7818609E-02  0.9905710E-01
        3   -1    0    0  501    0  0.00000000000E+00  0.00000000000E+00  0.28502552696E+03  0.28502554486E+03  0.10100000352E+00 0.  1.
       -3   -1    0    0    0  501  0.00000000000E+00  0.00000000000E+00 -0.31560695542E+03  0.31560697158E+03  0.10100000352E+00 0. -1.
    10030    2    1    2    0    0  0.00000000000E+00  0.00000000000E+00 -0.30581428463E+02  0.60063251644E+03  0.59985347881E+03 0.  0.
        5    1    3    3  502    0  0.14667439941E+03 -0.20847209217E+03  0.14290170066E+03  0.29226183245E+03  0.46999998093E+01 0.  1.
       -5    1    3    3    0  502 -0.14667439941E+03  0.20847209217E+03 -0.17348312912E+03  0.30837068399E+03  0.46999998093E+01 0. -1.
</event>
<event>
 5   0  0.9391405E-03  0.5990595E+03  0.7818609E-02  0.9907359E-01
        2   -1    0    0  501    0  0.00000000000E+00  0.00000000000E+00  0.16905739799E+04  0.16905739799E+04  0.25500000920E-02 0.  1.
       -2   -1    0    0    0  501  0.00000000000E+00  0.00000000000E+00 -0.53069599262E+02  0.53069599323E+02  0.25500000920E-02 0. -1.
    10030    2    1    2    0    0  0.00000000000E+00  0.00000000000E+00  0.16375043807E+04  0.17436435793E+04  0.59905954192E+03 0.  0.
        2    1    3    3  502    0  0.47963010095E+02  0.82559667513E+02 -0.75889596919E+01  0.95781738098E+02  0.25500000920E-02 0. -1.
       -2    1    3    3    0  502 -0.47963010095E+02 -0.82559667513E+02  0.16450933404E+04  0.16478618412E+04  0.25500000920E-02 0.  1.
</event>
<event>
 5   0  0.5891927E-03  0.5981937E+03  0.7818609E-02  0.9909161E-01
       -1   -1    0    0    0  501  0.00000000000E+00  0.00000000000E+00  0.79761568697E+02  0.79761568857E+02  0.50400001928E-02 0. -1.
        1   -1    0    0  501    0  0.00000000000E+00  0.00000000000E+00 -0.11215794996E+04  0.11215794996E+04  0.50400001928E-02 0.  1.
    10030    2    1    2    0    0  0.00000000000E+00  0.00000000000E+00 -0.10418179309E+04  0.12013410685E+04  0.59819374924E+03 0.  0.
        4    1    3    3  502    0  0.21810895610E+02  0.96517819770E+02  0.45931373259E+02  0.10909953552E+03  0.12699999809E+01 0. -1.
       -4    1    3    3    0  502 -0.21810895610E+02 -0.96517819770E+02 -0.10877493041E+04  0.10922415329E+04  0.12699999809E+01 0.  1.
</event>
<event>
 5   0  0.9028473E-03  0.6000517E+03  0.7818609E-02  0.9905299E-01
        2   -1    0    0  501    0  0.00000000000E+00  0.00000000000E+00  0.11253759053E+03  0.11253759056E+03  0.25500000920E-02 0. -1.
       -2   -1    0    0    0  501  0.00000000000E+00  0.00000000000E+00 -0.79987072631E+03  0.79987072631E+03  0.25500000920E-02 0.  1.
    10030    2    1    2    0    0  0.00000000000E+00  0.00000000000E+00 -0.68733313577E+03  0.91240831687E+03  0.60005174541E+03 0.  0.
        1    1    3    3  502    0  0.23674241604E+03  0.12508575672E+03 -0.54948687875E+03  0.61125219675E+03  0.50400001928E-02 0.  1.
       -1    1    3    3    0  502 -0.23674241604E+03 -0.12508575672E+03 -0.13784625702E+03  0.30115612012E+03  0.50400001928E-02 0. -1.
</event>
<event>
 5   0  0.9162342E-03  0.6001049E+03  0.7818609E-02  0.9905188E-01
        2   -1    0    0  501    0  0.00000000000E+00  0.00000000000E+00  0.26565823614E+03  0.26565823615E+03  0.25500000920E-02 0.  1.
       -2   -1    0    0    0  501  0.00000000000E+00  0.00000000000E+00 -0.33889961422E+03  0.33889961422E+03  0.25500000920E-02 0. -1.
    10030    2    1    2    0    0  0.00000000000E+00  0.00000000000E+00 -0.73241378076E+02  0.60455785038E+03  0.60010490332E+03 0.  0.
        5    1    3    3  502    0 -0.12364718941E+02 -0.22678501950E+03 -0.23409832699E+03  0.32620307791E+03  0.46999998093E+01 0. -1.
       -5    1    3    3    0  502  0.12364718941E+02  0.22678501950E+03  0.16085694891E+03  0.27835477247E+03  0.46999998093E+01 0.  1.
</event>
<event>
 5   0  0.9303190E-03  0.6006749E+03  0.7818609E-02  0.9904007E-01
        2   -1    0    0  501    0  0.00000000000E+00  0.00000000000E+00  0.14120526158E+04  0.14120526158E+04  0.25500000920E-02 0. -1.
       -2   -1    0    0    0  501  0.00000000000E+00  0.00000000000E+00 -0.63880463511E+02  0.63880463562E+02  0.25500000920E-02 0.  1.
    10030    2    1    2    0    0  0.00000000000E+00  0.00000000000E+00  0.13481721523E+04  0.14759330794E+04  0.60067487259E+03 0.  0.
        4    1    3    3  502    0 -0.86282816611E+02 -0.11477587595E+03  0.13222397008E+04  0.13300141598E+04  0.12699999809E+01 0. -1.
       -4    1    3    3    0  502  0.86282816611E+02  0.11477587595E+03  0.25932451535E+02  0.14591891956E+03  0.12699999809E+01 0.  1.
</event>
<event>
 5   0  0.9822607E-03  0.6003428E+03  0.7818609E-02  0.9904695E-01
        2   -1    0    0  501    0  0.00000000000E+00  0.00000000000E+00  0.18221840636E+04  0.18221840636E+04  0.25500000920E-02 0.  1.
       -2   -1    0    0    0  501  0.00000000000E+00  0.00000000000E+00 -0.49447735897E+02  0.49447735963E+02  0.25500000920E-02 0. -1.
    10030    2    1    2    0    0  0.00000000000E+00  0.00000000000E+00  0.17727363277E+04  0.18716317996E+04  0.60034282339E+03 0.  0.
        3    1    3    3  502    0 -0.29524519005E+03 -0.16371874192E+02  0.10473134680E+04  0.10882569875E+04  0.10100000352E+00 0. -1.
       -3    1    3    3    0  502  0.29524519005E+03  0.16371874192E+02  0.72542285976E+03  0.78337481206E+03  0.10100000352E+00 0.  1.
</event>
<event>
 5   0  0.9162342E-03  0.6009676E+03  0.7818609E-02  0.9903401E-01
       -2   -1    0    0    0  501  0.00000000000E+00  0.00000000000E+00  0.26076138189E+03  0.26076138191E+03  0.25500000920E-02 0. -1.
        2   -1    0    0  501    0  0.00000000000E+00  0.00000000000E+00 -0.34625722910E+03  0.34625722911E+03  0.25500000920E-02 0.  1.
    10030    2    1    2    0    0  0.00000000000E+00  0.00000000000E+00 -0.85495847204E+02  0.60701861101E+03  0.60096759832E+03 0.  0.
        5    1    3    3  502    0  0.19835983427E+03  0.21770158187E+03 -0.10274142612E+03  0.31195912110E+03  0.46999998093E+01 0. -1.
       -5    1    3    3    0  502 -0.19835983427E+03 -0.21770158187E+03  0.17245578916E+02  0.29505948991E+03  0.46999998093E+01 0.  1.
</event>
<event>
 5   0  0.5891927E-03  0.5983641E+03  0.7818609E-02  0.9908806E-01
        1   -1    0    0  501    0  0.00000000000E+00  0.00000000000E+00  0.12237046653E+04  0.12237046653E+04  0.50400001928E-02 0. -1.
       -1   -1    0    0    0  501  0.00000000000E+00  0.00000000000E+00 -0.73146655645E+02  0.73146655818E+02  0.50400001928E-02 0.  1.
    10030    2    1    2    0    0  0.00000000000E+00  0.00000000000E+00  0.11505580096E+04  0.12968513211E+04  0.59836411617E+03 0.  0.
        4    1    3    3  502    0 -0.26417181544E+03  0.46482663116E+02  0.86248803712E+03  0.90323563543E+03  0.12699999809E+01 0. -1.
       -4    1    3    3    0  502  0.26417181544E+03 -0.46482663116E+02  0.28806997250E+03  0.39361568566E+03  0.12699999809E+01 0.  1.
</event>
<event>
 5   0  0.5790967E-03  0.5985693E+03  0.7818609E-02  0.9908379E-01
        1   -1    0    0  501    0  0.00000000000E+00  0.00000000000E+00  0.16573406240E+04  0.16573406240E+04  0.50400001928E-02 0. -1.
       -1   -1    0    0    0  501  0.00000000000E+00  0.00000000000E+00 -0.54045194073E+02  0.54045194308E+02  0.50400001928E-02 0.  1.
    10030    2    1    2    0    0  0.00000000000E+00  0.00000000000E+00  0.16032954299E+04  0.17113858183E+04  0.59856928045E+03 0.  0.
        3    1    3    3  502    0 -0.75996949351E+02 -0.19583853723E+02  0.16273972726E+04  0.16292884818E+04  0.10100000352E+00 0. -1.
       -3    1    3    3    0  502  0.75996949351E+02  0.19583853723E+02 -0.24101842747E+02  0.82097336510E+02  0.10100000352E+00 0.  1.
</event>
<event>
 5   0  0.5819446E-03  0.5986562E+03  0.7818609E-02  0.9908198E-01
       -1   -1    0    0    0  501  0.00000000000E+00  0.00000000000E+00  0.96994199733E+02  0.96994199864E+02  0.50400001928E-02 0. -1.
        1   -1    0    0  501    0  0.00000000000E+00  0.00000000000E+00 -0.92373889414E+03  0.92373889415E+03  0.50400001928E-02 0.  1.
    10030    2    1    2    0    0  0.00000000000E+00  0.00000000000E+00 -0.82674469440E+03  0.10207330940E+04  0.59865621144E+03 0.  0.
        5    1    3    3  502    0 -0.22903101429E+03  0.10822586779E+03 -0.68514949880E+03  0.73049296347E+03  0.46999998093E+01 0.  1.
       -5    1    3    3    0  502  0.22903101429E+03 -0.10822586779E+03 -0.14159519560E+03  0.29024013055E+03  0.46999998093E+01 0. -1.
</event>
<event>
 5   0  0.9028473E-03  0.6003219E+03  0.7818609E-02  0.9904738E-01
        2   -1    0    0  501    0  0.00000000000E+00  0.00000000000E+00  0.37650218787E+03  0.37650218788E+03  0.25500000920E-02 0.  1.
       -2   -1    0    0    0  501  0.00000000000E+00  0.00000000000E+00 -0.23929902405E+03  0.23929902406E+03  0.25500000920E-02 0. -1.
    10030    2    1    2    0    0  0.00000000000E+00  0.00000000000E+00  0.13720316383E+03  0.61580121194E+03  0.60032193402E+03 0.  0.
        1    1    3    3  502    0 -0.10741108890E+03  0.12941290004E+03  0.32363195223E+03  0.36472247153E+03  0.50400001928E-02 0.  1.
       -1    1    3    3    0  502  0.10741108890E+03 -0.12941290004E+03 -0.18642878840E+03  0.25107874041E+03  0.50400001928E-02 0. -1.
</event>
<event>
 5   0  0.9162342E-03  0.6007312E+03  0.7818609E-02  0.9903890E-01
        2   -1    0    0  501    0  0.00000000000E+00  0.00000000000E+00  0.79070449821E+03  0.79070449821E+03  0.25500000920E-02 0. -1.
       -2   -1    0    0    0  501  0.00000000000E+00  0.00000000000E+00 -0.11410015308E+03  0.11410015311E+03  0.25500000920E-02 0.  1.
    10030    2    1    2    0    0  0.00000000000E+00  0.00000000000E+00  0.67660434512E+03  0.90480465132E+03  0.60073123542E+03 0.  0.
        5    1    3    3  502    0 -0.11060842085E+03  0.27733294633E+03  0.38709909154E+03  0.48889219932E+03  0.46999998093E+01 0. -1.
       -5    1    3    3    0  502  0.11060842085E+03 -0.27733294633E+03  0.28950525358E+03  0.41591245200E+03  0.46999998093E+01 0.  1.
</event>
<event>
 5   0  0.5819446E-03  0.6002861E+03  0.7818609E-02  0.9904813E-01
        1   -1    0    0  501    0  0.00000000000E+00  0.00000000000E+00  0.79788910638E+03  0.79788910639E+03  0.50400001928E-02 0.  1.
       -1   -1    0    0    0  501  0.00000000000E+00  0.00000000000E+00 -0.11290521667E+03  0.11290521679E+03  0.50400001928E-02 0. -1.
    10030    2    1    2    0    0  0.00000000000E+00  0.00000000000E+00  0.68498388970E+03  0.91079432318E+03  0.60028607345E+03 0.  0.
        5    1    3    3  502    0 -0.89679662683E+02  0.19589108154E+03  0.65948094753E+03  0.69379605640E+03  0.46999998093E+01 0.  1.
       -5    1    3    3    0  502  0.89679662683E+02 -0.19589108154E+03  0.25502942172E+02  0.21699826677E+03  0.46999998093E+01 0. -1.
</event>
<event>
 5   0  0.5765045E-03  0.5910378E+03  0.7818609E-02  0.9924176E-01
        1   -1    0    0  501    0  0.00000000000E+00  0.00000000000E+00  0.14926757407E+03  0.14926757416E+03  0.50400001928E-02 0. -1.
       -1   -1    0    0    0  501  0.00000000000E+00  0.00000000000E+00 -0.58506620660E+03  0.58506620662E+03  0.50400001928E-02 0.  1.
    10030    2    1    2    0    0  0.00000000000E+00  0.00000000000E+00 -0.43579863253E+03  0.73433378078E+03  0.59103777669E+03 0.  0.
        1    1    3    3  502    0  0.18842069585E+02  0.29264628022E+03 -0.17251092545E+03  0.34023063992E+03  0.50400001928E-02 0. -1.
       -1    1    3    3    0  502 -0.18842069585E+02 -0.29264628022E+03 -0.26328770708E+03  0.39410314086E+03  0.50400001928E-02 0.  1.
</event>
<event>
 5   0  0.3806250E-03  0.5997870E+03  0.7818609E-02  0.9905848E-01
       -3   -1    0    0    0  501  0.00000000000E+00  0.00000000000E+00  0.49337765545E+03  0.49337766579E+03  0.10100000352E+00 0. -1.
        3   -1    0    0  501    0  0.00000000000E+00  0.00000000000E+00 -0.18228653312E+03  0.18228656111E+03  0.10100000352E+00 0.  1.
    10030    2    1    2    0    0  0.00000000000E+00  0.00000000000E+00  0.31109112233E+03  0.67566422689E+03  0.59978701313E+03 0.  0.
        5    1    3    3  502    0 -0.25238944403E+03  0.11791696107E+02 -0.26358450307E+02  0.25407938416E+03  0.46999998093E+01 0.  1.
       -5    1    3    3    0  502  0.25238944403E+03 -0.11791696107E+02  0.33744957263E+03  0.42158484273E+03  0.46999998093E+01 0. -1.
</event>
<event>
 5   0  0.9303190E-03  0.6004126E+03  0.7818609E-02  0.9904550E-01
       -2   -1    0    0    0  501  0.00000000000E+00  0.00000000000E+00  0.46067552106E+02  0.46067552177E+02  0.25500000920E-02 0. -1.
        2   -1    0    0  501    0  0.00000000000E+00  0.00000000000E+00 -0.19563403543E+04  0.19563403543E+04  0.25500000920E-02 0.  1.
    10030    2    1    2    0    0  0.00000000000E+00  0.00000000000E+00 -0.19102728022E+04  0.20024079065E+04  0.60041256244E+03 0.  0.
        4    1    3    3  502    0  0.87125878762E+02  0.39907135901E+02 -0.19039499849E+04  0.19063605788E+04  0.12699999809E+01 0.  1.
       -4    1    3    3    0  502 -0.87125878762E+02 -0.39907135901E+02 -0.63228172783E+01  0.96047327730E+02  0.12699999809E+01 0. -1.
</event>
<event>
 5   0  0.5891927E-03  0.6152630E+03  0.7818609E-02  0.9874237E-01
       -1   -1    0    0    0  501  0.00000000000E+00  0.00000000000E+00  0.82774990266E+02  0.82774990419E+02  0.50400001928E-02 0.  1.
        1   -1    0    0  501    0  0.00000000000E+00  0.00000000000E+00 -0.11433058635E+04  0.11433058635E+04  0.50400001928E-02 0. -1.
    10030    2    1    2    0    0  0.00000000000E+00  0.00000000000E+00 -0.10605308732E+04  0.12260808539E+04  0.61526297410E+03 0.  0.
        4    1    3    3  502    0  0.90860240000E+02 -0.16319788096E+03 -0.10173609792E+04  0.10343665242E+04  0.12699999809E+01 0. -1.
       -4    1    3    3    0  502 -0.90860240000E+02  0.16319788096E+03 -0.43169894050E+02  0.19171432971E+03  0.12699999809E+01 0.  1.
</event>
<event>
 5   0  0.9303190E-03  0.5999556E+03  0.7818609E-02  0.9905498E-01
       -2   -1    0    0    0  501  0.00000000000E+00  0.00000000000E+00  0.32763915143E+03  0.32763915144E+03  0.25500000920E-02 0.  1.
        2   -1    0    0  501    0  0.00000000000E+00  0.00000000000E+00 -0.27465183450E+03  0.27465183451E+03  0.25500000920E-02 0. -1.
    10030    2    1    2    0    0  0.00000000000E+00  0.00000000000E+00  0.52987316932E+02  0.60229098596E+03  0.59995564504E+03 0.  0.
        4    1    3    3  502    0  0.23264740169E+03  0.41645199192E+02 -0.15895750510E+03  0.28483019056E+03  0.12699999809E+01 0. -1.
       -4    1    3    3    0  502 -0.23264740169E+03 -0.41645199192E+02  0.21194482203E+03  0.31746079540E+03  0.12699999809E+01 0.  1.
</event>
<event>
 5   0  0.9028473E-03  0.6011966E+03  0.7818609E-02  0.9902927E-01
       -2   -1    0    0    0  501  0.00000000000E+00  0.00000000000E+00  0.15430137661E+03  0.15430137664E+03  0.25500000920E-02 0. -1.
        2   -1    0    0  501    0  0.00000000000E+00  0.00000000000E+00 -0.58560286516E+03  0.58560286517E+03  0.25500000920E-02 0.  1.
    10030    2    1    2    0    0  0.00000000000E+00  0.00000000000E+00 -0.43130148855E+03  0.73990424180E+03  0.60119656770E+03 0.  0.
        1    1    3    3  502    0 -0.29297730549E+03  0.49729135249E+01 -0.29819978699E+03  0.41807121928E+03  0.50400001928E-02 0.  1.
       -1    1    3    3    0  502  0.29297730549E+03 -0.49729135249E+01 -0.13310170156E+03  0.32183302252E+03  0.50400001928E-02 0. -1.
</event>
<event>
 5   0  0.9162342E-03  0.5986201E+03  0.7818609E-02  0.9908273E-01
        2   -1    0    0  501    0  0.00000000000E+00  0.00000000000E+00  0.80244285210E+03  0.80244285210E+03  0.25500000920E-02 0.  1.
       -2   -1    0    0    0  501  0.00000000000E+00  0.00000000000E+00 -0.11164222446E+03  0.11164222449E+03  0.25500000920E-02 0. -1.
    10030    2    1    2    0    0  0.00000000000E+00  0.00000000000E+00  0.69080062764E+03  0.91408507659E+03  0.59862009663E+03 0.  0.
        5    1    3    3  502    0 -0.68001514050E+01  0.28478850660E+03  0.48546488872E+03  0.56289340353E+03  0.46999998093E+01 0.  1.
       -5    1    3    3    0  502  0.68001514050E+01 -0.28478850660E+03  0.20533573892E+03  0.35119167306E+03  0.46999998093E+01 0. -1.
</event>
<event>
 5   0  0.5765045E-03  0.5967315E+03  0.7818609E-02  0.9912210E-01
        1   -1    0    0  501    0  0.00000000000E+00  0.00000000000E+00  0.20789460896E+04  0.20789460896E+04  0.50400001928E-02 0. -1.
       -1   -1    0    0    0  501  0.00000000000E+00  0.00000000000E+00 -0.42820792372E+02  0.42820792669E+02  0.50400001928E-02 0.  1.
    10030    2    1    2    0    0  0.00000000000E+00  0.00000000000E+00  0.20361252973E+04  0.21217668823E+04  0.59673149466E+03 0.  0.
        1    1    3    3  502    0 -0.61111755839E+01 -0.22630053387E+03  0.32701414308E+03  0.39772795714E+03  0.50400001928E-02 0.  1.
       -1    1    3    3    0  502  0.61111755839E+01  0.22630053387E+03  0.17091111542E+04  0.17240389252E+04  0.50400001928E-02 0. -1.
</event>
<event>
 5   0  0.5819446E-03  0.5966863E+03  0.7818609E-02  0.9912305E-01
       -1   -1    0    0    0  501  0.00000000000E+00  0.00000000000E+00  0.16541091166E+03  0.16541091174E+03  0.50400001928E-02 0. -1.
        1   -1    0    0  501    0  0.00000000000E+00  0.00000000000E+00 -0.53810620820E+03  0.53810620823E+03  0.50400001928E-02 0.  1.
    10030    2    1    2    0    0  0.00000000000E+00  0.00000000000E+00 -0.37269529654E+03  0.70351711997E+03  0.59668631124E+03 0.  0.
        5    1    3    3  502    0  0.76324174118E+02 -0.22353408302E+03  0.28463251729E+02  0.23796031712E+03  0.46999998093E+01 0. -1.
       -5    1    3    3    0  502 -0.76324174118E+02  0.22353408302E+03 -0.40115854827E+03  0.46555680285E+03  0.46999998093E+01 0.  1.
</event>
<event>
 5   0  0.9303190E-03  0.6004052E+03  0.7818609E-02  0.9904566E-01
       -2   -1    0    0    0  501  0.00000000000E+00  0.00000000000E+00  0.51839134606E+02  0.51839134669E+02  0.25500000920E-02 0.  1.
        2   -1    0    0  501    0  0.00000000000E+00  0.00000000000E+00 -0.17384855828E+04  0.17384855828E+04  0.25500000920E-02 0. -1.
    10030    2    1    2    0    0  0.00000000000E+00  0.00000000000E+00 -0.16866464482E+04  0.17903247174E+04  0.60040515718E+03 0.  0.
        4    1    3    3  502    0 -0.13393913883E+03  0.18294760887E+03 -0.14300035580E+04  0.14478678494E+04  0.12699999809E+01 0. -1.
       -4    1    3    3    0  502  0.13393913883E+03 -0.18294760887E+03 -0.25664289016E+03  0.34245686805E+03  0.12699999809E+01 0.  1.
</event>
<event>
 5   0  0.3806250E-03  0.5983964E+03  0.7818609E-02  0.9908739E-01
        3   -1    0    0  501    0  0.00000000000E+00  0.00000000000E+00  0.21960599817E+03  0.21960602139E+03  0.10100000352E+00 0. -1.
       -3   -1    0    0    0  501  0.00000000000E+00  0.00000000000E+00 -0.40763711816E+03  0.40763713067E+03  0.10100000352E+00 0.  1.
    10030    2    1    2    0    0  0.00000000000E+00  0.00000000000E+00 -0.18803111999E+03  0.62724315207E+03  0.59839641520E+03 0.  0.
        1    1    3    3  502    0  0.72394212039E+02 -0.29022837058E+03 -0.86895590845E+02  0.31148719518E+03  0.50400001928E-02 0.  1.
       -1    1    3    3    0  502 -0.72394212039E+02  0.29022837058E+03 -0.10113552915E+03  0.31575595689E+03  0.50400001928E-02 0. -1.
</event>
<event>
 5   0  0.5891927E-03  0.6003871E+03  0.7818609E-02  0.9904603E-01
        1   -1    0    0  501    0  0.00000000000E+00  0.00000000000E+00  0.84972060057E+03  0.84972060058E+03  0.50400001928E-02 0.  1.
       -1   -1    0    0    0  501  0.00000000000E+00  0.00000000000E+00 -0.10605388092E+03  0.10605388104E+03  0.50400001928E-02 0. -1.
    10030    2    1    2    0    0  0.00000000000E+00  0.00000000000E+00  0.74366671965E+03  0.95577448162E+03  0.60038709996E+03 0.  0.
        4    1    3    3  502    0 -0.15456757316E+02  0.19154666572E+03  0.47025978834E+01  0.19223101681E+03  0.12699999809E+01 0. -1.
       -4    1    3    3    0  502  0.15456757316E+02 -0.19154666572E+03  0.73896412176E+03  0.76354346481E+03  0.12699999809E+01 0.  1.
</event>
<event>
 5   0  0.9303190E-03  0.6003732E+03  0.7818609E-02  0.9904632E-01
       -2   -1    0    0    0  501  0.00000000000E+00  0.00000000000E+00  0.17454703948E+03  0.17454703950E+03  0.25500000920E-02 0. -1.
        2   -1    0    0  501    0  0.00000000000E+00  0.00000000000E+00 -0.51626199672E+03  0.51626199672E+03  0.25500000920E-02 0.  1.
    10030    2    1    2    0    0  0.00000000000E+00  0.00000000000E+00 -0.34171495723E+03  0.69080903622E+03  0.60037322769E+03 0.  0.
        4    1    3    3  502    0 -0.12193318534E+03 -0.25256698794E+03 -0.47720402788E+02  0.28449364637E+03  0.12699999809E+01 0. -1.
       -4    1    3    3    0  502  0.12193318534E+03  0.25256698794E+03 -0.29399455445E+03  0.40631538985E+03  0.12699999809E+01 0.  1.
</event>
<event>
 5   0  0.3806250E-03  0.5999394E+03  0.7818609E-02  0.9905532E-01
        4   -1    0    0  501    0  0.00000000000E+00  0.00000000000E+00  0.85862337595E+03  0.85862431518E+03  0.12699999809E+01 0. -1.
       -4   -1    0    0    0  501  0.00000000000E+00  0.00000000000E+00 -0.10479294507E+03  0.10480064043E+03  0.12699999809E+01 0.  1.
    10030    2    1    2    0    0  0.00000000000E+00  0.00000000000E+00  0.75383043088E+03  0.96342495562E+03  0.59993943576E+03 0.  0.
        1    1    3    3  502    0 -0.27859014447E+02 -0.11416402556E+03  0.82012461796E+03  0.82850101896E+03  0.50400001928E-02 0. -1.
       -1    1    3    3    0  502  0.27859014447E+02  0.11416402556E+03 -0.66294187072E+02  0.13492393666E+03  0.50400001928E-02 0.  1.
</event>
<event>
 5   0  0.9028473E-03  0.6009121E+03  0.7818609E-02  0.9903516E-01
       -2   -1    0    0    0  501  0.00000000000E+00  0.00000000000E+00  0.12347933550E+03  0.12347933552E+03  0.25500000920E-02 0.  1.
        2   -1    0    0  501    0  0.00000000000E+00  0.00000000000E+00 -0.73108459604E+03  0.73108459604E+03  0.25500000920E-02 0. -1.
    10030    2    1    2    0    0  0.00000000000E+00  0.00000000000E+00 -0.60760526054E+03  0.85456393156E+03  0.60091210713E+03 0.  0.
        1    1    3    3  502    0 -0.10036055709E+03 -0.15514448858E+03 -0.64073135345E+03  0.66684235099E+03  0.50400001928E-02 0. -1.
       -1    1    3    3    0  502  0.10036055709E+03  0.15514448858E+03  0.33126092904E+02  0.18772158058E+03  0.50400001928E-02 0.  1.
</event>
<event>
 5   0  0.5765045E-03  0.6000210E+03  0.7818609E-02  0.9905363E-01
        1   -1    0    0  501    0  0.00000000000E+00  0.00000000000E+00  0.10504139388E+04  0.10504139388E+04  0.50400001928E-02 0.  1.
       -1   -1    0    0    0  501  0.00000000000E+00  0.00000000000E+00 -0.85686494411E+02  0.85686494559E+02  0.50400001928E-02 0. -1.
    10030    2    1    2    0    0  0.00000000000E+00  0.00000000000E+00  0.96472744440E+03  0.11361004334E+04  0.60002096026E+03 0.  0.
        1    1    3    3  502    0 -0.14974266217E+03  0.25279343542E+03  0.36751942591E+03  0.47052939792E+03  0.50400001928E-02 0. -1.
       -1    1    3    3    0  502  0.14974266217E+03 -0.25279343542E+03  0.59720801850E+03  0.66557103547E+03  0.50400001928E-02 0.  1.
</event>
<event>
 5   0  0.5891927E-03  0.6016972E+03  0.7818609E-02  0.9901891E-01
        1   -1    0    0  501    0  0.00000000000E+00  0.00000000000E+00  0.32121316649E+03  0.32121316653E+03  0.50400001928E-02 0.  1.
       -1   -1    0    0    0  501  0.00000000000E+00  0.00000000000E+00 -0.28177510132E+03  0.28177510136E+03  0.50400001928E-02 0. -1.
    10030    2    1    2    0    0  0.00000000000E+00  0.00000000000E+00  0.39438065173E+02  0.60298826789E+03  0.60169717485E+03 0.  0.
        4    1    3    3  502    0  0.88448750633E+02  0.28726570751E+03  0.69052183695E+01  0.30065605455E+03  0.12699999809E+01 0.  1.
       -4    1    3    3    0  502 -0.88448750633E+02 -0.28726570751E+03  0.32532846804E+02  0.30233221334E+03  0.12699999809E+01 0. -1.
</event>
<event>
 5   0  0.5790967E-03  0.5995346E+03  0.7818609E-02  0.9906372E-01
        1   -1    0    0  501    0  0.00000000000E+00  0.00000000000E+00  0.67155911649E+03  0.67155911651E+03  0.50400001928E-02 0. -1.
       -1   -1    0    0    0  501  0.00000000000E+00  0.00000000000E+00 -0.13380866029E+03  0.13380866039E+03  0.50400001928E-02 0.  1.
    10030    2    1    2    0    0  0.00000000000E+00  0.00000000000E+00  0.53775045620E+03  0.80536777689E+03  0.59953457191E+03 0.  0.
        3    1    3    3  502    0  0.20452736999E+03 -0.73545436134E+02 -0.84484429756E+01  0.21751267237E+03  0.10100000352E+00 0.  1.
       -3    1    3    3    0  502 -0.20452736999E+03  0.73545436134E+02  0.54619889917E+03  0.58785510452E+03  0.10100000352E+00 0. -1.
</event>
<event>
 5   0  0.9822607E-03  0.5993034E+03  0.7818609E-02  0.9906852E-01
        2   -1    0    0  501    0  0.00000000000E+00  0.00000000000E+00  0.52301089933E+03  0.52301089934E+03  0.25500000920E-02 0. -1.
       -2   -1    0    0    0  501  0.00000000000E+00  0.00000000000E+00 -0.17168121550E+03  0.17168121552E+03  0.25500000920E-02 0.  1.
    10030    2    1    2    0    0  0.00000000000E+00  0.00000000000E+00  0.35132968383E+03  0.69469211486E+03  0.59930341874E+03 0.  0.
        3    1    3    3  502    0 -0.41600988053E+02 -0.98510139580E+01 -0.16812793390E+03  0.17347823218E+03  0.10100000352E+00 0.  1.
       -3    1    3    3    0  502  0.41600988053E+02  0.98510139580E+01  0.51945761773E+03  0.52121388268E+03  0.10100000352E+00 0. -1.
</event>
<event>
 5   0  0.9391405E-03  0.6002718E+03  0.7818609E-02  0.9904842E-01
        2   -1    0    0  501    0  0.00000000000E+00  0.00000000000E+00  0.58262626249E+03  0.58262626250E+03  0.25500000920E-02 0. -1.
       -2   -1    0    0    0  501  0.00000000000E+00  0.00000000000E+00 -0.15461292350E+03  0.15461292352E+03  0.25500000920E-02 0.  1.
    10030    2    1    2    0    0  0.00000000000E+00  0.00000000000E+00  0.42801333900E+03  0.73723918601E+03  0.60027177098E+03 0.  0.
        2    1    3    3  502    0 -0.58545728783E+02 -0.26639142706E+03  0.36784544111E+03  0.45793259692E+03  0.25500000920E-02 0. -1.
       -2    1    3    3    0  502  0.58545728783E+02  0.26639142706E+03  0.60167897889E+02  0.27930658910E+03  0.25500000920E-02 0.  1.
</event>
<event>
 5   0  0.6078658E-03  0.6005349E+03  0.7818609E-02  0.9904297E-01
        1   -1    0    0  501    0  0.00000000000E+00  0.00000000000E+00  0.18576365044E+03  0.18576365051E+03  0.50400001928E-02 0.  1.
       -1   -1    0    0    0  501  0.00000000000E+00  0.00000000000E+00 -0.48535088208E+03  0.48535088211E+03  0.50400001928E-02 0. -1.
    10030    2    1    2    0    0  0.00000000000E+00  0.00000000000E+00 -0.29958723164E+03  0.67111453262E+03  0.60053493365E+03 0.  0.
        2    1    3    3  502    0  0.14885130747E+03  0.25597773673E+03 -0.94149724450E+02  0.31071769190E+03  0.25500000920E-02 0.  1.
       -2    1    3    3    0  502 -0.14885130747E+03 -0.25597773673E+03 -0.20543750719E+03  0.36039684072E+03  0.25500000920E-02 0. -1.
</event>
<event>
 5   0  0.9028473E-03  0.5996518E+03  0.7818609E-02  0.9906129E-01
        2   -1    0    0  501    0  0.00000000000E+00  0.00000000000E+00  0.12409478694E+04  0.12409478694E+04  0.25500000920E-02 0. -1.
       -2   -1    0    0    0  501  0.00000000000E+00  0.00000000000E+00 -0.72441047418E+02  0.72441047463E+02  0.25500000920E-02 0.  1.
    10030    2    1    2    0    0  0.00000000000E+00  0.00000000000E+00  0.11685068220E+04  0.13133889168E+04  0.59965177722E+03 0.  0.
        1    1    3    3  502    0  0.16696803961E+03 -0.22729731488E+03  0.80711275584E+03  0.85496982185E+03  0.50400001928E-02 0. -1.
       -1    1    3    3    0  502 -0.16696803961E+03  0.22729731488E+03  0.36139406611E+03  0.45841909499E+03  0.50400001928E-02 0.  1.
</event>
<event>
 5   0  0.9162342E-03  0.5978033E+03  0.7818609E-02  0.9909974E-01
       -2   -1    0    0    0  501  0.00000000000E+00  0.00000000000E+00  0.22197519965E+03  0.22197519967E+03  0.25500000920E-02 0.  1.
        2   -1    0    0  501    0  0.00000000000E+00  0.00000000000E+00 -0.40248732829E+03  0.40248732830E+03  0.25500000920E-02 0. -1.
    10030    2    1    2    0    0  0.00000000000E+00  0.00000000000E+00 -0.18051212864E+03  0.62446252796E+03  0.59780332907E+03 0.  0.
        5    1    3    3  502    0 -0.14089347054E+03  0.23474217937E+02  0.18397378235E+03  0.23296019303E+03  0.46999998093E+01 0.  1.
       -5    1    3    3    0  502  0.14089347054E+03 -0.23474217937E+02 -0.36448591099E+03  0.39150233493E+03  0.46999998093E+01 0. -1.
</event>
<event>
 5   0  0.5891927E-03  0.6005248E+03  0.7818609E-02  0.9904318E-01
        1   -1    0    0  501    0  0.00000000000E+00  0.00000000000E+00  0.24595853728E+03  0.24595853733E+03  0.50400001928E-02 0. -1.
       -1   -1    0    0    0  501  0.00000000000E+00  0.00000000000E+00 -0.36655571558E+03  0.36655571562E+03  0.50400001928E-02 0.  1.
    10030    2    1    2    0    0  0.00000000000E+00  0.00000000000E+00 -0.12059717830E+03  0.61251425295E+03  0.60052479603E+03 0.  0.
        4    1    3    3  502    0  0.16638504328E+03  0.23657197667E+03  0.21969106588E+02  0.29005954099E+03  0.12699999809E+01 0. -1.
       -4    1    3    3    0  502 -0.16638504328E+03 -0.23657197667E+03 -0.14256628489E+03  0.32245471196E+03  0.12699999809E+01 0.  1.
</event>
<event>
 5   0  0.9028473E-03  0.6036738E+03  0.7818609E-02  0.9897813E-01
        2   -1    0    0  501    0  0.00000000000E+00  0.00000000000E+00  0.45221981979E+03  0.45221981980E+03  0.25500000920E-02 0. -1.
       -2   -1    0    0    0  501  0.00000000000E+00  0.00000000000E+00 -0.20146288686E+03  0.20146288688E+03  0.25500000920E-02 0.  1.
    10030    2    1    2    0    0  0.00000000000E+00  0.00000000000E+00  0.25075693293E+03  0.65368270667E+03  0.60367378740E+03 0.  0.
        1    1    3    3  502    0 -0.20760569165E+03 -0.15079586800E+03 -0.46742139427E+02  0.26081477074E+03  0.50400001928E-02 0.  1.
       -1    1    3    3    0  502  0.20760569165E+03  0.15079586800E+03  0.29749907235E+03  0.39286793594E+03  0.50400001928E-02 0. -1.
</event>
<event>
 5   0  0.5765045E-03  0.5995343E+03  0.7818609E-02  0.9906373E-01
        1   -1    0    0  501    0  0.00000000000E+00  0.00000000000E+00  0.64533972421E+03  0.64533972423E+03  0.50400001928E-02 0. -1.
       -1   -1    0    0    0  501  0.00000000000E+00  0.00000000000E+00 -0.13924500702E+03  0.13924500711E+03  0.50400001928E-02 0.  1.
    10030    2    1    2    0    0  0.00000000000E+00  0.00000000000E+00  0.50609471719E+03  0.78458473134E+03  0.59953426748E+03 0.  0.
        1    1    3    3  502    0 -0.28240122052E+03  0.85831157405E+02  0.18450948418E+03  0.34808215512E+03  0.50400001928E-02 0.  1.
       -1    1    3    3    0  502  0.28240122052E+03 -0.85831157405E+02  0.32158523301E+03  0.43650257622E+03  0.50400001928E-02 0. -1.
</event>
<event>
 5   0  0.9028473E-03  0.5995758E+03  0.7818609E-02  0.9906287E-01
        2   -1    0    0  501    0  0.00000000000E+00  0.00000000000E+00  0.24754574809E+03  0.24754574810E+03  0.25500000920E-02 0. -1.
       -2   -1    0    0    0  501  0.00000000000E+00  0.00000000000E+00 -0.36305523731E+03  0.36305523732E+03  0.25500000920E-02 0.  1.
    10030    2    1    2    0    0  0.00000000000E+00  0.00000000000E+00 -0.11550948922E+03  0.61060098542E+03  0.59957578445E+03 0.  0.
        1    1    3    3  502    0  0.18594218232E+03  0.16772744884E+03  0.11009650175E+03  0.27354749494E+03  0.50400001928E-02 0. -1.
       -1    1    3    3    0  502 -0.18594218232E+03 -0.16772744884E+03 -0.22560599097E+03  0.33705349049E+03  0.50400001928E-02 0.  1.
</event>
<event>
 5   0  0.6078658E-03  0.5995802E+03  0.7818609E-02  0.9906277E-01
        1   -1    0    0  501    0  0.00000000000E+00  0.00000000000E+00  0.19881551415E+04  0.19881551415E+04  0.50400001928E-02 0.  1.
       -1   -1    0    0    0  501  0.00000000000E+00  0.00000000000E+00 -0.45204768916E+02  0.45204769197E+02  0.50400001928E-02 0. -1.
    10030    2    1    2    0    0  0.00000000000E+00  0.00000000000E+00  0.19429503726E+04  0.20333599107E+04  0.59958016655E+03 0.  0.
        2    1    3    3  502    0 -0.26254355389E+03  0.11313593849E+03  0.66540655034E+03  0.72422008776E+03  0.25500000920E-02 0. -1.
       -2    1    3    3    0  502  0.26254355389E+03 -0.11313593849E+03  0.12775438222E+04  0.13091398229E+04  0.25500000920E-02 0.  1.
</event>
<event>
 5   0  0.9391405E-03  0.5914401E+03  0.7818609E-02  0.9923326E-01
        2   -1    0    0  501    0  0.00000000000E+00  0.00000000000E+00  0.19381575357E+04  0.19381575357E+04  0.25500000920E-02 0.  1.
       -2   -1    0    0    0  501  0.00000000000E+00  0.00000000000E+00 -0.45120348369E+02  0.45120348441E+02  0.25500000920E-02 0. -1.
    10030    2    1    2    0    0  0.00000000000E+00  0.00000000000E+00  0.18930371873E+04  0.19832778841E+04  0.59144008413E+03 0.  0.
        2    1    3    3  502    0 -0.11261632715E+03 -0.25675398101E+03  0.63114227307E+03  0.69061249103E+03  0.25500000920E-02 0. -1.
       -2    1    3    3    0  502  0.11261632715E+03  0.25675398101E+03  0.12618949142E+04  0.12926653931E+04  0.25500000920E-02 0.  1.
</event>
<event>
 5   0  0.9391405E-03  0.6007147E+03  0.7818609E-02  0.9903924E-01
        2   -1    0    0  501    0  0.00000000000E+00  0.00000000000E+00  0.40705995453E+03  0.40705995454E+03  0.25500000920E-02 0. -1.
       -2   -1    0    0    0  501  0.00000000000E+00  0.00000000000E+00 -0.22162473024E+03  0.22162473026E+03  0.25500000920E-02 0.  1.
    10030    2    1    2    0    0  0.00000000000E+00  0.00000000000E+00  0.18543522429E+03  0.62868468480E+03  0.60071474969E+03 0.  0.
        2    1    3    3  502    0 -0.17894997071E+03  0.24101388848E+03  0.82056746840E+02  0.31119784088E+03  0.25500000920E-02 0. -1.
       -2    1    3    3    0  502  0.17894997071E+03 -0.24101388848E+03  0.10337847745E+03  0.31748684392E+03  0.25500000920E-02 0.  1.
</event>
<event>
 5   0  0.5891927E-03  0.6003099E+03  0.7818609E-02  0.9904763E-01
       -1   -1    0    0    0  501  0.00000000000E+00  0.00000000000E+00  0.13730888249E+03  0.13730888258E+03  0.50400001928E-02 0. -1.
        1   -1    0    0  501    0  0.00000000000E+00  0.00000000000E+00 -0.65613373504E+03  0.65613373506E+03  0.50400001928E-02 0.  1.
    10030    2    1    2    0    0  0.00000000000E+00  0.00000000000E+00 -0.51882485255E+03  0.79344261764E+03  0.60030988653E+03 0.  0.
        4    1    3    3  502    0  0.56561995668E+02  0.20290456647E+03  0.23206958786E+02  0.21191908428E+03  0.12699999809E+01 0. -1.
       -4    1    3    3    0  502 -0.56561995668E+02 -0.20290456647E+03 -0.54203181134E+03  0.58152353336E+03  0.12699999809E+01 0.  1.
</event>
<event>
 5   0  0.5819446E-03  0.6038370E+03  0.7818609E-02  0.9897477E-01
        1   -1    0    0  501    0  0.00000000000E+00  0.00000000000E+00  0.48712044023E+03  0.48712044026E+03  0.50400001928E-02 0. -1.
       -1   -1    0    0    0  501  0.00000000000E+00  0.00000000000E+00 -0.18712983480E+03  0.18712983487E+03  0.50400001928E-02 0.  1.
    10030    2    1    2    0    0  0.00000000000E+00  0.00000000000E+00  0.29999060543E+03  0.67425027513E+03  0.60383695661E+03 0.  0.
        5    1    3    3  502    0  0.28959556851E+03 -0.77345905356E+02  0.10997305392E+03  0.31931825028E+03  0.46999998093E+01 0. -1.
       -5    1    3    3    0  502 -0.28959556851E+03  0.77345905356E+02  0.19001755151E+03  0.35493202484E+03  0.46999998093E+01 0.  1.
</event>
<event>
 5   0  0.3806250E-03  0.6015719E+03  0.7818609E-02  0.9902150E-01
       -4   -1    0    0    0  501  0.00000000000E+00  0.00000000000E+00  0.17734361922E+03  0.17734816655E+03  0.12699999809E+01 0.  1.
        4   -1    0    0  501    0  0.00000000000E+00  0.00000000000E+00 -0.51014007639E+03  0.51014165723E+03  0.12699999809E+01 0. -1.
    10030    2    1    2    0    0  0.00000000000E+00  0.00000000000E+00 -0.33279645717E+03  0.68748982378E+03  0.60157192080E+03 0.  0.
        4    1    3    3  502    0  0.13864848193E+03 -0.26044563228E+02  0.13719023832E+03  0.19678540394E+03  0.12699999809E+01 0.  1.
       -4    1    3    3    0  502 -0.13864848193E+03  0.26044563228E+02 -0.46998669549E+03  0.49070441984E+03  0.12699999809E+01 0. -1.
</event>
<event>
 5   0  0.9822607E-03  0.6017167E+03  0.7818609E-02  0.9901851E-01
        2   -1    0    0  501    0  0.00000000000E+00  0.00000000000E+00  0.12265009580E+04  0.12265009580E+04  0.25500000920E-02 0. -1.
       -2   -1    0    0    0  501  0.00000000000E+00  0.00000000000E+00 -0.73799991854E+02  0.73799991898E+02  0.25500000920E-02 0.  1.
    10030    2    1    2    0    0  0.00000000000E+00  0.00000000000E+00  0.11527009662E+04  0.13003009499E+04  0.60171674646E+03 0.  0.
        3    1    3    3  502    0 -0.29470217978E+03 -0.11646251785E+01  0.70717523547E+03  0.76612502569E+03  0.10100000352E+00 0. -1.
       -3    1    3    3    0  502  0.29470217978E+03  0.11646251785E+01  0.44552573072E+03  0.53417592426E+03  0.10100000352E+00 0.  1.
</event>
<event>
 5   0  0.3806250E-03  0.6010623E+03  0.7818609E-02  0.9903205E-01
        4   -1    0    0  501    0  0.00000000000E+00  0.00000000000E+00  0.51267415040E+03  0.51267572342E+03  0.12699999809E+01 0. -1.
       -4   -1    0    0    0  501  0.00000000000E+00  0.00000000000E+00 -0.17616815329E+03  0.17617273096E+03  0.12699999809E+01 0.  1.
    10030    2    1    2    0    0  0.00000000000E+00  0.00000000000E+00  0.33650599711E+03  0.68884845438E+03  0.60106231541E+03 0.  0.
        1    1    3    3  502    0 -0.28927908886E+03 -0.74813482501E+02  0.20520367122E+03  0.36247481999E+03  0.50400001928E-02 0.  1.
       -1    1    3    3    0  502  0.28927908886E+03  0.74813482501E+02  0.13130232588E+03  0.32637363439E+03  0.50400001928E-02 0. -1.
</event>
<event>
 5   0  0.5765045E-03  0.5994874E+03  0.7818609E-02  0.9906470E-01
        1   -1    0    0  501    0  0.00000000000E+00  0.00000000000E+00  0.25009867829E+03  0.25009867834E+03  0.50400001928E-02 0. -1.
       -1   -1    0    0    0  501  0.00000000000E+00  0.00000000000E+00 -0.35924332705E+03  0.35924332709E+03  0.50400001928E-02 0.  1.
    10030    2    1    2    0    0  0.00000000000E+00  0.00000000000E+00 -0.10914464877E+03  0.60934200542E+03  0.59948738537E+03 0.  0.
        1    1    3    3  502    0 -0.17395642522E+03 -0.47090870002E+02 -0.29802554252E+03  0.34827806697E+03  0.50400001928E-02 0.  1.
       -1    1    3    3    0  502  0.17395642522E+03  0.47090870002E+02  0.18888089375E+03  0.26106393846E+03  0.50400001928E-02 0. -1.
</event>
<event>
 5   0  0.9028473E-03  0.5988063E+03  0.7818609E-02  0.9907886E-01
        2   -1    0    0  501    0  0.00000000000E+00  0.00000000000E+00  0.72392618297E+03  0.72392618297E+03  0.25500000920E-02 0.  1.
       -2   -1    0    0    0  501  0.00000000000E+00  0.00000000000E+00 -0.12382790178E+03  0.12382790180E+03  0.25500000920E-02 0. -1.
    10030    2    1    2    0    0  0.00000000000E+00  0.00000000000E+00  0.60009828119E+03  0.84775408478E+03  0.59880634697E+03 0.  0.
        1    1    3    3  502    0  0.11852551935E+03  0.14331874375E+02 -0.88670260476E+02  0.14871488318E+03  0.50400001928E-02 0. -1.
       -1    1    3    3    0  502 -0.11852551935E+03 -0.14331874375E+02  0.68876854167E+03  0.69903920160E+03  0.50400001928E-02 0.  1.
</event>
<event>
 5   0  0.5819446E-03  0.6001957E+03  0.7818609E-02  0.9905000E-01
        1   -1    0    0  501    0  0.00000000000E+00  0.00000000000E+00  0.36727035823E+03  0.36727035827E+03  0.50400001928E-02 0.  1.
       -1   -1    0    0    0  501  0.00000000000E+00  0.00000000000E+00 -0.24521097568E+03  0.24521097573E+03  0.50400001928E-02 0. -1.
    10030    2    1    2    0    0  0.00000000000E+00  0.00000000000E+00  0.12205938256E+03  0.61248133399E+03  0.60019571110E+03 0.  0.
        5    1    3    3  502    0 -0.21000755367E+03  0.91357186991E+02 -0.13681330367E+03  0.26681318984E+03  0.46999998093E+01 0. -1.
       -5    1    3    3    0  502  0.21000755367E+03 -0.91357186991E+02  0.25887268622E+03  0.34566814416E+03  0.46999998093E+01 0.  1.
</event>
<event>
 5   0  0.5819446E-03  0.6006995E+03  0.7818609E-02  0.9903956E-01
        1   -1    0    0  501    0  0.00000000000E+00  0.00000000000E+00  0.49891451958E+03  0.49891451960E+03  0.50400001928E-02 0.  1.
       -1   -1    0    0    0  501  0.00000000000E+00  0.00000000000E+00 -0.18081246755E+03  0.18081246762E+03  0.50400001928E-02 0. -1.
    10030    2    1    2    0    0  0.00000000000E+00  0.00000000000E+00  0.31810205203E+03  0.67972698722E+03  0.60069947698E+03 0.  0.
        5    1    3    3  502    0  0.96432509637E+02  0.20851562772E+03  0.37791305137E+03  0.44228764431E+03  0.46999998093E+01 0.  1.
       -5    1    3    3    0  502 -0.96432509637E+02 -0.20851562772E+03 -0.59810999339E+02  0.23743934291E+03  0.46999998093E+01 0. -1.
</event>
<event>
 5   0  0.9391405E-03  0.5978980E+03  0.7818609E-02  0.9909777E-01
       -2   -1    0    0    0  501  0.00000000000E+00  0.00000000000E+00  0.62048483621E+02  0.62048483673E+02  0.25500000920E-02 0. -1.
        2   -1    0    0  501    0  0.00000000000E+00  0.00000000000E+00 -0.14403334300E+04  0.14403334300E+04  0.25500000920E-02 0.  1.
    10030    2    1    2    0    0  0.00000000000E+00  0.00000000000E+00 -0.13782849464E+04  0.15023819137E+04  0.59789800227E+03 0.  0.
        2    1    3    3  502    0  0.18215859507E+03 -0.17316335543E+02 -0.95102034702E+02  0.20621834604E+03  0.25500000920E-02 0. -1.
       -2    1    3    3    0  502 -0.18215859507E+03  0.17316335543E+02 -0.12831829117E+04  0.12961635676E+04  0.25500000920E-02 0.  1.
</event>
<event>
 5   0  0.9391405E-03  0.6011451E+03  0.7818609E-02  0.9903033E-01
        2   -1    0    0  501    0  0.00000000000E+00  0.00000000000E+00  0.11438110653E+04  0.11438110653E+04  0.25500000920E-02 0. -1.
       -2   -1    0    0    0  501  0.00000000000E+00  0.00000000000E+00 -0.78984945054E+02  0.78984945095E+02  0.25500000920E-02 0.  1.
    10030    2    1    2    0    0  0.00000000000E+00  0.00000000000E+00  0.10648261202E+04  0.12227960104E+04  0.60114508788E+03 0.  0.
        2    1    3    3  502    0 -0.26045745128E+03 -0.14888351491E+03  0.56989093127E+03  0.64403420599E+03  0.25500000920E-02 0.  1.
       -2    1    3    3    0  502  0.26045745128E+03  0.14888351491E+03  0.49493518897E+03  0.57876180440E+03  0.25500000920E-02 0. -1.
</event>
<event>
 5   0  0.5765045E-03  0.6029937E+03  0.7818609E-02  0.9899215E-01
       -1   -1    0    0    0  501  0.00000000000E+00  0.00000000000E+00  0.70896881307E+02  0.70896881486E+02  0.50400001928E-02 0. -1.
        1   -1    0    0  501    0  0.00000000000E+00  0.00000000000E+00 -0.12821486559E+04  0.12821486559E+04  0.50400001928E-02 0.  1.
    10030    2    1    2    0    0  0.00000000000E+00  0.00000000000E+00 -0.12112517746E+04  0.13530455374E+04  0.60299366896E+03 0.  0.
        1    1    3    3  502    0  0.17665888950E+03  0.14618941675E+03 -0.10448801598E+04  0.10697449496E+04  0.50400001928E-02 0.  1.
       -1    1    3    3    0  502 -0.17665888950E+03 -0.14618941675E+03 -0.16637161476E+03  0.28330058777E+03  0.50400001928E-02 0. -1.
</event>
<event>
 5   0  0.9162342E-03  0.6006966E+03  0.7818609E-02  0.9903962E-01
       -2   -1    0    0    0  501  0.00000000000E+00  0.00000000000E+00  0.12892445259E+03  0.12892445261E+03  0.25500000920E-02 0.  1.
        2   -1    0    0  501    0  0.00000000000E+00  0.00000000000E+00 -0.69970507915E+03  0.69970507916E+03  0.25500000920E-02 0. -1.
    10030    2    1    2    0    0  0.00000000000E+00  0.00000000000E+00 -0.57078062657E+03  0.82862953177E+03  0.60069657670E+03 0.  0.
        5    1    3    3  502    0 -0.20349366130E+03  0.11003992011E+02  0.18890487667E+02  0.20471858380E+03  0.46999998093E+01 0.  1.
       -5    1    3    3    0  502  0.20349366130E+03 -0.11003992011E+02 -0.58967111424E+03  0.62391094797E+03  0.46999998093E+01 0. -1.
</event>
<event>
 5   0  0.5891927E-03  0.5984532E+03  0.7818609E-02  0.9908620E-01
        1   -1    0    0  501    0  0.00000000000E+00  0.00000000000E+00  0.61504735994E+03  0.61504735996E+03  0.50400001928E-02 0. -1.
       -1   -1    0    0    0  501  0.00000000000E+00  0.00000000000E+00 -0.14557667004E+03  0.14557667013E+03  0.50400001928E-02 0.  1.
    10030    2    1    2    0    0  0.00000000000E+00  0.00000000000E+00  0.46947068990E+03  0.76062403009E+03  0.59845316148E+03 0.  0.
        4    1    3    3  502    0  0.27266875211E+03 -0.63564193168E+02  0.36892060894E+03  0.46313354838E+03  0.12699999809E+01 0.  1.
       -4    1    3    3    0  502 -0.27266875211E+03  0.63564193168E+02  0.10055008096E+03  0.29749048172E+03  0.12699999809E+01 0. -1.
</event>
<event>
 5   0  0.9391405E-03  0.6000384E+03  0.7818609E-02  0.9905326E-01
       -2   -1    0    0    0  501  0.00000000000E+00  0.00000000000E+00  0.37525788078E+03  0.37525788079E+03  0.25500000920E-02 0.  1.
        2   -1    0    0  501    0  0.00000000000E+00  0.00000000000E+00 -0.23986580875E+03  0.23986580876E+03  0.25500000920E-02 0. -1.
    10030    2    1    2    0    0  0.00000000000E+00  0.00000000000E+00  0.13539207203E+03  0.61512368955E+03  0.60003844900E+03 0.  0.
        2    1    3    3  502    0  0.17800542317E+03  0.30392356032E+01  0.31525497053E+03  0.36205091366E+03  0.25500000920E-02 0.  1.
       -2    1    3    3    0  502 -0.17800542317E+03 -0.30392356032E+01 -0.17986289850E+03  0.25307277589E+03  0.25500000920E-02 0. -1.
</event>
<event>
 5   0  0.5790967E-03  0.5998318E+03  0.7818609E-02  0.9905755E-01
       -1   -1    0    0    0  501  0.00000000000E+00  0.00000000000E+00  0.12099365402E+03  0.12099365412E+03  0.50400001928E-02 0. -1.
        1   -1    0    0  501    0  0.00000000000E+00  0.00000000000E+00 -0.74342368254E+03  0.74342368256E+03  0.50400001928E-02 0.  1.
    10030    2    1    2    0    0  0.00000000000E+00  0.00000000000E+00 -0.62243002852E+03  0.86441733668E+03  0.59983180272E+03 0.  0.
        3    1    3    3  502    0 -0.52713600861E+02 -0.28024635496E+03 -0.44511165518E+03  0.52862192440E+03  0.10100000352E+00 0.  1.
       -3    1    3    3    0  502  0.52713600861E+02  0.28024635496E+03 -0.17731837334E+03  0.33579541228E+03  0.10100000352E+00 0. -1.
</event>
<event>
 5   0  0.5819446E-03  0.5994041E+03  0.7818609E-02  0.9906643E-01
        1   -1    0    0  501    0  0.00000000000E+00  0.00000000000E+00  0.83749837922E+03  0.83749837924E+03  0.50400001928E-02 0. -1.
       -1   -1    0    0    0  501  0.00000000000E+00  0.00000000000E+00 -0.10724952716E+03  0.10724952728E+03  0.50400001928E-02 0.  1.
    10030    2    1    2    0    0  0.00000000000E+00  0.00000000000E+00  0.73024885206E+03  0.94474790652E+03  0.59940405482E+03 0.  0.
        5    1    3    3  502    0  0.21911145809E+02 -0.29848413387E+03  0.34141201453E+03  0.45404529525E+03  0.46999998093E+01 0. -1.
       -5    1    3    3    0  502 -0.21911145809E+02  0.29848413387E+03  0.38883683753E+03  0.49070261126E+03  0.46999998093E+01 0.  1.
</event>
<event>
 5   0  0.3806250E-03  0.5992056E+03  0.7818609E-02  0.9907056E-01
       -4   -1    0    0    0  501  0.00000000000E+00  0.00000000000E+00  0.40705007593E+03  0.40705205713E+03  0.12699999809E+01 0.  1.
        4   -1    0    0  501    0  0.00000000000E+00  0.00000000000E+00 -0.22051359242E+03  0.22051724954E+03  0.12699999809E+01 0. -1.
    10030    2    1    2    0    0  0.00000000000E+00  0.00000000000E+00  0.18653648351E+03  0.62756930666E+03  0.59920561996E+03 0.  0.
        1    1    3    3  502    0 -0.21531684529E+03 -0.14235866166E+03  0.25256831732E+03  0.36113444498E+03  0.50400001928E-02 0.  1.
       -1    1    3    3    0  502  0.21531684529E+03  0.14235866166E+03 -0.66031833813E+02  0.26643486168E+03  0.50400001928E-02 0. -1.
</event>
<event>
 5   0  0.5819446E-03  0.6007497E+03  0.7818609E-02  0.9903852E-01
       -1   -1    0    0    0  501  0.00000000000E+00  0.00000000000E+00  0.41299182393E+03  0.41299182396E+03  0.50400001928E-02 0. -1.
        1   -1    0    0  501    0  0.00000000000E+00  0.00000000000E+00 -0.21846693945E+03  0.21846693950E+03  0.50400001928E-02 0.  1.
    10030    2    1    2    0    0  0.00000000000E+00  0.00000000000E+00  0.19452488449E+03  0.63145876347E+03  0.60074973098E+03 0.  0.
        5    1    3    3  502    0  0.96817755721E+02 -0.28266339102E+03  0.65195605465E+02  0.30585098891E+03  0.46999998093E+01 0.  1.
       -5    1    3    3    0  502 -0.96817755721E+02  0.28266339102E+03  0.12932927902E+03  0.32560777456E+03  0.46999998093E+01 0. -1.
</event>
<event>
 5   0  0.9391405E-03  0.5991029E+03  0.7818609E-02  0.9907269E-01
       -2   -1    0    0    0  501  0.00000000000E+00  0.00000000000E+00  0.98509963654E+02  0.98509963687E+02  0.25500000920E-02 0.  1.
        2   -1    0    0  501    0  0.00000000000E+00  0.00000000000E+00 -0.91088307686E+03  0.91088307686E+03  0.25500000920E-02 0. -1.
    10030    2    1    2    0    0  0.00000000000E+00  0.00000000000E+00 -0.81237311321E+03  0.10093930406E+04  0.59910285866E+03 0.  0.
        2    1    3    3  502    0 -0.10040731238E+03 -0.15251694376E+02 -0.88099141098E+03  0.88682586160E+03  0.25500000920E-02 0. -1.
       -2    1    3    3    0  502  0.10040731238E+03  0.15251694376E+02  0.68618297777E+02  0.12256717896E+03  0.25500000920E-02 0.  1.
</event>
<event>
 5   0  0.9391405E-03  0.6003145E+03  0.7818609E-02  0.9904754E-01
        2   -1    0    0  501    0  0.00000000000E+00  0.00000000000E+00  0.55273418642E+03  0.55273418643E+03  0.25500000920E-02 0. -1.
       -2   -1    0    0    0  501  0.00000000000E+00  0.00000000000E+00 -0.16299765845E+03  0.16299765847E+03  0.25500000920E-02 0.  1.
    10030    2    1    2    0    0  0.00000000000E+00  0.00000000000E+00  0.38973652798E+03  0.71573184490E+03  0.60031451137E+03 0.  0.
        2    1    3    3  502    0  0.16565048571E+03  0.12895142079E+03 -0.60915099310E+02  0.21858454125E+03  0.25500000920E-02 0.  1.
       -2    1    3    3    0  502 -0.16565048571E+03 -0.12895142079E+03  0.45065162729E+03  0.49714730365E+03  0.25500000920E-02 0. -1.
</event>
<event>
 5   0  0.6078658E-03  0.5995073E+03  0.7818609E-02  0.9906429E-01
        1   -1    0    0  501    0  0.00000000000E+00  0.00000000000E+00  0.28589617123E+03  0.28589617128E+03  0.50400001928E-02 0.  1.
       -1   -1    0    0    0  501  0.00000000000E+00  0.00000000000E+00 -0.31428279812E+03  0.31428279816E+03  0.50400001928E-02 0. -1.
    10030    2    1    2    0    0  0.00000000000E+00  0.00000000000E+00 -0.28386626884E+02  0.60017896943E+03  0.59950729334E+03 0.  0.
        2    1    3    3  502    0 -0.16080383536E+03  0.59955571484E+02 -0.26023217571E+03  0.31172636928E+03  0.25500000920E-02 0. -1.
       -2    1    3    3    0  502  0.16080383536E+03 -0.59955571484E+02  0.23184554883E+03  0.28845260016E+03  0.25500000920E-02 0.  1.
</event>
<event>
 5   0  0.9303190E-03  0.5997475E+03  0.7818609E-02  0.9905930E-01
       -2   -1    0    0    0  501  0.00000000000E+00  0.00000000000E+00  0.94100072452E+02  0.94100072486E+02  0.25500000920E-02 0. -1.
        2   -1    0    0  501    0  0.00000000000E+00  0.00000000000E+00 -0.95562389762E+03  0.95562389762E+03  0.25500000920E-02 0.  1.
    10030    2    1    2    0    0  0.00000000000E+00  0.00000000000E+00 -0.86152382517E+03  0.10497239701E+04  0.59974754030E+03 0.  0.
        4    1    3    3  502    0  0.25184202708E+02  0.12727246712E+03  0.42428608374E+02  0.13650759928E+03  0.12699999809E+01 0. -1.
       -4    1    3    3    0  502 -0.25184202708E+02 -0.12727246712E+03 -0.90395243354E+03  0.91321637083E+03  0.12699999809E+01 0.  1.
</event>
<event>
 5   0  0.5819446E-03  0.5993629E+03  0.7818609E-02  0.9906729E-01
        1   -1    0    0  501    0  0.00000000000E+00  0.00000000000E+00  0.49459023503E+03  0.49459023505E+03  0.50400001928E-02 0.  1.
       -1   -1    0    0    0  501  0.00000000000E+00  0.00000000000E+00 -0.18158255178E+03  0.18158255185E+03  0.50400001928E-02 0. -1.
    10030    2    1    2    0    0  0.00000000000E+00  0.00000000000E+00  0.31300768325E+03  0.67617278690E+03  0.59936285168E+03 0.  0.
        5    1    3    3  502    0 -0.20927794102E+03 -0.31297744378E+02  0.39584791055E+03  0.44888134700E+03  0.46999998093E+01 0.  1.
       -5    1    3    3    0  502  0.20927794102E+03  0.31297744378E+02 -0.82840227300E+02  0.22729143991E+03  0.46999998093E+01 0. -1.
</event>
<event>
 5   0  0.5819446E-03  0.5990407E+03  0.7818609E-02  0.9907398E-01
       -1   -1    0    0    0  501  0.00000000000E+00  0.00000000000E+00  0.15418870252E+03  0.15418870260E+03  0.50400001928E-02 0. -1.
        1   -1    0    0  501    0  0.00000000000E+00  0.00000000000E+00 -0.58183540940E+03  0.58183540942E+03  0.50400001928E-02 0.  1.
    10030    2    1    2    0    0  0.00000000000E+00  0.00000000000E+00 -0.42764670688E+03  0.73602411202E+03  0.59904072279E+03 0.  0.
        5    1    3    3  502    0 -0.33158076996E+02 -0.57114429937E+02 -0.57273174938E+03  0.57654597642E+03  0.46999998093E+01 0.  1.
       -5    1    3    3    0  502  0.33158076996E+02  0.57114429937E+02  0.14508504250E+03  0.15947813560E+03  0.46999998093E+01 0. -1.
</event>
<event>
 5   0  0.5790967E-03  0.6003110E+03  0.7818609E-02  0.9904761E-01
        1   -1    0    0  501    0  0.00000000000E+00  0.00000000000E+00  0.59893794409E+03  0.59893794412E+03  0.50400001928E-02 0. -1.
       -1   -1    0    0    0  501  0.00000000000E+00  0.00000000000E+00 -0.15042181986E+03  0.15042181994E+03  0.50400001928E-02 0.  1.
    10030    2    1    2    0    0  0.00000000000E+00  0.00000000000E+00  0.44851612424E+03  0.74935976406E+03  0.60031103795E+03 0.  0.
        3    1    3    3  502    0 -0.10575868008E+03  0.28087067496E+03  0.21866288547E+03  0.37133098732E+03  0.10100000352E+00 0.  1.
       -3    1    3    3    0  502  0.10575868008E+03 -0.28087067496E+03  0.22985323877E+03  0.37802877673E+03  0.10100000352E+00 0. -1.
</event>
<event>
 5   0  0.9391405E-03  0.5985659E+03  0.7818609E-02  0.9908386E-01
        2   -1    0    0  501    0  0.00000000000E+00  0.00000000000E+00  0.69693552884E+03  0.69693552885E+03  0.25500000920E-02 0. -1.
       -2   -1    0    0    0  501  0.00000000000E+00  0.00000000000E+00 -0.12852020227E+03  0.12852020230E+03  0.25500000920E-02 0.  1.
    10030    2    1    2    0    0  0.00000000000E+00  0.00000000000E+00  0.56841532657E+03  0.82545573114E+03  0.59856593672E+03 0.  0.
        2    1    3    3  502    0  0.23587102357E+03  0.17840667884E+03  0.22091798847E+03  0.36914609635E+03  0.25500000920E-02 0. -1.
       -2    1    3    3    0  502 -0.23587102357E+03 -0.17840667884E+03  0.34749733810E+03  0.45630963479E+03  0.25500000920E-02 0.  1.
</event>
<event>
 5   0  0.5891927E-03  0.6000762E+03  0.7818609E-02  0.9905248E-01
        1   -1    0    0  501    0  0.00000000000E+00  0.00000000000E+00  0.64059461010E+03  0.64059461012E+03  0.50400001928E-02 0. -1.
       -1   -1    0    0    0  501  0.00000000000E+00  0.00000000000E+00 -0.14053015207E+03  0.14053015216E+03  0.50400001928E-02 0.  1.
    10030    2    1    2    0    0  0.00000000000E+00  0.00000000000E+00  0.50006445803E+03  0.78112476227E+03  0.60007618854E+03 0.  0.
        4    1    3    3  502    0  0.13542326114E+03  0.23883891240E+03  0.92542834466E+02  0.28974001250E+03  0.12699999809E+01 0.  1.
       -4    1    3    3    0  502 -0.13542326114E+03 -0.23883891240E+03  0.40752162357E+03  0.49138474977E+03  0.12699999809E+01 0. -1.
</event>
<event>
 5   0  0.9391405E-03  0.5996688E+03  0.7818609E-02  0.9906093E-01
       -2   -1    0    0    0  501  0.00000000000E+00  0.00000000000E+00  0.16167060621E+03  0.16167060623E+03  0.25500000920E-02 0. -1.
        2   -1    0    0  501    0  0.00000000000E+00  0.00000000000E+00 -0.55607301914E+03  0.55607301915E+03  0.25500000920E-02 0.  1.
    10030    2    1    2    0    0  0.00000000000E+00  0.00000000000E+00 -0.39440241293E+03  0.71774362538E+03  0.59966878229E+03 0.  0.
        2    1    3    3  502    0  0.56984648252E+02 -0.31648159523E+02 -0.54748993700E+03  0.55135658812E+03  0.25500000920E-02 0.  1.
       -2    1    3    3    0  502 -0.56984648252E+02  0.31648159523E+02  0.15308752407E+03  0.16638703726E+03  0.25500000920E-02 0. -1.
</event>
<event>
 5   0  0.9391405E-03  0.5997227E+03  0.7818609E-02  0.9905982E-01
        2   -1    0    0  501    0  0.00000000000E+00  0.00000000000E+00  0.46423460786E+03  0.46423460787E+03  0.25500000920E-02 0. -1.
       -2   -1    0    0    0  501  0.00000000000E+00  0.00000000000E+00 -0.19368834363E+03  0.19368834365E+03  0.25500000920E-02 0.  1.
    10030    2    1    2    0    0  0.00000000000E+00  0.00000000000E+00  0.27054626423E+03  0.65792295152E+03  0.59972271013E+03 0.  0.
        2    1    3    3  502    0  0.21954145215E+03 -0.31956282810E+02  0.35658601497E+03  0.41996814082E+03  0.25500000920E-02 0. -1.
       -2    1    3    3    0  502 -0.21954145215E+03  0.31956282810E+02 -0.86039750734E+02  0.23795481070E+03  0.25500000920E-02 0.  1.
</event>
<event>
 5   0  0.5790967E-03  0.6011477E+03  0.7818609E-02  0.9903028E-01
       -1   -1    0    0    0  501  0.00000000000E+00  0.00000000000E+00  0.23553051412E+03  0.23553051418E+03  0.50400001928E-02 0.  1.
        1   -1    0    0  501    0  0.00000000000E+00  0.00000000000E+00 -0.38357939351E+03  0.38357939354E+03  0.50400001928E-02 0. -1.
    10030    2    1    2    0    0  0.00000000000E+00  0.00000000000E+00 -0.14804887939E+03  0.61910990772E+03  0.60114774153E+03 0.  0.
        3    1    3    3  502    0 -0.19333225560E+03  0.60534959842E+02 -0.30270135373E+03  0.36423888065E+03  0.10100000352E+00 0. -1.
       -3    1    3    3    0  502  0.19333225560E+03 -0.60534959842E+02  0.15465247435E+03  0.25487102708E+03  0.10100000352E+00 0.  1.
</event>
<event>
 5   0  0.5765045E-03  0.6082878E+03  0.7818609E-02  0.9888359E-01
       -1   -1    0    0    0  501  0.00000000000E+00  0.00000000000E+00  0.14354695660E+03  0.14354695669E+03  0.50400001928E-02 0. -1.
        1   -1    0    0  501    0  0.00000000000E+00  0.00000000000E+00 -0.64441293527E+03  0.64441293529E+03  0.50400001928E-02 0.  1.
    10030    2    1    2    0    0  0.00000000000E+00  0.00000000000E+00 -0.50086597867E+03  0.78795989198E+03  0.60828781246E+03 0.  0.
        1    1    3    3  502    0  0.65833395570E+02  0.28259469882E+02 -0.63332680951E+03  0.63736604967E+03  0.50400001928E-02 0.  1.
       -1    1    3    3    0  502 -0.65833395570E+02 -0.28259469882E+02  0.13246083084E+03  0.15059384231E+03  0.50400001928E-02 0. -1.
</event>
<event>
 5   0  0.5790967E-03  0.6028875E+03  0.7818609E-02  0.9899433E-01
        1   -1    0    0  501    0  0.00000000000E+00  0.00000000000E+00  0.10083017618E+04  0.10083017618E+04  0.50400001928E-02 0.  1.
       -1   -1    0    0    0  501  0.00000000000E+00  0.00000000000E+00 -0.90120184228E+02  0.90120184369E+02  0.50400001928E-02 0. -1.
    10030    2    1    2    0    0  0.00000000000E+00  0.00000000000E+00  0.91818157759E+03  0.10984219462E+04  0.60288752058E+03 0.  0.
        3    1    3    3  502    0  0.20204830687E+03  0.22235595063E+03  0.50381710026E+03  0.58659813143E+03  0.10100000352E+00 0.  1.
       -3    1    3    3    0  502 -0.20204830687E+03 -0.22235595063E+03  0.41436447734E+03  0.51182381477E+03  0.10100000352E+00 0. -1.
</event>
<event>
 5   0  0.5819446E-03  0.5999459E+03  0.7818609E-02  0.9905518E-01
        1   -1    0    0  501    0  0.00000000000E+00  0.00000000000E+00  0.35848752943E+03  0.35848752947E+03  0.50400001928E-02 0. -1.
       -1   -1    0    0    0  501  0.00000000000E+00  0.00000000000E+00 -0.25100949978E+03  0.25100949983E+03  0.50400001928E-02 0.  1.
    10030    2    1    2    0    0  0.00000000000E+00  0.00000000000E+00  0.10747802965E+03  0.60949702930E+03  0.59994591579E+03 0.  0.
        5    1    3    3  502    0 -0.15879721288E+03  0.24808905154E+03  0.11118076033E+03  0.31487772830E+03  0.46999998093E+01 0. -1.
       -5    1    3    3    0  502  0.15879721288E+03 -0.24808905154E+03 -0.37027306786E+01  0.29461930100E+03  0.46999998093E+01 0.  1.
</event>
<event>
 5   0  0.5891927E-03  0.6002407E+03  0.7818609E-02  0.9904907E-01
        1   -1    0    0  501    0  0.00000000000E+00  0.00000000000E+00  0.84903993577E+02  0.84903993726E+02  0.50400001928E-02 0.  1.
       -1   -1    0    0    0  501  0.00000000000E+00  0.00000000000E+00 -0.10608714692E+04  0.10608714692E+04  0.50400001928E-02 0. -1.
    10030    2    1    2    0    0  0.00000000000E+00  0.00000000000E+00 -0.97596747559E+03  0.11457754629E+04  0.60024070004E+03 0.  0.
        4    1    3    3  502    0 -0.27927560001E+03  0.47529301600E+02 -0.67711233364E+03  0.73398679861E+03  0.12699999809E+01 0. -1.
       -4    1    3    3    0  502  0.27927560001E+03 -0.47529301600E+02 -0.29885514194E+03  0.41178866429E+03  0.12699999809E+01 0.  1.
</event>
<event>
 5   0  0.5891927E-03  0.6000838E+03  0.7818609E-02  0.9905232E-01
       -1   -1    0    0    0  501  0.00000000000E+00  0.00000000000E+00  0.34244673295E+03  0.34244673298E+03  0.50400001928E-02 0. -1.
        1   -1    0    0  501    0  0.00000000000E+00  0.00000000000E+00 -0.26288803870E+03  0.26288803875E+03  0.50400001928E-02 0.  1.
    10030    2    1    2    0    0  0.00000000000E+00  0.00000000000E+00  0.79558694245E+02  0.60533477173E+03  0.60008382751E+03 0.  0.
        4    1    3    3  502    0 -0.38130957717E+02 -0.21396928576E+03  0.24843884381E+03  0.33009134675E+03  0.12699999809E+01 0. -1.
       -4    1    3    3    0  502  0.38130957717E+02  0.21396928576E+03 -0.16888014956E+03  0.27524342499E+03  0.12699999809E+01 0.  1.
</event>
<event>
 5   0  0.9028473E-03  0.5992631E+03  0.7818609E-02  0.9906936E-01
       -2   -1    0    0    0  501  0.00000000000E+00  0.00000000000E+00  0.55613957565E+02  0.55613957624E+02  0.25500000920E-02 0.  1.
        2   -1    0    0  501    0  0.00000000000E+00  0.00000000000E+00 -0.16143260185E+04  0.16143260185E+04  0.25500000920E-02 0. -1.
    10030    2    1    2    0    0  0.00000000000E+00  0.00000000000E+00 -0.15587120610E+04  0.16699399762E+04  0.59926307659E+03 0.  0.
        1    1    3    3  502    0 -0.18357111452E+03 -0.19200330679E+03 -0.11656415691E+04  0.11955266169E+04  0.50400001928E-02 0.  1.
       -1    1    3    3    0  502  0.18357111452E+03  0.19200330679E+03 -0.39307049184E+03  0.47441335931E+03  0.50400001928E-02 0. -1.
</event>
<event>
 5   0  0.9822607E-03  0.5991992E+03  0.7818609E-02  0.9907069E-01
        2   -1    0    0  501    0  0.00000000000E+00  0.00000000000E+00  0.70455191219E+03  0.70455191220E+03  0.25500000920E-02 0.  1.
       -2   -1    0    0    0  501  0.00000000000E+00  0.00000000000E+00 -0.12739999748E+03  0.12739999750E+03  0.25500000920E-02 0. -1.
    10030    2    1    2    0    0  0.00000000000E+00  0.00000000000E+00  0.57715191471E+03  0.83195190970E+03  0.59919917173E+03 0.  0.
        3    1    3    3  502    0 -0.16246467169E+03 -0.11698449277E+03 -0.20892767597E+02  0.20128750343E+03  0.10100000352E+00 0. -1.
       -3    1    3    3    0  502  0.16246467169E+03  0.11698449277E+03  0.59804468231E+03  0.63066440627E+03  0.10100000352E+00 0.  1.
</event>
<event>
 5   0  0.5819446E-03  0.5993888E+03  0.7818609E-02  0.9906675E-01
        1   -1    0    0  501    0  0.00000000000E+00  0.00000000000E+00  0.42844691434E+03  0.42844691437E+03  0.50400001928E-02 0.  1.
       -1   -1    0    0    0  501  0.00000000000E+00  0.00000000000E+00 -0.20963329064E+03  0.20963329070E+03  0.50400001928E-02 0. -1.
    10030    2    1    2    0    0  0.00000000000E+00  0.00000000000E+00  0.21881362370E+03  0.63808020507E+03  0.59938881053E+03 0.  0.
        5    1    3    3  502    0 -0.13186664807E+03  0.13588751890E+03 -0.13783606366E+03  0.23425435132E+03  0.46999998093E+01 0. -1.
       -5    1    3    3    0  502  0.13186664807E+03 -0.13588751890E+03  0.35664968736E+03  0.40382585375E+03  0.46999998093E+01 0.  1.
</event>
<event>
 5   0  0.9391405E-03  0.5997633E+03  0.7818609E-02  0.9905897E-01
       -2   -1    0    0    0  501  0.00000000000E+00  0.00000000000E+00  0.65019821586E+02  0.65019821636E+02  0.25500000920E-02 0. -1.
        2   -1    0    0  501    0  0.00000000000E+00  0.00000000000E+00 -0.13831014231E+04  0.13831014231E+04  0.25500000920E-02 0.  1.
    10030    2    1    2    0    0  0.00000000000E+00  0.00000000000E+00 -0.13180816016E+04  0.14481212448E+04  0.59976331267E+03 0.  0.
        2    1    3    3  502    0  0.26530767923E+03  0.12499901701E+03 -0.81013622026E+03  0.86158784479E+03  0.25500000920E-02 0.  1.
       -2    1    3    3    0  502 -0.26530767923E+03 -0.12499901701E+03 -0.50794538130E+03  0.58653339999E+03  0.25500000920E-02 0. -1.
</event>
<event>
 5   0  0.9303190E-03  0.5967881E+03  0.7818609E-02  0.9912092E-01
       -2   -1    0    0    0  501  0.00000000000E+00  0.00000000000E+00  0.49532697556E+02  0.49532697622E+02  0.25500000920E-02 0. -1.
        2   -1    0    0  501    0  0.00000000000E+00  0.00000000000E+00 -0.17975805354E+04  0.17975805354E+04  0.25500000920E-02 0.  1.
    10030    2    1    2    0    0  0.00000000000E+00  0.00000000000E+00 -0.17480478378E+04  0.18471132330E+04  0.59678811333E+03 0.  0.
        4    1    3    3  502    0 -0.27034465974E+03 -0.64211084014E+02 -0.53741092078E+03  0.60499703225E+03  0.12699999809E+01 0. -1.
       -4    1    3    3    0  502  0.27034465974E+03  0.64211084014E+02 -0.12106369170E+04  0.12421162007E+04  0.12699999809E+01 0.  1.
</event>
<event>
 5   0  0.5891927E-03  0.5999026E+03  0.7818609E-02  0.9905608E-01
        1   -1    0    0  501    0  0.00000000000E+00  0.00000000000E+00  0.93486458294E+03  0.93486458295E+03  0.50400001928E-02 0.  1.
       -1   -1    0    0    0  501  0.00000000000E+00  0.00000000000E+00 -0.96239366223E+02  0.96239366355E+02  0.50400001928E-02 0. -1.
    10030    2    1    2    0    0  0.00000000000E+00  0.00000000000E+00  0.83862521671E+03  0.10311039493E+04  0.59990257556E+03 0.  0.
        4    1    3    3  502    0 -0.10077549828E+03  0.96608039354E+02 -0.36992933263E+02  0.14442612067E+03  0.12699999809E+01 0. -1.
       -4    1    3    3    0  502  0.10077549828E+03 -0.96608039354E+02  0.87561814998E+03  0.88667782863E+03  0.12699999809E+01 0.  1.
</event>
<event>
 5   0  0.9162342E-03  0.6002228E+03  0.7818609E-02  0.9904944E-01
        2   -1    0    0  501    0  0.00000000000E+00  0.00000000000E+00  0.36234648708E+03  0.36234648709E+03  0.25500000920E-02 0.  1.
       -2   -1    0    0    0  501  0.00000000000E+00  0.00000000000E+00 -0.24856558044E+03  0.24856558045E+03  0.25500000920E-02 0. -1.
    10030    2    1    2    0    0  0.00000000000E+00  0.00000000000E+00  0.11378090664E+03  0.61091206754E+03  0.60022284157E+03 0.  0.
        5    1    3    3  502    0  0.15273943520E+03  0.12545576580E+03  0.28669059948E+03  0.34825575957E+03  0.46999998093E+01 0.  1.
       -5    1    3    3    0  502 -0.15273943520E+03 -0.12545576580E+03 -0.17290969284E+03  0.26265630797E+03  0.46999998093E+01 0. -1.
</event>
<event>
 5   0  0.9028473E-03  0.6006947E+03  0.7818609E-02  0.9903966E-01
       -2   -1    0    0    0  501  0.00000000000E+00  0.00000000000E+00  0.31102375348E+03  0.31102375349E+03  0.25500000920E-02 0.  1.
        2   -1    0    0  501    0  0.00000000000E+00  0.00000000000E+00 -0.29003741554E+03  0.29003741555E+03  0.25500000920E-02 0. -1.
    10030    2    1    2    0    0  0.00000000000E+00  0.00000000000E+00  0.20986337940E+02  0.60106116904E+03  0.60069468331E+03 0.  0.
        1    1    3    3  502    0  0.27701772374E+03 -0.11229230286E+03 -0.18852954104E+02  0.29950595061E+03  0.50400001928E-02 0. -1.
       -1    1    3    3    0  502 -0.27701772374E+03  0.11229230286E+03  0.39839292044E+02  0.30155521843E+03  0.50400001928E-02 0.  1.
</event>
<event>
 5   0  0.5891927E-03  0.6007317E+03  0.7818609E-02  0.9903889E-01
        1   -1    0    0  501    0  0.00000000000E+00  0.00000000000E+00  0.12747611117E+04  0.12747611117E+04  0.50400001928E-02 0.  1.
       -1   -1    0    0    0  501  0.00000000000E+00  0.00000000000E+00 -0.70773775021E+02  0.70773775201E+02  0.50400001928E-02 0. -1.
    10030    2    1    2    0    0  0.00000000000E+00  0.00000000000E+00  0.12039873366E+04  0.13455348869E+04  0.60073174130E+03 0.  0.
        4    1    3    3  502    0 -0.24703140367E+03  0.16760383350E+03  0.67636413730E+03  0.73931428941E+03  0.12699999809E+01 0.  1.
       -4    1    3    3    0  502  0.24703140367E+03 -0.16760383350E+03  0.52762319934E+03  0.60622059746E+03  0.12699999809E+01 0. -1.
</event>
<event>
 5   0  0.3806250E-03  0.5984235E+03  0.7818609E-02  0.9908682E-01
        3   -1    0    0  501    0  0.00000000000E+00  0.00000000000E+00  0.25000111739E+03  0.25000113779E+03  0.10100000352E+00 0.  1.
       -3   -1    0    0    0  501  0.00000000000E+00  0.00000000000E+00 -0.35810907858E+03  0.35810909283E+03  0.10100000352E+00 0. -1.
    10030    2    1    2    0    0  0.00000000000E+00  0.00000000000E+00 -0.10810796120E+03  0.60811023062E+03  0.59842353004E+03 0.  0.
        4    1    3    3  502    0  0.75696016142E+02 -0.10871270192E+03 -0.32668339969E+03  0.35252233256E+03  0.12699999809E+01 0. -1.
       -4    1    3    3    0  502 -0.75696016142E+02  0.10871270192E+03  0.21857543850E+03  0.25558789806E+03  0.12699999809E+01 0.  1.
</event>
<event>
 5   0  0.5765045E-03  0.6019210E+03  0.7818609E-02  0.9901429E-01
       -1   -1    0    0    0  501  0.00000000000E+00  0.00000000000E+00  0.22796855109E+03  0.22796855114E+03  0.50400001928E-02 0.  1.
        1   -1    0    0  501    0  0.00000000000E+00  0.00000000000E+00 -0.39732338235E+03  0.39732338238E+03  0.50400001928E-02 0. -1.
    10030    2    1    2    0    0  0.00000000000E+00  0.00000000000E+00 -0.16935483126E+03  0.62529193353E+03  0.60192104404E+03 0.  0.
        1    1    3    3  502    0  0.22392244433E+03  0.52124239829E+02  0.11707725845E+03  0.25800248433E+03  0.50400001928E-02 0.  1.
       -1    1    3    3    0  502 -0.22392244433E+03 -0.52124239829E+02 -0.28643208971E+03  0.36728944919E+03  0.50400001928E-02 0. -1.
</event>
<event>
 5   0  0.9303190E-03  0.5999126E+03  0.7818609E-02  0.9905587E-01
        2   -1    0    0  501    0  0.00000000000E+00  0.00000000000E+00  0.56107986380E+03  0.56107986381E+03  0.25500000920E-02 0. -1.
       -2   -1    0    0    0  501  0.00000000000E+00  0.00000000000E+00 -0.16035825795E+03  0.16035825797E+03  0.25500000920E-02 0.  1.
    10030    2    1    2    0    0  0.00000000000E+00  0.00000000000E+00  0.40072160585E+03  0.72143812178E+03  0.59991262544E+03 0.  0.
        4    1    3    3  502    0  0.19565576638E+03  0.15171181726E+03 -0.32773647273E+01  0.24760857908E+03  0.12699999809E+01 0.  1.
       -4    1    3    3    0  502 -0.19565576638E+03 -0.15171181726E+03  0.40399897058E+03  0.47382954271E+03  0.12699999809E+01 0. -1.
</event>
<event>
 5   0  0.9822607E-03  0.6007570E+03  0.7818609E-02  0.9903837E-01
       -2   -1    0    0    0  501  0.00000000000E+00  0.00000000000E+00  0.43930367706E+03  0.43930367707E+03  0.25500000920E-02 0.  1.
        2   -1    0    0  501    0  0.00000000000E+00  0.00000000000E+00 -0.20538695915E+03  0.20538695916E+03  0.25500000920E-02 0. -1.
    10030    2    1    2    0    0  0.00000000000E+00  0.00000000000E+00  0.23391671791E+03  0.64469063623E+03  0.60075701038E+03 0.  0.
        3    1    3    3  502    0 -0.87208395960E+02 -0.15925245776E+03  0.37374972121E+03  0.41551836775E+03  0.10100000352E+00 0.  1.
       -3    1    3    3    0  502  0.87208395960E+02  0.15925245776E+03 -0.13983300330E+03  0.22917226848E+03  0.10100000352E+00 0. -1.
</event>
<event>
 5   0  0.9391405E-03  0.5996746E+03  0.7818609E-02  0.9906081E-01
       -2   -1    0    0    0  501  0.00000000000E+00  0.00000000000E+00  0.63311081412E+02  0.63311081463E+02  0.25500000920E-02 0. -1.
        2   -1    0    0  501    0  0.00000000000E+00  0.00000000000E+00 -0.14200107712E+04  0.14200107712E+04  0.25500000920E-02 0.  1.
    10030    2    1    2    0    0  0.00000000000E+00  0.00000000000E+00 -0.13566996897E+04  0.14833218526E+04  0.59967463704E+03 0.  0.
        2    1    3    3  502    0  0.23840341129E+02 -0.25116251044E+03 -0.10791209060E+04  0.11082206000E+04  0.25500000920E-02 0.  1.
       -2    1    3    3    0  502 -0.23840341129E+02  0.25116251044E+03 -0.27757878372E+03  0.37510125259E+03  0.25500000920E-02 0. -1.
</event>
<event>
 5   0  0.9391405E-03  0.6001140E+03  0.7818609E-02  0.9905170E-01
       -2   -1    0    0    0  501  0.00000000000E+00  0.00000000000E+00  0.27434858224E+03  0.27434858225E+03  0.25500000920E-02 0. -1.
        2   -1    0    0  501    0  0.00000000000E+00  0.00000000000E+00 -0.32817448987E+03  0.32817448988E+03  0.25500000920E-02 0.  1.
    10030    2    1    2    0    0  0.00000000000E+00  0.00000000000E+00 -0.53825907630E+02  0.60252307213E+03  0.60011400927E+03 0.  0.
        2    1    3    3  502    0  0.13577119137E+03  0.10690285334E+03 -0.27319783474E+03  0.32326319520E+03  0.25500000920E-02 0.  1.
       -2    1    3    3    0  502 -0.13577119137E+03 -0.10690285334E+03  0.21937192711E+03  0.27925987693E+03  0.25500000920E-02 0. -1.
</event>
<event>
 5   0  0.9303190E-03  0.6000415E+03  0.7818609E-02  0.9905320E-01
       -2   -1    0    0    0  501  0.00000000000E+00  0.00000000000E+00  0.34078767100E+03  0.34078767101E+03  0.25500000920E-02 0.  1.
        2   -1    0    0  501    0  0.00000000000E+00  0.00000000000E+00 -0.26413062687E+03  0.26413062688E+03  0.25500000920E-02 0. -1.
    10030    2    1    2    0    0  0.00000000000E+00  0.00000000000E+00  0.76657044133E+02  0.60491829789E+03  0.60004153582E+03 0.  0.
        4    1    3    3  502    0 -0.29227875021E+03 -0.62179139311E+02  0.65336837422E+02  0.30588172292E+03  0.12699999809E+01 0. -1.
       -4    1    3    3    0  502  0.29227875021E+03  0.62179139311E+02  0.11320206711E+02  0.29903657497E+03  0.12699999809E+01 0.  1.
</event>
<event>
 5   0  0.9162342E-03  0.6016470E+03  0.7818609E-02  0.9901995E-01
        2   -1    0    0  501    0  0.00000000000E+00  0.00000000000E+00  0.39768516954E+03  0.39768516955E+03  0.25500000920E-02 0.  1.
       -2   -1    0    0    0  501  0.00000000000E+00  0.00000000000E+00 -0.22755382286E+03  0.22755382288E+03  0.25500000920E-02 0. -1.
    10030    2    1    2    0    0  0.00000000000E+00  0.00000000000E+00  0.17013134668E+03  0.62523899242E+03  0.60164700824E+03 0.  0.
        5    1    3    3  502    0 -0.39262655733E+02  0.30611371531E+02 -0.22320415225E+03  0.22873739480E+03  0.46999998093E+01 0. -1.
       -5    1    3    3    0  502  0.39262655733E+02 -0.30611371531E+02  0.39333549893E+03  0.39650159762E+03  0.46999998093E+01 0.  1.
</event>
<event>
 5   0  0.9162342E-03  0.6008763E+03  0.7818609E-02  0.9903590E-01
       -2   -1    0    0    0  501  0.00000000000E+00  0.00000000000E+00  0.70818601745E+02  0.70818601791E+02  0.25500000920E-02 0.  1.
        2   -1    0    0  501    0  0.00000000000E+00  0.00000000000E+00 -0.12745676012E+04  0.12745676012E+04  0.25500000920E-02 0. -1.
    10030    2    1    2    0    0  0.00000000000E+00  0.00000000000E+00 -0.12037489994E+04  0.13453862030E+04  0.60087634461E+03 0.  0.
        5    1    3    3  502    0 -0.13454473897E+03  0.10125016990E+03 -0.11588832336E+04  0.11710620491E+04  0.46999998093E+01 0. -1.
       -5    1    3    3    0  502  0.13454473897E+03 -0.10125016990E+03 -0.44865765839E+02  0.17432415389E+03  0.46999998093E+01 0.  1.
</event>
<event>
 5   0  0.9822607E-03  0.6016681E+03  0.7818609E-02  0.9901951E-01
        2   -1    0    0  501    0  0.00000000000E+00  0.00000000000E+00  0.11564416459E+04  0.11564416459E+04  0.25500000920E-02 0. -1.
       -2   -1    0    0    0  501  0.00000000000E+00  0.00000000000E+00 -0.78258279577E+02  0.78258279619E+02  0.25500000920E-02 0.  1.
    10030    2    1    2    0    0  0.00000000000E+00  0.00000000000E+00  0.10781833663E+04  0.12346999255E+04  0.60166812669E+03 0.  0.
        3    1    3    3  502    0  0.16909187216E+03  0.17768370953E+03  0.89652477034E+03  0.92947309584E+03  0.10100000352E+00 0. -1.
       -3    1    3    3    0  502 -0.16909187216E+03 -0.17768370953E+03  0.18165859600E+03  0.30522682969E+03  0.10100000352E+00 0.  1.
</event>
<event>
 5   0  0.5891927E-03  0.6001365E+03  0.7818609E-02  0.9905123E-01
       -1   -1    0    0    0  501  0.00000000000E+00  0.00000000000E+00  0.16322313126E+03  0.16322313133E+03  0.50400001928E-02 0.  1.
        1   -1    0    0  501    0  0.00000000000E+00  0.00000000000E+00 -0.55164328122E+03  0.55164328124E+03  0.50400001928E-02 0. -1.
    10030    2    1    2    0    0  0.00000000000E+00  0.00000000000E+00 -0.38842014997E+03  0.71486641258E+03  0.60013646359E+03 0.  0.
        4    1    3    3  502    0  0.13780640813E+03 -0.60135526990E+02  0.11511086772E+03  0.18936476044E+03  0.12699999809E+01 0.  1.
       -4    1    3    3    0  502 -0.13780640813E+03  0.60135526990E+02 -0.50353101769E+03  0.52550165214E+03  0.12699999809E+01 0. -1.
</event>
<event>
 5   0  0.5765045E-03  0.6015144E+03  0.7818609E-02  0.9902269E-01
       -1   -1    0    0    0  501  0.00000000000E+00  0.00000000000E+00  0.10694965802E+04  0.10694965802E+04  0.50400001928E-02 0. -1.
        1   -1    0    0  501    0  0.00000000000E+00  0.00000000000E+00 -0.84577061803E+02  0.84577061953E+02  0.50400001928E-02 0.  1.
    10030    2    1    2    0    0  0.00000000000E+00  0.00000000000E+00  0.98491951837E+03  0.11540736421E+04  0.60151435046E+03 0.  0.
        1    1    3    3  502    0 -0.21846806180E+02 -0.26319071120E+03  0.76855516300E+03  0.81266455072E+03  0.50400001928E-02 0. -1.
       -1    1    3    3    0  502  0.21846806180E+02  0.26319071120E+03  0.21636435537E+03  0.34140909141E+03  0.50400001928E-02 0.  1.
</event>
<event>
 5   0  0.9391405E-03  0.6006944E+03  0.7818609E-02  0.9903966E-01
        2   -1    0    0  501    0  0.00000000000E+00  0.00000000000E+00  0.27958846526E+04  0.27958846526E+04  0.25500000920E-02 0.  1.
       -2   -1    0    0    0  501  0.00000000000E+00  0.00000000000E+00 -0.32264720955E+02  0.32264721056E+02  0.25500000920E-02 0. -1.
    10030    2    1    2    0    0  0.00000000000E+00  0.00000000000E+00  0.27636199316E+04  0.28281493737E+04  0.60069439246E+03 0.  0.
        2    1    3    3  502    0  0.28755374450E+03  0.38995376025E+01  0.17897114091E+04  0.18126691067E+04  0.25500000920E-02 0.  1.
       -2    1    3    3    0  502 -0.28755374450E+03 -0.38995376025E+01  0.97390852250E+03  0.10154802670E+04  0.25500000920E-02 0. -1.
</event>
<event>
 5   0  0.9303190E-03  0.6000684E+03  0.7818609E-02  0.9905264E-01
       -2   -1    0    0    0  501  0.00000000000E+00  0.00000000000E+00  0.64053235571E+02  0.64053235622E+02  0.25500000920E-02 0. -1.
        2   -1    0    0  501    0  0.00000000000E+00  0.00000000000E+00 -0.14054017769E+04  0.14054017769E+04  0.25500000920E-02 0.  1.
    10030    2    1    2    0    0  0.00000000000E+00  0.00000000000E+00 -0.13413485413E+04  0.14694550125E+04  0.60006843318E+03 0.  0.
        4    1    3    3  502    0  0.23105775520E+03  0.97666983605E+00 -0.20199513376E+03  0.30690761978E+03  0.12699999809E+01 0. -1.
       -4    1    3    3    0  502 -0.23105775520E+03 -0.97666983605E+00 -0.11393534076E+04  0.11625473927E+04  0.12699999809E+01 0.  1.
</event>
<event>
 5   0  0.5819446E-03  0.6008088E+03  0.7818609E-02  0.9903730E-01
       -1   -1    0    0    0  501  0.00000000000E+00  0.00000000000E+00  0.95924630423E+02  0.95924630555E+02  0.50400001928E-02 0.  1.
        1   -1    0    0  501    0  0.00000000000E+00  0.00000000000E+00 -0.94076773062E+03  0.94076773063E+03  0.50400001928E-02 0. -1.
    10030    2    1    2    0    0  0.00000000000E+00  0.00000000000E+00 -0.84484310019E+03  0.10366923612E+04  0.60080877806E+03 0.  0.
        5    1    3    3  502    0  0.17800316183E+03 -0.15260549574E+03 -0.98473331863E+02  0.25434749859E+03  0.46999998093E+01 0. -1.
       -5    1    3    3    0  502 -0.17800316183E+03  0.15260549574E+03 -0.74636976833E+03  0.78234486259E+03  0.46999998093E+01 0.  1.
</event>
<event>
 5   0  0.3806250E-03  0.5996580E+03  0.7818609E-02  0.9906116E-01
       -3   -1    0    0    0  501  0.00000000000E+00  0.00000000000E+00  0.20003678414E+03  0.20003680964E+03  0.10100000352E+00 0.  1.
        3   -1    0    0  501    0  0.00000000000E+00  0.00000000000E+00 -0.44940450454E+03  0.44940451589E+03  0.10100000352E+00 0. -1.
    10030    2    1    2    0    0  0.00000000000E+00  0.00000000000E+00 -0.24936772040E+03  0.64944132554E+03  0.59965804867E+03 0.  0.
        2    1    3    3  502    0  0.52002795495E+01 -0.12869795080E+03 -0.41791472604E+03  0.43731330154E+03  0.25500000920E-02 0. -1.
       -2    1    3    3    0  502 -0.52002795495E+01  0.12869795080E+03  0.16854700564E+03  0.21212802400E+03  0.25500000920E-02 0.  1.
</event>
<event>
 5   0  0.9303190E-03  0.5933080E+03  0.7818609E-02  0.9919388E-01
       -2   -1    0    0    0  501  0.00000000000E+00  0.00000000000E+00  0.55564688365E+02  0.55564688423E+02  0.25500000920E-02 0. -1.
        2   -1    0    0  501    0  0.00000000000E+00  0.00000000000E+00 -0.15838045487E+04  0.15838045487E+04  0.25500000920E-02 0.  1.
    10030    2    1    2    0    0  0.00000000000E+00  0.00000000000E+00 -0.15282398603E+04  0.16393692371E+04  0.59330803544E+03 0.  0.
        4    1    3    3  502    0  0.20376210368E+03 -0.20075883222E+03 -0.54692395510E+03  0.61721189973E+03  0.12699999809E+01 0. -1.
       -4    1    3    3    0  502 -0.20376210368E+03  0.20075883222E+03 -0.98131590524E+03  0.10221573374E+04  0.12699999809E+01 0.  1.
</event>
<event>
 5   0  0.3806250E-03  0.6038066E+03  0.7818609E-02  0.9897540E-01
        3   -1    0    0  501    0  0.00000000000E+00  0.00000000000E+00  0.20463529241E+03  0.20463531734E+03  0.10100000352E+00 0.  1.
       -3   -1    0    0    0  501  0.00000000000E+00  0.00000000000E+00 -0.44540501321E+03  0.44540502466E+03  0.10100000352E+00 0. -1.
    10030    2    1    2    0    0  0.00000000000E+00  0.00000000000E+00 -0.24076972080E+03  0.65004034200E+03  0.60380658143E+03 0.  0.
        5    1    3    3  502    0  0.17152581161E+03  0.12883063819E+03 -0.34902640540E+03  0.40970716255E+03  0.46999998093E+01 0. -1.
       -5    1    3    3    0  502 -0.17152581161E+03 -0.12883063819E+03  0.10825668460E+03  0.24033317945E+03  0.46999998093E+01 0.  1.
</event>
<event>
 5   0  0.5819446E-03  0.6001581E+03  0.7818609E-02  0.9905078E-01
        1   -1    0    0  501    0  0.00000000000E+00  0.00000000000E+00  0.24023107739E+03  0.24023107744E+03  0.50400001928E-02 0.  1.
       -1   -1    0    0    0  501  0.00000000000E+00  0.00000000000E+00 -0.37483672066E+03  0.37483672069E+03  0.50400001928E-02 0. -1.
    10030    2    1    2    0    0  0.00000000000E+00  0.00000000000E+00 -0.13460564327E+03  0.61506779813E+03  0.60015807676E+03 0.  0.
        5    1    3    3  502    0 -0.14484834999E+03  0.18726816634E+03  0.12159920260E+03  0.26619328822E+03  0.46999998093E+01 0.  1.
       -5    1    3    3    0  502  0.14484834999E+03 -0.18726816634E+03 -0.25620484587E+03  0.34887450991E+03  0.46999998093E+01 0. -1.
</event>
<event>
 5   0  0.5891927E-03  0.6033173E+03  0.7818609E-02  0.9898548E-01
       -1   -1    0    0    0  501  0.00000000000E+00  0.00000000000E+00  0.24674396550E+03  0.24674396556E+03  0.50400001928E-02 0. -1.
        1   -1    0    0  501    0  0.00000000000E+00  0.00000000000E+00 -0.36879496607E+03  0.36879496611E+03  0.50400001928E-02 0.  1.
    10030    2    1    2    0    0  0.00000000000E+00  0.00000000000E+00 -0.12205100057E+03  0.61553893166E+03  0.60331727114E+03 0.  0.
        4    1    3    3  502    0 -0.23470857493E+03  0.14830487292E+03  0.59321071677E+02  0.28390676801E+03  0.12699999809E+01 0. -1.
       -4    1    3    3    0  502  0.23470857493E+03 -0.14830487292E+03 -0.18137207224E+03  0.33163216365E+03  0.12699999809E+01 0.  1.
</event>
<event>
 5   0  0.5891927E-03  0.5991480E+03  0.7818609E-02  0.9907175E-01
        1   -1    0    0  501    0  0.00000000000E+00  0.00000000000E+00  0.59247422205E+03  0.59247422207E+03  0.50400001928E-02 0.  1.
       -1   -1    0    0    0  501  0.00000000000E+00  0.00000000000E+00 -0.15147425617E+03  0.15147425626E+03  0.50400001928E-02 0. -1.
    10030    2    1    2    0    0  0.00000000000E+00  0.00000000000E+00  0.44099996587E+03  0.74394847832E+03  0.59914803555E+03 0.  0.
        4    1    3    3  502    0 -0.18606422022E+03  0.13160278324E+03  0.46192173987E+03  0.51508493791E+03  0.12699999809E+01 0.  1.
       -4    1    3    3    0  502  0.18606422022E+03 -0.13160278324E+03 -0.20921773991E+02  0.22886354041E+03  0.12699999809E+01 0. -1.
</event>
<event>
 5   0  0.5765045E-03  0.5949598E+03  0.7818609E-02  0.9915918E-01
       -1   -1    0    0    0  501  0.00000000000E+00  0.00000000000E+00  0.13597936264E+03  0.13597936274E+03  0.50400001928E-02 0. -1.
        1   -1    0    0  501    0  0.00000000000E+00  0.00000000000E+00 -0.65079208579E+03  0.65079208581E+03  0.50400001928E-02 0.  1.
    10030    2    1    2    0    0  0.00000000000E+00  0.00000000000E+00 -0.51481272315E+03  0.78677144855E+03  0.59495980733E+03 0.  0.
        1    1    3    3  502    0 -0.26940898603E+03  0.64211625204E+02 -0.40099401611E+03  0.48734026670E+03  0.50400001928E-02 0. -1.
       -1    1    3    3    0  502  0.26940898603E+03 -0.64211625204E+02 -0.11381870704E+03  0.29943118185E+03  0.50400001928E-02 0.  1.
</event>
<event>
 5   0  0.5765045E-03  0.6013500E+03  0.7818609E-02  0.9902609E-01
        1   -1    0    0  501    0  0.00000000000E+00  0.00000000000E+00  0.93484326511E+03  0.93484326512E+03  0.50400001928E-02 0. -1.
       -1   -1    0    0    0  501  0.00000000000E+00  0.00000000000E+00 -0.96706526580E+02  0.96706526711E+02  0.50400001928E-02 0.  1.
    10030    2    1    2    0    0  0.00000000000E+00  0.00000000000E+00  0.83813673853E+03  0.10315497918E+04  0.60134996513E+03 0.  0.
        1    1    3    3  502    0  0.18637566222E+03  0.19613908798E+03  0.19410350001E+03  0.33299038732E+03  0.50400001928E-02 0.  1.
       -1    1    3    3    0  502 -0.18637566222E+03 -0.19613908798E+03  0.64403323851E+03  0.69855940452E+03  0.50400001928E-02 0. -1.
</event>
<event>
 5   0  0.3806250E-03  0.5993512E+03  0.7818609E-02  0.9906753E-01
       -4   -1    0    0    0  501  0.00000000000E+00  0.00000000000E+00  0.19035878713E+03  0.19036302356E+03  0.12699999809E+01 0.  1.
        4   -1    0    0  501    0  0.00000000000E+00  0.00000000000E+00 -0.47175912110E+03  0.47176083055E+03  0.12699999809E+01 0. -1.
    10030    2    1    2    0    0  0.00000000000E+00  0.00000000000E+00 -0.28140033396E+03  0.66212385410E+03  0.59935119106E+03 0.  0.
        4    1    3    3  502    0  0.20616247032E+03  0.86891565077E+01  0.99374099611E+02  0.22903119915E+03  0.12699999809E+01 0.  1.
       -4    1    3    3    0  502 -0.20616247032E+03 -0.86891565077E+01 -0.38077443357E+03  0.43309265495E+03  0.12699999809E+01 0. -1.
</event>
<event>
 5   0  0.5819446E-03  0.6001313E+03  0.7818609E-02  0.9905134E-01
        1   -1    0    0  501    0  0.00000000000E+00  0.00000000000E+00  0.11365104075E+04  0.11365104075E+04  0.50400001928E-02 0. -1.
       -1   -1    0    0    0  501  0.00000000000E+00  0.00000000000E+00 -0.79224439831E+02  0.79224439991E+02  0.50400001928E-02 0.  1.
    10030    2    1    2    0    0  0.00000000000E+00  0.00000000000E+00  0.10572859677E+04  0.12157348475E+04  0.60013132063E+03 0.  0.
        5    1    3    3  502    0  0.14738929148E+03 -0.11728842584E+03  0.55558480989E+02  0.19644086359E+03  0.46999998093E+01 0.  1.
       -5    1    3    3    0  502 -0.14738929148E+03  0.11728842584E+03  0.10017274867E+04  0.10192939839E+04  0.46999998093E+01 0. -1.
</event>
<event>
 5   0  0.9822607E-03  0.6019548E+03  0.7818609E-02  0.9901359E-01
        2   -1    0    0  501    0  0.00000000000E+00  0.00000000000E+00  0.77154426523E+03  0.77154426523E+03  0.25500000920E-02 0.  1.
       -2   -1    0    0    0  501  0.00000000000E+00  0.00000000000E+00 -0.11741048362E+03  0.11741048365E+03  0.25500000920E-02 0. -1.
    10030    2    1    2    0    0  0.00000000000E+00  0.00000000000E+00  0.65413378160E+03  0.88895474888E+03  0.60195476685E+03 0.  0.
        3    1    3    3  502    0  0.27503079538E+03 -0.78241189858E+02  0.46578797231E+03  0.54655472512E+03  0.10100000352E+00 0.  1.
       -3    1    3    3    0  502 -0.27503079538E+03  0.78241189858E+02  0.18834580929E+03  0.34240002377E+03  0.10100000352E+00 0. -1.
</event>
<event>
 5   0  0.5790967E-03  0.5980233E+03  0.7818609E-02  0.9909516E-01
       -1   -1    0    0    0  501  0.00000000000E+00  0.00000000000E+00  0.15389003351E+03  0.15389003360E+03  0.50400001928E-02 0. -1.
        1   -1    0    0  501    0  0.00000000000E+00  0.00000000000E+00 -0.58098610584E+03  0.58098610587E+03  0.50400001928E-02 0.  1.
    10030    2    1    2    0    0  0.00000000000E+00  0.00000000000E+00 -0.42709607233E+03  0.73487613946E+03  0.59802331506E+03 0.  0.
        3    1    3    3  502    0 -0.23245513339E+03 -0.10340940140E+03 -0.40659385781E+03  0.47963263937E+03  0.10100000352E+00 0.  1.
       -3    1    3    3    0  502  0.23245513339E+03  0.10340940140E+03 -0.20502214517E+02  0.25524350009E+03  0.10100000352E+00 0. -1.
</event>
<event>
 5   0  0.3806250E-03  0.6002591E+03  0.7818609E-02  0.9904869E-01
        3   -1    0    0  501    0  0.00000000000E+00  0.00000000000E+00  0.63317698720E+03  0.63317699526E+03  0.10100000352E+00 0.  1.
       -3   -1    0    0    0  501  0.00000000000E+00  0.00000000000E+00 -0.14226311379E+03  0.14226314964E+03  0.10100000352E+00 0. -1.
    10030    2    1    2    0    0  0.00000000000E+00  0.00000000000E+00  0.49091387342E+03  0.77544014490E+03  0.60025910006E+03 0.  0.
        3    1    3    3  502    0  0.11813156121E+03  0.12726879239E+03 -0.70781553800E+02  0.18751653215E+03  0.10100000352E+00 0. -1.
       -3    1    3    3    0  502 -0.11813156121E+03 -0.12726879239E+03  0.56169542722E+03  0.58792361275E+03  0.10100000352E+00 0.  1.
</event>
<event>
 5   0  0.3806250E-03  0.6000718E+03  0.7818609E-02  0.9905257E-01
       -4   -1    0    0    0  501  0.00000000000E+00  0.00000000000E+00  0.11442267257E+03  0.11442972035E+03  0.12699999809E+01 0.  1.
        4   -1    0    0  501    0  0.00000000000E+00  0.00000000000E+00 -0.78671381950E+03  0.78671484459E+03  0.12699999809E+01 0. -1.
    10030    2    1    2    0    0  0.00000000000E+00  0.00000000000E+00 -0.67229114693E+03  0.90114456494E+03  0.60007177960E+03 0.  0.
        1    1    3    3  502    0 -0.15378649139E+03 -0.25671368375E+03 -0.30361193499E+03  0.42630084149E+03  0.50400001928E-02 0.  1.
       -1    1    3    3    0  502  0.15378649139E+03  0.25671368375E+03 -0.36867921194E+03  0.47484372345E+03  0.50400001928E-02 0. -1.
</event>
<event>
 5   0  0.9162342E-03  0.5967087E+03  0.7818609E-02  0.9912258E-01
        2   -1    0    0  501    0  0.00000000000E+00  0.00000000000E+00  0.12964483323E+04  0.12964483323E+04  0.25500000920E-02 0.  1.
       -2   -1    0    0    0  501  0.00000000000E+00  0.00000000000E+00 -0.68660897282E+02  0.68660897330E+02  0.25500000920E-02 0. -1.
    10030    2    1    2    0    0  0.00000000000E+00  0.00000000000E+00  0.12277874350E+04  0.13651092296E+04  0.59670865859E+03 0.  0.
        5    1    3    3  502    0 -0.59118016738E+02 -0.16191796054E+03  0.56884638356E+02  0.18157730565E+03  0.46999998093E+01 0. -1.
       -5    1    3    3    0  502  0.59118016738E+02  0.16191796054E+03  0.11709027967E+04  0.11835319240E+04  0.46999998093E+01 0.  1.
</event>
<event>
 5   0  0.9822607E-03  0.5949529E+03  0.7818609E-02  0.9915933E-01
        2   -1    0    0  501    0  0.00000000000E+00  0.00000000000E+00  0.74782309923E+03  0.74782309923E+03  0.25500000920E-02 0.  1.
       -2   -1    0    0    0  501  0.00000000000E+00  0.00000000000E+00 -0.11833310961E+03  0.11833310964E+03  0.25500000920E-02 0. -1.
    10030    2    1    2    0    0  0.00000000000E+00  0.00000000000E+00  0.62948998962E+03  0.86615620887E+03  0.59495288144E+03 0.  0.
        3    1    3    3  502    0 -0.22281681478E+02  0.11867744086E+03 -0.81049188053E+02  0.14542967161E+03  0.10100000352E+00 0. -1.
       -3    1    3    3    0  502  0.22281681478E+02 -0.11867744086E+03  0.71053917767E+03  0.72072653726E+03  0.10100000352E+00 0.  1.
</event>
<event>
 5   0  0.5765045E-03  0.6006749E+03  0.7818609E-02  0.9904007E-01
        1   -1    0    0  501    0  0.00000000000E+00  0.00000000000E+00  0.31596847487E+03  0.31596847491E+03  0.50400001928E-02 0. -1.
       -1   -1    0    0    0  501  0.00000000000E+00  0.00000000000E+00 -0.28547965670E+03  0.28547965675E+03  0.50400001928E-02 0.  1.
    10030    2    1    2    0    0  0.00000000000E+00  0.00000000000E+00  0.30488818172E+02  0.60144813166E+03  0.60067485967E+03 0.  0.
        1    1    3    3  502    0 -0.12523711166E+03 -0.24171666278E+03  0.14225916841E+03  0.30716274225E+03  0.50400001928E-02 0. -1.
       -1    1    3    3    0  502  0.12523711166E+03  0.24171666278E+03 -0.11177035024E+03  0.29428538941E+03  0.50400001928E-02 0.  1.
</event>
<event>
 5   0  0.9303190E-03  0.5962506E+03  0.7818609E-02  0.9913216E-01
       -2   -1    0    0    0  501  0.00000000000E+00  0.00000000000E+00  0.50084687447E+02  0.50084687512E+02  0.25500000920E-02 0.  1.
        2   -1    0    0  501    0  0.00000000000E+00  0.00000000000E+00 -0.17745679188E+04  0.17745679188E+04  0.25500000920E-02 0. -1.
    10030    2    1    2    0    0  0.00000000000E+00  0.00000000000E+00 -0.17244832314E+04  0.18246526063E+04  0.59625055011E+03 0.  0.
        4    1    3    3  502    0 -0.10944636783E+03  0.14660104882E+03 -0.15825732853E+04  0.15931133642E+04  0.12699999809E+01 0. -1.
       -4    1    3    3    0  502  0.10944636783E+03 -0.14660104882E+03 -0.14190994604E+03  0.23153924210E+03  0.12699999809E+01 0.  1.
</event>
<event>
 5   0  0.9028473E-03  0.5996075E+03  0.7818609E-02  0.9906221E-01
       -2   -1    0    0    0  501  0.00000000000E+00  0.00000000000E+00  0.16209192733E+03  0.16209192735E+03  0.25500000920E-02 0. -1.
        2   -1    0    0  501    0  0.00000000000E+00  0.00000000000E+00 -0.55451429815E+03  0.55451429815E+03  0.25500000920E-02 0.  1.
    10030    2    1    2    0    0  0.00000000000E+00  0.00000000000E+00 -0.39242237082E+03  0.71660622550E+03  0.59960750939E+03 0.  0.
        1    1    3    3  502    0  0.27755815966E+03  0.11213687888E+03 -0.17660676609E+03  0.34756749194E+03  0.50400001928E-02 0.  1.
       -1    1    3    3    0  502 -0.27755815966E+03 -0.11213687888E+03 -0.21581560473E+03  0.36903873356E+03  0.50400001928E-02 0. -1.
</event>
<event>
 5   0  0.9822607E-03  0.5980973E+03  0.7818609E-02  0.9909362E-01
       -2   -1    0    0    0  501  0.00000000000E+00  0.00000000000E+00  0.44632166541E+03  0.44632166542E+03  0.25500000920E-02 0.  1.
        2   -1    0    0  501    0  0.00000000000E+00  0.00000000000E+00 -0.20037136732E+03  0.20037136733E+03  0.25500000920E-02 0. -1.
    10030    2    1    2    0    0  0.00000000000E+00  0.00000000000E+00  0.24595029810E+03  0.64669303275E+03  0.59809725754E+03 0.  0.
        3    1    3    3  502    0 -0.15831911517E+03  0.25182491320E+03  0.15629000611E+03  0.33601682301E+03  0.10100000352E+00 0.  1.
       -3    1    3    3    0  502  0.15831911517E+03 -0.25182491320E+03  0.89660291986E+02  0.31067620974E+03  0.10100000352E+00 0. -1.
</event>
<event>
 5   0  0.5819446E-03  0.6033458E+03  0.7818609E-02  0.9898489E-01
       -1   -1    0    0    0  501  0.00000000000E+00  0.00000000000E+00  0.95171492130E+02  0.95171492264E+02  0.50400001928E-02 0.  1.
        1   -1    0    0  501    0  0.00000000000E+00  0.00000000000E+00 -0.95623727693E+03  0.95623727695E+03  0.50400001928E-02 0. -1.
    10030    2    1    2    0    0  0.00000000000E+00  0.00000000000E+00 -0.86106578480E+03  0.10514087692E+04  0.60334576672E+03 0.  0.
        5    1    3    3  502    0  0.22675220697E+03 -0.67858343111E+02 -0.10468837485E+03  0.25884950053E+03  0.46999998093E+01 0.  1.
       -5    1    3    3    0  502 -0.22675220697E+03  0.67858343111E+02 -0.75637740995E+03  0.79255926868E+03  0.46999998093E+01 0. -1.
</event>
<event>
 5   0  0.6078658E-03  0.5988103E+03  0.7818609E-02  0.9907877E-01
        1   -1    0    0  501    0  0.00000000000E+00  0.00000000000E+00  0.66146246412E+03  0.66146246414E+03  0.50400001928E-02 0. -1.
       -1   -1    0    0    0  501  0.00000000000E+00  0.00000000000E+00 -0.13552311908E+03  0.13552311917E+03  0.50400001928E-02 0.  1.
    10030    2    1    2    0    0  0.00000000000E+00  0.00000000000E+00  0.52593934504E+03  0.79698558331E+03  0.59881034171E+03 0.  0.
        2    1    3    3  502    0 -0.18588189135E+03 -0.20798216139E+03  0.11817865413E+03  0.30294364375E+03  0.25500000920E-02 0.  1.
       -2    1    3    3    0  502  0.18588189135E+03  0.20798216139E+03  0.40776069091E+03  0.49404193956E+03  0.25500000920E-02 0. -1.
</event>
<event>
 5   0  0.5765045E-03  0.5994064E+03  0.7818609E-02  0.9906638E-01
       -1   -1    0    0    0  501  0.00000000000E+00  0.00000000000E+00  0.55035218593E+02  0.55035218824E+02  0.50400001928E-02 0.  1.
        1   -1    0    0  501    0  0.00000000000E+00  0.00000000000E+00 -0.16320822029E+04  0.16320822029E+04  0.50400001928E-02 0. -1.
    10030    2    1    2    0    0  0.00000000000E+00  0.00000000000E+00 -0.15770469843E+04  0.16871174217E+04  0.59940637633E+03 0.  0.
        1    1    3    3  502    0 -0.27759672999E+03 -0.54244329027E+01 -0.11061253580E+04  0.11404396856E+04  0.50400001928E-02 0. -1.
       -1    1    3    3    0  502  0.27759672999E+03  0.54244329027E+01 -0.47092162629E+03  0.54667773606E+03  0.50400001928E-02 0.  1.
</event>
<event>
 5   0  0.9391405E-03  0.6017331E+03  0.7818609E-02  0.9901817E-01
        2   -1    0    0  501    0  0.00000000000E+00  0.00000000000E+00  0.36063968797E+03  0.36063968798E+03  0.25500000920E-02 0. -1.
       -2   -1    0    0    0  501  0.00000000000E+00  0.00000000000E+00 -0.25100035806E+03  0.25100035807E+03  0.25500000920E-02 0.  1.
    10030    2    1    2    0    0  0.00000000000E+00  0.00000000000E+00  0.10963932991E+03  0.61164004605E+03  0.60173313293E+03 0.  0.
        2    1    3    3  502    0 -0.27052922707E+03  0.13114493778E+03  0.42981747024E+02  0.30369802104E+03  0.25500000920E-02 0.  1.
       -2    1    3    3    0  502  0.27052922707E+03 -0.13114493778E+03  0.66657582883E+02  0.30794202501E+03  0.25500000920E-02 0. -1.
</event>
<event>
 5   0  0.9303190E-03  0.5978439E+03  0.7818609E-02  0.9909889E-01
        2   -1    0    0  501    0  0.00000000000E+00  0.00000000000E+00  0.79680464906E+02  0.79680464947E+02  0.25500000920E-02 0. -1.
       -2   -1    0    0    0  501  0.00000000000E+00  0.00000000000E+00 -0.11214080930E+04  0.11214080930E+04  0.25500000920E-02 0.  1.
    10030    2    1    2    0    0  0.00000000000E+00  0.00000000000E+00 -0.10417276281E+04  0.12010885579E+04  0.59784385327E+03 0.  0.
        4    1    3    3  502    0 -0.10240554463E+03 -0.10237465439E+01  0.43330570124E+02  0.11120744056E+03  0.12699999809E+01 0. -1.
       -4    1    3    3    0  502  0.10240554463E+03  0.10237465439E+01 -0.10850581982E+04  0.10898811174E+04  0.12699999809E+01 0.  1.
</event>
<event>
 5   0  0.6078658E-03  0.5997852E+03  0.7818609E-02  0.9905852E-01
        1   -1    0    0  501    0  0.00000000000E+00  0.00000000000E+00  0.14607367035E+04  0.14607367035E+04  0.50400001928E-02 0. -1.
       -1   -1    0    0    0  501  0.00000000000E+00  0.00000000000E+00 -0.61568634481E+02  0.61568634688E+02  0.50400001928E-02 0.  1.
    10030    2    1    2    0    0  0.00000000000E+00  0.00000000000E+00  0.13991680690E+04  0.15223053381E+04  0.59978517598E+03 0.  0.
        2    1    3    3  502    0  0.18070287312E+03  0.66319317047E+02  0.12832539444E+04  0.12976102905E+04  0.25500000920E-02 0. -1.
       -2    1    3    3    0  502 -0.18070287312E+03 -0.66319317047E+02  0.11591412461E+03  0.22469504769E+03  0.25500000920E-02 0.  1.
</event>
<event>
 5   0  0.3806250E-03  0.5997064E+03  0.7818609E-02  0.9906015E-01
        3   -1    0    0  501    0  0.00000000000E+00  0.00000000000E+00  0.33517881518E+03  0.33517883040E+03  0.10100000352E+00 0.  1.
       -3   -1    0    0    0  501  0.00000000000E+00  0.00000000000E+00 -0.26825061284E+03  0.26825063185E+03  0.10100000352E+00 0. -1.
    10030    2    1    2    0    0  0.00000000000E+00  0.00000000000E+00  0.66928202348E+02  0.60342946225E+03  0.59970637119E+03 0.  0.
        1    1    3    3  502    0  0.34306860999E+02 -0.17423765852E+03 -0.20964756380E+03  0.27475047478E+03  0.50400001928E-02 0. -1.
       -1    1    3    3    0  502 -0.34306860999E+02  0.17423765852E+03  0.27657576615E+03  0.32867898747E+03  0.50400001928E-02 0.  1.
</event>
<event>
 5   0  0.5790967E-03  0.5992987E+03  0.7818609E-02  0.9906862E-01
       -1   -1    0    0    0  501  0.00000000000E+00  0.00000000000E+00  0.88810132388E+02  0.88810132531E+02  0.50400001928E-02 0.  1.
        1   -1    0    0  501    0  0.00000000000E+00  0.00000000000E+00 -0.10110301330E+04  0.10110301331E+04  0.50400001928E-02 0. -1.
    10030    2    1    2    0    0  0.00000000000E+00  0.00000000000E+00 -0.92222000065E+03  0.10998402656E+04  0.59929865693E+03 0.  0.
        3    1    3    3  502    0 -0.63264609525E+02 -0.28628054892E+03 -0.57469683797E+03  0.64516310285E+03  0.10100000352E+00 0.  1.
       -3    1    3    3    0  502  0.63264609525E+02  0.28628054892E+03 -0.34752316269E+03  0.45467716273E+03  0.10100000352E+00 0. -1.
</event>
<event>
 5   0  0.3806250E-03  0.5999725E+03  0.7818609E-02  0.9905463E-01
        4   -1    0    0  501    0  0.00000000000E+00  0.00000000000E+00  0.22840078586E+03  0.22840431669E+03  0.12699999809E+01 0. -1.
       -4   -1    0    0    0  501  0.00000000000E+00  0.00000000000E+00 -0.39400040753E+03  0.39400245435E+03  0.12699999809E+01 0.  1.
    10030    2    1    2    0    0  0.00000000000E+00  0.00000000000E+00 -0.16559962166E+03  0.62240677104E+03  0.59997246098E+03 0.  0.
        5    1    3    3  502    0  0.44912488677E+02  0.29576604632E+03 -0.10540836238E+03  0.31721869216E+03  0.46999998093E+01 0.  1.
       -5    1    3    3    0  502 -0.44912488677E+02 -0.29576604632E+03 -0.60191259285E+02  0.30518807888E+03  0.46999998093E+01 0. -1.
</event>
<event>
 5   0  0.5819446E-03  0.5998448E+03  0.7818609E-02  0.9905728E-01
       -1   -1    0    0    0  501  0.00000000000E+00  0.00000000000E+00  0.51834720526E+02  0.51834720771E+02  0.50400001928E-02 0. -1.
        1   -1    0    0  501    0  0.00000000000E+00  0.00000000000E+00 -0.17353896986E+04  0.17353896986E+04  0.50400001928E-02 0.  1.
    10030    2    1    2    0    0  0.00000000000E+00  0.00000000000E+00 -0.16835549781E+04  0.17872244194E+04  0.59984478078E+03 0.  0.
        5    1    3    3  502    0 -0.46159242955E+02 -0.15539695934E+03 -0.90071863899E+02  0.18550989555E+03  0.46999998093E+01 0. -1.
       -5    1    3    3    0  502  0.46159242955E+02  0.15539695934E+03 -0.15934831142E+04  0.16017145239E+04  0.46999998093E+01 0.  1.
</event>
<event>
 5   0  0.9391405E-03  0.5997373E+03  0.7818609E-02  0.9905951E-01
        2   -1    0    0  501    0  0.00000000000E+00  0.00000000000E+00  0.90686848263E+03  0.90686848263E+03  0.25500000920E-02 0. -1.
       -2   -1    0    0    0  501  0.00000000000E+00  0.00000000000E+00 -0.99155721771E+02  0.99155721804E+02  0.25500000920E-02 0.  1.
    10030    2    1    2    0    0  0.00000000000E+00  0.00000000000E+00  0.80771276086E+03  0.10060242044E+04  0.59973727236E+03 0.  0.
        2    1    3    3  502    0 -0.15126808139E+03 -0.16404070280E+02  0.83730568960E+03  0.85101818066E+03  0.25500000920E-02 0. -1.
       -2    1    3    3    0  502  0.15126808139E+03  0.16404070280E+02 -0.29592928744E+02  0.15500602378E+03  0.25500000920E-02 0.  1.
</event>
<event>
 5   0  0.9822607E-03  0.5993427E+03  0.7818609E-02  0.9906771E-01
       -2   -1    0    0    0  501  0.00000000000E+00  0.00000000000E+00  0.68111813066E+02  0.68111813113E+02  0.25500000920E-02 0.  1.
        2   -1    0    0  501    0  0.00000000000E+00  0.00000000000E+00 -0.13184633363E+04  0.13184633363E+04  0.25500000920E-02 0. -1.
    10030    2    1    2    0    0  0.00000000000E+00  0.00000000000E+00 -0.12503515233E+04  0.13865751494E+04  0.59934273444E+03 0.  0.
        3    1    3    3  502    0 -0.72928221055E+02  0.60897783472E+02  0.32344201405E+02  0.10036544736E+03  0.10100000352E+00 0.  1.
       -3    1    3    3    0  502  0.72928221055E+02 -0.60897783472E+02 -0.12826957247E+04  0.12862097021E+04  0.10100000352E+00 0. -1.
</event>
<event>
 5   0  0.9391405E-03  0.5992884E+03  0.7818609E-02  0.9906884E-01
       -2   -1    0    0    0  501  0.00000000000E+00  0.00000000000E+00  0.47172209885E+02  0.47172209954E+02  0.25500000920E-02 0. -1.
        2   -1    0    0  501    0  0.00000000000E+00  0.00000000000E+00 -0.19033800278E+04  0.19033800278E+04  0.25500000920E-02 0.  1.
    10030    2    1    2    0    0  0.00000000000E+00  0.00000000000E+00 -0.18562078179E+04  0.19505522378E+04  0.59928838545E+03 0.  0.
        2    1    3    3  502    0 -0.15253242252E+03  0.25740240275E+03 -0.87516939058E+03  0.92490194025E+03  0.25500000920E-02 0.  1.
       -2    1    3    3    0  502  0.15253242252E+03 -0.25740240275E+03 -0.98103842736E+03  0.10256502975E+04  0.25500000920E-02 0. -1.
</event>
<event>
 5   0  0.5790967E-03  0.5999285E+03  0.7818609E-02  0.9905554E-01
       -1   -1    0    0    0  501  0.00000000000E+00  0.00000000000E+00  0.36752695208E+03  0.36752695211E+03  0.50400001928E-02 0. -1.
        1   -1    0    0  501    0  0.00000000000E+00  0.00000000000E+00 -0.24482166583E+03  0.24482166589E+03  0.50400001928E-02 0.  1.
    10030    2    1    2    0    0  0.00000000000E+00  0.00000000000E+00  0.12270528625E+03  0.61234861800E+03  0.59992853132E+03 0.  0.
        3    1    3    3  502    0  0.27469302715E+03  0.91306724215E+02 -0.18922703117E+02  0.29008835886E+03  0.10100000352E+00 0. -1.
       -3    1    3    3    0  502 -0.27469302715E+03 -0.91306724215E+02  0.14162798936E+03  0.32226025914E+03  0.10100000352E+00 0.  1.
</event>
<event>
 5   0  0.5819446E-03  0.6031295E+03  0.7818609E-02  0.9898934E-01
        1   -1    0    0  501    0  0.00000000000E+00  0.00000000000E+00  0.37595791577E+03  0.37595791581E+03  0.50400001928E-02 0. -1.
       -1   -1    0    0    0  501  0.00000000000E+00  0.00000000000E+00 -0.24189225030E+03  0.24189225035E+03  0.50400001928E-02 0.  1.
    10030    2    1    2    0    0  0.00000000000E+00  0.00000000000E+00  0.13406566547E+03  0.61785016616E+03  0.60312952603E+03 0.  0.
        5    1    3    3  502    0 -0.83278703031E+02 -0.20447280018E+03 -0.14334444240E+03  0.26327587728E+03  0.46999998093E+01 0.  1.
       -5    1    3    3    0  502  0.83278703031E+02  0.20447280018E+03  0.27741010787E+03  0.35457428888E+03  0.46999998093E+01 0. -1.
</event>
<event>
 5   0  0.9162342E-03  0.5993646E+03  0.7818609E-02  0.9906725E-01
        2   -1    0    0  501    0  0.00000000000E+00  0.00000000000E+00  0.13408755995E+04  0.13408755995E+04  0.25500000920E-02 0. -1.
       -2   -1    0    0    0  501  0.00000000000E+00  0.00000000000E+00 -0.66978237786E+02  0.66978237835E+02  0.25500000920E-02 0.  1.
    10030    2    1    2    0    0  0.00000000000E+00  0.00000000000E+00  0.12738973618E+04  0.14078538374E+04  0.59936461285E+03 0.  0.
        5    1    3    3  502    0 -0.29614270834E+03  0.12644015114E+02  0.74006076810E+03  0.79722795065E+03  0.46999998093E+01 0.  1.
       -5    1    3    3    0  502  0.29614270834E+03 -0.12644015114E+02  0.53383659366E+03  0.61062588674E+03  0.46999998093E+01 0. -1.
</event>
<event>
 5   0  0.5819446E-03  0.5996566E+03  0.7818609E-02  0.9906119E-01
       -1   -1    0    0    0  501  0.00000000000E+00  0.00000000000E+00  0.86029489398E+02  0.86029489545E+02  0.50400001928E-02 0. -1.
        1   -1    0    0  501    0  0.00000000000E+00  0.00000000000E+00 -0.10449559162E+04  0.10449559162E+04  0.50400001928E-02 0.  1.
    10030    2    1    2    0    0  0.00000000000E+00  0.00000000000E+00 -0.95892642675E+03  0.11309854057E+04  0.59965664842E+03 0.  0.
        5    1    3    3  502    0  0.14915736226E+03  0.25991814662E+03 -0.46373162175E+03  0.55215438843E+03  0.46999998093E+01 0.  1.
       -5    1    3    3    0  502 -0.14915736226E+03 -0.25991814662E+03 -0.49519480500E+03  0.57883101727E+03  0.46999998093E+01 0. -1.
</event>
<event>
 5   0  0.6078658E-03  0.5999831E+03  0.7818609E-02  0.9905441E-01
       -1   -1    0    0    0  501  0.00000000000E+00  0.00000000000E+00  0.11708928636E+03  0.11708928647E+03  0.50400001928E-02 0.  1.
        1   -1    0    0  501    0  0.00000000000E+00  0.00000000000E+00 -0.76860091103E+03  0.76860091105E+03  0.50400001928E-02 0. -1.
    10030    2    1    2    0    0  0.00000000000E+00  0.00000000000E+00 -0.65151162467E+03  0.88569019751E+03  0.59998310717E+03 0.  0.
        2    1    3    3  502    0  0.23021885362E+03  0.11388648165E+03 -0.55456117895E+03  0.61115378791E+03  0.25500000920E-02 0. -1.
       -2    1    3    3    0  502 -0.23021885362E+03 -0.11388648165E+03 -0.96950445718E+02  0.27453640960E+03  0.25500000920E-02 0.  1.
</event>
<event>
 5   0  0.9162342E-03  0.5964022E+03  0.7818609E-02  0.9912899E-01
       -2   -1    0    0    0  501  0.00000000000E+00  0.00000000000E+00  0.75447475773E+02  0.75447475816E+02  0.25500000920E-02 0. -1.
        2   -1    0    0  501    0  0.00000000000E+00  0.00000000000E+00 -0.11786199231E+04  0.11786199231E+04  0.25500000920E-02 0.  1.
    10030    2    1    2    0    0  0.00000000000E+00  0.00000000000E+00 -0.11031724473E+04  0.12540673989E+04  0.59640220697E+03 0.  0.
        5    1    3    3  502    0  0.11907617424E+03 -0.23301234825E+03 -0.25105216713E+03  0.36266123357E+03  0.46999998093E+01 0. -1.
       -5    1    3    3    0  502 -0.11907617424E+03  0.23301234825E+03 -0.85212028015E+03  0.89140616531E+03  0.46999998093E+01 0.  1.
</event>
<event>
 5   0  0.5765045E-03  0.5999949E+03  0.7818609E-02  0.9905417E-01
       -1   -1    0    0    0  501  0.00000000000E+00  0.00000000000E+00  0.30970128987E+03  0.30970128991E+03  0.50400001928E-02 0. -1.
        1   -1    0    0  501    0  0.00000000000E+00  0.00000000000E+00 -0.29059767404E+03  0.29059767409E+03  0.50400001928E-02 0.  1.
    10030    2    1    2    0    0  0.00000000000E+00  0.00000000000E+00  0.19103615822E+02  0.60029896399E+03  0.59999491501E+03 0.  0.
        1    1    3    3  502    0 -0.15597005237E+01  0.17530305755E+03  0.25311896562E+03  0.30790064215E+03  0.50400001928E-02 0. -1.
       -1    1    3    3    0  502  0.15597005237E+01 -0.17530305755E+03 -0.23401534980E+03  0.29239832185E+03  0.50400001928E-02 0.  1.
</event>
<event>
 5   0  0.9822607E-03  0.6013031E+03  0.7818609E-02  0.9902706E-01
        2   -1    0    0  501    0  0.00000000000E+00  0.00000000000E+00  0.50033059678E+03  0.50033059679E+03  0.25500000920E-02 0. -1.
       -2   -1    0    0    0  501  0.00000000000E+00  0.00000000000E+00 -0.18066326804E+03  0.18066326806E+03  0.25500000920E-02 0.  1.
    10030    2    1    2    0    0  0.00000000000E+00  0.00000000000E+00  0.31966732874E+03  0.68099386485E+03  0.60130312064E+03 0.  0.
        3    1    3    3  502    0 -0.16388231189E+03  0.20187669451E+03  0.33076595379E+03  0.42073476007E+03  0.10100000352E+00 0. -1.
       -3    1    3    3    0  502  0.16388231189E+03 -0.20187669451E+03 -0.11098625057E+02  0.26025910478E+03  0.10100000352E+00 0.  1.
</event>
<event>
 5   0  0.9028473E-03  0.6070173E+03  0.7818609E-02  0.9890953E-01
        2   -1    0    0  501    0  0.00000000000E+00  0.00000000000E+00  0.15291836297E+03  0.15291836299E+03  0.25500000920E-02 0.  1.
       -2   -1    0    0    0  501  0.00000000000E+00  0.00000000000E+00 -0.60239655325E+03  0.60239655325E+03  0.25500000920E-02 0. -1.
    10030    2    1    2    0    0  0.00000000000E+00  0.00000000000E+00 -0.44947819028E+03  0.75531491624E+03  0.60701728078E+03 0.  0.
        1    1    3    3  502    0 -0.12334564288E+03 -0.25541932296E+03 -0.35912590857E+03  0.45762932204E+03  0.50400001928E-02 0. -1.
       -1    1    3    3    0  502  0.12334564288E+03  0.25541932296E+03 -0.90352281711E+02  0.29768559420E+03  0.50400001928E-02 0.  1.
</event>
<event>
 5   0  0.9822607E-03  0.5993878E+03  0.7818609E-02  0.9906677E-01
        2   -1    0    0  501    0  0.00000000000E+00  0.00000000000E+00  0.70518236154E+03  0.70518236155E+03  0.25500000920E-02 0. -1.
       -2   -1    0    0    0  501  0.00000000000E+00  0.00000000000E+00 -0.12736623800E+03  0.12736623803E+03  0.25500000920E-02 0.  1.
    10030    2    1    2    0    0  0.00000000000E+00  0.00000000000E+00  0.57781612354E+03  0.83254859957E+03  0.59938776933E+03 0.  0.
        3    1    3    3  502    0 -0.18402520589E+03  0.21211052730E+03  0.43432405970E+03  0.51719778734E+03  0.10100000352E+00 0. -1.
       -3    1    3    3    0  502  0.18402520589E+03 -0.21211052730E+03  0.14349206384E+03  0.31535081223E+03  0.10100000352E+00 0.  1.
</event>
<event>
 5   0  0.3806250E-03  0.6007497E+03  0.7818609E-02  0.9903852E-01
       -4   -1    0    0    0  501  0.00000000000E+00  0.00000000000E+00  0.23696600762E+03  0.23696941083E+03  0.12699999809E+01 0. -1.
        4   -1    0    0  501    0  0.00000000000E+00  0.00000000000E+00 -0.38074382740E+03  0.38074594548E+03  0.12699999809E+01 0.  1.
    10030    2    1    2    0    0  0.00000000000E+00  0.00000000000E+00 -0.14377781978E+03  0.61771535631E+03  0.60074969826E+03 0.  0.
        4    1    3    3  502    0 -0.15393554241E+03  0.50911083498E+02  0.18810630286E+03  0.24834186863E+03  0.12699999809E+01 0. -1.
       -4    1    3    3    0  502  0.15393554241E+03 -0.50911083498E+02 -0.33188412264E+03  0.36937348768E+03  0.12699999809E+01 0.  1.
</event>
<event>
 5   0  0.9303190E-03  0.6007248E+03  0.7818609E-02  0.9903903E-01
       -2   -1    0    0    0  501  0.00000000000E+00  0.00000000000E+00  0.91660392413E+02  0.91660392448E+02  0.25500000920E-02 0.  1.
        2   -1    0    0  501    0  0.00000000000E+00  0.00000000000E+00 -0.98425907896E+03  0.98425907897E+03  0.25500000920E-02 0. -1.
    10030    2    1    2    0    0  0.00000000000E+00  0.00000000000E+00 -0.89259868655E+03  0.10759194714E+04  0.60072480699E+03 0.  0.
        4    1    3    3  502    0  0.14652926751E+03  0.25862014508E+03 -0.36904039685E+03  0.47386457251E+03  0.12699999809E+01 0.  1.
       -4    1    3    3    0  502 -0.14652926751E+03 -0.25862014508E+03 -0.52355828970E+03  0.60205489890E+03  0.12699999809E+01 0. -1.
</event>
<event>
 5   0  0.5819446E-03  0.5999896E+03  0.7818609E-02  0.9905428E-01
        1   -1    0    0  501    0  0.00000000000E+00  0.00000000000E+00  0.12926341294E+04  0.12926341294E+04  0.50400001928E-02 0. -1.
       -1   -1    0    0    0  501  0.00000000000E+00  0.00000000000E+00 -0.69622846926E+02  0.69622847109E+02  0.50400001928E-02 0.  1.
    10030    2    1    2    0    0  0.00000000000E+00  0.00000000000E+00  0.12230112825E+04  0.13622569765E+04  0.59998956076E+03 0.  0.
        5    1    3    3  502    0 -0.20968603264E+03  0.10005987888E+03  0.10422641066E+04  0.10678561558E+04  0.46999998093E+01 0. -1.
       -5    1    3    3    0  502  0.20968603264E+03 -0.10005987888E+03  0.18074717593E+03  0.29440082074E+03  0.46999998093E+01 0.  1.
</event>
<event>
 5   0  0.3806250E-03  0.5998593E+03  0.7818609E-02  0.9905698E-01
       -4   -1    0    0    0  501  0.00000000000E+00  0.00000000000E+00  0.12227376369E+03  0.12228035896E+03  0.12699999809E+01 0. -1.
        4   -1    0    0  501    0  0.00000000000E+00  0.00000000000E+00 -0.73568120196E+03  0.73568229816E+03  0.12699999809E+01 0.  1.
    10030    2    1    2    0    0  0.00000000000E+00  0.00000000000E+00 -0.61340743827E+03  0.85796265712E+03  0.59985934659E+03 0.  0.
        2    1    3    3  502    0  0.24668031034E+03 -0.15889793788E+03 -0.21786454775E+03  0.36546503437E+03  0.25500000920E-02 0.  1.
       -2    1    3    3    0  502 -0.24668031034E+03  0.15889793788E+03 -0.39554289052E+03  0.49249762275E+03  0.25500000920E-02 0. -1.
</event>
<event>
 5   0  0.3806250E-03  0.5983157E+03  0.7818609E-02  0.9908907E-01
       -3   -1    0    0    0  501  0.00000000000E+00  0.00000000000E+00  0.32263572267E+03  0.32263573848E+03  0.10100000352E+00 0. -1.
        3   -1    0    0  501    0  0.00000000000E+00  0.00000000000E+00 -0.27738838841E+03  0.27738840679E+03  0.10100000352E+00 0.  1.
    10030    2    1    2    0    0  0.00000000000E+00  0.00000000000E+00  0.45247334261E+02  0.60002414527E+03  0.59831568060E+03 0.  0.
        4    1    3    3  502    0 -0.80646571615E+02 -0.24099245240E+02 -0.26526600083E+03  0.27830254621E+03  0.12699999809E+01 0.  1.
       -4    1    3    3    0  502  0.80646571615E+02  0.24099245240E+02  0.31051333509E+03  0.32172159906E+03  0.12699999809E+01 0. -1.
</event>
<event>
 5   0  0.3806250E-03  0.6001762E+03  0.7818609E-02  0.9905040E-01
        3   -1    0    0  501    0  0.00000000000E+00  0.00000000000E+00  0.12094799813E+03  0.12094804030E+03  0.10100000352E+00 0. -1.
       -3   -1    0    0    0  501  0.00000000000E+00  0.00000000000E+00 -0.74455851145E+03  0.74455851830E+03  0.10100000352E+00 0.  1.
    10030    2    1    2    0    0  0.00000000000E+00  0.00000000000E+00 -0.62361051331E+03  0.86550655860E+03  0.60017624967E+03 0.  0.
        4    1    3    3  502    0  0.22265150204E+03 -0.17487902125E+03 -0.45525421587E+03  0.53611041530E+03  0.12699999809E+01 0.  1.
       -4    1    3    3    0  502 -0.22265150204E+03  0.17487902125E+03 -0.16835629745E+03  0.32939614330E+03  0.12699999809E+01 0. -1.
</event>
<event>
 5   0  0.5819446E-03  0.5998771E+03  0.7818609E-02  0.9905661E-01
        1   -1    0    0  501    0  0.00000000000E+00  0.00000000000E+00  0.11135262773E+03  0.11135262785E+03  0.50400001928E-02 0. -1.
       -1   -1    0    0    0  501  0.00000000000E+00  0.00000000000E+00 -0.80791211948E+03  0.80791211950E+03  0.50400001928E-02 0.  1.
    10030    2    1    2    0    0  0.00000000000E+00  0.00000000000E+00 -0.69655949175E+03  0.91926474735E+03  0.59987711256E+03 0.  0.
        5    1    3    3  502    0  0.24839029322E+03  0.68219276822E+02 -0.58364217051E+03  0.63797482764E+03  0.46999998093E+01 0.  1.
       -5    1    3    3    0  502 -0.24839029322E+03 -0.68219276822E+02 -0.11291732124E+03  0.28128991971E+03  0.46999998093E+01 0. -1.
</event>
<event>
 5   0  0.3806250E-03  0.5965928E+03  0.7818609E-02  0.9912500E-01
       -4   -1    0    0    0  501  0.00000000000E+00  0.00000000000E+00  0.73776828246E+03  0.73776937556E+03  0.12699999809E+01 0.  1.
        4   -1    0    0  501    0  0.00000000000E+00  0.00000000000E+00 -0.12060346808E+03  0.12061015468E+03  0.12699999809E+01 0. -1.
    10030    2    1    2    0    0  0.00000000000E+00  0.00000000000E+00  0.61716481438E+03  0.85837953024E+03  0.59659283420E+03 0.  0.
        1    1    3    3  502    0  0.12220360671E+03  0.52678443592E+02  0.69269702145E+03  0.70536366752E+03  0.50400001928E-02 0.  1.
       -1    1    3    3    0  502 -0.12220360671E+03 -0.52678443592E+02 -0.75532207066E+02  0.15301586271E+03  0.50400001928E-02 0. -1.
</event>
<event>
 5   0  0.5790967E-03  0.5994580E+03  0.7818609E-02  0.9906531E-01
        1   -1    0    0  501    0  0.00000000000E+00  0.00000000000E+00  0.66309145409E+02  0.66309145600E+02  0.50400001928E-02 0.  1.
       -1   -1    0    0    0  501  0.00000000000E+00  0.00000000000E+00 -0.13548277800E+04  0.13548277800E+04  0.50400001928E-02 0. -1.
    10030    2    1    2    0    0  0.00000000000E+00  0.00000000000E+00 -0.12885186346E+04  0.14211369256E+04  0.59945799657E+03 0.  0.
        3    1    3    3  502    0 -0.18276209539E+03  0.22834599650E+03 -0.48891793067E+03  0.56972329315E+03  0.10100000352E+00 0.  1.
       -3    1    3    3    0  502  0.18276209539E+03 -0.22834599650E+03 -0.79960070395E+03  0.85141363249E+03  0.10100000352E+00 0. -1.
</event>
<event>
 5   0  0.5790967E-03  0.6000624E+03  0.7818609E-02  0.9905277E-01
        1   -1    0    0  501    0  0.00000000000E+00  0.00000000000E+00  0.90568728310E+03  0.90568728311E+03  0.50400001928E-02 0. -1.
       -1   -1    0    0    0  501  0.00000000000E+00  0.00000000000E+00 -0.99392703373E+02  0.99392703501E+02  0.50400001928E-02 0.  1.
    10030    2    1    2    0    0  0.00000000000E+00  0.00000000000E+00  0.80629457972E+03  0.10050799866E+04  0.60006235526E+03 0.  0.
        3    1    3    3  502    0  0.10378413192E+03  0.24103865498E+03  0.15956929385E+03  0.30713701987E+03  0.10100000352E+00 0.  1.
       -3    1    3    3    0  502 -0.10378413192E+03 -0.24103865498E+03  0.64672528587E+03  0.69794296674E+03  0.10100000352E+00 0. -1.
</event>
<event>
 5   0  0.9162342E-03  0.5992418E+03  0.7818609E-02  0.9906980E-01
       -2   -1    0    0    0  501  0.00000000000E+00  0.00000000000E+00  0.12556814757E+03  0.12556814759E+03  0.25500000920E-02 0. -1.
        2   -1    0    0  501    0  0.00000000000E+00  0.00000000000E+00 -0.71493197755E+03  0.71493197755E+03  0.25500000920E-02 0.  1.
    10030    2    1    2    0    0  0.00000000000E+00  0.00000000000E+00 -0.58936382998E+03  0.84050012515E+03  0.59924180117E+03 0.  0.
        5    1    3    3  502    0 -0.21495510836E+03  0.55799010208E+02 -0.57671164298E+03  0.61801103332E+03  0.46999998093E+01 0.  1.
       -5    1    3    3    0  502  0.21495510836E+03 -0.55799010208E+02 -0.12652187000E+02  0.22248909183E+03  0.46999998093E+01 0. -1.
</event>
<event>
 5   0  0.5765045E-03  0.6068900E+03  0.7818609E-02  0.9891214E-01
        1   -1    0    0  501    0  0.00000000000E+00  0.00000000000E+00  0.22372964621E+03  0.22372964627E+03  0.50400001928E-02 0. -1.
       -1   -1    0    0    0  501  0.00000000000E+00  0.00000000000E+00 -0.41156306952E+03  0.41156306955E+03  0.50400001928E-02 0.  1.
    10030    2    1    2    0    0  0.00000000000E+00  0.00000000000E+00 -0.18783342331E+03  0.63529271582E+03  0.60688997344E+03 0.  0.
        1    1    3    3  502    0 -0.29653758029E+03 -0.29441416433E+02 -0.33987714079E+02  0.29992748834E+03  0.50400001928E-02 0.  1.
       -1    1    3    3    0  502  0.29653758029E+03  0.29441416433E+02 -0.15384570923E+03  0.33536522748E+03  0.50400001928E-02 0. -1.
</event>
<event>
 5   0  0.5819446E-03  0.5998254E+03  0.7818609E-02  0.9905768E-01
        1   -1    0    0  501    0  0.00000000000E+00  0.00000000000E+00  0.14463707021E+04  0.14463707021E+04  0.50400001928E-02 0.  1.
       -1   -1    0    0    0  501  0.00000000000E+00  0.00000000000E+00 -0.62188498006E+02  0.62188498211E+02  0.50400001928E-02 0. -1.
    10030    2    1    2    0    0  0.00000000000E+00  0.00000000000E+00  0.13841822041E+04  0.15085592003E+04  0.59982538020E+03 0.  0.
        5    1    3    3  502    0  0.10903946416E+03  0.22222320409E+03  0.11178079724E+04  0.11448971615E+04  0.46999998093E+01 0. -1.
       -5    1    3    3    0  502 -0.10903946416E+03 -0.22222320409E+03  0.26637423164E+03  0.36366203879E+03  0.46999998093E+01 0.  1.
</event>
<event>
 5   0  0.5891927E-03  0.6009913E+03  0.7818609E-02  0.9903352E-01
       -1   -1    0    0    0  501  0.00000000000E+00  0.00000000000E+00  0.59598524850E+02  0.59598525063E+02  0.50400001928E-02 0. -1.
        1   -1    0    0  501    0  0.00000000000E+00  0.00000000000E+00 -0.15150985944E+04  0.15150985944E+04  0.50400001928E-02 0.  1.
    10030    2    1    2    0    0  0.00000000000E+00  0.00000000000E+00 -0.14555000695E+04  0.15746971195E+04  0.60099131908E+03 0.  0.
        4    1    3    3  502    0  0.71868642910E+02 -0.89943245662E+00 -0.14922376444E+04  0.14939681091E+04  0.12699999809E+01 0.  1.
       -4    1    3    3    0  502 -0.71868642910E+02  0.89943245662E+00  0.36737574822E+02  0.80729010376E+02  0.12699999809E+01 0. -1.
</event>
<event>
 5   0  0.6078658E-03  0.6009397E+03  0.7818609E-02  0.9903458E-01
        1   -1    0    0  501    0  0.00000000000E+00  0.00000000000E+00  0.54018550551E+03  0.54018550553E+03  0.50400001928E-02 0. -1.
       -1   -1    0    0    0  501  0.00000000000E+00  0.00000000000E+00 -0.16713172115E+03  0.16713172123E+03  0.50400001928E-02 0.  1.
    10030    2    1    2    0    0  0.00000000000E+00  0.00000000000E+00  0.37305378436E+03  0.70731722676E+03  0.60093970849E+03 0.  0.
        2    1    3    3  502    0 -0.19838742632E+03 -0.21065015740E+03  0.28179325222E+03  0.40390406873E+03  0.25500000920E-02 0. -1.
       -2    1    3    3    0  502  0.19838742632E+03  0.21065015740E+03  0.91260532145E+02  0.30341315803E+03  0.25500000920E-02 0.  1.
</event>
<event>
 5   0  0.9391405E-03  0.5995633E+03  0.7818609E-02  0.9906312E-01
        2   -1    0    0  501    0  0.00000000000E+00  0.00000000000E+00  0.40194654993E+03  0.40194654994E+03  0.25500000920E-02 0. -1.
       -2   -1    0    0    0  501  0.00000000000E+00  0.00000000000E+00 -0.22358455251E+03  0.22358455253E+03  0.25500000920E-02 0.  1.
    10030    2    1    2    0    0  0.00000000000E+00  0.00000000000E+00  0.17836199742E+03  0.62553110247E+03  0.59956330611E+03 0.  0.
        2    1    3    3  502    0  0.46296021329E+02  0.27445533564E+02 -0.21850287970E+03  0.22503352494E+03  0.25500000920E-02 0.  1.
       -2    1    3    3    0  502 -0.46296021329E+02 -0.27445533564E+02  0.39686487712E+03  0.40049757753E+03  0.25500000920E-02 0. -1.
</event>
<event>
 5   0  0.9822607E-03  0.5995233E+03  0.7818609E-02  0.9906396E-01
       -2   -1    0    0    0  501  0.00000000000E+00  0.00000000000E+00  0.12627801434E+03  0.12627801436E+03  0.25500000920E-02 0.  1.
        2   -1    0    0  501    0  0.00000000000E+00  0.00000000000E+00 -0.71158114229E+03  0.71158114230E+03  0.25500000920E-02 0. -1.
    10030    2    1    2    0    0  0.00000000000E+00  0.00000000000E+00 -0.58530312795E+03  0.83785915666E+03  0.59952332299E+03 0.  0.
        3    1    3    3  502    0 -0.28292560263E+02  0.20824070718E+03 -0.59138706676E+03  0.62761718748E+03  0.10100000352E+00 0. -1.
       -3    1    3    3    0  502  0.28292560263E+02 -0.20824070718E+03  0.60839388042E+01  0.21024196918E+03  0.10100000352E+00 0.  1.
</event>
<event>
 5   0  0.9303190E-03  0.5999293E+03  0.7818609E-02  0.9905553E-01
        2   -1    0    0  501    0  0.00000000000E+00  0.00000000000E+00  0.84785638133E+02  0.84785638171E+02  0.25500000920E-02 0.  1.
       -2   -1    0    0    0  501  0.00000000000E+00  0.00000000000E+00 -0.10612504418E+04  0.10612504418E+04  0.25500000920E-02 0. -1.
    10030    2    1    2    0    0  0.00000000000E+00  0.00000000000E+00 -0.97646480363E+03  0.11460360799E+04  0.59992931566E+03 0.  0.
        4    1    3    3  502    0  0.30239390577E+02  0.10836037823E+03 -0.10194180707E+04  0.10256077263E+04  0.12699999809E+01 0. -1.
       -4    1    3    3    0  502 -0.30239390577E+02 -0.10836037823E+03  0.42953267111E+02  0.12042835368E+03  0.12699999809E+01 0.  1.
</event>
<event>
 5   0  0.5790967E-03  0.6006466E+03  0.7818609E-02  0.9904065E-01
        1   -1    0    0  501    0  0.00000000000E+00  0.00000000000E+00  0.72777794288E+03  0.72777794289E+03  0.50400001928E-02 0. -1.
       -1   -1    0    0    0  501  0.00000000000E+00  0.00000000000E+00 -0.12393077428E+03  0.12393077438E+03  0.50400001928E-02 0.  1.
    10030    2    1    2    0    0  0.00000000000E+00  0.00000000000E+00  0.60384716860E+03  0.85170871727E+03  0.60064659830E+03 0.  0.
        3    1    3    3  502    0  0.15460423675E+03 -0.17364889305E+03  0.32365650571E+02  0.23474231322E+03  0.10100000352E+00 0.  1.
       -3    1    3    3    0  502 -0.15460423675E+03  0.17364889305E+03  0.57148151803E+03  0.61696640405E+03  0.10100000352E+00 0. -1.
</event>
<event>
 5   0  0.9028473E-03  0.6010767E+03  0.7818609E-02  0.9903175E-01
        2   -1    0    0  501    0  0.00000000000E+00  0.00000000000E+00  0.14633128410E+04  0.14633128410E+04  0.25500000920E-02 0. -1.
       -2   -1    0    0    0  501  0.00000000000E+00  0.00000000000E+00 -0.61725224944E+02  0.61725224996E+02  0.25500000920E-02 0.  1.
    10030    2    1    2    0    0  0.00000000000E+00  0.00000000000E+00  0.14015876161E+04  0.15250380660E+04  0.60107674824E+03 0.  0.
        1    1    3    3  502    0  0.19123596269E+03 -0.65507612778E+02  0.12650569034E+04  0.12811055420E+04  0.50400001928E-02 0. -1.
       -1    1    3    3    0  502 -0.19123596269E+03  0.65507612778E+02  0.13653071264E+03  0.24393252403E+03  0.50400001928E-02 0.  1.
</event>
<event>
 5   0  0.9162342E-03  0.6000783E+03  0.7818609E-02  0.9905244E-01
       -2   -1    0    0    0  501  0.00000000000E+00  0.00000000000E+00  0.42658263403E+02  0.42658263479E+02  0.25500000920E-02 0. -1.
        2   -1    0    0  501    0  0.00000000000E+00  0.00000000000E+00 -0.21103410420E+04  0.21103410420E+04  0.25500000920E-02 0.  1.
    10030    2    1    2    0    0  0.00000000000E+00  0.00000000000E+00 -0.20676827786E+04  0.21529993055E+04  0.60007827530E+03 0.  0.
        5    1    3    3  502    0 -0.18910759556E+03  0.13327004069E+03 -0.34857993610E+03  0.41839293528E+03  0.46999998093E+01 0. -1.
       -5    1    3    3    0  502  0.18910759556E+03 -0.13327004069E+03 -0.17191028425E+04  0.17346063702E+04  0.46999998093E+01 0.  1.
</event>
<event>
 5   0  0.5891927E-03  0.5997605E+03  0.7818609E-02  0.9905903E-01
       -1   -1    0    0    0  501  0.00000000000E+00  0.00000000000E+00  0.69939023489E+03  0.69939023490E+03  0.50400001928E-02 0.  1.
        1   -1    0    0  501    0  0.00000000000E+00  0.00000000000E+00 -0.12858083227E+03  0.12858083237E+03  0.50400001928E-02 0. -1.
    10030    2    1    2    0    0  0.00000000000E+00  0.00000000000E+00  0.57080940262E+03  0.82797106727E+03  0.59976054732E+03 0.  0.
        4    1    3    3  502    0 -0.27792210294E+03 -0.13247976037E+02  0.13099584871E+03  0.30753492395E+03  0.12699999809E+01 0.  1.
       -4    1    3    3    0  502  0.27792210294E+03  0.13247976037E+02  0.43981355391E+03  0.52043614332E+03  0.12699999809E+01 0. -1.
</event>
<event>
 5   0  0.6078658E-03  0.5975686E+03  0.7818609E-02  0.9910463E-01
        1   -1    0    0  501    0  0.00000000000E+00  0.00000000000E+00  0.83706399781E+03  0.83706399783E+03  0.50400001928E-02 0. -1.
       -1   -1    0    0    0  501  0.00000000000E+00  0.00000000000E+00 -0.10664902688E+03  0.10664902700E+03  0.50400001928E-02 0.  1.
    10030    2    1    2    0    0  0.00000000000E+00  0.00000000000E+00  0.73041497093E+03  0.94371302482E+03  0.59756860983E+03 0.  0.
        2    1    3    3  502    0 -0.79761338044E+02 -0.14212461573E+03 -0.30271386010E+02  0.16576379056E+03  0.25500000920E-02 0.  1.
       -2    1    3    3    0  502  0.79761338044E+02  0.14212461573E+03  0.76068635694E+03  0.77794923426E+03  0.25500000920E-02 0. -1.
</event>
<event>
 5   0  0.3806250E-03  0.6004626E+03  0.7818609E-02  0.9904447E-01
       -4   -1    0    0    0  501  0.00000000000E+00  0.00000000000E+00  0.20401057767E+03  0.20401453061E+03  0.12699999809E+01 0.  1.
        4   -1    0    0  501    0  0.00000000000E+00  0.00000000000E+00 -0.44182489978E+03  0.44182672505E+03  0.12699999809E+01 0. -1.
    10030    2    1    2    0    0  0.00000000000E+00  0.00000000000E+00 -0.23781432211E+03  0.64584125566E+03  0.60046255146E+03 0.  0.
        3    1    3    3  502    0 -0.11265679288E+03  0.10255194954E+03  0.15935324565E+03  0.22045843699E+03  0.10100000352E+00 0.  1.
       -3    1    3    3    0  502  0.11265679288E+03 -0.10255194954E+03 -0.39716756776E+03  0.42538281867E+03  0.10100000352E+00 0. -1.
</event>
<event>
 5   0  0.5790967E-03  0.6000774E+03  0.7818609E-02  0.9905245E-01
       -1   -1    0    0    0  501  0.00000000000E+00  0.00000000000E+00  0.58654221682E+02  0.58654221898E+02  0.50400001928E-02 0. -1.
        1   -1    0    0  501    0  0.00000000000E+00  0.00000000000E+00 -0.15348125074E+04  0.15348125075E+04  0.50400001928E-02 0.  1.
    10030    2    1    2    0    0  0.00000000000E+00  0.00000000000E+00 -0.14761582858E+04  0.15934667294E+04  0.60007743911E+03 0.  0.
        3    1    3    3  502    0 -0.15417929762E+03  0.25480004183E+03 -0.83488080532E+03  0.88640864528E+03  0.10100000352E+00 0.  1.
       -3    1    3    3    0  502  0.15417929762E+03 -0.25480004183E+03 -0.64127748044E+03  0.70705808407E+03  0.10100000352E+00 0. -1.
</event>
<event>
 5   0  0.6078658E-03  0.5993151E+03  0.7818609E-02  0.9906828E-01
       -1   -1    0    0    0  501  0.00000000000E+00  0.00000000000E+00  0.16314059177E+03  0.16314059185E+03  0.50400001928E-02 0. -1.
        1   -1    0    0  501    0  0.00000000000E+00  0.00000000000E+00 -0.55041268275E+03  0.55041268277E+03  0.50400001928E-02 0.  1.
    10030    2    1    2    0    0  0.00000000000E+00  0.00000000000E+00 -0.38727209097E+03  0.71355327462E+03  0.59931511184E+03 0.  0.
        2    1    3    3  502    0 -0.28628583789E+03  0.54400417711E+02 -0.11050024615E+03  0.31165572484E+03  0.25500000920E-02 0. -1.
       -2    1    3    3    0  502  0.28628583789E+03 -0.54400417711E+02 -0.27677184483E+03  0.40189754978E+03  0.25500000920E-02 0.  1.
</event>
<event>
 5   0  0.9391405E-03  0.5998998E+03  0.7818609E-02  0.9905614E-01
        2   -1    0    0  501    0  0.00000000000E+00  0.00000000000E+00  0.83578576831E+02  0.83578576870E+02  0.25500000920E-02 0.  1.
       -2   -1    0    0    0  501  0.00000000000E+00  0.00000000000E+00 -0.10764711675E+04  0.10764711675E+04  0.25500000920E-02 0. -1.
    10030    2    1    2    0    0  0.00000000000E+00  0.00000000000E+00 -0.99289259065E+03  0.11600497444E+04  0.59989975230E+03 0.  0.
        2    1    3    3  502    0  0.91963620832E+02 -0.73483452745E+02  0.37044324195E+02  0.12340748497E+03  0.25500000920E-02 0.  1.
       -2    1    3    3    0  502 -0.91963620832E+02  0.73483452745E+02 -0.10299369148E+04  0.10366422594E+04  0.25500000920E-02 0. -1.
</event>
<event>
 5   0  0.9391405E-03  0.5968128E+03  0.7818609E-02  0.9912041E-01
        2   -1    0    0  501    0  0.00000000000E+00  0.00000000000E+00  0.11167164009E+04  0.11167164009E+04  0.25500000920E-02 0. -1.
       -2   -1    0    0    0  501  0.00000000000E+00  0.00000000000E+00 -0.79739482453E+02  0.79739482494E+02  0.25500000920E-02 0.  1.
    10030    2    1    2    0    0  0.00000000000E+00  0.00000000000E+00  0.10369769184E+04  0.11964558834E+04  0.59681282787E+03 0.  0.
        2    1    3    3  502    0  0.12307624908E+03  0.16125251677E+03  0.79746369804E+02  0.21796701759E+03  0.25500000920E-02 0.  1.
       -2    1    3    3    0  502 -0.12307624908E+03 -0.16125251677E+03  0.95723054862E+03  0.97848886579E+03  0.25500000920E-02 0. -1.
</event>
<event>
 5   0  0.9822607E-03  0.5995789E+03  0.7818609E-02  0.9906280E-01
        2   -1    0    0  501    0  0.00000000000E+00  0.00000000000E+00  0.68783467096E+03  0.68783467096E+03  0.25500000920E-02 0.  1.
       -2   -1    0    0    0  501  0.00000000000E+00  0.00000000000E+00 -0.13066180033E+03  0.13066180036E+03  0.25500000920E-02 0. -1.
    10030    2    1    2    0    0  0.00000000000E+00  0.00000000000E+00  0.55717287063E+03  0.81849647132E+03  0.59957890707E+03 0.  0.
        3    1    3    3  502    0 -0.22209337326E+03 -0.70843635356E+02  0.21271781857E+02  0.23408713339E+03  0.10100000352E+00 0. -1.
       -3    1    3    3    0  502  0.22209337326E+03  0.70843635356E+02  0.53590108877E+03  0.58440933793E+03  0.10100000352E+00 0.  1.
</event>
<event>
 5   0  0.3806250E-03  0.6020205E+03  0.7818609E-02  0.9901223E-01
       -3   -1    0    0    0  501  0.00000000000E+00  0.00000000000E+00  0.22671596418E+03  0.22671598668E+03  0.10100000352E+00 0. -1.
        3   -1    0    0  501    0  0.00000000000E+00  0.00000000000E+00 -0.39965060060E+03  0.39965061336E+03  0.10100000352E+00 0.  1.
    10030    2    1    2    0    0  0.00000000000E+00  0.00000000000E+00 -0.17293463642E+03  0.62636660005E+03  0.60202053883E+03 0.  0.
        4    1    3    3  502    0  0.25653901230E+02  0.25765972846E+03 -0.24616363141E+03  0.35727413095E+03  0.12699999809E+01 0.  1.
       -4    1    3    3    0  502 -0.25653901230E+02 -0.25765972846E+03  0.73228994992E+02  0.26909246910E+03  0.12699999809E+01 0. -1.
</event>
<event>
 5   0  0.5891927E-03  0.6004619E+03  0.7818609E-02  0.9904448E-01
       -1   -1    0    0    0  501  0.00000000000E+00  0.00000000000E+00  0.12176213903E+03  0.12176213913E+03  0.50400001928E-02 0.  1.
        1   -1    0    0  501    0  0.00000000000E+00  0.00000000000E+00 -0.74028443256E+03  0.74028443257E+03  0.50400001928E-02 0. -1.
    10030    2    1    2    0    0  0.00000000000E+00  0.00000000000E+00 -0.61852229353E+03  0.86204657171E+03  0.60046187572E+03 0.  0.
        4    1    3    3  502    0  0.10217213217E+03 -0.14484610246E+02 -0.71401987680E+03  0.72143949565E+03  0.12699999809E+01 0. -1.
       -4    1    3    3    0  502 -0.10217213217E+03  0.14484610246E+02  0.95497583271E+02  0.14060707605E+03  0.12699999809E+01 0.  1.
</event>
<event>
 5   0  0.6078658E-03  0.6008021E+03  0.7818609E-02  0.9903743E-01
       -1   -1    0    0    0  501  0.00000000000E+00  0.00000000000E+00  0.29923335981E+03  0.29923335985E+03  0.50400001928E-02 0.  1.
        1   -1    0    0  501    0  0.00000000000E+00  0.00000000000E+00 -0.30157327146E+03  0.30157327150E+03  0.50400001928E-02 0. -1.
    10030    2    1    2    0    0  0.00000000000E+00  0.00000000000E+00 -0.23399116527E+01  0.60080663135E+03  0.60080207481E+03 0.  0.
        2    1    3    3  502    0 -0.79817277081E+02  0.69869727554E+02 -0.28222049369E+03  0.30149789985E+03  0.25500000920E-02 0. -1.
       -2    1    3    3    0  502  0.79817277081E+02 -0.69869727554E+02  0.27988058203E+03  0.29930873151E+03  0.25500000920E-02 0.  1.
</event>
<event>
 5   0  0.3806250E-03  0.5989808E+03  0.7818609E-02  0.9907523E-01
        3   -1    0    0  501    0  0.00000000000E+00  0.00000000000E+00  0.25880682909E+03  0.25880684880E+03  0.10100000352E+00 0. -1.
       -3   -1    0    0    0  501  0.00000000000E+00  0.00000000000E+00 -0.34656923551E+03  0.34656925023E+03  0.10100000352E+00 0.  1.
    10030    2    1    2    0    0  0.00000000000E+00  0.00000000000E+00 -0.87762406421E+02  0.60537609902E+03  0.59898078541E+03 0.  0.
        3    1    3    3  502    0  0.12529174911E+03 -0.98332890776E+02 -0.30021707387E+03  0.33984949823E+03  0.10100000352E+00 0.  1.
       -3    1    3    3    0  502 -0.12529174911E+03  0.98332890776E+02  0.21245466745E+03  0.26552660079E+03  0.10100000352E+00 0. -1.
</event>
<event>
 5   0  0.6078658E-03  0.5984607E+03  0.7818609E-02  0.9908605E-01
       -1   -1    0    0    0  501  0.00000000000E+00  0.00000000000E+00  0.18954957005E+03  0.18954957012E+03  0.50400001928E-02 0. -1.
        1   -1    0    0  501    0  0.00000000000E+00  0.00000000000E+00 -0.47237672405E+03  0.47237672408E+03  0.50400001928E-02 0.  1.
    10030    2    1    2    0    0  0.00000000000E+00  0.00000000000E+00 -0.28282715400E+03  0.66192629420E+03  0.59846070875E+03 0.  0.
        2    1    3    3  502    0 -0.28421763443E+03  0.32578183624E+02 -0.44372101182E+02  0.28949936984E+03  0.25500000920E-02 0.  1.
       -2    1    3    3    0  502  0.28421763443E+03 -0.32578183624E+02 -0.23845505282E+03  0.37242692436E+03  0.25500000920E-02 0. -1.
</event>
<event>
 5   0  0.9822607E-03  0.6002947E+03  0.7818609E-02  0.9904795E-01
        2   -1    0    0  501    0  0.00000000000E+00  0.00000000000E+00  0.81113939786E+03  0.81113939786E+03  0.25500000920E-02 0.  1.
       -2   -1    0    0    0  501  0.00000000000E+00  0.00000000000E+00 -0.11106404463E+03  0.11106404466E+03  0.25500000920E-02 0. -1.
    10030    2    1    2    0    0  0.00000000000E+00  0.00000000000E+00  0.70007535323E+03  0.92220344252E+03  0.60029466864E+03 0.  0.
        3    1    3    3  502    0  0.40657147689E+02  0.40413297775E+02  0.80265122880E+03  0.80469574598E+03  0.10100000352E+00 0.  1.
       -3    1    3    3    0  502 -0.40657147689E+02 -0.40413297775E+02 -0.10257587558E+03  0.11750769654E+03  0.10100000352E+00 0. -1.
</event>
<event>
 5   0  0.9391405E-03  0.5992630E+03  0.7818609E-02  0.9906936E-01
        2   -1    0    0  501    0  0.00000000000E+00  0.00000000000E+00  0.18540257526E+03  0.18540257527E+03  0.25500000920E-02 0. -1.
       -2   -1    0    0    0  501  0.00000000000E+00  0.00000000000E+00 -0.48423829022E+03  0.48423829022E+03  0.25500000920E-02 0.  1.
    10030    2    1    2    0    0  0.00000000000E+00  0.00000000000E+00 -0.29883571496E+03  0.66964086550E+03  0.59926296749E+03 0.  0.
        2    1    3    3  502    0  0.18907291882E+03 -0.88713846715E+02 -0.38949945416E+03  0.44195988509E+03  0.25500000920E-02 0.  1.
       -2    1    3    3    0  502 -0.18907291882E+03  0.88713846715E+02  0.90663739196E+02  0.22768098041E+03  0.25500000920E-02 0. -1.
</event>
<event>
 5   0  0.9391405E-03  0.5920379E+03  0.7818609E-02  0.9922064E-01
       -2   -1    0    0    0  501  0.00000000000E+00  0.00000000000E+00  0.77543113466E+02  0.77543113508E+02  0.25500000920E-02 0. -1.
        2   -1    0    0  501    0  0.00000000000E+00  0.00000000000E+00 -0.11300450565E+04  0.11300450565E+04  0.25500000920E-02 0.  1.
    10030    2    1    2    0    0  0.00000000000E+00  0.00000000000E+00 -0.10525019430E+04  0.12075881700E+04  0.59203787739E+03 0.  0.
        2    1    3    3  502    0 -0.14700728403E+02 -0.67487729262E+02 -0.11133788027E+04  0.11155191901E+04  0.25500000920E-02 0.  1.
       -2    1    3    3    0  502  0.14700728403E+02  0.67487729262E+02  0.60876859695E+02  0.92068979952E+02  0.25500000920E-02 0. -1.
</event>
<event>
 5   0  0.6078658E-03  0.6008706E+03  0.7818609E-02  0.9903602E-01
        1   -1    0    0  501    0  0.00000000000E+00  0.00000000000E+00  0.11458146164E+03  0.11458146175E+03  0.50400001928E-02 0. -1.
       -1   -1    0    0    0  501  0.00000000000E+00  0.00000000000E+00 -0.78774841502E+03  0.78774841504E+03  0.50400001928E-02 0.  1.
    10030    2    1    2    0    0  0.00000000000E+00  0.00000000000E+00 -0.67316695338E+03  0.90232987678E+03  0.60087058458E+03 0.  0.
        2    1    3    3  502    0  0.29144770025E+03 -0.27618493809E+02 -0.43795486860E+03  0.52679123960E+03  0.25500000920E-02 0.  1.
       -2    1    3    3    0  502 -0.29144770025E+03  0.27618493809E+02 -0.23521208478E+03  0.37553863718E+03  0.25500000920E-02 0. -1.
</event>
<event>
 5   0  0.5819446E-03  0.5987907E+03  0.7818609E-02  0.9907918E-01
       -1   -1    0    0    0  501  0.00000000000E+00  0.00000000000E+00  0.15436171439E+03  0.15436171447E+03  0.50400001928E-02 0.  1.
        1   -1    0    0  501    0  0.00000000000E+00  0.00000000000E+00 -0.58069816155E+03  0.58069816157E+03  0.50400001928E-02 0. -1.
    10030    2    1    2    0    0  0.00000000000E+00  0.00000000000E+00 -0.42633644717E+03  0.73505987604E+03  0.59879066057E+03 0.  0.
        5    1    3    3  502    0  0.24693506925E+03 -0.14716082165E+03 -0.31574404926E+03  0.42702415680E+03  0.46999998093E+01 0.  1.
       -5    1    3    3    0  502 -0.24693506925E+03  0.14716082165E+03 -0.11059239791E+03  0.30803571924E+03  0.46999998093E+01 0. -1.
</event>
<event>
 5   0  0.3806250E-03  0.6003772E+03  0.7818609E-02  0.9904624E-01
       -3   -1    0    0    0  501  0.00000000000E+00  0.00000000000E+00  0.42550860067E+03  0.42550861266E+03  0.10100000352E+00 0. -1.
        3   -1    0    0  501    0  0.00000000000E+00  0.00000000000E+00 -0.21177759508E+03  0.21177761916E+03  0.10100000352E+00 0.  1.
    10030    2    1    2    0    0  0.00000000000E+00  0.00000000000E+00  0.21373100559E+03  0.63728623183E+03  0.60037721353E+03 0.  0.
        5    1    3    3  502    0  0.20737511039E+03  0.15231314247E+03  0.27092243755E+03  0.37366400274E+03  0.46999998093E+01 0. -1.
       -5    1    3    3    0  502 -0.20737511039E+03 -0.15231314247E+03 -0.57191431958E+02  0.26362222908E+03  0.46999998093E+01 0.  1.
</event>
<event>
 5   0  0.9028473E-03  0.5994686E+03  0.7818609E-02  0.9906509E-01
       -2   -1    0    0    0  501  0.00000000000E+00  0.00000000000E+00  0.78328888585E+02  0.78328888627E+02  0.25500000920E-02 0. -1.
        2   -1    0    0  501    0  0.00000000000E+00  0.00000000000E+00 -0.11469669329E+04  0.11469669329E+04  0.25500000920E-02 0.  1.
    10030    2    1    2    0    0  0.00000000000E+00  0.00000000000E+00 -0.10686380443E+04  0.12252958215E+04  0.59946858174E+03 0.  0.
        1    1    3    3  502    0  0.23282375811E+01 -0.13257093137E+03 -0.10837637659E+04  0.10918444820E+04  0.50400001928E-02 0.  1.
       -1    1    3    3    0  502 -0.23282375811E+01  0.13257093137E+03  0.15125721630E+02  0.13345133950E+03  0.50400001928E-02 0. -1.
</event>
<event>
 5   0  0.9822607E-03  0.6001491E+03  0.7818609E-02  0.9905097E-01
        2   -1    0    0  501    0  0.00000000000E+00  0.00000000000E+00  0.54691010240E+03  0.54691010241E+03  0.25500000920E-02 0.  1.
       -2   -1    0    0    0  501  0.00000000000E+00  0.00000000000E+00 -0.16464266944E+03  0.16464266946E+03  0.25500000920E-02 0. -1.
    10030    2    1    2    0    0  0.00000000000E+00  0.00000000000E+00  0.38226743296E+03  0.71155277187E+03  0.60014911218E+03 0.  0.
        3    1    3    3  502    0  0.80716711080E+02  0.28599691916E+03  0.14174409412E+03  0.32924280347E+03  0.10100000352E+00 0. -1.
       -3    1    3    3    0  502 -0.80716711080E+02 -0.28599691916E+03  0.24052333884E+03  0.38230996840E+03  0.10100000352E+00 0.  1.
</event>
<event>
 5   0  0.3806250E-03  0.5998454E+03  0.7818609E-02  0.9905727E-01
       -4   -1    0    0    0  501  0.00000000000E+00  0.00000000000E+00  0.19708347018E+03  0.19708756206E+03  0.12699999809E+01 0. -1.
        4   -1    0    0  501    0  0.00000000000E+00  0.00000000000E+00 -0.45641433220E+03  0.45641609912E+03  0.12699999809E+01 0.  1.
    10030    2    1    2    0    0  0.00000000000E+00  0.00000000000E+00 -0.25933086202E+03  0.65350366118E+03  0.59984542941E+03 0.  0.
        2    1    3    3  502    0 -0.67477653217E+02  0.11533674976E+03 -0.42219500828E+03  0.44283679223E+03  0.25500000920E-02 0.  1.
       -2    1    3    3    0  502  0.67477653217E+02 -0.11533674976E+03  0.16286414626E+03  0.21066686895E+03  0.25500000920E-02 0. -1.
</event>
<event>
 5   0  0.9822607E-03  0.6004473E+03  0.7818609E-02  0.9904478E-01
        2   -1    0    0  501    0  0.00000000000E+00  0.00000000000E+00  0.70983921334E+03  0.70983921334E+03  0.25500000920E-02 0. -1.
       -2   -1    0    0    0  501  0.00000000000E+00  0.00000000000E+00 -0.12697839208E+03  0.12697839211E+03  0.25500000920E-02 0.  1.
    10030    2    1    2    0    0  0.00000000000E+00  0.00000000000E+00  0.58286082125E+03  0.83681760545E+03  0.60044730647E+03 0.  0.
        3    1    3    3  502    0  0.22607087920E+03  0.89371970174E+02  0.53696272115E+03  0.58942715036E+03  0.10100000352E+00 0. -1.
       -3    1    3    3    0  502 -0.22607087920E+03 -0.89371970174E+02  0.45898100104E+02  0.24739045509E+03  0.10100000352E+00 0.  1.
</event>
<event>
 5   0  0.9391405E-03  0.5894613E+03  0.7818609E-02  0.9927515E-01
       -2   -1    0    0    0  501  0.00000000000E+00  0.00000000000E+00  0.29258700792E+03  0.29258700793E+03  0.25500000920E-02 0.  1.
        2   -1    0    0  501    0  0.00000000000E+00  0.00000000000E+00 -0.29688997282E+03  0.29688997283E+03  0.25500000920E-02 0. -1.
    10030    2    1    2    0    0  0.00000000000E+00  0.00000000000E+00 -0.43029649005E+01  0.58947698077E+03  0.58946127553E+03 0.  0.
        2    1    3    3  502    0 -0.22713204218E+03 -0.49712166418E+02 -0.18328025680E+03  0.29606066374E+03  0.25500000920E-02 0. -1.
       -2    1    3    3    0  502  0.22713204218E+03  0.49712166418E+02  0.17897729190E+03  0.29341631703E+03  0.25500000920E-02 0.  1.
</event>
<event>
 5   0  0.9822607E-03  0.5994179E+03  0.7818609E-02  0.9906614E-01
       -2   -1    0    0    0  501  0.00000000000E+00  0.00000000000E+00  0.46751088714E+02  0.46751088783E+02  0.25500000920E-02 0.  1.
        2   -1    0    0  501    0  0.00000000000E+00  0.00000000000E+00 -0.19213556405E+04  0.19213556405E+04  0.25500000920E-02 0. -1.
    10030    2    1    2    0    0  0.00000000000E+00  0.00000000000E+00 -0.18746045518E+04  0.19681067293E+04  0.59941794457E+03 0.  0.
        3    1    3    3  502    0 -0.10893753615E+02  0.28697399472E+03 -0.65576063646E+03  0.71588740039E+03  0.10100000352E+00 0.  1.
       -3    1    3    3    0  502  0.10893753615E+02 -0.28697399472E+03 -0.12188439153E+04  0.12522193289E+04  0.10100000352E+00 0. -1.
</event>
<event>
 5   0  0.5790967E-03  0.5994347E+03  0.7818609E-02  0.9906580E-01
       -1   -1    0    0    0  501  0.00000000000E+00  0.00000000000E+00  0.19475302792E+03  0.19475302798E+03  0.50400001928E-02 0. -1.
        1   -1    0    0  501    0  0.00000000000E+00  0.00000000000E+00 -0.46125334416E+03  0.46125334419E+03  0.50400001928E-02 0.  1.
    10030    2    1    2    0    0  0.00000000000E+00  0.00000000000E+00 -0.26650031624E+03  0.65600637217E+03  0.59943468516E+03 0.  0.
        3    1    3    3  502    0 -0.10605144794E+03 -0.18610293283E+03  0.96175503266E+02  0.23479980589E+03  0.10100000352E+00 0. -1.
       -3    1    3    3    0  502  0.10605144794E+03  0.18610293283E+03 -0.36267581951E+03  0.42120656628E+03  0.10100000352E+00 0.  1.
</event>
<event>
 5   0  0.5819446E-03  0.5947175E+03  0.7818609E-02  0.9916427E-01
       -1   -1    0    0    0  501  0.00000000000E+00  0.00000000000E+00  0.18363550434E+03  0.18363550441E+03  0.50400001928E-02 0. -1.
        1   -1    0    0  501    0  0.00000000000E+00  0.00000000000E+00 -0.48150947112E+03  0.48150947115E+03  0.50400001928E-02 0.  1.
    10030    2    1    2    0    0  0.00000000000E+00  0.00000000000E+00 -0.29787396678E+03  0.66514497555E+03  0.59471752826E+03 0.  0.
        5    1    3    3  502    0  0.15338279259E+02 -0.32677470127E+02 -0.47900795805E+03  0.48038921068E+03  0.46999998093E+01 0.  1.
       -5    1    3    3    0  502 -0.15338279259E+02  0.32677470127E+02  0.18113399127E+03  0.18475576488E+03  0.46999998093E+01 0. -1.
</event>
<event>
 5   0  0.9028473E-03  0.6056881E+03  0.7818609E-02  0.9893675E-01
        2   -1    0    0  501    0  0.00000000000E+00  0.00000000000E+00  0.34737642281E+03  0.34737642282E+03  0.25500000920E-02 0. -1.
       -2   -1    0    0    0  501  0.00000000000E+00  0.00000000000E+00 -0.26402053656E+03  0.26402053657E+03  0.25500000920E-02 0.  1.
    10030    2    1    2    0    0  0.00000000000E+00  0.00000000000E+00  0.83355886249E+02  0.61139695939E+03  0.60568807003E+03 0.  0.
        1    1    3    3  502    0 -0.20872512673E+03 -0.50513423916E+02  0.25722449515E+03  0.33508540025E+03  0.50400001928E-02 0. -1.
       -1    1    3    3    0  502  0.20872512673E+03  0.50513423916E+02 -0.17386860891E+03  0.27631155914E+03  0.50400001928E-02 0.  1.
</event>
<event>
 5   0  0.6078658E-03  0.6000483E+03  0.7818609E-02  0.9905306E-01
       -1   -1    0    0    0  501  0.00000000000E+00  0.00000000000E+00  0.11651565897E+03  0.11651565908E+03  0.50400001928E-02 0.  1.
        1   -1    0    0  501    0  0.00000000000E+00  0.00000000000E+00 -0.77255260792E+03  0.77255260794E+03  0.50400001928E-02 0. -1.
    10030    2    1    2    0    0  0.00000000000E+00  0.00000000000E+00 -0.65603694895E+03  0.88906826702E+03  0.60004825226E+03 0.  0.
        2    1    3    3  502    0 -0.10153579700E+03  0.12697852442E+03  0.45587678727E+02  0.16885289513E+03  0.25500000920E-02 0.  1.
       -2    1    3    3    0  502  0.10153579700E+03 -0.12697852442E+03 -0.70162462767E+03  0.72021537189E+03  0.25500000920E-02 0. -1.
</event>
<event>
 5   0  0.9391405E-03  0.5999185E+03  0.7818609E-02  0.9905575E-01
       -2   -1    0    0    0  501  0.00000000000E+00  0.00000000000E+00  0.97340084837E+02  0.97340084871E+02  0.25500000920E-02 0.  1.
        2   -1    0    0  501    0  0.00000000000E+00  0.00000000000E+00 -0.92434221416E+03  0.92434221416E+03  0.25500000920E-02 0. -1.
    10030    2    1    2    0    0  0.00000000000E+00  0.00000000000E+00 -0.82700212932E+03  0.10216822990E+04  0.59991849301E+03 0.  0.
        2    1    3    3  502    0 -0.23069642812E+03  0.14890388886E+03 -0.61915509349E+03  0.67730808342E+03  0.25500000920E-02 0. -1.
       -2    1    3    3    0  502  0.23069642812E+03 -0.14890388886E+03 -0.20784703583E+03  0.34437421561E+03  0.25500000920E-02 0.  1.
</event>
<event>
 5   0  0.5765045E-03  0.5995242E+03  0.7818609E-02  0.9906394E-01
       -1   -1    0    0    0  501  0.00000000000E+00  0.00000000000E+00  0.57783429002E+03  0.57783429004E+03  0.50400001928E-02 0. -1.
        1   -1    0    0  501    0  0.00000000000E+00  0.00000000000E+00 -0.15550708919E+03  0.15550708928E+03  0.50400001928E-02 0.  1.
    10030    2    1    2    0    0  0.00000000000E+00  0.00000000000E+00  0.42232720082E+03  0.73334137932E+03  0.59952423976E+03 0.  0.
        1    1    3    3  502    0 -0.98481822730E+02  0.18996943129E+03 -0.45622978072E+02  0.21878873460E+03  0.50400001928E-02 0.  1.
       -1    1    3    3    0  502  0.98481822730E+02 -0.18996943129E+03  0.46795017890E+03  0.51455264472E+03  0.50400001928E-02 0. -1.
</event>
<event>
 5   0  0.9303190E-03  0.6001712E+03  0.7818609E-02  0.9905051E-01
        2   -1    0    0  501    0  0.00000000000E+00  0.00000000000E+00  0.23521796624E+03  0.23521796626E+03  0.25500000920E-02 0. -1.
       -2   -1    0    0    0  501  0.00000000000E+00  0.00000000000E+00 -0.38284223660E+03  0.38284223661E+03  0.25500000920E-02 0.  1.
    10030    2    1    2    0    0  0.00000000000E+00  0.00000000000E+00 -0.14762427036E+03  0.61806020287E+03  0.60017121655E+03 0.  0.
        4    1    3    3  502    0  0.68373993371E+02 -0.58303717488E+02  0.22103538281E+03  0.23860548987E+03  0.12699999809E+01 0. -1.
       -4    1    3    3    0  502 -0.68373993371E+02  0.58303717488E+02 -0.36865965317E+03  0.37945471300E+03  0.12699999809E+01 0.  1.
</event>
<event>
 5   0  0.5891927E-03  0.5997959E+03  0.7818609E-02  0.9905830E-01
        1   -1    0    0  501    0  0.00000000000E+00  0.00000000000E+00  0.12891475023E+03  0.12891475033E+03  0.50400001928E-02 0.  1.
       -1   -1    0    0    0  501  0.00000000000E+00  0.00000000000E+00 -0.69766098006E+03  0.69766098008E+03  0.50400001928E-02 0. -1.
    10030    2    1    2    0    0  0.00000000000E+00  0.00000000000E+00 -0.56874622983E+03  0.82657573041E+03  0.59979593542E+03 0.  0.
        4    1    3    3  502    0  0.13228189733E+03 -0.24054759675E+03 -0.45074936475E+03  0.52776723030E+03  0.12699999809E+01 0. -1.
       -4    1    3    3    0  502 -0.13228189733E+03  0.24054759675E+03 -0.11799686509E+03  0.29880850010E+03  0.12699999809E+01 0.  1.
</event>
<event>
 5   0  0.9162342E-03  0.5997404E+03  0.7818609E-02  0.9905945E-01
        2   -1    0    0  501    0  0.00000000000E+00  0.00000000000E+00  0.56778418062E+03  0.56778418063E+03  0.25500000920E-02 0.  1.
       -2   -1    0    0    0  501  0.00000000000E+00  0.00000000000E+00 -0.15837381147E+03  0.15837381149E+03  0.25500000920E-02 0. -1.
    10030    2    1    2    0    0  0.00000000000E+00  0.00000000000E+00  0.40941036916E+03  0.72615799211E+03  0.59974042647E+03 0.  0.
        5    1    3    3  502    0  0.25860902141E+03 -0.13336379856E+03  0.29231403074E+03  0.41247316432E+03  0.46999998093E+01 0.  1.
       -5    1    3    3    0  502 -0.25860902141E+03  0.13336379856E+03  0.11709633841E+03  0.31368482779E+03  0.46999998093E+01 0. -1.
</event>
<event>
 5   0  0.6078658E-03  0.5987936E+03  0.7818609E-02  0.9907912E-01
       -1   -1    0    0    0  501  0.00000000000E+00  0.00000000000E+00  0.99468812195E+02  0.99468812323E+02  0.50400001928E-02 0.  1.
        1   -1    0    0  501    0  0.00000000000E+00  0.00000000000E+00 -0.90117150001E+03  0.90117150002E+03  0.50400001928E-02 0. -1.
    10030    2    1    2    0    0  0.00000000000E+00  0.00000000000E+00 -0.80170268781E+03  0.10006403123E+04  0.59879364980E+03 0.  0.
        2    1    3    3  502    0  0.40912833703E+02  0.16830979410E+03 -0.80894191668E+03  0.82727811002E+03  0.25500000920E-02 0. -1.
       -2    1    3    3    0  502 -0.40912833703E+02 -0.16830979410E+03  0.72392288691E+01  0.17336220232E+03  0.25500000920E-02 0.  1.
</event>
<event>
 5   0  0.5790967E-03  0.5994385E+03  0.7818609E-02  0.9906572E-01
       -1   -1    0    0    0  501  0.00000000000E+00  0.00000000000E+00  0.10681392049E+03  0.10681392061E+03  0.50400001928E-02 0. -1.
        1   -1    0    0  501    0  0.00000000000E+00  0.00000000000E+00 -0.84101044331E+03  0.84101044333E+03  0.50400001928E-02 0.  1.
    10030    2    1    2    0    0  0.00000000000E+00  0.00000000000E+00 -0.73419652282E+03  0.94782436393E+03  0.59943847953E+03 0.  0.
        3    1    3    3  502    0  0.46707856154E+02  0.60601937675E+02  0.91111615437E+02  0.11897712110E+03  0.10100000352E+00 0. -1.
       -3    1    3    3    0  502 -0.46707856154E+02 -0.60601937675E+02 -0.82530813826E+03  0.82884724283E+03  0.10100000352E+00 0.  1.
</event>
<event>
 5   0  0.9028473E-03  0.6030624E+03  0.7818609E-02  0.9899073E-01
        2   -1    0    0  501    0  0.00000000000E+00  0.00000000000E+00  0.11393495863E+04  0.11393495863E+04  0.25500000920E-02 0. -1.
       -2   -1    0    0    0  501  0.00000000000E+00  0.00000000000E+00 -0.79800856042E+02  0.79800856082E+02  0.25500000920E-02 0.  1.
    10030    2    1    2    0    0  0.00000000000E+00  0.00000000000E+00  0.10595487302E+04  0.12191504424E+04  0.60306242576E+03 0.  0.
        1    1    3    3  502    0 -0.15075622463E+03 -0.23404713329E+03  0.29562141453E+03  0.40607575725E+03  0.50400001928E-02 0.  1.
       -1    1    3    3    0  502  0.15075622463E+03  0.23404713329E+03  0.76392731570E+03  0.81307468511E+03  0.50400001928E-02 0. -1.
</event>
<event>
 5   0  0.5790967E-03  0.6008950E+03  0.7818609E-02  0.9903551E-01
       -1   -1    0    0    0  501  0.00000000000E+00  0.00000000000E+00  0.41670035129E+02  0.41670035434E+02  0.50400001928E-02 0. -1.
        1   -1    0    0  501    0  0.00000000000E+00  0.00000000000E+00 -0.21662739470E+04  0.21662739470E+04  0.50400001928E-02 0.  1.
    10030    2    1    2    0    0  0.00000000000E+00  0.00000000000E+00 -0.21246039119E+04  0.22079439824E+04  0.60089503846E+03 0.  0.
        3    1    3    3  502    0  0.10766711566E+03 -0.26661858985E+03 -0.74216225167E+03  0.79591613770E+03  0.10100000352E+00 0. -1.
       -3    1    3    3    0  502 -0.10766711566E+03  0.26661858985E+03 -0.13824416602E+04  0.14120278447E+04  0.10100000352E+00 0.  1.
</event>
<event>
 5   0  0.9028473E-03  0.5991976E+03  0.7818609E-02  0.9907072E-01
       -2   -1    0    0    0  501  0.00000000000E+00  0.00000000000E+00  0.19715918560E+03  0.19715918562E+03  0.25500000920E-02 0. -1.
        2   -1    0    0  501    0  0.00000000000E+00  0.00000000000E+00 -0.45526381741E+03  0.45526381741E+03  0.25500000920E-02 0.  1.
    10030    2    1    2    0    0  0.00000000000E+00  0.00000000000E+00 -0.25810463181E+03  0.65242300303E+03  0.59919760841E+03 0.  0.
        1    1    3    3  502    0 -0.18693551437E+03  0.23015401544E+03 -0.82300047817E+02  0.30771586772E+03  0.50400001928E-02 0. -1.
       -1    1    3    3    0  502  0.18693551437E+03 -0.23015401544E+03 -0.17580458399E+03  0.34470713531E+03  0.50400001928E-02 0.  1.
</event>
<event>
 5   0  0.5790967E-03  0.5994754E+03  0.7818609E-02  0.9906495E-01
       -1   -1    0    0    0  501  0.00000000000E+00  0.00000000000E+00  0.11996981833E+04  0.11996981833E+04  0.50400001928E-02 0.  1.
        1   -1    0    0  501    0  0.00000000000E+00  0.00000000000E+00 -0.74887738557E+02  0.74887738727E+02  0.50400001928E-02 0. -1.
    10030    2    1    2    0    0  0.00000000000E+00  0.00000000000E+00  0.11248104448E+04  0.12745859221E+04  0.59947538403E+03 0.  0.
        3    1    3    3  502    0 -0.93443159108E+02  0.19369023980E+03  0.11847286072E+03  0.24552670304E+03  0.10100000352E+00 0. -1.
       -3    1    3    3    0  502  0.93443159108E+02 -0.19369023980E+03  0.10063375841E+04  0.10290592190E+04  0.10100000352E+00 0.  1.
</event>
<event>
 5   0  0.5819446E-03  0.6017942E+03  0.7818609E-02  0.9901691E-01
        1   -1    0    0  501    0  0.00000000000E+00  0.00000000000E+00  0.29665899388E+03  0.29665899393E+03  0.50400001928E-02 0. -1.
       -1   -1    0    0    0  501  0.00000000000E+00  0.00000000000E+00 -0.30519576760E+03  0.30519576764E+03  0.50400001928E-02 0.  1.
    10030    2    1    2    0    0  0.00000000000E+00  0.00000000000E+00 -0.85367737133E+01  0.60185476156E+03  0.60179421525E+03 0.  0.
        5    1    3    3  502    0 -0.20521799504E+02  0.24982878401E+03 -0.17066244961E+03  0.30328753235E+03  0.46999998093E+01 0.  1.
       -5    1    3    3    0  502  0.20521799504E+02 -0.24982878401E+03  0.16212567589E+03  0.29856722921E+03  0.46999998093E+01 0. -1.
</event>
<event>
 5   0  0.9303190E-03  0.6002405E+03  0.7818609E-02  0.9904907E-01
       -2   -1    0    0    0  501  0.00000000000E+00  0.00000000000E+00  0.60450460879E+02  0.60450460932E+02  0.25500000920E-02 0. -1.
        2   -1    0    0  501    0  0.00000000000E+00  0.00000000000E+00 -0.14900160857E+04  0.14900160857E+04  0.25500000920E-02 0.  1.
    10030    2    1    2    0    0  0.00000000000E+00  0.00000000000E+00 -0.14295656248E+04  0.15504665466E+04  0.60024048227E+03 0.  0.
        4    1    3    3  502    0 -0.83455605300E+02 -0.24372673948E+03 -0.11124672858E+04  0.11419074553E+04  0.12699999809E+01 0.  1.
       -4    1    3    3    0  502  0.83455605300E+02  0.24372673948E+03 -0.31709833896E+03  0.40855909127E+03  0.12699999809E+01 0. -1.
</event>
<event>
 5   0  0.9391405E-03  0.5949980E+03  0.7818609E-02  0.9915838E-01
        2   -1    0    0  501    0  0.00000000000E+00  0.00000000000E+00  0.45783482947E+03  0.45783482947E+03  0.25500000920E-02 0.  1.
       -2   -1    0    0    0  501  0.00000000000E+00  0.00000000000E+00 -0.19331350892E+03  0.19331350894E+03  0.25500000920E-02 0. -1.
    10030    2    1    2    0    0  0.00000000000E+00  0.00000000000E+00  0.26452132055E+03  0.65114833841E+03  0.59499800806E+03 0.  0.
        2    1    3    3  502    0  0.46613751073E+02  0.29046051578E+03  0.83742823103E+02  0.30586437099E+03  0.25500000920E-02 0.  1.
       -2    1    3    3    0  502 -0.46613751073E+02 -0.29046051578E+03  0.18077849744E+03  0.34528396742E+03  0.25500000920E-02 0. -1.
</event>
<event>
 5   0  0.5891927E-03  0.6008107E+03  0.7818609E-02  0.9903725E-01
        1   -1    0    0  501    0  0.00000000000E+00  0.00000000000E+00  0.13365509023E+03  0.13365509033E+03  0.50400001928E-02 0.  1.
       -1   -1    0    0    0  501  0.00000000000E+00  0.00000000000E+00 -0.67519600291E+03  0.67519600293E+03  0.50400001928E-02 0. -1.
    10030    2    1    2    0    0  0.00000000000E+00  0.00000000000E+00 -0.54154091268E+03  0.80885109326E+03  0.60081072807E+03 0.  0.
        4    1    3    3  502    0  0.88725654118E+02 -0.23223708925E+03 -0.43752062682E+02  0.25243249238E+03  0.12699999809E+01 0.  1.
       -4    1    3    3    0  502 -0.88725654118E+02  0.23223708925E+03 -0.49778885000E+03  0.55641860088E+03  0.12699999809E+01 0. -1.
</event>
<event>
 5   0  0.3806250E-03  0.6001059E+03  0.7818609E-02  0.9905186E-01
        3   -1    0    0  501    0  0.00000000000E+00  0.00000000000E+00  0.30601795368E+03  0.30601797035E+03  0.10100000352E+00 0.  1.
       -3   -1    0    0    0  501  0.00000000000E+00  0.00000000000E+00 -0.29420417335E+03  0.29420419069E+03  0.10100000352E+00 0. -1.
    10030    2    1    2    0    0  0.00000000000E+00  0.00000000000E+00  0.11813780326E+02  0.60022216104E+03  0.60010588832E+03 0.  0.
        4    1    3    3  502    0  0.14557853760E+03 -0.65839277637E+02  0.25992900105E+03  0.30511083163E+03  0.12699999809E+01 0.  1.
       -4    1    3    3    0  502 -0.14557853760E+03  0.65839277637E+02 -0.24811522072E+03  0.29511132941E+03  0.12699999809E+01 0. -1.
</event>
<event>
 5   0  0.9162342E-03  0.5994991E+03  0.7818609E-02  0.9906446E-01
       -2   -1    0    0    0  501  0.00000000000E+00  0.00000000000E+00  0.14026597049E+03  0.14026597051E+03  0.25500000920E-02 0.  1.
        2   -1    0    0  501    0  0.00000000000E+00  0.00000000000E+00 -0.64056737847E+03  0.64056737847E+03  0.25500000920E-02 0. -1.
    10030    2    1    2    0    0  0.00000000000E+00  0.00000000000E+00 -0.50030140798E+03  0.78083334899E+03  0.59949914101E+03 0.  0.
        5    1    3    3  502    0  0.16309196945E+03 -0.86671300054E+02 -0.55759250186E+03  0.58740309233E+03  0.46999998093E+01 0. -1.
       -5    1    3    3    0  502 -0.16309196945E+03  0.86671300054E+02  0.57291093888E+02  0.19343025665E+03  0.46999998093E+01 0.  1.
</event>
<event>
 5   0  0.5891927E-03  0.5965143E+03  0.7818609E-02  0.9912664E-01
       -1   -1    0    0    0  501  0.00000000000E+00  0.00000000000E+00  0.43833188693E+03  0.43833188696E+03  0.50400001928E-02 0.  1.
        1   -1    0    0  501    0  0.00000000000E+00  0.00000000000E+00 -0.20294516281E+03  0.20294516287E+03  0.50400001928E-02 0. -1.
    10030    2    1    2    0    0  0.00000000000E+00  0.00000000000E+00  0.23538672412E+03  0.64127704983E+03  0.59651432904E+03 0.  0.
        4    1    3    3  502    0  0.21159604858E+03 -0.82992151639E+02 -0.89917909305E+02  0.24443287079E+03  0.12699999809E+01 0. -1.
       -4    1    3    3    0  502 -0.21159604858E+03  0.82992151639E+02  0.32530463343E+03  0.39684417904E+03  0.12699999809E+01 0.  1.
</event>
<event>
 5   0  0.9303190E-03  0.5997141E+03  0.7818609E-02  0.9905999E-01
        2   -1    0    0  501    0  0.00000000000E+00  0.00000000000E+00  0.12551991014E+03  0.12551991016E+03  0.25500000920E-02 0.  1.
       -2   -1    0    0    0  501  0.00000000000E+00  0.00000000000E+00 -0.71633447919E+03  0.71633447920E+03  0.25500000920E-02 0. -1.
    10030    2    1    2    0    0  0.00000000000E+00  0.00000000000E+00 -0.59081456906E+03  0.84185438936E+03  0.59971406343E+03 0.  0.
        4    1    3    3  502    0  0.59035073598E+02  0.10858098049E+03  0.88098348338E+02  0.15178241373E+03  0.12699999809E+01 0.  1.
       -4    1    3    3    0  502 -0.59035073598E+02 -0.10858098049E+03 -0.67891291740E+03  0.69007197563E+03  0.12699999809E+01 0. -1.
</event>
<event>
 5   0  0.6078658E-03  0.5998323E+03  0.7818609E-02  0.9905754E-01
        1   -1    0    0  501    0  0.00000000000E+00  0.00000000000E+00  0.27471436922E+03  0.27471436927E+03  0.50400001928E-02 0. -1.
       -1   -1    0    0    0  501  0.00000000000E+00  0.00000000000E+00 -0.32742992117E+03  0.32742992121E+03  0.50400001928E-02 0.  1.
    10030    2    1    2    0    0  0.00000000000E+00  0.00000000000E+00 -0.52715551947E+02  0.60214429047E+03  0.59983232418E+03 0.  0.
        2    1    3    3  502    0 -0.15974567860E+03 -0.64659542182E+02 -0.27276295470E+03  0.32264402627E+03  0.25500000920E-02 0.  1.
       -2    1    3    3    0  502  0.15974567860E+03  0.64659542182E+02  0.22004740275E+03  0.27950026420E+03  0.25500000920E-02 0. -1.
</event>
<event>
 5   0  0.6078658E-03  0.6001649E+03  0.7818609E-02  0.9905064E-01
        1   -1    0    0  501    0  0.00000000000E+00  0.00000000000E+00  0.28293067808E+03  0.28293067813E+03  0.50400001928E-02 0.  1.
       -1   -1    0    0    0  501  0.00000000000E+00  0.00000000000E+00 -0.31827401746E+03  0.31827401750E+03  0.50400001928E-02 0. -1.
    10030    2    1    2    0    0  0.00000000000E+00  0.00000000000E+00 -0.35343339381E+02  0.60120469563E+03  0.60016492267E+03 0.  0.
        2    1    3    3  502    0  0.82483002928E+02  0.36132075037E+02  0.26907678680E+03  0.28374511418E+03  0.25500000920E-02 0.  1.
       -2    1    3    3    0  502 -0.82483002928E+02 -0.36132075037E+02 -0.30442012618E+03  0.31745958144E+03  0.25500000920E-02 0. -1.
</event>
<event>
 5   0  0.9391405E-03  0.5995041E+03  0.7818609E-02  0.9906435E-01
        2   -1    0    0  501    0  0.00000000000E+00  0.00000000000E+00  0.70819198899E+03  0.70819198899E+03  0.25500000920E-02 0. -1.
       -2   -1    0    0    0  501  0.00000000000E+00  0.00000000000E+00 -0.12687421235E+03  0.12687421238E+03  0.25500000920E-02 0.  1.
    10030    2    1    2    0    0  0.00000000000E+00  0.00000000000E+00  0.58131777664E+03  0.83506620137E+03  0.59950413113E+03 0.  0.
        2    1    3    3  502    0 -0.17737560338E+03 -0.22872644982E+03  0.18210511378E+03  0.34196515319E+03  0.25500000920E-02 0.  1.
       -2    1    3    3    0  502  0.17737560338E+03  0.22872644982E+03  0.39921266286E+03  0.49310104818E+03  0.25500000920E-02 0. -1.
</event>
<event>
 5   0  0.5819446E-03  0.6007420E+03  0.7818609E-02  0.9903868E-01
       -1   -1    0    0    0  501  0.00000000000E+00  0.00000000000E+00  0.22061946393E+03  0.22061946399E+03  0.50400001928E-02 0. -1.
        1   -1    0    0  501    0  0.00000000000E+00  0.00000000000E+00 -0.40895189179E+03  0.40895189182E+03  0.50400001928E-02 0.  1.
    10030    2    1    2    0    0  0.00000000000E+00  0.00000000000E+00 -0.18833242785E+03  0.62957135581E+03  0.60074203172E+03 0.  0.
        5    1    3    3  502    0 -0.21251044738E+03  0.16136642994E+03  0.50292374578E+02  0.27157177301E+03  0.46999998093E+01 0. -1.
       -5    1    3    3    0  502  0.21251044738E+03 -0.16136642994E+03 -0.23862480243E+03  0.35799958281E+03  0.46999998093E+01 0.  1.
</event>
<event>
 5   0  0.5891927E-03  0.6001385E+03  0.7818609E-02  0.9905119E-01
        1   -1    0    0  501    0  0.00000000000E+00  0.00000000000E+00  0.66421559082E+02  0.66421559273E+02  0.50400001928E-02 0. -1.
       -1   -1    0    0    0  501  0.00000000000E+00  0.00000000000E+00 -0.13556072657E+04  0.13556072657E+04  0.50400001928E-02 0.  1.
    10030    2    1    2    0    0  0.00000000000E+00  0.00000000000E+00 -0.12891857066E+04  0.14220288250E+04  0.60013847813E+03 0.  0.
        4    1    3    3  502    0 -0.29129340810E+02 -0.24736236373E+03 -0.10411094426E+04  0.10704892068E+04  0.12699999809E+01 0.  1.
       -4    1    3    3    0  502  0.29129340810E+02  0.24736236373E+03 -0.24807626401E+03  0.35153961818E+03  0.12699999809E+01 0. -1.
</event>
<event>
 5   0  0.5819446E-03  0.5994980E+03  0.7818609E-02  0.9906448E-01
        1   -1    0    0  501    0  0.00000000000E+00  0.00000000000E+00  0.52155045553E+03  0.52155045556E+03  0.50400001928E-02 0. -1.
       -1   -1    0    0    0  501  0.00000000000E+00  0.00000000000E+00 -0.17227375073E+03  0.17227375080E+03  0.50400001928E-02 0.  1.
    10030    2    1    2    0    0  0.00000000000E+00  0.00000000000E+00  0.34927670480E+03  0.69382420636E+03  0.59949796732E+03 0.  0.
        5    1    3    3  502    0 -0.13626768862E+03 -0.23477000655E+03  0.27598856754E+02  0.27289123443E+03  0.46999998093E+01 0.  1.
       -5    1    3    3    0  502  0.13626768862E+03  0.23477000655E+03  0.32167784805E+03  0.42093297193E+03  0.46999998093E+01 0. -1.
</event>
<event>
 5   0  0.9391405E-03  0.6019459E+03  0.7818609E-02  0.9901377E-01
       -2   -1    0    0    0  501  0.00000000000E+00  0.00000000000E+00  0.50667818964E+03  0.50667818965E+03  0.25500000920E-02 0. -1.
        2   -1    0    0  501    0  0.00000000000E+00  0.00000000000E+00 -0.17878153263E+03  0.17878153265E+03  0.25500000920E-02 0.  1.
    10030    2    1    2    0    0  0.00000000000E+00  0.00000000000E+00  0.32789665702E+03  0.68545972230E+03  0.60194585571E+03 0.  0.
        2    1    3    3  502    0  0.23155604144E+03 -0.19030001955E+03  0.19518397518E+03  0.35767175167E+03  0.25500000920E-02 0. -1.
       -2    1    3    3    0  502 -0.23155604144E+03  0.19030001955E+03  0.13271268183E+03  0.32778797063E+03  0.25500000920E-02 0.  1.
</event>
<event>
 5   0  0.9391405E-03  0.6000265E+03  0.7818609E-02  0.9905351E-01
       -2   -1    0    0    0  501  0.00000000000E+00  0.00000000000E+00  0.13132202788E+03  0.13132202791E+03  0.25500000920E-02 0. -1.
        2   -1    0    0  501    0  0.00000000000E+00  0.00000000000E+00 -0.68539880249E+03  0.68539880249E+03  0.25500000920E-02 0.  1.
    10030    2    1    2    0    0  0.00000000000E+00  0.00000000000E+00 -0.55407677460E+03  0.81672083040E+03  0.60002653496E+03 0.  0.
        2    1    3    3  502    0  0.16888227670E+03 -0.11605581465E+03  0.21227947753E+02  0.20601165324E+03  0.25500000920E-02 0. -1.
       -2    1    3    3    0  502 -0.16888227670E+03  0.11605581465E+03 -0.57530472235E+03  0.61070917716E+03  0.25500000920E-02 0.  1.
</event>
<event>
 5   0  0.5891927E-03  0.5994967E+03  0.7818609E-02  0.9906451E-01
        1   -1    0    0  501    0  0.00000000000E+00  0.00000000000E+00  0.70192931048E+03  0.70192931050E+03  0.50400001928E-02 0. -1.
       -1   -1    0    0    0  501  0.00000000000E+00  0.00000000000E+00 -0.12800303720E+03  0.12800303730E+03  0.50400001928E-02 0.  1.
    10030    2    1    2    0    0  0.00000000000E+00  0.00000000000E+00  0.57392627329E+03  0.82993234780E+03  0.59949673457E+03 0.  0.
        4    1    3    3  502    0  0.17348977545E+03 -0.12116075302E+03 -0.69331257172E+01  0.21172697370E+03  0.12699999809E+01 0.  1.
       -4    1    3    3    0  502 -0.17348977545E+03  0.12116075302E+03  0.58085939900E+03  0.61820537410E+03  0.12699999809E+01 0. -1.
</event>
<event>
 5   0  0.9822607E-03  0.6004287E+03  0.7818609E-02  0.9904517E-01
       -2   -1    0    0    0  501  0.00000000000E+00  0.00000000000E+00  0.15476281920E+03  0.15476281923E+03  0.25500000920E-02 0.  1.
        2   -1    0    0  501    0  0.00000000000E+00  0.00000000000E+00 -0.58236627276E+03  0.58236627276E+03  0.25500000920E-02 0. -1.
    10030    2    1    2    0    0  0.00000000000E+00  0.00000000000E+00 -0.42760345355E+03  0.73712909199E+03  0.60042866751E+03 0.  0.
        3    1    3    3  502    0  0.20460494333E+03 -0.24262174293E+02  0.54260537488E+02  0.21306349304E+03  0.10100000352E+00 0.  1.
       -3    1    3    3    0  502 -0.20460494333E+03  0.24262174293E+02 -0.48186399104E+03  0.52406559895E+03  0.10100000352E+00 0. -1.
</event>
<event>
 5   0  0.9822607E-03  0.5992272E+03  0.7818609E-02  0.9907011E-01
        2   -1    0    0  501    0  0.00000000000E+00  0.00000000000E+00  0.19315820827E+04  0.19315820827E+04  0.25500000920E-02 0. -1.
       -2   -1    0    0    0  501  0.00000000000E+00  0.00000000000E+00 -0.46473987824E+02  0.46473987894E+02  0.25500000920E-02 0.  1.
    10030    2    1    2    0    0  0.00000000000E+00  0.00000000000E+00  0.18851080949E+04  0.19780560706E+04  0.59922724325E+03 0.  0.
        3    1    3    3  502    0  0.64627606789E+02  0.29053671296E+03  0.82916043528E+03  0.88096273859E+03  0.10100000352E+00 0.  1.
       -3    1    3    3    0  502 -0.64627606789E+02 -0.29053671296E+03  0.10559476596E+04  0.10970933320E+04  0.10100000352E+00 0. -1.
</event>
<event>
 5   0  0.9303190E-03  0.5999293E+03  0.7818609E-02  0.9905553E-01
        2   -1    0    0  501    0  0.00000000000E+00  0.00000000000E+00  0.25693793622E+03  0.25693793623E+03  0.25500000920E-02 0.  1.
       -2   -1    0    0    0  501  0.00000000000E+00  0.00000000000E+00 -0.35019661142E+03  0.35019661143E+03  0.25500000920E-02 0. -1.
    10030    2    1    2    0    0  0.00000000000E+00  0.00000000000E+00 -0.93258675199E+02  0.60713454766E+03  0.59992931122E+03 0.  0.
        4    1    3    3  502    0  0.16278293236E+03 -0.18522776346E+03 -0.21947158733E+03  0.33011664298E+03  0.12699999809E+01 0. -1.
       -4    1    3    3    0  502 -0.16278293236E+03  0.18522776346E+03  0.12621291213E+03  0.27701790468E+03  0.12699999809E+01 0.  1.
</event>
<event>
 5   0  0.5891927E-03  0.5998084E+03  0.7818609E-02  0.9905804E-01
        1   -1    0    0  501    0  0.00000000000E+00  0.00000000000E+00  0.44185035783E+03  0.44185035786E+03  0.50400001928E-02 0. -1.
       -1   -1    0    0    0  501  0.00000000000E+00  0.00000000000E+00 -0.20355882681E+03  0.20355882688E+03  0.50400001928E-02 0.  1.
    10030    2    1    2    0    0  0.00000000000E+00  0.00000000000E+00  0.23829153102E+03  0.64540918474E+03  0.59980843774E+03 0.  0.
        4    1    3    3  502    0  0.28511440309E+03 -0.92824001972E+02  0.11283385001E+03  0.32037416999E+03  0.12699999809E+01 0.  1.
       -4    1    3    3    0  502 -0.28511440309E+03  0.92824001972E+02  0.12545768101E+03  0.32503501475E+03  0.12699999809E+01 0. -1.
</event>
<event>
 5   0  0.5891927E-03  0.5968743E+03  0.7818609E-02  0.9911912E-01
       -1   -1    0    0    0  501  0.00000000000E+00  0.00000000000E+00  0.98229605995E+03  0.98229605996E+03  0.50400001928E-02 0. -1.
        1   -1    0    0  501    0  0.00000000000E+00  0.00000000000E+00 -0.90669961181E+02  0.90669961321E+02  0.50400001928E-02 0.  1.
    10030    2    1    2    0    0  0.00000000000E+00  0.00000000000E+00  0.89162609877E+03  0.10729660213E+04  0.59687434425E+03 0.  0.
        4    1    3    3  502    0 -0.13710158633E+02 -0.15647769444E+02 -0.89359951426E+02  0.91758568849E+02  0.12699999809E+01 0.  1.
       -4    1    3    3    0  502  0.13710158633E+02  0.15647769444E+02  0.98098605019E+03  0.98120745243E+03  0.12699999809E+01 0. -1.
</event>
<event>
 5   0  0.9162342E-03  0.5966629E+03  0.7818609E-02  0.9912354E-01
        2   -1    0    0  501    0  0.00000000000E+00  0.00000000000E+00  0.54332196356E+03  0.54332196356E+03  0.25500000920E-02 0. -1.
       -2   -1    0    0    0  501  0.00000000000E+00  0.00000000000E+00 -0.16381013124E+03  0.16381013126E+03  0.25500000920E-02 0.  1.
    10030    2    1    2    0    0  0.00000000000E+00  0.00000000000E+00  0.37951183232E+03  0.70713209482E+03  0.59666286013E+03 0.  0.
        5    1    3    3  502    0  0.35121088295E+02 -0.83495259680E+02 -0.14707268328E+03  0.17279297844E+03  0.46999998093E+01 0.  1.
       -5    1    3    3    0  502 -0.35121088295E+02  0.83495259680E+02  0.52658451560E+03  0.53433911639E+03  0.46999998093E+01 0. -1.
</event>
<event>
 5   0  0.5891927E-03  0.5998373E+03  0.7818609E-02  0.9905744E-01
       -1   -1    0    0    0  501  0.00000000000E+00  0.00000000000E+00  0.46494457428E+02  0.46494457701E+02  0.50400001928E-02 0.  1.
        1   -1    0    0  501    0  0.00000000000E+00  0.00000000000E+00 -0.19346650145E+04  0.19346650145E+04  0.50400001928E-02 0. -1.
    10030    2    1    2    0    0  0.00000000000E+00  0.00000000000E+00 -0.18881705571E+04  0.19811594722E+04  0.59983731272E+03 0.  0.
        4    1    3    3  502    0 -0.15015827740E+03 -0.98764663381E+02 -0.17370916027E+04  0.17463650294E+04  0.12699999809E+01 0. -1.
       -4    1    3    3    0  502  0.15015827740E+03  0.98764663381E+02 -0.15107895442E+03  0.23479444281E+03  0.12699999809E+01 0.  1.
</event>
<event>
 5   0  0.9822607E-03  0.5990865E+03  0.7818609E-02  0.9907303E-01
        2   -1    0    0  501    0  0.00000000000E+00  0.00000000000E+00  0.20659894704E+04  0.20659894704E+04  0.25500000920E-02 0. -1.
       -2   -1    0    0    0  501  0.00000000000E+00  0.00000000000E+00 -0.43430111191E+02  0.43430111266E+02  0.25500000920E-02 0.  1.
    10030    2    1    2    0    0  0.00000000000E+00  0.00000000000E+00  0.20225593592E+04  0.21094195817E+04  0.59908647957E+03 0.  0.
        3    1    3    3  502    0  0.46109952107E+02  0.43350372423E+02  0.20421794926E+04  0.20431599234E+04  0.10100000352E+00 0. -1.
       -3    1    3    3    0  502 -0.46109952107E+02 -0.43350372423E+02 -0.19620133411E+02  0.66259658228E+02  0.10100000352E+00 0.  1.
</event>
<event>
 5   0  0.9822607E-03  0.5967345E+03  0.7818609E-02  0.9912204E-01
        2   -1    0    0  501    0  0.00000000000E+00  0.00000000000E+00  0.24205915958E+04  0.24205915958E+04  0.25500000920E-02 0. -1.
       -2   -1    0    0    0  501  0.00000000000E+00  0.00000000000E+00 -0.36777384979E+02  0.36777385067E+02  0.25500000920E-02 0.  1.
    10030    2    1    2    0    0  0.00000000000E+00  0.00000000000E+00  0.23838142108E+04  0.24573689809E+04  0.59673454435E+03 0.  0.
        3    1    3    3  502    0 -0.18573073017E+03 -0.23235900534E+03  0.10965316605E+04  0.11361638544E+04  0.10100000352E+00 0. -1.
       -3    1    3    3    0  502  0.18573073017E+03  0.23235900534E+03  0.12872825504E+04  0.13212051264E+04  0.10100000352E+00 0.  1.
</event>
<event>
 5   0  0.5891927E-03  0.5990002E+03  0.7818609E-02  0.9907483E-01
       -1   -1    0    0    0  501  0.00000000000E+00  0.00000000000E+00  0.92978518495E+02  0.92978518632E+02  0.50400001928E-02 0.  1.
        1   -1    0    0  501    0  0.00000000000E+00  0.00000000000E+00 -0.96474219518E+03  0.96474219519E+03  0.50400001928E-02 0. -1.
    10030    2    1    2    0    0  0.00000000000E+00  0.00000000000E+00 -0.87176367668E+03  0.10577207138E+04  0.59900016733E+03 0.  0.
        4    1    3    3  502    0  0.11155692924E+03  0.18849349007E+03 -0.79657402707E+03  0.82613953892E+03  0.12699999809E+01 0. -1.
       -4    1    3    3    0  502 -0.11155692924E+03 -0.18849349007E+03 -0.75189649614E+02  0.23158117491E+03  0.12699999809E+01 0.  1.
</event>
<event>
 5   0  0.5790967E-03  0.5963862E+03  0.7818609E-02  0.9912932E-01
        1   -1    0    0  501    0  0.00000000000E+00  0.00000000000E+00  0.51780910451E+03  0.51780910453E+03  0.50400001928E-02 0.  1.
       -1   -1    0    0    0  501  0.00000000000E+00  0.00000000000E+00 -0.17172181820E+03  0.17172181827E+03  0.50400001928E-02 0. -1.
    10030    2    1    2    0    0  0.00000000000E+00  0.00000000000E+00  0.34608728631E+03  0.68953092281E+03  0.59638618676E+03 0.  0.
        3    1    3    3  502    0 -0.29791338619E+03 -0.43864372488E+01  0.18708467347E+03  0.35181289310E+03  0.10100000352E+00 0.  1.
       -3    1    3    3    0  502  0.29791338619E+03  0.43864372488E+01  0.15900261284E+03  0.33771802971E+03  0.10100000352E+00 0. -1.
</event>
<event>
 5   0  0.5891927E-03  0.6031635E+03  0.7818609E-02  0.9898865E-01
       -1   -1    0    0    0  501  0.00000000000E+00  0.00000000000E+00  0.25196475377E+03  0.25196475382E+03  0.50400001928E-02 0.  1.
        1   -1    0    0  501    0  0.00000000000E+00  0.00000000000E+00 -0.36096929104E+03  0.36096929107E+03  0.50400001928E-02 0. -1.
    10030    2    1    2    0    0  0.00000000000E+00  0.00000000000E+00 -0.10900453727E+03  0.61293404490E+03  0.60316345566E+03 0.  0.
        4    1    3    3  502    0  0.22709198951E+03 -0.19672420214E+03 -0.28027561342E+02  0.30175874553E+03  0.12699999809E+01 0. -1.
       -4    1    3    3    0  502 -0.22709198951E+03  0.19672420214E+03 -0.80976975926E+02  0.31117529937E+03  0.12699999809E+01 0.  1.
</event>
<event>
 5   0  0.9162342E-03  0.6179613E+03  0.7818609E-02  0.9868827E-01
        2   -1    0    0  501    0  0.00000000000E+00  0.00000000000E+00  0.16583801116E+04  0.16583801116E+04  0.25500000920E-02 0. -1.
       -2   -1    0    0    0  501  0.00000000000E+00  0.00000000000E+00 -0.57567640353E+02  0.57567640409E+02  0.25500000920E-02 0.  1.
    10030    2    1    2    0    0  0.00000000000E+00  0.00000000000E+00  0.16008124712E+04  0.17159477520E+04  0.61796126054E+03 0.  0.
        5    1    3    3  502    0 -0.21416166656E+03 -0.17905255816E+03  0.43284184411E+03  0.51507202411E+03  0.46999998093E+01 0.  1.
       -5    1    3    3    0  502  0.21416166656E+03  0.17905255816E+03  0.11679706271E+04  0.12008757279E+04  0.46999998093E+01 0. -1.
</event>
<event>
 5   0  0.5891927E-03  0.5989164E+03  0.7818609E-02  0.9907657E-01
       -1   -1    0    0    0  501  0.00000000000E+00  0.00000000000E+00  0.62252101687E+02  0.62252101891E+02  0.50400001928E-02 0.  1.
        1   -1    0    0  501    0  0.00000000000E+00  0.00000000000E+00 -0.14405172798E+04  0.14405172799E+04  0.50400001928E-02 0. -1.
    10030    2    1    2    0    0  0.00000000000E+00  0.00000000000E+00 -0.13782651782E+04  0.15027693817E+04  0.59891644942E+03 0.  0.
        4    1    3    3  502    0  0.24062021060E+03  0.11762083324E+03 -0.10252165892E+04  0.10596241852E+04  0.12699999809E+01 0. -1.
       -4    1    3    3    0  502 -0.24062021060E+03 -0.11762083324E+03 -0.35304858893E+03  0.44314519653E+03  0.12699999809E+01 0.  1.
</event>
<event>
 5   0  0.3806250E-03  0.6012836E+03  0.7818609E-02  0.9902747E-01
        3   -1    0    0  501    0  0.00000000000E+00  0.00000000000E+00  0.26370028871E+03  0.26370030805E+03  0.10100000352E+00 0.  1.
       -3   -1    0    0    0  501  0.00000000000E+00  0.00000000000E+00 -0.34275837214E+03  0.34275838702E+03  0.10100000352E+00 0. -1.
    10030    2    1    2    0    0  0.00000000000E+00  0.00000000000E+00 -0.79058083429E+02  0.60645869507E+03  0.60128360054E+03 0.  0.
        2    1    3    3  502    0 -0.24622641272E+03 -0.15144027681E+03  0.43788763814E+02  0.29236802083E+03  0.25500000920E-02 0. -1.
       -2    1    3    3    0  502  0.24622641272E+03  0.15144027681E+03 -0.12284684724E+03  0.31409067424E+03  0.25500000920E-02 0.  1.
</event>
<event>
 5   0  0.6078658E-03  0.6010287E+03  0.7818609E-02  0.9903274E-01
        1   -1    0    0  501    0  0.00000000000E+00  0.00000000000E+00  0.56384606047E+03  0.56384606049E+03  0.50400001928E-02 0. -1.
       -1   -1    0    0    0  501  0.00000000000E+00  0.00000000000E+00 -0.16016580948E+03  0.16016580956E+03  0.50400001928E-02 0.  1.
    10030    2    1    2    0    0  0.00000000000E+00  0.00000000000E+00  0.40368025099E+03  0.72401187005E+03  0.60102865401E+03 0.  0.
        2    1    3    3  502    0  0.10643611833E+03  0.10235101482E+03 -0.11344973632E+03  0.18621283575E+03  0.25500000920E-02 0.  1.
       -2    1    3    3    0  502 -0.10643611833E+03 -0.10235101482E+03  0.51712998731E+03  0.53779903430E+03  0.25500000920E-02 0. -1.
</event>
<event>
 5   0  0.5819446E-03  0.6002134E+03  0.7818609E-02  0.9904963E-01
       -1   -1    0    0    0  501  0.00000000000E+00  0.00000000000E+00  0.51408407648E+03  0.51408407650E+03  0.50400001928E-02 0.  1.
        1   -1    0    0  501    0  0.00000000000E+00  0.00000000000E+00 -0.17519321652E+03  0.17519321659E+03  0.50400001928E-02 0. -1.
    10030    2    1    2    0    0  0.00000000000E+00  0.00000000000E+00  0.33889085996E+03  0.68927729310E+03  0.60021343855E+03 0.  0.
        5    1    3    3  502    0  0.16095127220E+03  0.20360762362E+03 -0.35024735459E+01  0.25960688308E+03  0.46999998093E+01 0. -1.
       -5    1    3    3    0  502 -0.16095127220E+03 -0.20360762362E+03  0.34239333350E+03  0.42967041002E+03  0.46999998093E+01 0.  1.
</event>
<event>
 5   0  0.9391405E-03  0.6010813E+03  0.7818609E-02  0.9903165E-01
        2   -1    0    0  501    0  0.00000000000E+00  0.00000000000E+00  0.23653190988E+03  0.23653190990E+03  0.25500000920E-02 0. -1.
       -2   -1    0    0    0  501  0.00000000000E+00  0.00000000000E+00 -0.38187104182E+03  0.38187104183E+03  0.25500000920E-02 0.  1.
    10030    2    1    2    0    0  0.00000000000E+00  0.00000000000E+00 -0.14533913193E+03  0.61840295173E+03  0.60108131516E+03 0.  0.
        2    1    3    3  502    0 -0.64298350931E+02 -0.57074993047E+02 -0.36894908551E+03  0.37883408040E+03  0.25500000920E-02 0.  1.
       -2    1    3    3    0  502  0.64298350931E+02  0.57074993047E+02  0.22360995358E+03  0.23956887133E+03  0.25500000920E-02 0. -1.
</event>
<event>
 5   0  0.9303190E-03  0.5999690E+03  0.7818609E-02  0.9905470E-01
       -2   -1    0    0    0  501  0.00000000000E+00  0.00000000000E+00  0.38777214815E+02  0.38777214899E+02  0.25500000920E-02 0. -1.
        2   -1    0    0  501    0  0.00000000000E+00  0.00000000000E+00 -0.23207109646E+04  0.23207109646E+04  0.25500000920E-02 0.  1.
    10030    2    1    2    0    0  0.00000000000E+00  0.00000000000E+00 -0.22819337497E+04  0.23594881795E+04  0.59996902486E+03 0.  0.
        4    1    3    3  502    0  0.18487274802E+03 -0.11137867448E+03 -0.19603058667E+04  0.19721520849E+04  0.12699999809E+01 0.  1.
       -4    1    3    3    0  502 -0.18487274802E+03  0.11137867448E+03 -0.32162788302E+03  0.38733609453E+03  0.12699999809E+01 0. -1.
</event>
<event>
 5   0  0.9822607E-03  0.5997894E+03  0.7818609E-02  0.9905843E-01
        2   -1    0    0  501    0  0.00000000000E+00  0.00000000000E+00  0.15338457407E+04  0.15338457407E+04  0.25500000920E-02 0.  1.
       -2   -1    0    0    0  501  0.00000000000E+00  0.00000000000E+00 -0.58634855555E+02  0.58634855610E+02  0.25500000920E-02 0. -1.
    10030    2    1    2    0    0  0.00000000000E+00  0.00000000000E+00  0.14752108852E+04  0.15924805963E+04  0.59978937469E+03 0.  0.
        3    1    3    3  502    0  0.12660045890E+03 -0.54728732093E+02  0.14446407078E+04  0.14512097350E+04  0.10100000352E+00 0.  1.
       -3    1    3    3    0  502 -0.12660045890E+03  0.54728732093E+02  0.30570177416E+02  0.14127086132E+03  0.10100000352E+00 0. -1.
</event>
<event>
 5   0  0.5891927E-03  0.5997242E+03  0.7818609E-02  0.9905978E-01
        1   -1    0    0  501    0  0.00000000000E+00  0.00000000000E+00  0.54524111764E+03  0.54524111766E+03  0.50400001928E-02 0. -1.
       -1   -1    0    0    0  501  0.00000000000E+00  0.00000000000E+00 -0.16491287517E+03  0.16491287525E+03  0.50400001928E-02 0.  1.
    10030    2    1    2    0    0  0.00000000000E+00  0.00000000000E+00  0.38032824247E+03  0.71015399291E+03  0.59972420464E+03 0.  0.
        4    1    3    3  502    0 -0.18671701265E+03  0.21091005515E+03  0.31190195661E+03  0.42027459787E+03  0.12699999809E+01 0. -1.
       -4    1    3    3    0  502  0.18671701265E+03 -0.21091005515E+03  0.68426285857E+02  0.28987939505E+03  0.12699999809E+01 0.  1.
</event>
<event>
 5   0  0.5790967E-03  0.5996069E+03  0.7818609E-02  0.9906222E-01
        1   -1    0    0  501    0  0.00000000000E+00  0.00000000000E+00  0.16939459418E+03  0.16939459426E+03  0.50400001928E-02 0.  1.
       -1   -1    0    0    0  501  0.00000000000E+00  0.00000000000E+00 -0.53060796874E+03  0.53060796876E+03  0.50400001928E-02 0. -1.
    10030    2    1    2    0    0  0.00000000000E+00  0.00000000000E+00 -0.36121337455E+03  0.70000256302E+03  0.59960694315E+03 0.  0.
        3    1    3    3  502    0  0.29589860652E+02  0.40006007476E+02  0.16454005300E+03  0.17189962109E+03  0.10100000352E+00 0.  1.
       -3    1    3    3    0  502 -0.29589860652E+02 -0.40006007476E+02 -0.52575342756E+03  0.52810294193E+03  0.10100000352E+00 0. -1.
</event>
<event>
 5   0  0.5819446E-03  0.6000205E+03  0.7818609E-02  0.9905364E-01
        1   -1    0    0  501    0  0.00000000000E+00  0.00000000000E+00  0.21893683974E+03  0.21893683980E+03  0.50400001928E-02 0. -1.
       -1   -1    0    0    0  501  0.00000000000E+00  0.00000000000E+00 -0.41110550059E+03  0.41110550062E+03  0.50400001928E-02 0.  1.
    10030    2    1    2    0    0  0.00000000000E+00  0.00000000000E+00 -0.19216866085E+03  0.63004234041E+03  0.60002046340E+03 0.  0.
        5    1    3    3  502    0  0.43495070665E+01  0.82326746385E+02  0.20676913535E+03  0.22264810063E+03  0.46999998093E+01 0. -1.
       -5    1    3    3    0  502 -0.43495070665E+01 -0.82326746385E+02 -0.39893779619E+03  0.40739423979E+03  0.46999998093E+01 0.  1.
</event>
<event>
 5   0  0.5819446E-03  0.6008914E+03  0.7818609E-02  0.9903558E-01
       -1   -1    0    0    0  501  0.00000000000E+00  0.00000000000E+00  0.25840790722E+03  0.25840790726E+03  0.50400001928E-02 0. -1.
        1   -1    0    0  501    0  0.00000000000E+00  0.00000000000E+00 -0.34932222533E+03  0.34932222536E+03  0.50400001928E-02 0.  1.
    10030    2    1    2    0    0  0.00000000000E+00  0.00000000000E+00 -0.90914318110E+02  0.60773013263E+03  0.60089142186E+03 0.  0.
        5    1    3    3  502    0 -0.16862742113E+03  0.24196668872E+03  0.12310753198E+02  0.29522318718E+03  0.46999998093E+01 0. -1.
       -5    1    3    3    0  502  0.16862742113E+03 -0.24196668872E+03 -0.10322507131E+03  0.31250694545E+03  0.46999998093E+01 0.  1.
</event>
<event>
 5   0  0.9391405E-03  0.6011519E+03  0.7818609E-02  0.9903019E-01
        2   -1    0    0  501    0  0.00000000000E+00  0.00000000000E+00  0.12063772610E+04  0.12063772610E+04  0.25500000920E-02 0. -1.
       -2   -1    0    0    0  501  0.00000000000E+00  0.00000000000E+00 -0.74890254277E+02  0.74890254320E+02  0.25500000920E-02 0.  1.
    10030    2    1    2    0    0  0.00000000000E+00  0.00000000000E+00  0.11314870068E+04  0.12812675153E+04  0.60115189382E+03 0.  0.
        2    1    3    3  502    0 -0.38417359940E+02  0.41761379998E+02 -0.63370666810E+02  0.85063198991E+02  0.25500000920E-02 0.  1.
       -2    1    3    3    0  502  0.38417359940E+02 -0.41761379998E+02  0.11948576736E+04  0.11962043164E+04  0.25500000920E-02 0. -1.
</event>
<event>
 5   0  0.9391405E-03  0.5992063E+03  0.7818609E-02  0.9907054E-01
        2   -1    0    0  501    0  0.00000000000E+00  0.00000000000E+00  0.25089587106E+03  0.25089587107E+03  0.25500000920E-02 0. -1.
       -2   -1    0    0    0  501  0.00000000000E+00  0.00000000000E+00 -0.35776608454E+03  0.35776608455E+03  0.25500000920E-02 0.  1.
    10030    2    1    2    0    0  0.00000000000E+00  0.00000000000E+00 -0.10687021349E+03  0.60866195562E+03  0.59920625304E+03 0.  0.
        2    1    3    3  502    0  0.21988758095E+02 -0.37484242144E+01 -0.35692145030E+03  0.35761778180E+03  0.25500000920E-02 0.  1.
       -2    1    3    3    0  502 -0.21988758095E+02  0.37484242144E+01  0.25005123682E+03  0.25104417382E+03  0.25500000920E-02 0. -1.
</event>
<event>
 5   0  0.5765045E-03  0.5999044E+03  0.7818609E-02  0.9905604E-01
       -1   -1    0    0    0  501  0.00000000000E+00  0.00000000000E+00  0.19034687583E+03  0.19034687589E+03  0.50400001928E-02 0. -1.
        1   -1    0    0  501    0  0.00000000000E+00  0.00000000000E+00 -0.47267035787E+03  0.47267035790E+03  0.50400001928E-02 0.  1.
    10030    2    1    2    0    0  0.00000000000E+00  0.00000000000E+00 -0.28232348204E+03  0.66301723379E+03  0.59990441221E+03 0.  0.
        1    1    3    3  502    0  0.25168471300E+03 -0.35372743564E+01 -0.32146132618E+03  0.40828310193E+03  0.50400001928E-02 0.  1.
       -1    1    3    3    0  502 -0.25168471300E+03  0.35372743564E+01  0.39137844135E+02  0.25473413186E+03  0.50400001928E-02 0. -1.
</event>
<event>
 5   0  0.5891927E-03  0.6001832E+03  0.7818609E-02  0.9905026E-01
        1   -1    0    0  501    0  0.00000000000E+00  0.00000000000E+00  0.48309087703E+03  0.48309087705E+03  0.50400001928E-02 0. -1.
       -1   -1    0    0    0  501  0.00000000000E+00  0.00000000000E+00 -0.18641410701E+03  0.18641410707E+03  0.50400001928E-02 0.  1.
    10030    2    1    2    0    0  0.00000000000E+00  0.00000000000E+00  0.29667677002E+03  0.66950498413E+03  0.60018315363E+03 0.  0.
        4    1    3    3  502    0  0.24222298095E+02  0.73714899472E+02  0.47170431746E+03  0.47804516747E+03  0.12699999809E+01 0. -1.
       -4    1    3    3    0  502 -0.24222298095E+02 -0.73714899472E+02 -0.17502754744E+03  0.19145981665E+03  0.12699999809E+01 0.  1.
</event>
<event>
 5   0  0.9028473E-03  0.6016105E+03  0.7818609E-02  0.9902070E-01
       -2   -1    0    0    0  501  0.00000000000E+00  0.00000000000E+00  0.13650924407E+03  0.13650924409E+03  0.25500000920E-02 0. -1.
        2   -1    0    0  501    0  0.00000000000E+00  0.00000000000E+00 -0.66284013290E+03  0.66284013291E+03  0.25500000920E-02 0.  1.
    10030    2    1    2    0    0  0.00000000000E+00  0.00000000000E+00 -0.52633088884E+03  0.79934937700E+03  0.60161052348E+03 0.  0.
        1    1    3    3  502    0  0.28334829824E+03 -0.81847010314E+02 -0.34175579874E+03  0.45142243765E+03  0.50400001928E-02 0.  1.
       -1    1    3    3    0  502 -0.28334829824E+03  0.81847010314E+02 -0.18457509009E+03  0.34792693935E+03  0.50400001928E-02 0. -1.
</event>
<event>
 5   0  0.9162342E-03  0.6000067E+03  0.7818609E-02  0.9905392E-01
       -2   -1    0    0    0  501  0.00000000000E+00  0.00000000000E+00  0.21608980918E+03  0.21608980919E+03  0.25500000920E-02 0. -1.
        2   -1    0    0  501    0  0.00000000000E+00  0.00000000000E+00 -0.41650283402E+03  0.41650283402E+03  0.25500000920E-02 0.  1.
    10030    2    1    2    0    0  0.00000000000E+00  0.00000000000E+00 -0.20041302484E+03  0.63259264322E+03  0.60000672640E+03 0.  0.
        5    1    3    3  502    0 -0.63550721530E+02  0.24967108722E+03  0.61778701403E+02  0.26497744045E+03  0.46999998093E+01 0. -1.
       -5    1    3    3    0  502  0.63550721530E+02 -0.24967108722E+03 -0.26219172624E+03  0.36761520277E+03  0.46999998093E+01 0.  1.
</event>
<event>
 5   0  0.6078658E-03  0.5972969E+03  0.7818609E-02  0.9911030E-01
       -1   -1    0    0    0  501  0.00000000000E+00  0.00000000000E+00  0.27561614403E+03  0.27561614408E+03  0.50400001928E-02 0. -1.
        1   -1    0    0  501    0  0.00000000000E+00  0.00000000000E+00 -0.32360552878E+03  0.32360552881E+03  0.50400001928E-02 0.  1.
    10030    2    1    2    0    0  0.00000000000E+00  0.00000000000E+00 -0.47989384742E+02  0.59922167289E+03  0.59729693806E+03 0.  0.
        2    1    3    3  502    0 -0.21877534346E+02  0.27454494750E+03  0.91864915099E+02  0.29033208114E+03  0.25500000920E-02 0. -1.
       -2    1    3    3    0  502  0.21877534346E+02 -0.27454494750E+03 -0.13985429984E+03  0.30888959176E+03  0.25500000920E-02 0.  1.
</event>
<event>
 5   0  0.6078658E-03  0.6016559E+03  0.7818609E-02  0.9901977E-01
        1   -1    0    0  501    0  0.00000000000E+00  0.00000000000E+00  0.66473475373E+03  0.66473475375E+03  0.50400001928E-02 0. -1.
       -1   -1    0    0    0  501  0.00000000000E+00  0.00000000000E+00 -0.13614068694E+03  0.13614068703E+03  0.50400001928E-02 0.  1.
    10030    2    1    2    0    0  0.00000000000E+00  0.00000000000E+00  0.52859406679E+03  0.80087544078E+03  0.60165586859E+03 0.  0.
        2    1    3    3  502    0 -0.15947868620E+03  0.74670963998E+01  0.60368857422E+03  0.62444303465E+03  0.25500000920E-02 0. -1.
       -2    1    3    3    0  502  0.15947868620E+03 -0.74670963998E+01 -0.75094507428E+02  0.17643240613E+03  0.25500000920E-02 0.  1.
</event>
<event>
 5   0  0.5790967E-03  0.5996405E+03  0.7818609E-02  0.9906152E-01
       -1   -1    0    0    0  501  0.00000000000E+00  0.00000000000E+00  0.85846974787E+02  0.85846974935E+02  0.50400001928E-02 0. -1.
        1   -1    0    0  501    0  0.00000000000E+00  0.00000000000E+00 -0.10471210541E+04  0.10471210542E+04  0.50400001928E-02 0.  1.
    10030    2    1    2    0    0  0.00000000000E+00  0.00000000000E+00 -0.96127407936E+03  0.11329680291E+04  0.59964047503E+03 0.  0.
        3    1    3    3  502    0  0.24038909412E+03  0.65021734407E+02 -0.16517070434E+03  0.29882455436E+03  0.10100000352E+00 0. -1.
       -3    1    3    3    0  502 -0.24038909412E+03 -0.65021734407E+02 -0.79610337502E+03  0.83414347473E+03  0.10100000352E+00 0.  1.
</event>
<event>
 5   0  0.9822607E-03  0.5994064E+03  0.7818609E-02  0.9906638E-01
       -2   -1    0    0    0  501  0.00000000000E+00  0.00000000000E+00  0.25418157544E+03  0.25418157545E+03  0.25500000920E-02 0.  1.
        2   -1    0    0  501    0  0.00000000000E+00  0.00000000000E+00 -0.35337728655E+03  0.35337728656E+03  0.25500000920E-02 0. -1.
    10030    2    1    2    0    0  0.00000000000E+00  0.00000000000E+00 -0.99195711113E+02  0.60755886201E+03  0.59940635775E+03 0.  0.
        3    1    3    3  502    0  0.85051986577E+02 -0.69824470677E+01  0.24160635017E+03  0.25623472370E+03  0.10100000352E+00 0.  1.
       -3    1    3    3    0  502 -0.85051986577E+02  0.69824470677E+01 -0.34080206128E+03  0.35132413831E+03  0.10100000352E+00 0. -1.
</event>
<event>
 5   0  0.5819446E-03  0.5994603E+03  0.7818609E-02  0.9906526E-01
        1   -1    0    0  501    0  0.00000000000E+00  0.00000000000E+00  0.20503152388E+04  0.20503152388E+04  0.50400001928E-02 0.  1.
       -1   -1    0    0    0  501  0.00000000000E+00  0.00000000000E+00 -0.43816759090E+02  0.43816759379E+02  0.50400001928E-02 0. -1.
    10030    2    1    2    0    0  0.00000000000E+00  0.00000000000E+00  0.20064984797E+04  0.20941319982E+04  0.59946032124E+03 0.  0.
        5    1    3    3  502    0 -0.35443287060E+02 -0.21297267522E+03  0.17293518718E+04  0.17427832836E+04  0.46999998093E+01 0.  1.
       -5    1    3    3    0  502  0.35443287060E+02  0.21297267522E+03  0.27714660790E+03  0.35134871461E+03  0.46999998093E+01 0. -1.
</event>
<event>
 5   0  0.6078658E-03  0.5997998E+03  0.7818609E-02  0.9905821E-01
        1   -1    0    0  501    0  0.00000000000E+00  0.00000000000E+00  0.53126014258E+03  0.53126014261E+03  0.50400001928E-02 0. -1.
       -1   -1    0    0    0  501  0.00000000000E+00  0.00000000000E+00 -0.16929550763E+03  0.16929550771E+03  0.50400001928E-02 0.  1.
    10030    2    1    2    0    0  0.00000000000E+00  0.00000000000E+00  0.36196463495E+03  0.70055565032E+03  0.59979981847E+03 0.  0.
        2    1    3    3  502    0  0.29740356344E+03 -0.18489569373E+02  0.14138768150E+03  0.32981998152E+03  0.25500000920E-02 0.  1.
       -2    1    3    3    0  502 -0.29740356344E+03  0.18489569373E+02  0.22057695345E+03  0.37073566880E+03  0.25500000920E-02 0. -1.
</event>
<event>
 5   0  0.9028473E-03  0.6003249E+03  0.7818609E-02  0.9904732E-01
       -2   -1    0    0    0  501  0.00000000000E+00  0.00000000000E+00  0.35018277369E+02  0.35018277462E+02  0.25500000920E-02 0.  1.
        2   -1    0    0  501    0  0.00000000000E+00  0.00000000000E+00 -0.25728703118E+04  0.25728703118E+04  0.25500000920E-02 0. -1.
    10030    2    1    2    0    0  0.00000000000E+00  0.00000000000E+00 -0.25378520344E+04  0.26078885892E+04  0.60032486650E+03 0.  0.
        1    1    3    3  502    0  0.33036164748E+02  0.29455165718E+03 -0.14747762842E+04  0.15042663180E+04  0.50400001928E-02 0.  1.
       -1    1    3    3    0  502 -0.33036164748E+02 -0.29455165718E+03 -0.10630757502E+04  0.11036222712E+04  0.50400001928E-02 0. -1.
</event>
<event>
 5   0  0.9162342E-03  0.6000676E+03  0.7818609E-02  0.9905266E-01
        2   -1    0    0  501    0  0.00000000000E+00  0.00000000000E+00  0.13458206257E+04  0.13458206257E+04  0.25500000920E-02 0. -1.
       -2   -1    0    0    0  501  0.00000000000E+00  0.00000000000E+00 -0.66888771701E+02  0.66888771749E+02  0.25500000920E-02 0.  1.
    10030    2    1    2    0    0  0.00000000000E+00  0.00000000000E+00  0.12789318540E+04  0.14127093975E+04  0.60006762492E+03 0.  0.
        5    1    3    3  502    0  0.21588978270E+03  0.19135461273E+03  0.83321962030E+03  0.88176074518E+03  0.46999998093E+01 0. -1.
       -5    1    3    3    0  502 -0.21588978270E+03 -0.19135461273E+03  0.44571223372E+03  0.53094865230E+03  0.46999998093E+01 0.  1.
</event>
<event>
 5   0  0.9162342E-03  0.6001489E+03  0.7818609E-02  0.9905097E-01
       -2   -1    0    0    0  501  0.00000000000E+00  0.00000000000E+00  0.52136807382E+02  0.52136807445E+02  0.25500000920E-02 0.  1.
        2   -1    0    0  501    0  0.00000000000E+00  0.00000000000E+00 -0.17270847543E+04  0.17270847543E+04  0.25500000920E-02 0. -1.
    10030    2    1    2    0    0  0.00000000000E+00  0.00000000000E+00 -0.16749479469E+04  0.17792215617E+04  0.60014893227E+03 0.  0.
        5    1    3    3  502    0 -0.21441604469E+03 -0.66190859626E+02 -0.24701958035E+03  0.33376074244E+03  0.46999998093E+01 0.  1.
       -5    1    3    3    0  502  0.21441604469E+03  0.66190859626E+02 -0.14279283666E+04  0.14454608193E+04  0.46999998093E+01 0. -1.
</event>
<event>
 5   0  0.9162342E-03  0.6000909E+03  0.7818609E-02  0.9905218E-01
       -2   -1    0    0    0  501  0.00000000000E+00  0.00000000000E+00  0.52270555956E+03  0.52270555956E+03  0.25500000920E-02 0. -1.
        2   -1    0    0  501    0  0.00000000000E+00  0.00000000000E+00 -0.17223321974E+03  0.17223321975E+03  0.25500000920E-02 0.  1.
    10030    2    1    2    0    0  0.00000000000E+00  0.00000000000E+00  0.35047233982E+03  0.69493877932E+03  0.60009086480E+03 0.  0.
        5    1    3    3  502    0  0.30953554669E+02 -0.76145367285E+02 -0.15889644298E+03  0.17895923864E+03  0.46999998093E+01 0.  1.
       -5    1    3    3    0  502 -0.30953554669E+02  0.76145367285E+02  0.50936878280E+03  0.51597954067E+03  0.46999998093E+01 0. -1.
</event>
<event>
 5   0  0.9391405E-03  0.6018924E+03  0.7818609E-02  0.9901488E-01
       -2   -1    0    0    0  501  0.00000000000E+00  0.00000000000E+00  0.42510421846E+03  0.42510421847E+03  0.25500000920E-02 0.  1.
        2   -1    0    0  501    0  0.00000000000E+00  0.00000000000E+00 -0.21305036459E+03  0.21305036461E+03  0.25500000920E-02 0. -1.
    10030    2    1    2    0    0  0.00000000000E+00  0.00000000000E+00  0.21205385387E+03  0.63815458307E+03  0.60189237822E+03 0.  0.
        2    1    3    3  502    0 -0.47461910881E+02 -0.18385165294E+03 -0.14152325301E+03  0.23681827299E+03  0.25500000920E-02 0. -1.
       -2    1    3    3    0  502  0.47461910881E+02  0.18385165294E+03  0.35357710688E+03  0.40133631008E+03  0.25500000920E-02 0.  1.
</event>
<event>
 5   0  0.9303190E-03  0.5969183E+03  0.7818609E-02  0.9911820E-01
        2   -1    0    0  501    0  0.00000000000E+00  0.00000000000E+00  0.65483899936E+03  0.65483899936E+03  0.25500000920E-02 0.  1.
       -2   -1    0    0    0  501  0.00000000000E+00  0.00000000000E+00 -0.13603016504E+03  0.13603016506E+03  0.25500000920E-02 0. -1.
    10030    2    1    2    0    0  0.00000000000E+00  0.00000000000E+00  0.51880883432E+03  0.79086916443E+03  0.59691827638E+03 0.  0.
        4    1    3    3  502    0  0.10867632355E+03  0.19798873198E+03  0.51790368539E+03  0.56500966499E+03  0.12699999809E+01 0.  1.
       -4    1    3    3    0  502 -0.10867632355E+03 -0.19798873198E+03  0.90514893257E+00  0.22585949944E+03  0.12699999809E+01 0. -1.
</event>
<event>
 5   0  0.9822607E-03  0.6008647E+03  0.7818609E-02  0.9903614E-01
        2   -1    0    0  501    0  0.00000000000E+00  0.00000000000E+00  0.66048530769E+03  0.66048530769E+03  0.25500000920E-02 0.  1.
       -2   -1    0    0    0  501  0.00000000000E+00  0.00000000000E+00 -0.13665646534E+03  0.13665646537E+03  0.25500000920E-02 0. -1.
    10030    2    1    2    0    0  0.00000000000E+00  0.00000000000E+00  0.52382884235E+03  0.79714177306E+03  0.60086466886E+03 0.  0.
        3    1    3    3  502    0 -0.19204678142E+03  0.12182885481E+03  0.14859239492E+01  0.22743450549E+03  0.10100000352E+00 0. -1.
       -3    1    3    3    0  502  0.19204678142E+03 -0.12182885481E+03  0.52234291840E+03  0.56970726757E+03  0.10100000352E+00 0.  1.
</event>
<event>
 5   0  0.9162342E-03  0.5994427E+03  0.7818609E-02  0.9906563E-01
       -2   -1    0    0    0  501  0.00000000000E+00  0.00000000000E+00  0.52878156271E+02  0.52878156332E+02  0.25500000920E-02 0.  1.
        2   -1    0    0  501    0  0.00000000000E+00  0.00000000000E+00 -0.16988656013E+04  0.16988656013E+04  0.25500000920E-02 0. -1.
    10030    2    1    2    0    0  0.00000000000E+00  0.00000000000E+00 -0.16459874450E+04  0.17517437576E+04  0.59944267717E+03 0.  0.
        5    1    3    3  502    0 -0.91386431430E+02  0.18359409166E+03 -0.14615821868E+04  0.14759074663E+04  0.46999998093E+01 0. -1.
       -5    1    3    3    0  502  0.91386431430E+02 -0.18359409166E+03 -0.18440525819E+03  0.27583629128E+03  0.46999998093E+01 0.  1.
</event>
<event>
 5   0  0.9303190E-03  0.6016708E+03  0.7818609E-02  0.9901946E-01
       -2   -1    0    0    0  501  0.00000000000E+00  0.00000000000E+00  0.24610040241E+03  0.24610040242E+03  0.25500000920E-02 0. -1.
        2   -1    0    0  501    0  0.00000000000E+00  0.00000000000E+00 -0.36774395253E+03  0.36774395254E+03  0.25500000920E-02 0.  1.
    10030    2    1    2    0    0  0.00000000000E+00  0.00000000000E+00 -0.12164355012E+03  0.61384435495E+03  0.60167078940E+03 0.  0.
        4    1    3    3  502    0  0.28366584339E+03 -0.27452380201E+02 -0.15910562722E+03  0.32639877053E+03  0.12699999809E+01 0.  1.
       -4    1    3    3    0  502 -0.28366584339E+03  0.27452380201E+02  0.37462077100E+02  0.28744558443E+03  0.12699999809E+01 0. -1.
</event>
<event>
 5   0  0.5819446E-03  0.6008225E+03  0.7818609E-02  0.9903701E-01
       -1   -1    0    0    0  501  0.00000000000E+00  0.00000000000E+00  0.16935382277E+03  0.16935382284E+03  0.50400001928E-02 0. -1.
        1   -1    0    0  501    0  0.00000000000E+00  0.00000000000E+00 -0.53288979279E+03  0.53288979281E+03  0.50400001928E-02 0.  1.
    10030    2    1    2    0    0  0.00000000000E+00  0.00000000000E+00 -0.36353597002E+03  0.70224361566E+03  0.60082251475E+03 0.  0.
        5    1    3    3  502    0  0.14164966985E+02  0.29297215883E+03 -0.10609751879E+03  0.31194888304E+03  0.46999998093E+01 0. -1.
       -5    1    3    3    0  502 -0.14164966985E+02 -0.29297215883E+03 -0.25743845122E+03  0.39029473261E+03  0.46999998093E+01 0.  1.
</event>
<event>
 5   0  0.9028473E-03  0.5994607E+03  0.7818609E-02  0.9906526E-01
       -2   -1    0    0    0  501  0.00000000000E+00  0.00000000000E+00  0.11531120566E+03  0.11531120569E+03  0.25500000920E-02 0. -1.
        2   -1    0    0  501    0  0.00000000000E+00  0.00000000000E+00 -0.77909420096E+03  0.77909420096E+03  0.25500000920E-02 0.  1.
    10030    2    1    2    0    0  0.00000000000E+00  0.00000000000E+00 -0.66378299530E+03  0.89440540666E+03  0.59946072983E+03 0.  0.
        1    1    3    3  502    0  0.12247365084E+03 -0.27196586003E+03 -0.28780581430E+03  0.41448451231E+03  0.50400001928E-02 0. -1.
       -1    1    3    3    0  502 -0.12247365084E+03  0.27196586003E+03 -0.37597718100E+03  0.47992089435E+03  0.50400001928E-02 0.  1.
</event>
<event>
 5   0  0.3806250E-03  0.6122973E+03  0.7818609E-02  0.9880216E-01
       -4   -1    0    0    0  501  0.00000000000E+00  0.00000000000E+00  0.39659312438E+03  0.39659515782E+03  0.12699999809E+01 0. -1.
        4   -1    0    0  501    0  0.00000000000E+00  0.00000000000E+00 -0.23632603290E+03  0.23632944532E+03  0.12699999809E+01 0.  1.
    10030    2    1    2    0    0  0.00000000000E+00  0.00000000000E+00  0.16026709148E+03  0.63292460314E+03  0.61229732374E+03 0.  0.
        5    1    3    3  502    0  0.15129968697E+03  0.24339099646E+03  0.19134102484E+03  0.34462189458E+03  0.46999998093E+01 0. -1.
       -5    1    3    3    0  502 -0.15129968697E+03 -0.24339099646E+03 -0.31073933360E+02  0.28830270857E+03  0.46999998093E+01 0.  1.
</event>
<event>
 5   0  0.9822607E-03  0.6007021E+03  0.7818609E-02  0.9903950E-01
       -2   -1    0    0    0  501  0.00000000000E+00  0.00000000000E+00  0.64050815584E+02  0.64050815635E+02  0.25500000920E-02 0. -1.
        2   -1    0    0  501    0  0.00000000000E+00  0.00000000000E+00 -0.14084247275E+04  0.14084247275E+04  0.25500000920E-02 0.  1.
    10030    2    1    2    0    0  0.00000000000E+00  0.00000000000E+00 -0.13443739119E+04  0.14724755432E+04  0.60070209764E+03 0.  0.
        3    1    3    3  502    0  0.10761146479E+03 -0.19293583027E+03 -0.11709819095E+04  0.11916388314E+04  0.10100000352E+00 0.  1.
       -3    1    3    3    0  502 -0.10761146479E+03  0.19293583027E+03 -0.17339200246E+03  0.28083671176E+03  0.10100000352E+00 0. -1.
</event>
<event>
 5   0  0.5891927E-03  0.5991122E+03  0.7818609E-02  0.9907250E-01
        1   -1    0    0  501    0  0.00000000000E+00  0.00000000000E+00  0.32551999914E+03  0.32551999917E+03  0.50400001928E-02 0. -1.
       -1   -1    0    0    0  501  0.00000000000E+00  0.00000000000E+00 -0.27566307735E+03  0.27566307740E+03  0.50400001928E-02 0.  1.
    10030    2    1    2    0    0  0.00000000000E+00  0.00000000000E+00  0.49856921783E+02  0.60118307657E+03  0.59911215887E+03 0.  0.
        4    1    3    3  502    0  0.14057136914E+03 -0.16388528897E+03 -0.18342725781E+03  0.28331231807E+03  0.12699999809E+01 0.  1.
       -4    1    3    3    0  502 -0.14057136914E+03  0.16388528897E+03  0.23328417960E+03  0.31787075850E+03  0.12699999809E+01 0. -1.
</event>
<event>
 5   0  0.5765045E-03  0.5989227E+03  0.7818609E-02  0.9907644E-01
        1   -1    0    0  501    0  0.00000000000E+00  0.00000000000E+00  0.12072757570E+03  0.12072757581E+03  0.50400001928E-02 0. -1.
       -1   -1    0    0    0  501  0.00000000000E+00  0.00000000000E+00 -0.74280542023E+03  0.74280542025E+03  0.50400001928E-02 0.  1.
    10030    2    1    2    0    0  0.00000000000E+00  0.00000000000E+00 -0.62207784453E+03  0.86353299606E+03  0.59892269169E+03 0.  0.
        1    1    3    3  502    0  0.45090760761E+02  0.13303819279E+03 -0.69235556604E+03  0.70646200697E+03  0.50400001928E-02 0.  1.
       -1    1    3    3    0  502 -0.45090760761E+02 -0.13303819279E+03  0.70277721506E+02  0.15707098908E+03  0.50400001928E-02 0. -1.
</event>
<event>
 5   0  0.5819446E-03  0.5991631E+03  0.7818609E-02  0.9907144E-01
        1   -1    0    0  501    0  0.00000000000E+00  0.00000000000E+00  0.17959920471E+03  0.17959920478E+03  0.50400001928E-02 0.  1.
       -1   -1    0    0    0  501  0.00000000000E+00  0.00000000000E+00 -0.49971875792E+03  0.49971875795E+03  0.50400001928E-02 0. -1.
    10030    2    1    2    0    0  0.00000000000E+00  0.00000000000E+00 -0.32011955321E+03  0.67931796273E+03  0.59916305472E+03 0.  0.
        5    1    3    3  502    0  0.62246870633E+02  0.29299445463E+03 -0.15715186433E+03  0.33828866639E+03  0.46999998093E+01 0. -1.
       -5    1    3    3    0  502 -0.62246870633E+02 -0.29299445463E+03 -0.16296768887E+03  0.34102929634E+03  0.46999998093E+01 0.  1.
</event>
<event>
 5   0  0.9303190E-03  0.5997695E+03  0.7818609E-02  0.9905884E-01
       -2   -1    0    0    0  501  0.00000000000E+00  0.00000000000E+00  0.23396732375E+03  0.23396732377E+03  0.25500000920E-02 0.  1.
        2   -1    0    0  501    0  0.00000000000E+00  0.00000000000E+00 -0.38437355744E+03  0.38437355745E+03  0.25500000920E-02 0. -1.
    10030    2    1    2    0    0  0.00000000000E+00  0.00000000000E+00 -0.15040623369E+03  0.61834088122E+03  0.59976946425E+03 0.  0.
        4    1    3    3  502    0  0.11154074549E+02  0.28860713562E+03 -0.15839080167E+03  0.32940514730E+03  0.12699999809E+01 0. -1.
       -4    1    3    3    0  502 -0.11154074549E+02 -0.28860713562E+03  0.79845679840E+01  0.28893573392E+03  0.12699999809E+01 0.  1.
</event>
<event>
 5   0  0.6078658E-03  0.5997378E+03  0.7818609E-02  0.9905950E-01
       -1   -1    0    0    0  501  0.00000000000E+00  0.00000000000E+00  0.71804585618E+03  0.71804585620E+03  0.50400001928E-02 0.  1.
        1   -1    0    0  501    0  0.00000000000E+00  0.00000000000E+00 -0.12523066098E+03  0.12523066108E+03  0.50400001928E-02 0. -1.
    10030    2    1    2    0    0  0.00000000000E+00  0.00000000000E+00  0.59281519520E+03  0.84327651728E+03  0.59973780016E+03 0.  0.
        2    1    3    3  502    0  0.13961763149E+03 -0.23756578054E+03  0.13009334944E+03  0.30472095872E+03  0.25500000920E-02 0. -1.
       -2    1    3    3    0  502 -0.13961763149E+03  0.23756578054E+03  0.46272184576E+03  0.53855555856E+03  0.25500000920E-02 0.  1.
</event>
<event>
 5   0  0.9391405E-03  0.5936991E+03  0.7818609E-02  0.9918565E-01
       -2   -1    0    0    0  501  0.00000000000E+00  0.00000000000E+00  0.11265707724E+03  0.11265707727E+03  0.25500000920E-02 0. -1.
        2   -1    0    0  501    0  0.00000000000E+00  0.00000000000E+00 -0.78219371720E+03  0.78219371720E+03  0.25500000920E-02 0.  1.
    10030    2    1    2    0    0  0.00000000000E+00  0.00000000000E+00 -0.66953663996E+03  0.89485079447E+03  0.59369910908E+03 0.  0.
        2    1    3    3  502    0 -0.52914576774E+02 -0.21029804215E+03 -0.64031372656E+03  0.67603763755E+03  0.25500000920E-02 0.  1.
       -2    1    3    3    0  502  0.52914576774E+02  0.21029804215E+03 -0.29222913400E+02  0.21881315692E+03  0.25500000920E-02 0. -1.
</event>
<event>
 5   0  0.3806250E-03  0.6013035E+03  0.7818609E-02  0.9902705E-01
       -3   -1    0    0    0  501  0.00000000000E+00  0.00000000000E+00  0.16103915373E+03  0.16103918540E+03  0.10100000352E+00 0. -1.
        3   -1    0    0  501    0  0.00000000000E+00  0.00000000000E+00 -0.56130118244E+03  0.56130119152E+03  0.10100000352E+00 0.  1.
    10030    2    1    2    0    0  0.00000000000E+00  0.00000000000E+00 -0.40026202871E+03  0.72234037693E+03  0.60130352445E+03 0.  0.
        1    1    3    3  502    0  0.73649487701E+02  0.24169484666E+03 -0.43875621345E+01  0.25270515758E+03  0.50400001928E-02 0. -1.
       -1    1    3    3    0  502 -0.73649487701E+02 -0.24169484666E+03 -0.39587446657E+03  0.46963521935E+03  0.50400001928E-02 0.  1.
</event>
<event>
 5   0  0.3806250E-03  0.6004209E+03  0.7818609E-02  0.9904533E-01
       -3   -1    0    0    0  501  0.00000000000E+00  0.00000000000E+00  0.10257536551E+03  0.10257541523E+03  0.10100000352E+00 0. -1.
        3   -1    0    0  501    0  0.00000000000E+00  0.00000000000E+00 -0.87863469382E+03  0.87863469963E+03  0.10100000352E+00 0.  1.
    10030    2    1    2    0    0  0.00000000000E+00  0.00000000000E+00 -0.77605932831E+03  0.98121011486E+03  0.60042085943E+03 0.  0.
        5    1    3    3  502    0 -0.22099298809E+03  0.26078713694E+02 -0.58802618699E+02  0.23021259317E+03  0.46999998093E+01 0. -1.
       -5    1    3    3    0  502  0.22099298809E+03 -0.26078713694E+02 -0.71725670961E+03  0.75099752168E+03  0.46999998093E+01 0.  1.
</event>
<event>
 5   0  0.9028473E-03  0.6011269E+03  0.7818609E-02  0.9903071E-01
       -2   -1    0    0    0  501  0.00000000000E+00  0.00000000000E+00  0.80782654933E+03  0.80782654933E+03  0.25500000920E-02 0. -1.
        2   -1    0    0  501    0  0.00000000000E+00  0.00000000000E+00 -0.11182895712E+03  0.11182895715E+03  0.25500000920E-02 0.  1.
    10030    2    1    2    0    0  0.00000000000E+00  0.00000000000E+00  0.69599759221E+03  0.91965550649E+03  0.60112694355E+03 0.  0.
        1    1    3    3  502    0  0.90370767752E+02  0.19779708688E+03  0.66541906127E+03  0.70005220546E+03  0.50400001928E-02 0. -1.
       -1    1    3    3    0  502 -0.90370767752E+02 -0.19779708688E+03  0.30578530939E+02  0.21960330103E+03  0.50400001928E-02 0.  1.
</event>
<event>
 5   0  0.9162342E-03  0.5982187E+03  0.7818609E-02  0.9909109E-01
        2   -1    0    0  501    0  0.00000000000E+00  0.00000000000E+00  0.85634823722E+03  0.85634823723E+03  0.25500000920E-02 0.  1.
       -2   -1    0    0    0  501  0.00000000000E+00  0.00000000000E+00 -0.10447432243E+03  0.10447432246E+03  0.25500000920E-02 0. -1.
    10030    2    1    2    0    0  0.00000000000E+00  0.00000000000E+00  0.75187391480E+03  0.96082255968E+03  0.59821869533E+03 0.  0.
        5    1    3    3  502    0 -0.26236028261E+03 -0.11590692349E+03  0.51200434597E+03  0.58688829694E+03  0.46999998093E+01 0.  1.
       -5    1    3    3    0  502  0.26236028261E+03  0.11590692349E+03  0.23986956883E+03  0.37393426274E+03  0.46999998093E+01 0. -1.
</event>
<event>
 5   0  0.3806250E-03  0.6013331E+03  0.7818609E-02  0.9902644E-01
       -4   -1    0    0    0  501  0.00000000000E+00  0.00000000000E+00  0.14366125761E+03  0.14366687106E+03  0.12699999809E+01 0.  1.
        4   -1    0    0  501    0  0.00000000000E+00  0.00000000000E+00 -0.62924211024E+03  0.62924339186E+03  0.12699999809E+01 0. -1.
    10030    2    1    2    0    0  0.00000000000E+00  0.00000000000E+00 -0.48558085262E+03  0.77291026291E+03  0.60133311075E+03 0.  0.
        5    1    3    3  502    0 -0.11249818266E+03  0.53805263326E+02 -0.59438681049E+03  0.60734555070E+03  0.46999998093E+01 0. -1.
       -5    1    3    3    0  502  0.11249818266E+03 -0.53805263326E+02  0.10880595787E+03  0.16556471222E+03  0.46999998093E+01 0.  1.
</event>
<event>
 5   0  0.5891927E-03  0.5999174E+03  0.7818609E-02  0.9905577E-01
        1   -1    0    0  501    0  0.00000000000E+00  0.00000000000E+00  0.15132683477E+04  0.15132683477E+04  0.50400001928E-02 0. -1.
       -1   -1    0    0    0  501  0.00000000000E+00  0.00000000000E+00 -0.59457549184E+02  0.59457549397E+02  0.50400001928E-02 0.  1.
    10030    2    1    2    0    0  0.00000000000E+00  0.00000000000E+00  0.14538107985E+04  0.15727258971E+04  0.59991741894E+03 0.  0.
        4    1    3    3  502    0  0.20765849638E+03  0.41704198094E+02  0.12837181382E+04  0.13010746184E+04  0.12699999809E+01 0. -1.
       -4    1    3    3    0  502 -0.20765849638E+03 -0.41704198094E+02  0.17009266030E+03  0.27165127874E+03  0.12699999809E+01 0.  1.
</event>
<event>
 5   0  0.9303190E-03  0.5972184E+03  0.7818609E-02  0.9911194E-01
       -2   -1    0    0    0  501  0.00000000000E+00  0.00000000000E+00  0.86468505665E+02  0.86468505703E+02  0.25500000920E-02 0. -1.
        2   -1    0    0  501    0  0.00000000000E+00  0.00000000000E+00 -0.10312131831E+04  0.10312131831E+04  0.25500000920E-02 0.  1.
    10030    2    1    2    0    0  0.00000000000E+00  0.00000000000E+00 -0.94474467742E+03  0.11176816888E+04  0.59721842901E+03 0.  0.
        4    1    3    3  502    0  0.20335338261E+03 -0.35701509166E+02 -0.68641573591E+02  0.21757866279E+03  0.12699999809E+01 0. -1.
       -4    1    3    3    0  502 -0.20335338261E+03  0.35701509166E+02 -0.87610310383E+03  0.90010302600E+03  0.12699999809E+01 0.  1.
</event>
<event>
 5   0  0.9822607E-03  0.6000431E+03  0.7818609E-02  0.9905317E-01
       -2   -1    0    0    0  501  0.00000000000E+00  0.00000000000E+00  0.52429552012E+02  0.52429552074E+02  0.25500000920E-02 0.  1.
        2   -1    0    0  501    0  0.00000000000E+00  0.00000000000E+00 -0.17168355218E+04  0.17168355218E+04  0.25500000920E-02 0. -1.
    10030    2    1    2    0    0  0.00000000000E+00  0.00000000000E+00 -0.16644059698E+04  0.17692650738E+04  0.60004305626E+03 0.  0.
        3    1    3    3  502    0  0.21807079922E+03 -0.56223289136E+01 -0.14395385296E+04  0.14559731016E+04  0.10100000352E+00 0. -1.
       -3    1    3    3    0  502 -0.21807079922E+03  0.56223289136E+01 -0.22486744014E+03  0.31329197227E+03  0.10100000352E+00 0.  1.
</event>
<event>
 5   0  0.5765045E-03  0.6001343E+03  0.7818609E-02  0.9905127E-01
       -1   -1    0    0    0  501  0.00000000000E+00  0.00000000000E+00  0.88668940091E+02  0.88668940235E+02  0.50400001928E-02 0. -1.
        1   -1    0    0  501    0  0.00000000000E+00  0.00000000000E+00 -0.10154659914E+04  0.10154659914E+04  0.50400001928E-02 0.  1.
    10030    2    1    2    0    0  0.00000000000E+00  0.00000000000E+00 -0.92679705126E+03  0.11041349316E+04  0.60013429576E+03 0.  0.
        1    1    3    3  502    0 -0.30446977037E+02 -0.54345388434E+02  0.76641786931E+02  0.98764382164E+02  0.50400001928E-02 0. -1.
       -1    1    3    3    0  502  0.30446977037E+02  0.54345388434E+02 -0.10034388382E+04  0.10053705494E+04  0.50400001928E-02 0.  1.
</event>
<event>
 5   0  0.5765045E-03  0.6008981E+03  0.7818609E-02  0.9903545E-01
        1   -1    0    0  501    0  0.00000000000E+00  0.00000000000E+00  0.16756466105E+04  0.16756466105E+04  0.50400001928E-02 0. -1.
       -1   -1    0    0    0  501  0.00000000000E+00  0.00000000000E+00 -0.53871515385E+02  0.53871515621E+02  0.50400001928E-02 0.  1.
    10030    2    1    2    0    0  0.00000000000E+00  0.00000000000E+00  0.16217750951E+04  0.17295181261E+04  0.60089806911E+03 0.  0.
        1    1    3    3  502    0 -0.10281809363E+03 -0.23768433743E+03  0.37244996430E+03  0.45363463335E+03  0.50400001928E-02 0.  1.
       -1    1    3    3    0  502  0.10281809363E+03  0.23768433743E+03  0.12493251308E+04  0.12758834927E+04  0.50400001928E-02 0. -1.
</event>
<event>
 5   0  0.6078658E-03  0.5842587E+03  0.7818609E-02  0.9938613E-01
        1   -1    0    0  501    0  0.00000000000E+00  0.00000000000E+00  0.69207413664E+03  0.69207413666E+03  0.50400001928E-02 0. -1.
       -1   -1    0    0    0  501  0.00000000000E+00  0.00000000000E+00 -0.12330982964E+03  0.12330982974E+03  0.50400001928E-02 0.  1.
    10030    2    1    2    0    0  0.00000000000E+00  0.00000000000E+00  0.56876430700E+03  0.81538396640E+03  0.58425865483E+03 0.  0.
        2    1    3    3  502    0 -0.28953321149E+03 -0.28180177129E+02  0.32172398603E+03  0.43373946804E+03  0.25500000920E-02 0.  1.
       -2    1    3    3    0  502  0.28953321149E+03  0.28180177129E+02  0.24704032097E+03  0.38164449836E+03  0.25500000920E-02 0. -1.
</event>
<event>
 5   0  0.6078658E-03  0.5999801E+03  0.7818609E-02  0.9905447E-01
       -1   -1    0    0    0  501  0.00000000000E+00  0.00000000000E+00  0.15856562382E+03  0.15856562390E+03  0.50400001928E-02 0. -1.
        1   -1    0    0  501    0  0.00000000000E+00  0.00000000000E+00 -0.56755070446E+03  0.56755070449E+03  0.50400001928E-02 0.  1.
    10030    2    1    2    0    0  0.00000000000E+00  0.00000000000E+00 -0.40898508065E+03  0.72611632838E+03  0.59998010479E+03 0.  0.
        2    1    3    3  502    0  0.28826268359E+03  0.16284324544E+02 -0.30306145747E+03  0.41857711474E+03  0.25500000920E-02 0.  1.
       -2    1    3    3    0  502 -0.28826268359E+03 -0.16284324544E+02 -0.10592362318E+03  0.30753921364E+03  0.25500000920E-02 0. -1.
</event>
<event>
 5   0  0.9162342E-03  0.6006476E+03  0.7818609E-02  0.9904063E-01
        2   -1    0    0  501    0  0.00000000000E+00  0.00000000000E+00  0.13784870492E+04  0.13784870492E+04  0.25500000920E-02 0. -1.
       -2   -1    0    0    0  501  0.00000000000E+00  0.00000000000E+00 -0.65429977496E+02  0.65429977546E+02  0.25500000920E-02 0.  1.
    10030    2    1    2    0    0  0.00000000000E+00  0.00000000000E+00  0.13130570717E+04  0.14439170267E+04  0.60064757269E+03 0.  0.
        5    1    3    3  502    0  0.12597271778E+03 -0.18993662772E+02  0.13102146926E+04  0.13164021101E+04  0.46999998093E+01 0. -1.
       -5    1    3    3    0  502 -0.12597271778E+03  0.18993662772E+02  0.28423791354E+01  0.12751491665E+03  0.46999998093E+01 0.  1.
</event>
<event>
 5   0  0.5819446E-03  0.5991866E+03  0.7818609E-02  0.9907095E-01
       -1   -1    0    0    0  501  0.00000000000E+00  0.00000000000E+00  0.31493018033E+03  0.31493018037E+03  0.50400001928E-02 0.  1.
        1   -1    0    0  501    0  0.00000000000E+00  0.00000000000E+00 -0.28500332464E+03  0.28500332468E+03  0.50400001928E-02 0. -1.
    10030    2    1    2    0    0  0.00000000000E+00  0.00000000000E+00  0.29926855693E+02  0.59993350505E+03  0.59918661016E+03 0.  0.
        5    1    3    3  502    0  0.20643749277E+03 -0.17650313649E+02 -0.20165339544E+03  0.28916112097E+03  0.46999998093E+01 0. -1.
       -5    1    3    3    0  502 -0.20643749277E+03  0.17650313649E+02  0.23158025113E+03  0.31077238408E+03  0.46999998093E+01 0.  1.
</event>
<event>
 5   0  0.5790967E-03  0.6008228E+03  0.7818609E-02  0.9903700E-01
       -1   -1    0    0    0  501  0.00000000000E+00  0.00000000000E+00  0.27498564111E+03  0.27498564115E+03  0.50400001928E-02 0. -1.
        1   -1    0    0  501    0  0.00000000000E+00  0.00000000000E+00 -0.32818810499E+03  0.32818810503E+03  0.50400001928E-02 0.  1.
    10030    2    1    2    0    0  0.00000000000E+00  0.00000000000E+00 -0.53202463882E+02  0.60317374618E+03  0.60082282407E+03 0.  0.
        3    1    3    3  502    0  0.96224792101E+02  0.19238341704E+03 -0.23712732285E+03  0.32015616066E+03  0.10100000352E+00 0.  1.
       -3    1    3    3    0  502 -0.96224792101E+02 -0.19238341704E+03  0.18392485897E+03  0.28301758552E+03  0.10100000352E+00 0. -1.
</event>
<event>
 5   0  0.5790967E-03  0.6002350E+03  0.7818609E-02  0.9904919E-01
        1   -1    0    0  501    0  0.00000000000E+00  0.00000000000E+00  0.11346332836E+04  0.11346332836E+04  0.50400001928E-02 0.  1.
       -1   -1    0    0    0  501  0.00000000000E+00  0.00000000000E+00 -0.79382934503E+02  0.79382934663E+02  0.50400001928E-02 0. -1.
    10030    2    1    2    0    0  0.00000000000E+00  0.00000000000E+00  0.10552503491E+04  0.12140162183E+04  0.60023501977E+03 0.  0.
        3    1    3    3  502    0 -0.16318460572E+02 -0.95630509241E+02  0.11020452866E+04  0.11063070597E+04  0.10100000352E+00 0.  1.
       -3    1    3    3    0  502  0.16318460572E+02  0.95630509241E+02 -0.46794937529E+02  0.10770915854E+03  0.10100000352E+00 0. -1.
</event>
<event>
 5   0  0.5891927E-03  0.6013377E+03  0.7818609E-02  0.9902635E-01
        1   -1    0    0  501    0  0.00000000000E+00  0.00000000000E+00  0.91027136026E+03  0.91027136028E+03  0.50400001928E-02 0.  1.
       -1   -1    0    0    0  501  0.00000000000E+00  0.00000000000E+00 -0.99312960251E+02  0.99312960379E+02  0.50400001928E-02 0. -1.
    10030    2    1    2    0    0  0.00000000000E+00  0.00000000000E+00  0.81095840001E+03  0.10095843207E+04  0.60133765387E+03 0.  0.
        4    1    3    3  502    0 -0.27515910102E+03 -0.44938009541E+02  0.21651426361E+03  0.35300424193E+03  0.12699999809E+01 0. -1.
       -4    1    3    3    0  502  0.27515910102E+03  0.44938009541E+02  0.59444413640E+03  0.65658007872E+03  0.12699999809E+01 0.  1.
</event>
<event>
 5   0  0.9391405E-03  0.5959470E+03  0.7818609E-02  0.9913851E-01
        2   -1    0    0  501    0  0.00000000000E+00  0.00000000000E+00  0.11218255395E+04  0.11218255395E+04  0.25500000920E-02 0.  1.
       -2   -1    0    0    0  501  0.00000000000E+00  0.00000000000E+00 -0.79146181663E+02  0.79146181704E+02  0.25500000920E-02 0. -1.
    10030    2    1    2    0    0  0.00000000000E+00  0.00000000000E+00  0.10426793578E+04  0.12009717212E+04  0.59594700425E+03 0.  0.
        2    1    3    3  502    0  0.23367343249E+03 -0.43804731033E+02  0.88333107358E+03  0.91476549622E+03  0.25500000920E-02 0.  1.
       -2    1    3    3    0  502 -0.23367343249E+03  0.43804731033E+02  0.15934828422E+03  0.28620622496E+03  0.25500000920E-02 0. -1.
</event>
<event>
 5   0  0.9028473E-03  0.6015890E+03  0.7818609E-02  0.9902115E-01
       -2   -1    0    0    0  501  0.00000000000E+00  0.00000000000E+00  0.61403457510E+02  0.61403457563E+02  0.25500000920E-02 0. -1.
        2   -1    0    0  501    0  0.00000000000E+00  0.00000000000E+00 -0.14734893513E+04  0.14734893513E+04  0.25500000920E-02 0.  1.
    10030    2    1    2    0    0  0.00000000000E+00  0.00000000000E+00 -0.14120858937E+04  0.15348928088E+04  0.60158903186E+03 0.  0.
        1    1    3    3  502    0  0.21359772642E+03  0.20468823838E+03 -0.84476197017E+03  0.89506650587E+03  0.50400001928E-02 0. -1.
       -1    1    3    3    0  502 -0.21359772642E+03 -0.20468823838E+03 -0.56732392358E+03  0.63982630295E+03  0.50400001928E-02 0.  1.
</event>
<event>
 5   0  0.5819446E-03  0.5999643E+03  0.7818609E-02  0.9905480E-01
        1   -1    0    0  501    0  0.00000000000E+00  0.00000000000E+00  0.55374940272E+03  0.55374940274E+03  0.50400001928E-02 0.  1.
       -1   -1    0    0    0  501  0.00000000000E+00  0.00000000000E+00 -0.16250906624E+03  0.16250906632E+03  0.50400001928E-02 0. -1.
    10030    2    1    2    0    0  0.00000000000E+00  0.00000000000E+00  0.39124033647E+03  0.71625846906E+03  0.59996432695E+03 0.  0.
        5    1    3    3  502    0 -0.42306500364E+02  0.18898554810E+03  0.46906269828E+03  0.50749116473E+03  0.46999998093E+01 0.  1.
       -5    1    3    3    0  502  0.42306500364E+02 -0.18898554810E+03 -0.77822361802E+02  0.20876730433E+03  0.46999998093E+01 0. -1.
</event>
<event>
 5   0  0.6078658E-03  0.6055790E+03  0.7818609E-02  0.9893899E-01
       -1   -1    0    0    0  501  0.00000000000E+00  0.00000000000E+00  0.50130171501E+03  0.50130171504E+03  0.50400001928E-02 0. -1.
        1   -1    0    0  501    0  0.00000000000E+00  0.00000000000E+00 -0.18288682748E+03  0.18288682755E+03  0.50400001928E-02 0.  1.
    10030    2    1    2    0    0  0.00000000000E+00  0.00000000000E+00  0.31841488754E+03  0.68418854259E+03  0.60557899667E+03 0.  0.
        2    1    3    3  502    0 -0.98494455491E+01 -0.15580940624E+03 -0.13390753069E+03  0.20568132981E+03  0.25500000920E-02 0.  1.
       -2    1    3    3    0  502  0.98494455491E+01  0.15580940624E+03  0.45232241822E+03  0.47850721278E+03  0.25500000920E-02 0. -1.
</event>
<event>
 5   0  0.5790967E-03  0.5957005E+03  0.7818609E-02  0.9914366E-01
        1   -1    0    0  501    0  0.00000000000E+00  0.00000000000E+00  0.66824524679E+02  0.66824524869E+02  0.50400001928E-02 0.  1.
       -1   -1    0    0    0  501  0.00000000000E+00  0.00000000000E+00 -0.13275781811E+04  0.13275781811E+04  0.50400001928E-02 0. -1.
    10030    2    1    2    0    0  0.00000000000E+00  0.00000000000E+00 -0.12607536564E+04  0.13944027060E+04  0.59570053237E+03 0.  0.
        3    1    3    3  502    0 -0.24127987018E+03  0.13007181885E+03 -0.90315648921E+03  0.94383595398E+03  0.10100000352E+00 0.  1.
       -3    1    3    3    0  502  0.24127987018E+03 -0.13007181885E+03 -0.35759716721E+03  0.45056675200E+03  0.10100000352E+00 0. -1.
</event>
<event>
 5   0  0.9391405E-03  0.6005616E+03  0.7818609E-02  0.9904242E-01
       -2   -1    0    0    0  501  0.00000000000E+00  0.00000000000E+00  0.56151388308E+02  0.56151388366E+02  0.25500000920E-02 0.  1.
        2   -1    0    0  501    0  0.00000000000E+00  0.00000000000E+00 -0.16058118288E+04  0.16058118288E+04  0.25500000920E-02 0. -1.
    10030    2    1    2    0    0  0.00000000000E+00  0.00000000000E+00 -0.15496604405E+04  0.16619632172E+04  0.60056161582E+03 0.  0.
        2    1    3    3  502    0 -0.17986484315E+03 -0.19107469994E+03 -0.37087639602E+03  0.45432389755E+03  0.25500000920E-02 0. -1.
       -2    1    3    3    0  502  0.17986484315E+03  0.19107469994E+03 -0.11787840445E+04  0.12076393196E+04  0.25500000920E-02 0.  1.
</event>
<event>
 5   0  0.9028473E-03  0.6010761E+03  0.7818609E-02  0.9903176E-01
        2   -1    0    0  501    0  0.00000000000E+00  0.00000000000E+00  0.46561446671E+03  0.46561446671E+03  0.25500000920E-02 0.  1.
       -2   -1    0    0    0  501  0.00000000000E+00  0.00000000000E+00 -0.19398694837E+03  0.19398694838E+03  0.25500000920E-02 0. -1.
    10030    2    1    2    0    0  0.00000000000E+00  0.00000000000E+00  0.27162751834E+03  0.65960141510E+03  0.60107613335E+03 0.  0.
        1    1    3    3  502    0  0.48184865540E+02  0.11270367753E+03 -0.16531162030E+03  0.20579560740E+03  0.50400001928E-02 0. -1.
       -1    1    3    3    0  502 -0.48184865540E+02 -0.11270367753E+03  0.43693913864E+03  0.45380580769E+03  0.50400001928E-02 0.  1.
</event>
<event>
 5   0  0.5765045E-03  0.5981679E+03  0.7818609E-02  0.9909214E-01
        1   -1    0    0  501    0  0.00000000000E+00  0.00000000000E+00  0.15788854831E+04  0.15788854831E+04  0.50400001928E-02 0. -1.
       -1   -1    0    0    0  501  0.00000000000E+00  0.00000000000E+00 -0.56654644658E+02  0.56654644882E+02  0.50400001928E-02 0.  1.
    10030    2    1    2    0    0  0.00000000000E+00  0.00000000000E+00  0.15222308384E+04  0.16355401280E+04  0.59816785668E+03 0.  0.
        1    1    3    3  502    0  0.24635853556E+03 -0.96137789293E+02  0.11430910799E+04  0.11732826683E+04  0.50400001928E-02 0. -1.
       -1    1    3    3    0  502 -0.24635853556E+03  0.96137789293E+02  0.37913975848E+03  0.46225745971E+03  0.50400001928E-02 0.  1.
</event>
<event>
 5   0  0.9391405E-03  0.5998881E+03  0.7818609E-02  0.9905638E-01
        2   -1    0    0  501    0  0.00000000000E+00  0.00000000000E+00  0.19728250539E+04  0.19728250539E+04  0.25500000920E-02 0.  1.
       -2   -1    0    0    0  501  0.00000000000E+00  0.00000000000E+00 -0.45602836825E+02  0.45602836897E+02  0.25500000920E-02 0. -1.
    10030    2    1    2    0    0  0.00000000000E+00  0.00000000000E+00  0.19272222171E+04  0.20184278908E+04  0.59988805319E+03 0.  0.
        2    1    3    3  502    0  0.12718686362E+03 -0.11605529278E+03  0.17899869556E+04  0.17982487676E+04  0.25500000920E-02 0.  1.
       -2    1    3    3    0  502 -0.12718686362E+03  0.11605529278E+03  0.13723526150E+03  0.22017912313E+03  0.25500000920E-02 0. -1.
</event>
<event>
 5   0  0.6078658E-03  0.6001269E+03  0.7818609E-02  0.9905143E-01
        1   -1    0    0  501    0  0.00000000000E+00  0.00000000000E+00  0.65802184033E+03  0.65802184035E+03  0.50400001928E-02 0.  1.
       -1   -1    0    0    0  501  0.00000000000E+00  0.00000000000E+00 -0.13683143887E+03  0.13683143896E+03  0.50400001928E-02 0. -1.
    10030    2    1    2    0    0  0.00000000000E+00  0.00000000000E+00  0.52119040146E+03  0.79485327931E+03  0.60012690412E+03 0.  0.
        2    1    3    3  502    0 -0.38036964715E+02 -0.15229128768E+02  0.65429944859E+03  0.65558104417E+03  0.25500000920E-02 0.  1.
       -2    1    3    3    0  502  0.38036964715E+02  0.15229128768E+02 -0.13310904712E+03  0.13927223514E+03  0.25500000920E-02 0. -1.
</event>
<event>
 5   0  0.3806250E-03  0.5999991E+03  0.7818609E-02  0.9905408E-01
       -3   -1    0    0    0  501  0.00000000000E+00  0.00000000000E+00  0.58760497776E+03  0.58760498644E+03  0.10100000352E+00 0.  1.
        3   -1    0    0  501    0  0.00000000000E+00  0.00000000000E+00 -0.15316364122E+03  0.15316367452E+03  0.10100000352E+00 0. -1.
    10030    2    1    2    0    0  0.00000000000E+00  0.00000000000E+00  0.43444133655E+03  0.74076866096E+03  0.59999911180E+03 0.  0.
        2    1    3    3  502    0  0.97422299393E+02 -0.22502592553E+03  0.38356782001E+01  0.24523964608E+03  0.25500000920E-02 0.  1.
       -2    1    3    3    0  502 -0.97422299393E+02  0.22502592553E+03  0.43060565835E+03  0.49552901488E+03  0.25500000920E-02 0. -1.
</event>
<event>
 5   0  0.5790967E-03  0.6014674E+03  0.7818609E-02  0.9902366E-01
       -1   -1    0    0    0  501  0.00000000000E+00  0.00000000000E+00  0.39852733188E+02  0.39852733506E+02  0.50400001928E-02 0. -1.
        1   -1    0    0  501    0  0.00000000000E+00  0.00000000000E+00 -0.22693738985E+04  0.22693738985E+04  0.50400001928E-02 0.  1.
    10030    2    1    2    0    0  0.00000000000E+00  0.00000000000E+00 -0.22295211653E+04  0.23092266320E+04  0.60146738184E+03 0.  0.
        3    1    3    3  502    0 -0.63103871346E+02 -0.10885729518E+03 -0.66065308481E+02  0.14211489886E+03  0.10100000352E+00 0. -1.
       -3    1    3    3    0  502  0.63103871346E+02  0.10885729518E+03 -0.21634558568E+04  0.21671117331E+04  0.10100000352E+00 0.  1.
</event>
<event>
 5   0  0.9162342E-03  0.5956475E+03  0.7818609E-02  0.9914477E-01
       -2   -1    0    0    0  501  0.00000000000E+00  0.00000000000E+00  0.75948742579E+02  0.75948742621E+02  0.25500000920E-02 0.  1.
        2   -1    0    0  501    0  0.00000000000E+00  0.00000000000E+00 -0.11678796963E+04  0.11678796963E+04  0.25500000920E-02 0. -1.
    10030    2    1    2    0    0  0.00000000000E+00  0.00000000000E+00 -0.10919309537E+04  0.12438284389E+04  0.59564752814E+03 0.  0.
        5    1    3    3  502    0  0.11794701782E+02  0.11859878721E+03 -0.11158252340E+04  0.11221821733E+04  0.46999998093E+01 0. -1.
       -5    1    3    3    0  502 -0.11794701782E+02 -0.11859878721E+03  0.23894280233E+02  0.12164626564E+03  0.46999998093E+01 0.  1.
</event>
<event>
 5   0  0.9391405E-03  0.5999692E+03  0.7818609E-02  0.9905470E-01
        2   -1    0    0  501    0  0.00000000000E+00  0.00000000000E+00  0.68216002525E+03  0.68216002525E+03  0.25500000920E-02 0. -1.
       -2   -1    0    0    0  501  0.00000000000E+00  0.00000000000E+00 -0.13192030194E+03  0.13192030197E+03  0.25500000920E-02 0.  1.
    10030    2    1    2    0    0  0.00000000000E+00  0.00000000000E+00  0.55023972331E+03  0.81408032722E+03  0.59996918760E+03 0.  0.
        2    1    3    3  502    0  0.25863768430E+03 -0.72801305994E+02  0.94104653659E+02  0.28469135523E+03  0.25500000920E-02 0.  1.
       -2    1    3    3    0  502 -0.25863768430E+03  0.72801305994E+02  0.45613506965E+03  0.52938897199E+03  0.25500000920E-02 0. -1.
</event>
<event>
 5   0  0.5819446E-03  0.6000774E+03  0.7818609E-02  0.9905245E-01
       -1   -1    0    0    0  501  0.00000000000E+00  0.00000000000E+00  0.13928843099E+03  0.13928843108E+03  0.50400001928E-02 0. -1.
        1   -1    0    0  501    0  0.00000000000E+00  0.00000000000E+00 -0.64630797429E+03  0.64630797431E+03  0.50400001928E-02 0.  1.
    10030    2    1    2    0    0  0.00000000000E+00  0.00000000000E+00 -0.50701954330E+03  0.78559640540E+03  0.60007740741E+03 0.  0.
        5    1    3    3  502    0 -0.24306390745E+03 -0.13511127757E+03 -0.10617265001E+03  0.29770764524E+03  0.46999998093E+01 0. -1.
       -5    1    3    3    0  502  0.24306390745E+03  0.13511127757E+03 -0.40084689329E+03  0.48788876015E+03  0.46999998093E+01 0.  1.
</event>
<event>
 5   0  0.3806250E-03  0.6003486E+03  0.7818609E-02  0.9904683E-01
       -3   -1    0    0    0  501  0.00000000000E+00  0.00000000000E+00  0.10308221311E+03  0.10308226259E+03  0.10100000352E+00 0. -1.
        3   -1    0    0  501    0  0.00000000000E+00  0.00000000000E+00 -0.87410413199E+03  0.87410413782E+03  0.10100000352E+00 0.  1.
    10030    2    1    2    0    0  0.00000000000E+00  0.00000000000E+00 -0.77102191888E+03  0.97718640041E+03  0.60034861686E+03 0.  0.
        5    1    3    3  502    0  0.50217238622E+02  0.28759533853E+03 -0.27215868300E+03  0.39915571965E+03  0.46999998093E+01 0. -1.
       -5    1    3    3    0  502 -0.50217238622E+02 -0.28759533853E+03 -0.49886323588E+03  0.57803068076E+03  0.46999998093E+01 0.  1.
</event>
<event>
 5   0  0.5819446E-03  0.5994912E+03  0.7818609E-02  0.9906462E-01
       -1   -1    0    0    0  501  0.00000000000E+00  0.00000000000E+00  0.40719203648E+03  0.40719203651E+03  0.50400001928E-02 0.  1.
        1   -1    0    0  501    0  0.00000000000E+00  0.00000000000E+00 -0.22065125005E+03  0.22065125011E+03  0.50400001928E-02 0. -1.
    10030    2    1    2    0    0  0.00000000000E+00  0.00000000000E+00  0.18654078642E+03  0.62784328662E+03  0.59949122392E+03 0.  0.
        5    1    3    3  502    0 -0.25568045051E+02  0.12999981681E+03 -0.18827761149E+03  0.23026989879E+03  0.46999998093E+01 0. -1.
       -5    1    3    3    0  502  0.25568045051E+02 -0.12999981681E+03  0.37481839792E+03  0.39757338783E+03  0.46999998093E+01 0.  1.
</event>
<event>
 5   0  0.3806250E-03  0.6002469E+03  0.7818609E-02  0.9904894E-01
       -4   -1    0    0    0  501  0.00000000000E+00  0.00000000000E+00  0.37944864278E+03  0.37945076810E+03  0.12699999809E+01 0.  1.
        4   -1    0    0  501    0  0.00000000000E+00  0.00000000000E+00 -0.23737697718E+03  0.23738037450E+03  0.12699999809E+01 0. -1.
    10030    2    1    2    0    0  0.00000000000E+00  0.00000000000E+00  0.14207166560E+03  0.61683114259E+03  0.60024686614E+03 0.  0.
        5    1    3    3  502    0 -0.10781379777E+03  0.16661168772E+03 -0.16028052140E+03  0.25513761976E+03  0.46999998093E+01 0. -1.
       -5    1    3    3    0  502  0.10781379777E+03 -0.16661168772E+03  0.30235218700E+03  0.36169352283E+03  0.46999998093E+01 0.  1.
</event>
<event>
 5   0  0.5765045E-03  0.5995958E+03  0.7818609E-02  0.9906245E-01
       -1   -1    0    0    0  501  0.00000000000E+00  0.00000000000E+00  0.55631281347E+03  0.55631281350E+03  0.50400001928E-02 0.  1.
        1   -1    0    0  501    0  0.00000000000E+00  0.00000000000E+00 -0.16156160537E+03  0.16156160545E+03  0.50400001928E-02 0. -1.
    10030    2    1    2    0    0  0.00000000000E+00  0.00000000000E+00  0.39475120810E+03  0.71787441895E+03  0.59959583478E+03 0.  0.
        1    1    3    3  502    0  0.63693554304E+02  0.19400853162E+03 -0.65430253332E+02  0.21442317337E+03  0.50400001928E-02 0. -1.
       -1    1    3    3    0  502 -0.63693554304E+02 -0.19400853162E+03  0.46018146143E+03  0.50345124558E+03  0.50400001928E-02 0.  1.
</event>
<event>
 5   0  0.9391405E-03  0.5999967E+03  0.7818609E-02  0.9905413E-01
        2   -1    0    0  501    0  0.00000000000E+00  0.00000000000E+00  0.60891517842E+03  0.60891517843E+03  0.25500000920E-02 0. -1.
       -2   -1    0    0    0  501  0.00000000000E+00  0.00000000000E+00 -0.14780221837E+03  0.14780221839E+03  0.25500000920E-02 0.  1.
    10030    2    1    2    0    0  0.00000000000E+00  0.00000000000E+00  0.46111296005E+03  0.75671739682E+03  0.59999671393E+03 0.  0.
        2    1    3    3  502    0  0.28707242397E+03 -0.75888707489E+02  0.17661383256E+03  0.34548823190E+03  0.25500000920E-02 0. -1.
       -2    1    3    3    0  502 -0.28707242397E+03  0.75888707489E+02  0.28449912749E+03  0.41122916492E+03  0.25500000920E-02 0.  1.
</event>
<event>
 5   0  0.5765045E-03  0.6003894E+03  0.7818609E-02  0.9904599E-01
       -1   -1    0    0    0  501  0.00000000000E+00  0.00000000000E+00  0.64986786181E+02  0.64986786377E+02  0.50400001928E-02 0.  1.
        1   -1    0    0  501    0  0.00000000000E+00  0.00000000000E+00 -0.13866949865E+04  0.13866949865E+04  0.50400001928E-02 0. -1.
    10030    2    1    2    0    0  0.00000000000E+00  0.00000000000E+00 -0.13217082003E+04  0.14516817729E+04  0.60038937610E+03 0.  0.
        1    1    3    3  502    0 -0.17258857855E+03 -0.37019396150E+02 -0.73749233419E+02  0.19130133975E+03  0.50400001928E-02 0.  1.
       -1    1    3    3    0  502  0.17258857855E+03  0.37019396150E+02 -0.12479589669E+04  0.12603804331E+04  0.50400001928E-02 0. -1.
</event>
<event>
 5   0  0.3806250E-03  0.5978303E+03  0.7818609E-02  0.9909918E-01
        3   -1    0    0  501    0  0.00000000000E+00  0.00000000000E+00  0.16613844577E+03  0.16613847647E+03  0.10100000352E+00 0. -1.
       -3   -1    0    0    0  501  0.00000000000E+00  0.00000000000E+00 -0.53780604556E+03  0.53780605504E+03  0.10100000352E+00 0.  1.
    10030    2    1    2    0    0  0.00000000000E+00  0.00000000000E+00 -0.37166759978E+03  0.70394453152E+03  0.59783032603E+03 0.  0.
        1    1    3    3  502    0  0.71941665260E+02  0.13917974727E+03  0.11391696279E+03  0.19371029835E+03  0.50400001928E-02 0. -1.
       -1    1    3    3    0  502 -0.71941665260E+02 -0.13917974727E+03 -0.48558456258E+03  0.51023423316E+03  0.50400001928E-02 0.  1.
</event>
<event>
 5   0  0.3806250E-03  0.6003747E+03  0.7818609E-02  0.9904629E-01
       -3   -1    0    0    0  501  0.00000000000E+00  0.00000000000E+00  0.54141604156E+03  0.54141605098E+03  0.10100000352E+00 0. -1.
        3   -1    0    0  501    0  0.00000000000E+00  0.00000000000E+00 -0.16643839518E+03  0.16643842583E+03  0.10100000352E+00 0.  1.
    10030    2    1    2    0    0  0.00000000000E+00  0.00000000000E+00  0.37497764638E+03  0.70785447681E+03  0.60037465391E+03 0.  0.
        5    1    3    3  502    0 -0.29064195627E+03  0.54603611677E+02  0.24802258191E+03  0.38599429049E+03  0.46999998093E+01 0.  1.
       -5    1    3    3    0  502  0.29064195627E+03 -0.54603611677E+02  0.12695506447E+03  0.32186018633E+03  0.46999998093E+01 0. -1.
</event>
<event>
 5   0  0.9162342E-03  0.6014358E+03  0.7818609E-02  0.9902432E-01
        2   -1    0    0  501    0  0.00000000000E+00  0.00000000000E+00  0.81031262384E+03  0.81031262384E+03  0.25500000920E-02 0.  1.
       -2   -1    0    0    0  501  0.00000000000E+00  0.00000000000E+00 -0.11160046967E+03  0.11160046970E+03  0.25500000920E-02 0. -1.
    10030    2    1    2    0    0  0.00000000000E+00  0.00000000000E+00  0.69871215417E+03  0.92191309354E+03  0.60143584667E+03 0.  0.
        5    1    3    3  502    0 -0.20979680330E+03  0.21427686181E+03  0.31577618287E+03  0.43550655546E+03  0.46999998093E+01 0. -1.
       -5    1    3    3    0  502  0.20979680330E+03 -0.21427686181E+03  0.38293597129E+03  0.48640653808E+03  0.46999998093E+01 0.  1.
</event>
<event>
 5   0  0.5790967E-03  0.5987634E+03  0.7818609E-02  0.9907975E-01
        1   -1    0    0  501    0  0.00000000000E+00  0.00000000000E+00  0.11373052851E+04  0.11373052851E+04  0.50400001928E-02 0.  1.
       -1   -1    0    0    0  501  0.00000000000E+00  0.00000000000E+00 -0.78808579624E+02  0.78808579785E+02  0.50400001928E-02 0. -1.
    10030    2    1    2    0    0  0.00000000000E+00  0.00000000000E+00  0.10584967055E+04  0.12161138649E+04  0.59876343984E+03 0.  0.
        3    1    3    3  502    0 -0.27791479779E+03  0.48653946159E+02  0.32588469520E+03  0.43105067692E+03  0.10100000352E+00 0. -1.
       -3    1    3    3    0  502  0.27791479779E+03 -0.48653946159E+02  0.73261201026E+03  0.78506318796E+03  0.10100000352E+00 0.  1.
</event>
<event>
 5   0  0.5819446E-03  0.6007140E+03  0.7818609E-02  0.9903926E-01
        1   -1    0    0  501    0  0.00000000000E+00  0.00000000000E+00  0.49864059304E+03  0.49864059306E+03  0.50400001928E-02 0.  1.
       -1   -1    0    0    0  501  0.00000000000E+00  0.00000000000E+00 -0.18092057361E+03  0.18092057368E+03  0.50400001928E-02 0. -1.
    10030    2    1    2    0    0  0.00000000000E+00  0.00000000000E+00  0.31772001943E+03  0.67956116674E+03  0.60071404894E+03 0.  0.
        5    1    3    3  502    0 -0.47941423023E+02  0.20410204315E+03 -0.84389494146E+02  0.22605242927E+03  0.46999998093E+01 0. -1.
       -5    1    3    3    0  502  0.47941423023E+02 -0.20410204315E+03  0.40210951357E+03  0.45350873747E+03  0.46999998093E+01 0.  1.
</event>
<event>
 5   0  0.5819446E-03  0.6003689E+03  0.7818609E-02  0.9904641E-01
        1   -1    0    0  501    0  0.00000000000E+00  0.00000000000E+00  0.60889725697E+03  0.60889725699E+03  0.50400001928E-02 0. -1.
       -1   -1    0    0    0  501  0.00000000000E+00  0.00000000000E+00 -0.14798998904E+03  0.14798998913E+03  0.50400001928E-02 0.  1.
    10030    2    1    2    0    0  0.00000000000E+00  0.00000000000E+00  0.46090726792E+03  0.75688724612E+03  0.60036888136E+03 0.  0.
        5    1    3    3  502    0 -0.11348684203E+02  0.25664165289E+03  0.34760594930E+02  0.25927614543E+03  0.46999998093E+01 0.  1.
       -5    1    3    3    0  502  0.11348684203E+02 -0.25664165289E+03  0.42614667299E+03  0.49761110069E+03  0.46999998093E+01 0. -1.
</event>
<event>
 5   0  0.9391405E-03  0.5988663E+03  0.7818609E-02  0.9907761E-01
        2   -1    0    0  501    0  0.00000000000E+00  0.00000000000E+00  0.11741186603E+04  0.11741186603E+04  0.25500000920E-02 0. -1.
       -2   -1    0    0    0  501  0.00000000000E+00  0.00000000000E+00 -0.76363845532E+02  0.76363845575E+02  0.25500000920E-02 0.  1.
    10030    2    1    2    0    0  0.00000000000E+00  0.00000000000E+00  0.10977548148E+04  0.12504825059E+04  0.59886631577E+03 0.  0.
        2    1    3    3  502    0  0.13470393399E+03 -0.23633092955E+03  0.28755186990E+03  0.39583271212E+03  0.25500000920E-02 0.  1.
       -2    1    3    3    0  502 -0.13470393399E+03  0.23633092955E+03  0.81020294487E+03  0.85464979376E+03  0.25500000920E-02 0. -1.
</event>
<event>
 5   0  0.5819446E-03  0.6003614E+03  0.7818609E-02  0.9904656E-01
        1   -1    0    0  501    0  0.00000000000E+00  0.00000000000E+00  0.37432528318E+03  0.37432528321E+03  0.50400001928E-02 0.  1.
       -1   -1    0    0    0  501  0.00000000000E+00  0.00000000000E+00 -0.24072234577E+03  0.24072234582E+03  0.50400001928E-02 0. -1.
    10030    2    1    2    0    0  0.00000000000E+00  0.00000000000E+00  0.13360293741E+03  0.61504762903E+03  0.60036142539E+03 0.  0.
        5    1    3    3  502    0 -0.14826419180E+03 -0.61434165816E+02 -0.19303646373E+03  0.25108085077E+03  0.46999998093E+01 0. -1.
       -5    1    3    3    0  502  0.14826419180E+03  0.61434165816E+02  0.32663940114E+03  0.36396677826E+03  0.46999998093E+01 0.  1.
</event>
<event>
 5   0  0.5765045E-03  0.5990785E+03  0.7818609E-02  0.9907320E-01
        1   -1    0    0  501    0  0.00000000000E+00  0.00000000000E+00  0.90033004097E+03  0.90033004099E+03  0.50400001928E-02 0.  1.
       -1   -1    0    0    0  501  0.00000000000E+00  0.00000000000E+00 -0.99656519059E+02  0.99656519186E+02  0.50400001928E-02 0. -1.
    10030    2    1    2    0    0  0.00000000000E+00  0.00000000000E+00  0.80067352192E+03  0.99998656018E+03  0.59907848554E+03 0.  0.
        1    1    3    3  502    0 -0.24513900230E+03 -0.20794695081E+01  0.11302779959E+03  0.26994951036E+03  0.50400001928E-02 0. -1.
       -1    1    3    3    0  502  0.24513900230E+03  0.20794695081E+01  0.68764572233E+03  0.73003704981E+03  0.50400001928E-02 0.  1.
</event>
<event>
 5   0  0.9391405E-03  0.5987154E+03  0.7818609E-02  0.9908075E-01
       -2   -1    0    0    0  501  0.00000000000E+00  0.00000000000E+00  0.42182349161E+03  0.42182349162E+03  0.25500000920E-02 0.  1.
        2   -1    0    0  501    0  0.00000000000E+00  0.00000000000E+00 -0.21244678135E+03  0.21244678136E+03  0.25500000920E-02 0. -1.
    10030    2    1    2    0    0  0.00000000000E+00  0.00000000000E+00  0.20937671026E+03  0.63427027298E+03  0.59871543523E+03 0.  0.
        2    1    3    3  502    0  0.89194038034E+01  0.80844909334E+02 -0.20051680421E+03  0.21638494381E+03  0.25500000920E-02 0. -1.
       -2    1    3    3    0  502 -0.89194038034E+01 -0.80844909334E+02  0.40989351447E+03  0.41788532917E+03  0.25500000920E-02 0.  1.
</event>
<event>
 5   0  0.3806250E-03  0.5997528E+03  0.7818609E-02  0.9905919E-01
       -4   -1    0    0    0  501  0.00000000000E+00  0.00000000000E+00  0.59601219296E+03  0.59601354604E+03  0.12699999809E+01 0. -1.
        4   -1    0    0  501    0  0.00000000000E+00  0.00000000000E+00 -0.15087504017E+03  0.15088038523E+03  0.12699999809E+01 0.  1.
    10030    2    1    2    0    0  0.00000000000E+00  0.00000000000E+00  0.44513715279E+03  0.74689393127E+03  0.59975283224E+03 0.  0.
        4    1    3    3  502    0 -0.17291044228E+03 -0.21299149859E+03  0.71780765697E+02  0.28357977845E+03  0.12699999809E+01 0.  1.
       -4    1    3    3    0  502  0.17291044228E+03  0.21299149859E+03  0.37335638709E+03  0.46331415282E+03  0.12699999809E+01 0. -1.
</event>
<event>
 5   0  0.6078658E-03  0.5980557E+03  0.7818609E-02  0.9909448E-01
        1   -1    0    0  501    0  0.00000000000E+00  0.00000000000E+00  0.71359083954E+03  0.71359083955E+03  0.50400001928E-02 0.  1.
       -1   -1    0    0    0  501  0.00000000000E+00  0.00000000000E+00 -0.12530661534E+03  0.12530661544E+03  0.50400001928E-02 0. -1.
    10030    2    1    2    0    0  0.00000000000E+00  0.00000000000E+00  0.58828422420E+03  0.83889745499E+03  0.59805569268E+03 0.  0.
        2    1    3    3  502    0  0.66207760847E+02 -0.33134078843E+02  0.70053135682E+03  0.70443276235E+03  0.25500000920E-02 0.  1.
       -2    1    3    3    0  502 -0.66207760847E+02  0.33134078843E+02 -0.11224713263E+03  0.13446469264E+03  0.25500000920E-02 0. -1.
</event>
<event>
 5   0  0.6078658E-03  0.5986103E+03  0.7818609E-02  0.9908293E-01
       -1   -1    0    0    0  501  0.00000000000E+00  0.00000000000E+00  0.64173358678E+03  0.64173358680E+03  0.50400001928E-02 0.  1.
        1   -1    0    0  501    0  0.00000000000E+00  0.00000000000E+00 -0.13959620058E+03  0.13959620067E+03  0.50400001928E-02 0. -1.
    10030    2    1    2    0    0  0.00000000000E+00  0.00000000000E+00  0.50213738620E+03  0.78132978747E+03  0.59861029240E+03 0.  0.
        2    1    3    3  502    0  0.10385608582E+03 -0.29239600752E+02  0.61546792307E+03  0.62485342693E+03  0.25500000920E-02 0.  1.
       -2    1    3    3    0  502 -0.10385608582E+03  0.29239600752E+02 -0.11333053687E+03  0.15647636054E+03  0.25500000920E-02 0. -1.
</event>
<event>
 5   0  0.5891927E-03  0.6000571E+03  0.7818609E-02  0.9905288E-01
       -1   -1    0    0    0  501  0.00000000000E+00  0.00000000000E+00  0.12981933216E+03  0.12981933226E+03  0.50400001928E-02 0. -1.
        1   -1    0    0  501    0  0.00000000000E+00  0.00000000000E+00 -0.69340310825E+03  0.69340310827E+03  0.50400001928E-02 0.  1.
    10030    2    1    2    0    0  0.00000000000E+00  0.00000000000E+00 -0.56358377609E+03  0.82322244053E+03  0.60005709221E+03 0.  0.
        4    1    3    3  502    0  0.18757073448E+03  0.11716767640E+02  0.39056777391E+02  0.19195600496E+03  0.12699999809E+01 0. -1.
       -4    1    3    3    0  502 -0.18757073448E+03 -0.11716767640E+02 -0.60264055348E+03  0.63126643557E+03  0.12699999809E+01 0.  1.
</event>
<event>
 5   0  0.5819446E-03  0.6005747E+03  0.7818609E-02  0.9904215E-01
        1   -1    0    0  501    0  0.00000000000E+00  0.00000000000E+00  0.71601051255E+03  0.71601051257E+03  0.50400001928E-02 0.  1.
       -1   -1    0    0    0  501  0.00000000000E+00  0.00000000000E+00 -0.12593737347E+03  0.12593737357E+03  0.50400001928E-02 0. -1.
    10030    2    1    2    0    0  0.00000000000E+00  0.00000000000E+00  0.59007313908E+03  0.84194788614E+03  0.60057466939E+03 0.  0.
        5    1    3    3  502    0 -0.25041897662E+03 -0.13235515848E+03  0.43468505446E+03  0.51884558242E+03  0.46999998093E+01 0.  1.
       -5    1    3    3    0  502  0.25041897662E+03  0.13235515848E+03  0.15538808462E+03  0.32310230372E+03  0.46999998093E+01 0. -1.
</event>
<event>
 5   0  0.5790967E-03  0.6007786E+03  0.7818609E-02  0.9903792E-01
       -1   -1    0    0    0  501  0.00000000000E+00  0.00000000000E+00  0.19502106674E+03  0.19502106681E+03  0.50400001928E-02 0. -1.
        1   -1    0    0  501    0  0.00000000000E+00  0.00000000000E+00 -0.46268712081E+03  0.46268712084E+03  0.50400001928E-02 0.  1.
    10030    2    1    2    0    0  0.00000000000E+00  0.00000000000E+00 -0.26766605406E+03  0.65770818765E+03  0.60077861446E+03 0.  0.
        3    1    3    3  502    0 -0.25400707762E+03 -0.44129565963E+02 -0.30260616752E+03  0.39753932748E+03  0.10100000352E+00 0.  1.
       -3    1    3    3    0  502  0.25400707762E+03  0.44129565963E+02  0.34940113456E+02  0.26016886017E+03  0.10100000352E+00 0. -1.
</event>
<event>
 5   0  0.9162342E-03  0.6011694E+03  0.7818609E-02  0.9902983E-01
       -2   -1    0    0    0  501  0.00000000000E+00  0.00000000000E+00  0.36720174059E+02  0.36720174147E+02  0.25500000920E-02 0.  1.
        2   -1    0    0  501    0  0.00000000000E+00  0.00000000000E+00 -0.24605322512E+04  0.24605322512E+04  0.25500000920E-02 0. -1.
    10030    2    1    2    0    0  0.00000000000E+00  0.00000000000E+00 -0.24238120771E+04  0.24972524253E+04  0.60116943586E+03 0.  0.
        5    1    3    3  502    0  0.24139450681E+03  0.17122321734E+03 -0.14293619954E+04  0.14596871247E+04  0.46999998093E+01 0. -1.
       -5    1    3    3    0  502 -0.24139450681E+03 -0.17122321734E+03 -0.99445008175E+03  0.10375653007E+04  0.46999998093E+01 0.  1.
</event>
<event>
 5   0  0.5819446E-03  0.6001454E+03  0.7818609E-02  0.9905104E-01
        1   -1    0    0  501    0  0.00000000000E+00  0.00000000000E+00  0.87536005615E+03  0.87536005617E+03  0.50400001928E-02 0. -1.
       -1   -1    0    0    0  501  0.00000000000E+00  0.00000000000E+00 -0.10286467034E+03  0.10286467046E+03  0.50400001928E-02 0.  1.
    10030    2    1    2    0    0  0.00000000000E+00  0.00000000000E+00  0.77249538581E+03  0.97822472663E+03  0.60014539461E+03 0.  0.
        5    1    3    3  502    0  0.82055063456E+02 -0.36742284986E+02 -0.80332368268E+02  0.12065822945E+03  0.46999998093E+01 0.  1.
       -5    1    3    3    0  502 -0.82055063456E+02  0.36742284986E+02  0.85282775408E+03  0.85756649717E+03  0.46999998093E+01 0. -1.
</event>
<event>
 5   0  0.9028473E-03  0.5994073E+03  0.7818609E-02  0.9906636E-01
       -2   -1    0    0    0  501  0.00000000000E+00  0.00000000000E+00  0.17228438470E+03  0.17228438472E+03  0.25500000920E-02 0.  1.
        2   -1    0    0  501    0  0.00000000000E+00  0.00000000000E+00 -0.52136061249E+03  0.52136061249E+03  0.25500000920E-02 0. -1.
    10030    2    1    2    0    0  0.00000000000E+00  0.00000000000E+00 -0.34907622779E+03  0.69364499721E+03  0.59940734843E+03 0.  0.
        1    1    3    3  502    0  0.14488782946E+03  0.26032385878E+03 -0.13683876799E+03  0.32785033632E+03  0.50400001928E-02 0.  1.
       -1    1    3    3    0  502 -0.14488782946E+03 -0.26032385878E+03 -0.21223745980E+03  0.36579466089E+03  0.50400001928E-02 0. -1.
</event>
<event>
 5   0  0.5790967E-03  0.5994134E+03  0.7818609E-02  0.9906624E-01
        1   -1    0    0  501    0  0.00000000000E+00  0.00000000000E+00  0.68854540123E+03  0.68854540125E+03  0.50400001928E-02 0.  1.
       -1   -1    0    0    0  501  0.00000000000E+00  0.00000000000E+00 -0.13045488972E+03  0.13045488981E+03  0.50400001928E-02 0. -1.
    10030    2    1    2    0    0  0.00000000000E+00  0.00000000000E+00  0.55809051152E+03  0.81900029107E+03  0.59941342804E+03 0.  0.
        3    1    3    3  502    0 -0.66099545551E+02 -0.90672094581E+01 -0.12017925601E+03  0.13745700414E+03  0.10100000352E+00 0. -1.
       -3    1    3    3    0  502  0.66099545551E+02  0.90672094581E+01  0.67826976753E+03  0.68154328693E+03  0.10100000352E+00 0.  1.
</event>
<event>
 5   0  0.6078658E-03  0.6019796E+03  0.7818609E-02  0.9901307E-01
        1   -1    0    0  501    0  0.00000000000E+00  0.00000000000E+00  0.43011103459E+03  0.43011103462E+03  0.50400001928E-02 0. -1.
       -1   -1    0    0    0  501  0.00000000000E+00  0.00000000000E+00 -0.21063134395E+03  0.21063134401E+03  0.50400001928E-02 0.  1.
    10030    2    1    2    0    0  0.00000000000E+00  0.00000000000E+00  0.21947969064E+03  0.64074237863E+03  0.60197961857E+03 0.  0.
        2    1    3    3  502    0  0.15487247780E+03  0.61561909366E+02  0.37651718758E+03  0.41175301531E+03  0.25500000920E-02 0. -1.
       -2    1    3    3    0  502 -0.15487247780E+03 -0.61561909366E+02 -0.15703749694E+03  0.22898936333E+03  0.25500000920E-02 0.  1.
</event>
<event>
 5   0  0.3806250E-03  0.5997920E+03  0.7818609E-02  0.9905838E-01
       -3   -1    0    0    0  501  0.00000000000E+00  0.00000000000E+00  0.92840093418E+03  0.92840093968E+03  0.10100000352E+00 0.  1.
        3   -1    0    0  501    0  0.00000000000E+00  0.00000000000E+00 -0.96873657989E+02  0.96873710640E+02  0.10100000352E+00 0. -1.
    10030    2    1    2    0    0  0.00000000000E+00  0.00000000000E+00  0.83152727620E+03  0.10252746503E+04  0.59979204524E+03 0.  0.
        2    1    3    3  502    0 -0.43335166061E+02 -0.17878294012E+03  0.82062544840E+03  0.84099191605E+03  0.25500000920E-02 0.  1.
       -2    1    3    3    0  502  0.43335166061E+02  0.17878294012E+03  0.10901827799E+02  0.18428273427E+03  0.25500000920E-02 0. -1.
</event>
<event>
 5   0  0.9028473E-03  0.5996920E+03  0.7818609E-02  0.9906045E-01
        2   -1    0    0  501    0  0.00000000000E+00  0.00000000000E+00  0.16026283471E+04  0.16026283471E+04  0.25500000920E-02 0. -1.
       -2   -1    0    0    0  501  0.00000000000E+00  0.00000000000E+00 -0.56100108334E+02  0.56100108392E+02  0.25500000920E-02 0.  1.
    10030    2    1    2    0    0  0.00000000000E+00  0.00000000000E+00  0.15465282388E+04  0.16587284555E+04  0.59969200076E+03 0.  0.
        1    1    3    3  502    0  0.59848102336E+02  0.26919683806E+03  0.44764396502E+03  0.52576977131E+03  0.50400001928E-02 0.  1.
       -1    1    3    3    0  502 -0.59848102336E+02 -0.26919683806E+03  0.10988842738E+04  0.11329586842E+04  0.50400001928E-02 0. -1.
</event>
<event>
 5   0  0.9822607E-03  0.6000561E+03  0.7818609E-02  0.9905290E-01
        2   -1    0    0  501    0  0.00000000000E+00  0.00000000000E+00  0.87858036100E+03  0.87858036101E+03  0.25500000920E-02 0.  1.
       -2   -1    0    0    0  501  0.00000000000E+00  0.00000000000E+00 -0.10245715345E+03  0.10245715348E+03  0.25500000920E-02 0. -1.
    10030    2    1    2    0    0  0.00000000000E+00  0.00000000000E+00  0.77612320755E+03  0.98103751449E+03  0.60005614032E+03 0.  0.
        3    1    3    3  502    0  0.17613923194E+03 -0.21401748687E+03  0.57581528113E+03  0.63905536685E+03  0.10100000352E+00 0.  1.
       -3    1    3    3    0  502 -0.17613923194E+03  0.21401748687E+03  0.20030792643E+03  0.34198214764E+03  0.10100000352E+00 0. -1.
</event>
<event>
 5   0  0.9028473E-03  0.6002223E+03  0.7818609E-02  0.9904945E-01
        2   -1    0    0  501    0  0.00000000000E+00  0.00000000000E+00  0.14386807038E+04  0.14386807038E+04  0.25500000920E-02 0. -1.
       -2   -1    0    0    0  501  0.00000000000E+00  0.00000000000E+00 -0.62603679406E+02  0.62603679458E+02  0.25500000920E-02 0.  1.
    10030    2    1    2    0    0  0.00000000000E+00  0.00000000000E+00  0.13760770244E+04  0.15012843833E+04  0.60022231079E+03 0.  0.
        1    1    3    3  502    0  0.86016226693E+01 -0.37977820164E+02 -0.56258204309E+02  0.68419940912E+02  0.50400001928E-02 0.  1.
       -1    1    3    3    0  502 -0.86016226693E+01  0.37977820164E+02  0.14323352287E+04  0.14328644424E+04  0.50400001928E-02 0. -1.
</event>
<event>
 5   0  0.9822607E-03  0.5998793E+03  0.7818609E-02  0.9905657E-01
        2   -1    0    0  501    0  0.00000000000E+00  0.00000000000E+00  0.73864986115E+02  0.73864986159E+02  0.25500000920E-02 0.  1.
       -2   -1    0    0    0  501  0.00000000000E+00  0.00000000000E+00 -0.12179489802E+04  0.12179489802E+04  0.25500000920E-02 0. -1.
    10030    2    1    2    0    0  0.00000000000E+00  0.00000000000E+00 -0.11440839940E+04  0.12918139663E+04  0.59987926965E+03 0.  0.
        3    1    3    3  502    0 -0.19545023623E+03  0.17051713539E+02 -0.83476756576E+02  0.21321335527E+03  0.10100000352E+00 0.  1.
       -3    1    3    3    0  502  0.19545023623E+03 -0.17051713539E+02 -0.10606072375E+04  0.10786006110E+04  0.10100000352E+00 0. -1.
</event>
<event>
 5   0  0.9391405E-03  0.5996308E+03  0.7818609E-02  0.9906172E-01
        2   -1    0    0  501    0  0.00000000000E+00  0.00000000000E+00  0.49810323659E+03  0.49810323659E+03  0.25500000920E-02 0. -1.
       -2   -1    0    0    0  501  0.00000000000E+00  0.00000000000E+00 -0.18046311446E+03  0.18046311447E+03  0.25500000920E-02 0.  1.
    10030    2    1    2    0    0  0.00000000000E+00  0.00000000000E+00  0.31764012213E+03  0.67856635107E+03  0.59963075773E+03 0.  0.
        2    1    3    3  502    0  0.13740560766E+03  0.16173296695E+03  0.39848055929E+03  0.45146938961E+03  0.25500000920E-02 0. -1.
       -2    1    3    3    0  502 -0.13740560766E+03 -0.16173296695E+03 -0.80840437161E+02  0.22709696146E+03  0.25500000920E-02 0.  1.
</event>
<event>
 5   0  0.9028473E-03  0.5998887E+03  0.7818609E-02  0.9905637E-01
        2   -1    0    0  501    0  0.00000000000E+00  0.00000000000E+00  0.18375654748E+04  0.18375654748E+04  0.25500000920E-02 0. -1.
       -2   -1    0    0    0  501  0.00000000000E+00  0.00000000000E+00 -0.48959685465E+02  0.48959685531E+02  0.25500000920E-02 0.  1.
    10030    2    1    2    0    0  0.00000000000E+00  0.00000000000E+00  0.17886057894E+04  0.18865251604E+04  0.59988874879E+03 0.  0.
        1    1    3    3  502    0  0.95135688474E+02  0.37040213682E+02  0.17812448352E+04  0.17841681366E+04  0.50400001928E-02 0. -1.
       -1    1    3    3    0  502 -0.95135688474E+02 -0.37040213682E+02  0.73609541960E+01  0.10235702381E+03  0.50400001928E-02 0.  1.
</event>
<event>
 5   0  0.5819446E-03  0.6001269E+03  0.7818609E-02  0.9905143E-01
        1   -1    0    0  501    0  0.00000000000E+00  0.00000000000E+00  0.89855772365E+03  0.89855772367E+03  0.50400001928E-02 0. -1.
       -1   -1    0    0    0  501  0.00000000000E+00  0.00000000000E+00 -0.10020288829E+03  0.10020288842E+03  0.50400001928E-02 0.  1.
    10030    2    1    2    0    0  0.00000000000E+00  0.00000000000E+00  0.79835483536E+03  0.99876061208E+03  0.60012691750E+03 0.  0.
        5    1    3    3  502    0  0.85257195948E+02 -0.52459628162E+00 -0.79556536696E+02  0.11670645737E+03  0.46999998093E+01 0.  1.
       -5    1    3    3    0  502 -0.85257195948E+02  0.52459628162E+00  0.87791137206E+03  0.88205415472E+03  0.46999998093E+01 0. -1.
</event>
<event>
 5   0  0.5790967E-03  0.6001470E+03  0.7818609E-02  0.9905101E-01
       -1   -1    0    0    0  501  0.00000000000E+00  0.00000000000E+00  0.87381007812E+02  0.87381007958E+02  0.50400001928E-02 0.  1.
        1   -1    0    0  501    0  0.00000000000E+00  0.00000000000E+00 -0.10304769985E+04  0.10304769985E+04  0.50400001928E-02 0. -1.
    10030    2    1    2    0    0  0.00000000000E+00  0.00000000000E+00 -0.94309599068E+03  0.11178580065E+04  0.60014704446E+03 0.  0.
        3    1    3    3  502    0 -0.93745425829E+01  0.22884504738E+03 -0.83266090237E+03  0.86358677984E+03  0.10100000352E+00 0. -1.
       -3    1    3    3    0  502  0.93745425829E+01 -0.22884504738E+03 -0.11043508831E+03  0.25427122663E+03  0.10100000352E+00 0.  1.
</event>
<event>
 5   0  0.9391405E-03  0.5999953E+03  0.7818609E-02  0.9905416E-01
        2   -1    0    0  501    0  0.00000000000E+00  0.00000000000E+00  0.71866123782E+03  0.71866123783E+03  0.25500000920E-02 0. -1.
       -2   -1    0    0    0  501  0.00000000000E+00  0.00000000000E+00 -0.12523091119E+03  0.12523091121E+03  0.25500000920E-02 0.  1.
    10030    2    1    2    0    0  0.00000000000E+00  0.00000000000E+00  0.59343032664E+03  0.84389214904E+03  0.59999533885E+03 0.  0.
        2    1    3    3  502    0  0.28338286656E+02 -0.29863422215E+03  0.30181447444E+03  0.42553194253E+03  0.25500000920E-02 0.  1.
       -2    1    3    3    0  502 -0.28338286656E+02  0.29863422215E+03  0.29161585220E+03  0.41836020651E+03  0.25500000920E-02 0. -1.
</event>
<event>
 5   0  0.5790967E-03  0.5988808E+03  0.7818609E-02  0.9907731E-01
       -1   -1    0    0    0  501  0.00000000000E+00  0.00000000000E+00  0.23475031434E+03  0.23475031439E+03  0.50400001928E-02 0. -1.
        1   -1    0    0  501    0  0.00000000000E+00  0.00000000000E+00 -0.38195709347E+03  0.38195709350E+03  0.50400001928E-02 0.  1.
    10030    2    1    2    0    0  0.00000000000E+00  0.00000000000E+00 -0.14720677913E+03  0.61670740790E+03  0.59888078207E+03 0.  0.
        3    1    3    3  502    0  0.97989061785E+02 -0.28075556635E+03 -0.37356289208E+02  0.29970159628E+03  0.10100000352E+00 0. -1.
       -3    1    3    3    0  502 -0.97989061785E+02  0.28075556635E+03 -0.10985048992E+03  0.31700581162E+03  0.10100000352E+00 0.  1.
</event>
<event>
 5   0  0.5790967E-03  0.6002312E+03  0.7818609E-02  0.9904926E-01
        1   -1    0    0  501    0  0.00000000000E+00  0.00000000000E+00  0.71263260127E+03  0.71263260128E+03  0.50400001928E-02 0.  1.
       -1   -1    0    0    0  501  0.00000000000E+00  0.00000000000E+00 -0.12638963539E+03  0.12638963549E+03  0.50400001928E-02 0. -1.
    10030    2    1    2    0    0  0.00000000000E+00  0.00000000000E+00  0.58624296587E+03  0.83902223677E+03  0.60023120442E+03 0.  0.
        3    1    3    3  502    0  0.20432612627E+03 -0.11925941758E+03  0.35005159927E+02  0.23915966629E+03  0.10100000352E+00 0. -1.
       -3    1    3    3    0  502 -0.20432612627E+03  0.11925941758E+03  0.55123780595E+03  0.59986257048E+03  0.10100000352E+00 0.  1.
</event>
<event>
 5   0  0.9162342E-03  0.5977877E+03  0.7818609E-02  0.9910007E-01
       -2   -1    0    0    0  501  0.00000000000E+00  0.00000000000E+00  0.92578399300E+02  0.92578399335E+02  0.25500000920E-02 0.  1.
        2   -1    0    0  501    0  0.00000000000E+00  0.00000000000E+00 -0.96499324444E+03  0.96499324445E+03  0.25500000920E-02 0. -1.
    10030    2    1    2    0    0  0.00000000000E+00  0.00000000000E+00 -0.87241484514E+03  0.10575716438E+04  0.59778768782E+03 0.  0.
        5    1    3    3  502    0  0.14384984183E+03 -0.20683661620E+03 -0.15181382269E+03  0.29418308849E+03  0.46999998093E+01 0.  1.
       -5    1    3    3    0  502 -0.14384984183E+03  0.20683661620E+03 -0.72060102245E+03  0.76338855529E+03  0.46999998093E+01 0. -1.
</event>
<event>
 5   0  0.9822607E-03  0.5994451E+03  0.7818609E-02  0.9906558E-01
        2   -1    0    0  501    0  0.00000000000E+00  0.00000000000E+00  0.56341241475E+03  0.56341241475E+03  0.25500000920E-02 0.  1.
       -2   -1    0    0    0  501  0.00000000000E+00  0.00000000000E+00 -0.15944555808E+03  0.15944555810E+03  0.25500000920E-02 0. -1.
    10030    2    1    2    0    0  0.00000000000E+00  0.00000000000E+00  0.40396685667E+03  0.72285797285E+03  0.59944509976E+03 0.  0.
        3    1    3    3  502    0  0.15048237931E+03 -0.10999516092E+03 -0.81050711149E+02  0.20325626654E+03  0.10100000352E+00 0. -1.
       -3    1    3    3    0  502 -0.15048237931E+03  0.10999516092E+03  0.48501756782E+03  0.51960170631E+03  0.10100000352E+00 0.  1.
</event>
<event>
 5   0  0.5819446E-03  0.6004025E+03  0.7818609E-02  0.9904571E-01
        1   -1    0    0  501    0  0.00000000000E+00  0.00000000000E+00  0.41114737229E+03  0.41114737232E+03  0.50400001928E-02 0.  1.
       -1   -1    0    0    0  501  0.00000000000E+00  0.00000000000E+00 -0.21919337686E+03  0.21919337692E+03  0.50400001928E-02 0. -1.
    10030    2    1    2    0    0  0.00000000000E+00  0.00000000000E+00  0.19195399542E+03  0.63034074924E+03  0.60040246817E+03 0.  0.
        5    1    3    3  502    0 -0.17354703790E+03 -0.15204105676E+03  0.29754982408E+03  0.37655417289E+03  0.46999998093E+01 0.  1.
       -5    1    3    3    0  502  0.17354703790E+03  0.15204105676E+03 -0.10559582866E+03  0.25378657635E+03  0.46999998093E+01 0. -1.
</event>
<event>
 5   0  0.9391405E-03  0.5997257E+03  0.7818609E-02  0.9905975E-01
       -2   -1    0    0    0  501  0.00000000000E+00  0.00000000000E+00  0.21548197418E+03  0.21548197419E+03  0.25500000920E-02 0.  1.
        2   -1    0    0  501    0  0.00000000000E+00  0.00000000000E+00 -0.41728649674E+03  0.41728649674E+03  0.25500000920E-02 0. -1.
    10030    2    1    2    0    0  0.00000000000E+00  0.00000000000E+00 -0.20180452256E+03  0.63276847093E+03  0.59972566435E+03 0.  0.
        2    1    3    3  502    0 -0.58119520767E+02 -0.27865506473E+03 -0.20039061584E+03  0.34811337624E+03  0.25500000920E-02 0. -1.
       -2    1    3    3    0  502  0.58119520767E+02  0.27865506473E+03 -0.14139067233E+01  0.28465509469E+03  0.25500000920E-02 0.  1.
</event>
<event>
 5   0  0.5765045E-03  0.6010591E+03  0.7818609E-02  0.9903211E-01
        1   -1    0    0  501    0  0.00000000000E+00  0.00000000000E+00  0.76626584276E+03  0.76626584277E+03  0.50400001928E-02 0. -1.
       -1   -1    0    0    0  501  0.00000000000E+00  0.00000000000E+00 -0.11786774196E+03  0.11786774207E+03  0.50400001928E-02 0.  1.
    10030    2    1    2    0    0  0.00000000000E+00  0.00000000000E+00  0.64839810079E+03  0.88413358485E+03  0.60105914745E+03 0.  0.
        1    1    3    3  502    0 -0.33538707578E+02 -0.15525614310E+01 -0.11510037175E+03  0.11989725166E+03  0.50400001928E-02 0.  1.
       -1    1    3    3    0  502  0.33538707578E+02  0.15525614310E+01  0.76349847255E+03  0.76423633318E+03  0.50400001928E-02 0. -1.
</event>
<event>
 5   0  0.5819446E-03  0.6006296E+03  0.7818609E-02  0.9904101E-01
       -1   -1    0    0    0  501  0.00000000000E+00  0.00000000000E+00  0.14643013180E+03  0.14643013189E+03  0.50400001928E-02 0. -1.
        1   -1    0    0  501    0  0.00000000000E+00  0.00000000000E+00 -0.61591821707E+03  0.61591821709E+03  0.50400001928E-02 0.  1.
    10030    2    1    2    0    0  0.00000000000E+00  0.00000000000E+00 -0.46948808527E+03  0.76234834898E+03  0.60062962213E+03 0.  0.
        5    1    3    3  502    0  0.16773404726E+03 -0.59239212578E+02  0.72306337495E+02  0.19207886754E+03  0.46999998093E+01 0. -1.
       -5    1    3    3    0  502 -0.16773404726E+03  0.59239212578E+02 -0.54179442277E+03  0.57026948143E+03  0.46999998093E+01 0.  1.
</event>
<event>
 5   0  0.9028473E-03  0.6000206E+03  0.7818609E-02  0.9905363E-01
       -2   -1    0    0    0  501  0.00000000000E+00  0.00000000000E+00  0.38471719081E+03  0.38471719082E+03  0.25500000920E-02 0.  1.
        2   -1    0    0  501    0  0.00000000000E+00  0.00000000000E+00 -0.23395417698E+03  0.23395417699E+03  0.25500000920E-02 0. -1.
    10030    2    1    2    0    0  0.00000000000E+00  0.00000000000E+00  0.15076301383E+03  0.61867136781E+03  0.60002064549E+03 0.  0.
        1    1    3    3  502    0 -0.16879208220E+03  0.24186378365E+03  0.13201922187E+03  0.32313763604E+03  0.50400001928E-02 0.  1.
       -1    1    3    3    0  502  0.16879208220E+03 -0.24186378365E+03  0.18743791964E+02  0.29553373178E+03  0.50400001928E-02 0. -1.
</event>
<event>
 5   0  0.3806250E-03  0.6000512E+03  0.7818609E-02  0.9905300E-01
        4   -1    0    0  501    0  0.00000000000E+00  0.00000000000E+00  0.29531483349E+03  0.29531756429E+03  0.12699999809E+01 0. -1.
       -4   -1    0    0    0  501  0.00000000000E+00  0.00000000000E+00 -0.30480606877E+03  0.30480871454E+03  0.12699999809E+01 0.  1.
    10030    2    1    2    0    0  0.00000000000E+00  0.00000000000E+00 -0.94912352799E+01  0.60012627883E+03  0.60005122031E+03 0.  0.
        5    1    3    3  502    0  0.52846922844E+02 -0.28235043035E+03 -0.91235993247E+02  0.30143101903E+03  0.46999998093E+01 0.  1.
       -5    1    3    3    0  502 -0.52846922844E+02  0.28235043035E+03  0.81744757968E+02  0.29869525980E+03  0.46999998093E+01 0. -1.
</event>
<event>
 5   0  0.5790967E-03  0.5960447E+03  0.7818609E-02  0.9913646E-01
        1   -1    0    0  501    0  0.00000000000E+00  0.00000000000E+00  0.89852012778E+03  0.89852012779E+03  0.50400001928E-02 0. -1.
       -1   -1    0    0    0  501  0.00000000000E+00  0.00000000000E+00 -0.98848456530E+02  0.98848456659E+02  0.50400001928E-02 0.  1.
    10030    2    1    2    0    0  0.00000000000E+00  0.00000000000E+00  0.79967167125E+03  0.99736858445E+03  0.59604472270E+03 0.  0.
        3    1    3    3  502    0  0.27830957248E+03 -0.10497314664E+03  0.43076893818E+03  0.52348588133E+03  0.10100000352E+00 0. -1.
       -3    1    3    3    0  502 -0.27830957248E+03  0.10497314664E+03  0.36890273307E+03  0.47388270312E+03  0.10100000352E+00 0.  1.
</event>
<event>
 5   0  0.5819446E-03  0.6004286E+03  0.7818609E-02  0.9904517E-01
       -1   -1    0    0    0  501  0.00000000000E+00  0.00000000000E+00  0.47687546800E+02  0.47687547066E+02  0.50400001928E-02 0. -1.
        1   -1    0    0  501    0  0.00000000000E+00  0.00000000000E+00 -0.18899826798E+04  0.18899826798E+04  0.50400001928E-02 0.  1.
    10030    2    1    2    0    0  0.00000000000E+00  0.00000000000E+00 -0.18422951330E+04  0.19376702269E+04  0.60042863942E+03 0.  0.
        5    1    3    3  502    0  0.12300815240E+03 -0.70886676675E+01 -0.18044973196E+04  0.18087050399E+04  0.46999998093E+01 0.  1.
       -5    1    3    3    0  502 -0.12300815240E+03  0.70886676675E+01 -0.37797813406E+02  0.12896518702E+03  0.46999998093E+01 0. -1.
</event>
<event>
 5   0  0.6078658E-03  0.6005428E+03  0.7818609E-02  0.9904281E-01
        1   -1    0    0  501    0  0.00000000000E+00  0.00000000000E+00  0.16423271000E+04  0.16423271000E+04  0.50400001928E-02 0.  1.
       -1   -1    0    0    0  501  0.00000000000E+00  0.00000000000E+00 -0.54899490033E+02  0.54899490265E+02  0.50400001928E-02 0. -1.
    10030    2    1    2    0    0  0.00000000000E+00  0.00000000000E+00  0.15874276100E+04  0.16972265903E+04  0.60054282266E+03 0.  0.
        2    1    3    3  502    0  0.35745229768E+02  0.29127602336E+03  0.61400334879E+03  0.68052887930E+03  0.25500000920E-02 0. -1.
       -2    1    3    3    0  502 -0.35745229768E+02 -0.29127602336E+03  0.97342426119E+03  0.10166977110E+04  0.25500000920E-02 0.  1.
</event>
<event>
 5   0  0.3806250E-03  0.5999640E+03  0.7818609E-02  0.9905481E-01
        3   -1    0    0  501    0  0.00000000000E+00  0.00000000000E+00  0.20460606860E+04  0.20460606884E+04  0.10100000352E+00 0.  1.
       -3   -1    0    0    0  501  0.00000000000E+00  0.00000000000E+00 -0.43981621499E+02  0.43981737468E+02  0.10100000352E+00 0. -1.
    10030    2    1    2    0    0  0.00000000000E+00  0.00000000000E+00  0.20020790645E+04  0.20900424259E+04  0.59996396708E+03 0.  0.
        3    1    3    3  502    0 -0.21153805994E+03  0.18816621997E+03  0.13465026823E+04  0.13759448975E+04  0.10100000352E+00 0.  1.
       -3    1    3    3    0  502  0.21153805994E+03 -0.18816621997E+03  0.65557638213E+03  0.71409752845E+03  0.10100000352E+00 0. -1.
</event>
<event>
 5   0  0.9303190E-03  0.5996784E+03  0.7818609E-02  0.9906073E-01
       -2   -1    0    0    0  501  0.00000000000E+00  0.00000000000E+00  0.28479280848E+03  0.28479280849E+03  0.25500000920E-02 0. -1.
        2   -1    0    0  501    0  0.00000000000E+00  0.00000000000E+00 -0.31568056113E+03  0.31568056114E+03  0.25500000920E-02 0.  1.
    10030    2    1    2    0    0  0.00000000000E+00  0.00000000000E+00 -0.30887752648E+02  0.60047336963E+03  0.59967842580E+03 0.  0.
        4    1    3    3  502    0 -0.18335528328E+03 -0.13532218803E+03 -0.21056287105E+03  0.31027341176E+03  0.12699999809E+01 0.  1.
       -4    1    3    3    0  502  0.18335528328E+03  0.13532218803E+03  0.17967511840E+03  0.29019995788E+03  0.12699999809E+01 0. -1.
</event>
<event>
 5   0  0.5891927E-03  0.6003708E+03  0.7818609E-02  0.9904637E-01
        1   -1    0    0  501    0  0.00000000000E+00  0.00000000000E+00  0.14305278321E+04  0.14305278321E+04  0.50400001928E-02 0. -1.
       -1   -1    0    0    0  501  0.00000000000E+00  0.00000000000E+00 -0.62991621093E+02  0.62991621295E+02  0.50400001928E-02 0.  1.
    10030    2    1    2    0    0  0.00000000000E+00  0.00000000000E+00  0.13675362110E+04  0.14935194534E+04  0.60037077651E+03 0.  0.
        4    1    3    3  502    0  0.22355307170E+03  0.17953171411E+03  0.46263131036E+03  0.54427654226E+03  0.12699999809E+01 0.  1.
       -4    1    3    3    0  502 -0.22355307170E+03 -0.17953171411E+03  0.90490490069E+03  0.94924291118E+03  0.12699999809E+01 0. -1.
</event>
<event>
 5   0  0.5790967E-03  0.5997530E+03  0.7818609E-02  0.9905919E-01
       -1   -1    0    0    0  501  0.00000000000E+00  0.00000000000E+00  0.11371346745E+03  0.11371346756E+03  0.50400001928E-02 0.  1.
        1   -1    0    0  501    0  0.00000000000E+00  0.00000000000E+00 -0.79081146089E+03  0.79081146090E+03  0.50400001928E-02 0. -1.
    10030    2    1    2    0    0  0.00000000000E+00  0.00000000000E+00 -0.67709799343E+03  0.90452492847E+03  0.59975299375E+03 0.  0.
        3    1    3    3  502    0 -0.15658759461E+03  0.59720350529E+02  0.36494666066E+02  0.17151695515E+03  0.10100000352E+00 0.  1.
       -3    1    3    3    0  502  0.15658759461E+03 -0.59720350529E+02 -0.71359265950E+03  0.73300797332E+03  0.10100000352E+00 0. -1.
</event>
<event>
 5   0  0.3806250E-03  0.6008560E+03  0.7818609E-02  0.9903632E-01
       -4   -1    0    0    0  501  0.00000000000E+00  0.00000000000E+00  0.20303411461E+03  0.20303808656E+03  0.12699999809E+01 0. -1.
        4   -1    0    0  501    0  0.00000000000E+00  0.00000000000E+00 -0.44453172457E+03  0.44453353872E+03  0.12699999809E+01 0.  1.
    10030    2    1    2    0    0  0.00000000000E+00  0.00000000000E+00 -0.24149760996E+03  0.64757162529E+03  0.60085598463E+03 0.  0.
        2    1    3    3  502    0  0.80279655406E+02 -0.37138379876E+02 -0.43018256827E+03  0.43918233614E+03  0.25500000920E-02 0.  1.
       -2    1    3    3    0  502 -0.80279655406E+02  0.37138379876E+02  0.18868495831E+03  0.20838928915E+03  0.25500000920E-02 0. -1.
</event>
<event>
 5   0  0.9028473E-03  0.5999124E+03  0.7818609E-02  0.9905588E-01
       -2   -1    0    0    0  501  0.00000000000E+00  0.00000000000E+00  0.13567972998E+03  0.13567973000E+03  0.25500000920E-02 0. -1.
        2   -1    0    0  501    0  0.00000000000E+00  0.00000000000E+00 -0.66313312128E+03  0.66313312128E+03  0.25500000920E-02 0.  1.
    10030    2    1    2    0    0  0.00000000000E+00  0.00000000000E+00 -0.52745339130E+03  0.79881285129E+03  0.59991240310E+03 0.  0.
        1    1    3    3  502    0  0.66439517025E+02  0.86793273432E+02  0.10821777035E+03  0.15381276794E+03  0.50400001928E-02 0. -1.
       -1    1    3    3    0  502 -0.66439517025E+02 -0.86793273432E+02 -0.63567116165E+03  0.64500008335E+03  0.50400001928E-02 0.  1.
</event>
<event>
 5   0  0.9822607E-03  0.5980543E+03  0.7818609E-02  0.9909451E-01
       -2   -1    0    0    0  501  0.00000000000E+00  0.00000000000E+00  0.26893201619E+03  0.26893201620E+03  0.25500000920E-02 0.  1.
        2   -1    0    0  501    0  0.00000000000E+00  0.00000000000E+00 -0.33249015597E+03  0.33249015598E+03  0.25500000920E-02 0. -1.
    10030    2    1    2    0    0  0.00000000000E+00  0.00000000000E+00 -0.63558139784E+02  0.60142217219E+03  0.59805433872E+03 0.  0.
        3    1    3    3  502    0 -0.18369637500E+03 -0.10264617562E+03  0.18187118422E+03  0.27813258243E+03  0.10100000352E+00 0.  1.
       -3    1    3    3    0  502  0.18369637500E+03  0.10264617562E+03 -0.24542932401E+03  0.32328958975E+03  0.10100000352E+00 0. -1.
</event>
<event>
 5   0  0.9822607E-03  0.6008267E+03  0.7818609E-02  0.9903692E-01
        2   -1    0    0  501    0  0.00000000000E+00  0.00000000000E+00  0.45681954713E+03  0.45681954714E+03  0.25500000920E-02 0.  1.
       -2   -1    0    0    0  501  0.00000000000E+00  0.00000000000E+00 -0.19755759574E+03  0.19755759575E+03  0.25500000920E-02 0. -1.
    10030    2    1    2    0    0  0.00000000000E+00  0.00000000000E+00  0.25926195140E+03  0.65437714289E+03  0.60082666860E+03 0.  0.
        3    1    3    3  502    0 -0.16804170998E+03  0.14466558608E+03 -0.91121091181E+02  0.23972736921E+03  0.10100000352E+00 0. -1.
       -3    1    3    3    0  502  0.16804170998E+03 -0.14466558608E+03  0.35038304258E+03  0.41464977368E+03  0.10100000352E+00 0.  1.
</event>
<event>
 5   0  0.5891927E-03  0.5946901E+03  0.7818609E-02  0.9916484E-01
        1   -1    0    0  501    0  0.00000000000E+00  0.00000000000E+00  0.85133614420E+03  0.85133614421E+03  0.50400001928E-02 0. -1.
       -1   -1    0    0    0  501  0.00000000000E+00  0.00000000000E+00 -0.10385332376E+03  0.10385332389E+03  0.50400001928E-02 0.  1.
    10030    2    1    2    0    0  0.00000000000E+00  0.00000000000E+00  0.74748282043E+03  0.95518946810E+03  0.59469013202E+03 0.  0.
        4    1    3    3  502    0  0.12847120728E+03  0.17582299179E+03  0.69894730640E+03  0.73208437052E+03  0.12699999809E+01 0. -1.
       -4    1    3    3    0  502 -0.12847120728E+03 -0.17582299179E+03  0.48535514035E+02  0.22310509758E+03  0.12699999809E+01 0.  1.
</event>
<event>
 5   0  0.9028473E-03  0.6011473E+03  0.7818609E-02  0.9903029E-01
       -2   -1    0    0    0  501  0.00000000000E+00  0.00000000000E+00  0.32269677675E+03  0.32269677676E+03  0.25500000920E-02 0. -1.
        2   -1    0    0  501    0  0.00000000000E+00  0.00000000000E+00 -0.27996723813E+03  0.27996723814E+03  0.25500000920E-02 0.  1.
    10030    2    1    2    0    0  0.00000000000E+00  0.00000000000E+00  0.42729538616E+02  0.60266401490E+03  0.60114732087E+03 0.  0.
        1    1    3    3  502    0  0.89288087309E+02  0.16081223128E+03 -0.21695666518E+03  0.28443475677E+03  0.50400001928E-02 0.  1.
       -1    1    3    3    0  502 -0.89288087309E+02 -0.16081223128E+03  0.25968620380E+03  0.31822925813E+03  0.50400001928E-02 0. -1.
</event>
<event>
 5   0  0.6078658E-03  0.5996366E+03  0.7818609E-02  0.9906160E-01
       -1   -1    0    0    0  501  0.00000000000E+00  0.00000000000E+00  0.61049555248E+02  0.61049555456E+02  0.50400001928E-02 0.  1.
        1   -1    0    0  501    0  0.00000000000E+00  0.00000000000E+00 -0.14724272288E+04  0.14724272288E+04  0.50400001928E-02 0. -1.
    10030    2    1    2    0    0  0.00000000000E+00  0.00000000000E+00 -0.14113776735E+04  0.15334767843E+04  0.59963664871E+03 0.  0.
        2    1    3    3  502    0 -0.52265257344E+02 -0.29498311089E+03 -0.73641260876E+03  0.79501586348E+03  0.25500000920E-02 0.  1.
       -2    1    3    3    0  502  0.52265257344E+02  0.29498311089E+03 -0.67496506478E+03  0.73846092078E+03  0.25500000920E-02 0. -1.
</event>
<event>
 5   0  0.5765045E-03  0.5989780E+03  0.7818609E-02  0.9907529E-01
       -1   -1    0    0    0  501  0.00000000000E+00  0.00000000000E+00  0.53521118714E+03  0.53521118716E+03  0.50400001928E-02 0.  1.
        1   -1    0    0  501    0  0.00000000000E+00  0.00000000000E+00 -0.16758555678E+03  0.16758555686E+03  0.50400001928E-02 0. -1.
    10030    2    1    2    0    0  0.00000000000E+00  0.00000000000E+00  0.36762563036E+03  0.70279674402E+03  0.59897801237E+03 0.  0.
        1    1    3    3  502    0  0.27720820635E+03 -0.25798417081E+02  0.54301188433E+02  0.28365219386E+03  0.50400001928E-02 0. -1.
       -1    1    3    3    0  502 -0.27720820635E+03  0.25798417081E+02  0.31332444192E+03  0.41914455015E+03  0.50400001928E-02 0.  1.
</event>
<event>
 5   0  0.5819446E-03  0.5989791E+03  0.7818609E-02  0.9907526E-01
        1   -1    0    0  501    0  0.00000000000E+00  0.00000000000E+00  0.29998528397E+03  0.29998528401E+03  0.50400001928E-02 0.  1.
       -1   -1    0    0    0  501  0.00000000000E+00  0.00000000000E+00 -0.29899459403E+03  0.29899459408E+03  0.50400001928E-02 0. -1.
    10030    2    1    2    0    0  0.00000000000E+00  0.00000000000E+00  0.99068993837E+00  0.59897987809E+03  0.59897905881E+03 0.  0.
        5    1    3    3  502    0  0.23286643757E+03  0.18549585115E+03  0.32688551054E+02  0.29954318538E+03  0.46999998093E+01 0.  1.
       -5    1    3    3    0  502 -0.23286643757E+03 -0.18549585115E+03 -0.31697861115E+02  0.29943669271E+03  0.46999998093E+01 0. -1.
</event>
<event>
 5   0  0.9391405E-03  0.5991413E+03  0.7818609E-02  0.9907189E-01
       -2   -1    0    0    0  501  0.00000000000E+00  0.00000000000E+00  0.42339623443E+02  0.42339623520E+02  0.25500000920E-02 0. -1.
        2   -1    0    0  501    0  0.00000000000E+00  0.00000000000E+00 -0.21195883812E+04  0.21195883812E+04  0.25500000920E-02 0.  1.
    10030    2    1    2    0    0  0.00000000000E+00  0.00000000000E+00 -0.20772487577E+04  0.21619280047E+04  0.59914129886E+03 0.  0.
        2    1    3    3  502    0 -0.90757835088E+02  0.19960487183E+02 -0.20662657744E+04  0.20683543353E+04  0.25500000920E-02 0.  1.
       -2    1    3    3    0  502  0.90757835088E+02 -0.19960487183E+02 -0.10982983294E+02  0.93573669411E+02  0.25500000920E-02 0. -1.
</event>
<event>
 5   0  0.9028473E-03  0.5955524E+03  0.7818609E-02  0.9914677E-01
        2   -1    0    0  501    0  0.00000000000E+00  0.00000000000E+00  0.36899763225E+03  0.36899763226E+03  0.25500000920E-02 0. -1.
       -2   -1    0    0    0  501  0.00000000000E+00  0.00000000000E+00 -0.24030145244E+03  0.24030145245E+03  0.25500000920E-02 0.  1.
    10030    2    1    2    0    0  0.00000000000E+00  0.00000000000E+00  0.12869617981E+03  0.60929908471E+03  0.59555240570E+03 0.  0.
        1    1    3    3  502    0 -0.88051287002E+02 -0.36179277678E+02 -0.22431469826E+03  0.24367817538E+03  0.50400001928E-02 0.  1.
       -1    1    3    3    0  502  0.88051287002E+02  0.36179277678E+02  0.35301087807E+03  0.36562090933E+03  0.50400001928E-02 0. -1.
</event>
<event>
 5   0  0.9822607E-03  0.6001835E+03  0.7818609E-02  0.9905025E-01
       -2   -1    0    0    0  501  0.00000000000E+00  0.00000000000E+00  0.14642905820E+03  0.14642905823E+03  0.25500000920E-02 0. -1.
        2   -1    0    0  501    0  0.00000000000E+00  0.00000000000E+00 -0.61500819343E+03  0.61500819343E+03  0.25500000920E-02 0.  1.
    10030    2    1    2    0    0  0.00000000000E+00  0.00000000000E+00 -0.46857913522E+03  0.76143725166E+03  0.60018354047E+03 0.  0.
        3    1    3    3  502    0 -0.70816050182E+02  0.20649036136E+03 -0.49553131814E+03  0.54148359140E+03  0.10100000352E+00 0.  1.
       -3    1    3    3    0  502  0.70816050182E+02 -0.20649036136E+03  0.26952182913E+02  0.21995366026E+03  0.10100000352E+00 0. -1.
</event>
<event>
 5   0  0.5819446E-03  0.6010998E+03  0.7818609E-02  0.9903127E-01
       -1   -1    0    0    0  501  0.00000000000E+00  0.00000000000E+00  0.69181297350E+02  0.69181297533E+02  0.50400001928E-02 0. -1.
        1   -1    0    0  501    0  0.00000000000E+00  0.00000000000E+00 -0.13057032755E+04  0.13057032755E+04  0.50400001928E-02 0.  1.
    10030    2    1    2    0    0  0.00000000000E+00  0.00000000000E+00 -0.12365219781E+04  0.13748845730E+04  0.60109981429E+03 0.  0.
        5    1    3    3  502    0 -0.28318501591E+02  0.13246908299E+03 -0.12318247116E+04  0.12392595392E+04  0.46999998093E+01 0.  1.
       -5    1    3    3    0  502  0.28318501591E+02 -0.13246908299E+03 -0.46972665345E+01  0.13562503379E+03  0.46999998093E+01 0. -1.
</event>
<event>
 5   0  0.9162342E-03  0.5989918E+03  0.7818609E-02  0.9907500E-01
        2   -1    0    0  501    0  0.00000000000E+00  0.00000000000E+00  0.68176613481E+03  0.68176613482E+03  0.25500000920E-02 0.  1.
       -2   -1    0    0    0  501  0.00000000000E+00  0.00000000000E+00 -0.13156678633E+03  0.13156678635E+03  0.25500000920E-02 0. -1.
    10030    2    1    2    0    0  0.00000000000E+00  0.00000000000E+00  0.55019934849E+03  0.81333292117E+03  0.59899175084E+03 0.  0.
        5    1    3    3  502    0  0.80553550958E+02 -0.14938062258E+03  0.61010920887E+03  0.63329201931E+03  0.46999998093E+01 0.  1.
       -5    1    3    3    0  502 -0.80553550958E+02  0.14938062258E+03 -0.59909860378E+02  0.18004090186E+03  0.46999998093E+01 0. -1.
</event>
<event>
 5   0  0.9303190E-03  0.6000792E+03  0.7818609E-02  0.9905242E-01
        2   -1    0    0  501    0  0.00000000000E+00  0.00000000000E+00  0.11686281471E+04  0.11686281471E+04  0.25500000920E-02 0. -1.
       -2   -1    0    0    0  501  0.00000000000E+00  0.00000000000E+00 -0.77033706400E+02  0.77033706442E+02  0.25500000920E-02 0.  1.
    10030    2    1    2    0    0  0.00000000000E+00  0.00000000000E+00  0.10915944407E+04  0.12456618535E+04  0.60007918678E+03 0.  0.
        4    1    3    3  502    0  0.80902410148E+02 -0.24828899210E+03  0.85249717062E+03  0.89159725346E+03  0.12699999809E+01 0. -1.
       -4    1    3    3    0  502 -0.80902410148E+02  0.24828899210E+03  0.23909727006E+03  0.35406460006E+03  0.12699999809E+01 0.  1.
</event>
<event>
 5   0  0.9028473E-03  0.6000803E+03  0.7818609E-02  0.9905239E-01
        2   -1    0    0  501    0  0.00000000000E+00  0.00000000000E+00  0.33707730690E+03  0.33707730691E+03  0.25500000920E-02 0. -1.
       -2   -1    0    0    0  501  0.00000000000E+00  0.00000000000E+00 -0.26707254333E+03  0.26707254334E+03  0.25500000920E-02 0.  1.
    10030    2    1    2    0    0  0.00000000000E+00  0.00000000000E+00  0.70004763569E+02  0.60414985025E+03  0.60008030682E+03 0.  0.
        1    1    3    3  502    0 -0.66469458151E+02  0.27737310715E+03 -0.58742260069E+02  0.29121243549E+03  0.50400001928E-02 0.  1.
       -1    1    3    3    0  502  0.66469458151E+02 -0.27737310715E+03  0.12874702364E+03  0.31293741477E+03  0.50400001928E-02 0. -1.
</event>
<event>
 5   0  0.5891927E-03  0.5993639E+03  0.7818609E-02  0.9906727E-01
       -1   -1    0    0    0  501  0.00000000000E+00  0.00000000000E+00  0.14071078600E+03  0.14071078609E+03  0.50400001928E-02 0.  1.
        1   -1    0    0  501    0  0.00000000000E+00  0.00000000000E+00 -0.63825434219E+03  0.63825434220E+03  0.50400001928E-02 0. -1.
    10030    2    1    2    0    0  0.00000000000E+00  0.00000000000E+00 -0.49754355619E+03  0.77896512829E+03  0.59936389680E+03 0.  0.
        4    1    3    3  502    0 -0.89163424174E+02 -0.27589685263E+03 -0.34722397493E+03  0.45236632409E+03  0.12699999809E+01 0. -1.
       -4    1    3    3    0  502  0.89163424174E+02  0.27589685263E+03 -0.15031958125E+03  0.32659880421E+03  0.12699999809E+01 0.  1.
</event>
<event>
 5   0  0.5819446E-03  0.5994785E+03  0.7818609E-02  0.9906489E-01
       -1   -1    0    0    0  501  0.00000000000E+00  0.00000000000E+00  0.72934192494E+02  0.72934192668E+02  0.50400001928E-02 0. -1.
        1   -1    0    0  501    0  0.00000000000E+00  0.00000000000E+00 -0.12318448208E+04  0.12318448208E+04  0.50400001928E-02 0.  1.
    10030    2    1    2    0    0  0.00000000000E+00  0.00000000000E+00 -0.11589106283E+04  0.13047790135E+04  0.59947846469E+03 0.  0.
        5    1    3    3  502    0 -0.11088589201E+03  0.95310294474E+02 -0.10046694151E+02  0.14663819196E+03  0.46999998093E+01 0. -1.
       -5    1    3    3    0  502  0.11088589201E+03 -0.95310294474E+02 -0.11488639342E+04  0.11581408215E+04  0.46999998093E+01 0.  1.
</event>
<event>
 5   0  0.9162342E-03  0.5941971E+03  0.7818609E-02  0.9917519E-01
       -2   -1    0    0    0  501  0.00000000000E+00  0.00000000000E+00  0.10866051058E+03  0.10866051061E+03  0.25500000920E-02 0. -1.
        2   -1    0    0  501    0  0.00000000000E+00  0.00000000000E+00 -0.81232410529E+03  0.81232410530E+03  0.25500000920E-02 0.  1.
    10030    2    1    2    0    0  0.00000000000E+00  0.00000000000E+00 -0.70366359471E+03  0.92098461591E+03  0.59419711226E+03 0.  0.
        5    1    3    3  502    0  0.15763620703E+03  0.78219997118E+02  0.19118274499E+02  0.17707382679E+03  0.46999998093E+01 0. -1.
       -5    1    3    3    0  502 -0.15763620703E+03 -0.78219997118E+02 -0.72278186921E+03  0.74391078912E+03  0.46999998093E+01 0.  1.
</event>
<event>
 5   0  0.9162342E-03  0.5998750E+03  0.7818609E-02  0.9905665E-01
        2   -1    0    0  501    0  0.00000000000E+00  0.00000000000E+00  0.31512411543E+03  0.31512411544E+03  0.25500000920E-02 0.  1.
       -2   -1    0    0    0  501  0.00000000000E+00  0.00000000000E+00 -0.28548276621E+03  0.28548276622E+03  0.25500000920E-02 0. -1.
    10030    2    1    2    0    0  0.00000000000E+00  0.00000000000E+00  0.29641349220E+02  0.60060688166E+03  0.59987500091E+03 0.  0.
        5    1    3    3  502    0  0.24471307293E+02  0.29266473308E+03 -0.45989934514E+02  0.29730229556E+03  0.46999998093E+01 0. -1.
       -5    1    3    3    0  502 -0.24471307293E+02 -0.29266473308E+03  0.75631283734E+02  0.30330458610E+03  0.46999998093E+01 0.  1.
</event>
<event>
 5   0  0.9162342E-03  0.5997129E+03  0.7818609E-02  0.9906002E-01
       -2   -1    0    0    0  501  0.00000000000E+00  0.00000000000E+00  0.37284563073E+03  0.37284563074E+03  0.25500000920E-02 0.  1.
        2   -1    0    0  501    0  0.00000000000E+00  0.00000000000E+00 -0.24115578851E+03  0.24115578853E+03  0.25500000920E-02 0. -1.
    10030    2    1    2    0    0  0.00000000000E+00  0.00000000000E+00  0.13168984221E+03  0.61400141926E+03  0.59971287156E+03 0.  0.
        5    1    3    3  502    0  0.22486702472E+03 -0.13959607871E+03  0.21005376412E+03  0.33793034462E+03  0.46999998093E+01 0.  1.
       -5    1    3    3    0  502 -0.22486702472E+03  0.13959607871E+03 -0.78363921907E+02  0.27607107464E+03  0.46999998093E+01 0. -1.
</event>
<event>
 5   0  0.9303190E-03  0.5999135E+03  0.7818609E-02  0.9905586E-01
        2   -1    0    0  501    0  0.00000000000E+00  0.00000000000E+00  0.19147391334E+04  0.19147391334E+04  0.25500000920E-02 0. -1.
       -2   -1    0    0    0  501  0.00000000000E+00  0.00000000000E+00 -0.46990241236E+02  0.46990241305E+02  0.25500000920E-02 0.  1.
    10030    2    1    2    0    0  0.00000000000E+00  0.00000000000E+00  0.18677488922E+04  0.19617293747E+04  0.59991350660E+03 0.  0.
        4    1    3    3  502    0 -0.15639683006E+03  0.15028327702E+03  0.25636119426E+03  0.33580903298E+03  0.12699999809E+01 0.  1.
       -4    1    3    3    0  502  0.15639683006E+03 -0.15028327702E+03  0.16113876979E+04  0.16259203417E+04  0.12699999809E+01 0. -1.
</event>
<event>
 5   0  0.9303190E-03  0.5999213E+03  0.7818609E-02  0.9905569E-01
        2   -1    0    0  501    0  0.00000000000E+00  0.00000000000E+00  0.72384941597E+03  0.72384941597E+03  0.25500000920E-02 0. -1.
       -2   -1    0    0    0  501  0.00000000000E+00  0.00000000000E+00 -0.12430264437E+03  0.12430264440E+03  0.25500000920E-02 0.  1.
    10030    2    1    2    0    0  0.00000000000E+00  0.00000000000E+00  0.59954677160E+03  0.84815206037E+03  0.59992131666E+03 0.  0.
        4    1    3    3  502    0 -0.19520565054E+03  0.10859486538E+02  0.62139213379E+03  0.65142380313E+03  0.12699999809E+01 0. -1.
       -4    1    3    3    0  502  0.19520565054E+03 -0.10859486538E+02 -0.21845362191E+02  0.19672825724E+03  0.12699999809E+01 0.  1.
</event>
<event>
 5   0  0.5819446E-03  0.5996136E+03  0.7818609E-02  0.9906208E-01
        1   -1    0    0  501    0  0.00000000000E+00  0.00000000000E+00  0.59012916666E+03  0.59012916668E+03  0.50400001928E-02 0.  1.
       -1   -1    0    0    0  501  0.00000000000E+00  0.00000000000E+00 -0.15231261481E+03  0.15231261490E+03  0.50400001928E-02 0. -1.
    10030    2    1    2    0    0  0.00000000000E+00  0.00000000000E+00  0.43781655184E+03  0.74244178158E+03  0.59961359721E+03 0.  0.
        5    1    3    3  502    0 -0.29863878468E+03 -0.17186969859E+02  0.24309318029E+03  0.38548268437E+03  0.46999998093E+01 0. -1.
       -5    1    3    3    0  502  0.29863878468E+03  0.17186969859E+02  0.19472337155E+03  0.35695909720E+03  0.46999998093E+01 0.  1.
</event>
<event>
 5   0  0.9028473E-03  0.6001953E+03  0.7818609E-02  0.9905001E-01
       -2   -1    0    0    0  501  0.00000000000E+00  0.00000000000E+00  0.44349959513E+02  0.44349959587E+02  0.25500000920E-02 0. -1.
        2   -1    0    0  501    0  0.00000000000E+00  0.00000000000E+00 -0.20306357536E+04  0.20306357536E+04  0.25500000920E-02 0.  1.
    10030    2    1    2    0    0  0.00000000000E+00  0.00000000000E+00 -0.19862857941E+04  0.20749857132E+04  0.60019534666E+03 0.  0.
        1    1    3    3  502    0 -0.29661196819E+02 -0.19986756194E+03 -0.17602310513E+04  0.17717901069E+04  0.50400001928E-02 0.  1.
       -1    1    3    3    0  502  0.29661196819E+02  0.19986756194E+03 -0.22605474278E+03  0.30319560628E+03  0.50400001928E-02 0. -1.
</event>
<event>
 5   0  0.9391405E-03  0.6013499E+03  0.7818609E-02  0.9902609E-01
        2   -1    0    0  501    0  0.00000000000E+00  0.00000000000E+00  0.14132466500E+04  0.14132466501E+04  0.25500000920E-02 0. -1.
       -2   -1    0    0    0  501  0.00000000000E+00  0.00000000000E+00 -0.63970033941E+02  0.63970033992E+02  0.25500000920E-02 0.  1.
    10030    2    1    2    0    0  0.00000000000E+00  0.00000000000E+00  0.13492766161E+04  0.14772166840E+04  0.60134993543E+03 0.  0.
        2    1    3    3  502    0 -0.65191769221E+02  0.26594413500E+03  0.97977079557E+03  0.10173136496E+04  0.25500000920E-02 0. -1.
       -2    1    3    3    0  502  0.65191769221E+02 -0.26594413500E+03  0.36950582054E+03  0.45990303449E+03  0.25500000920E-02 0.  1.
</event>
<event>
 5   0  0.5765045E-03  0.6009219E+03  0.7818609E-02  0.9903495E-01
       -1   -1    0    0    0  501  0.00000000000E+00  0.00000000000E+00  0.53962767327E+03  0.53962767330E+03  0.50400001928E-02 0. -1.
        1   -1    0    0  501    0  0.00000000000E+00  0.00000000000E+00 -0.16729460026E+03  0.16729460033E+03  0.50400001928E-02 0.  1.
    10030    2    1    2    0    0  0.00000000000E+00  0.00000000000E+00  0.37233307302E+03  0.70692227363E+03  0.60092194476E+03 0.  0.
        1    1    3    3  502    0 -0.25347400585E+03 -0.14268594174E+03  0.27473632739E+03  0.40011048377E+03  0.50400001928E-02 0. -1.
       -1    1    3    3    0  502  0.25347400585E+03  0.14268594174E+03  0.97596745627E+02  0.30681178986E+03  0.50400001928E-02 0.  1.
</event>
<event>
 5   0  0.9162342E-03  0.6006343E+03  0.7818609E-02  0.9904091E-01
        2   -1    0    0  501    0  0.00000000000E+00  0.00000000000E+00  0.63279564707E+03  0.63279564708E+03  0.25500000920E-02 0.  1.
       -2   -1    0    0    0  501  0.00000000000E+00  0.00000000000E+00 -0.14252688802E+03  0.14252688804E+03  0.25500000920E-02 0. -1.
    10030    2    1    2    0    0  0.00000000000E+00  0.00000000000E+00  0.49026875906E+03  0.77532253512E+03  0.60063431250E+03 0.  0.
        5    1    3    3  502    0  0.19808089370E+03  0.34516003040E+02  0.53302606958E+03  0.56970718424E+03  0.46999998093E+01 0.  1.
       -5    1    3    3    0  502 -0.19808089370E+03 -0.34516003040E+02 -0.42757310528E+02  0.20561535088E+03  0.46999998093E+01 0. -1.
</event>
<event>
 5   0  0.9391405E-03  0.5998966E+03  0.7818609E-02  0.9905621E-01
       -2   -1    0    0    0  501  0.00000000000E+00  0.00000000000E+00  0.90117221403E+02  0.90117221439E+02  0.25500000920E-02 0.  1.
        2   -1    0    0  501    0  0.00000000000E+00  0.00000000000E+00 -0.99835512945E+03  0.99835512945E+03  0.25500000920E-02 0. -1.
    10030    2    1    2    0    0  0.00000000000E+00  0.00000000000E+00 -0.90823790805E+03  0.10884723509E+04  0.59989662530E+03 0.  0.
        2    1    3    3  502    0 -0.71163236804E+02  0.28651878572E+03 -0.35790660150E+03  0.46395512310E+03  0.25500000920E-02 0.  1.
       -2    1    3    3    0  502  0.71163236804E+02 -0.28651878572E+03 -0.55033130655E+03  0.62451722780E+03  0.25500000920E-02 0. -1.
</event>
<event>
 5   0  0.5765045E-03  0.5995965E+03  0.7818609E-02  0.9906243E-01
       -1   -1    0    0    0  501  0.00000000000E+00  0.00000000000E+00  0.43471316935E+03  0.43471316938E+03  0.50400001928E-02 0.  1.
        1   -1    0    0  501    0  0.00000000000E+00  0.00000000000E+00 -0.20675471468E+03  0.20675471475E+03  0.50400001928E-02 0. -1.
    10030    2    1    2    0    0  0.00000000000E+00  0.00000000000E+00  0.22795845467E+03  0.64146788413E+03  0.59959652210E+03 0.  0.
        1    1    3    3  502    0 -0.14560172701E+03  0.16337320146E+03 -0.10524074621E+03  0.24282973573E+03  0.50400001928E-02 0. -1.
       -1    1    3    3    0  502  0.14560172701E+03 -0.16337320146E+03  0.33319920088E+03  0.39863814840E+03  0.50400001928E-02 0.  1.
</event>
<event>
 5   0  0.9162342E-03  0.5917663E+03  0.7818609E-02  0.9922637E-01
       -2   -1    0    0    0  501  0.00000000000E+00  0.00000000000E+00  0.17178256323E+03  0.17178256324E+03  0.25500000920E-02 0.  1.
        2   -1    0    0  501    0  0.00000000000E+00  0.00000000000E+00 -0.50963754895E+03  0.50963754895E+03  0.25500000920E-02 0. -1.
    10030    2    1    2    0    0  0.00000000000E+00  0.00000000000E+00 -0.33785498572E+03  0.68142011220E+03  0.59176632038E+03 0.  0.
        5    1    3    3  502    0 -0.70662482849E+02  0.14787605533E+03  0.11468874051E+03  0.20009025818E+03  0.46999998093E+01 0.  1.
       -5    1    3    3    0  502  0.70662482849E+02 -0.14787605533E+03 -0.45254372623E+03  0.48132985402E+03  0.46999998093E+01 0. -1.
</event>
<event>
 5   0  0.9162342E-03  0.6008540E+03  0.7818609E-02  0.9903636E-01
        2   -1    0    0  501    0  0.00000000000E+00  0.00000000000E+00  0.59470807171E+03  0.59470807172E+03  0.25500000920E-02 0. -1.
       -2   -1    0    0    0  501  0.00000000000E+00  0.00000000000E+00 -0.15176588395E+03  0.15176588398E+03  0.25500000920E-02 0.  1.
    10030    2    1    2    0    0  0.00000000000E+00  0.00000000000E+00  0.44294218776E+03  0.74647395569E+03  0.60085404620E+03 0.  0.
        5    1    3    3  502    0  0.11368158584E+03 -0.22827061964E+03  0.24240350841E+02  0.25620433907E+03  0.46999998093E+01 0.  1.
       -5    1    3    3    0  502 -0.11368158584E+03  0.22827061964E+03  0.41870183692E+03  0.49026961663E+03  0.46999998093E+01 0. -1.
</event>
<event>
 5   0  0.9822607E-03  0.6011154E+03  0.7818609E-02  0.9903095E-01
       -2   -1    0    0    0  501  0.00000000000E+00  0.00000000000E+00  0.29561026778E+03  0.29561026779E+03  0.25500000920E-02 0. -1.
        2   -1    0    0  501    0  0.00000000000E+00  0.00000000000E+00 -0.30558793484E+03  0.30558793485E+03  0.25500000920E-02 0.  1.
    10030    2    1    2    0    0  0.00000000000E+00  0.00000000000E+00 -0.99776670610E+01  0.60119820264E+03  0.60111540075E+03 0.  0.
        3    1    3    3  502    0 -0.90315913952E+02  0.25014599237E+03 -0.14502575959E+03  0.30292319647E+03  0.10100000352E+00 0.  1.
       -3    1    3    3    0  502  0.90315913952E+02 -0.25014599237E+03  0.13504809252E+03  0.29827500617E+03  0.10100000352E+00 0. -1.
</event>
<event>
 5   0  0.3806250E-03  0.5994323E+03  0.7818609E-02  0.9906585E-01
       -4   -1    0    0    0  501  0.00000000000E+00  0.00000000000E+00  0.81264307980E+02  0.81274231165E+02  0.12699999809E+01 0.  1.
        4   -1    0    0  501    0  0.00000000000E+00  0.00000000000E+00 -0.11053246423E+04  0.11053253719E+04  0.12699999809E+01 0. -1.
    10030    2    1    2    0    0  0.00000000000E+00  0.00000000000E+00 -0.10240603343E+04  0.11865996031E+04  0.59943227280E+03 0.  0.
        4    1    3    3  502    0  0.11109111775E+03 -0.19773435512E+03 -0.89987859456E+03  0.92802112556E+03  0.12699999809E+01 0. -1.
       -4    1    3    3    0  502 -0.11109111775E+03  0.19773435512E+03 -0.12418173975E+03  0.25857847750E+03  0.12699999809E+01 0.  1.
</event>
<event>
 5   0  0.5819446E-03  0.6001801E+03  0.7818609E-02  0.9905033E-01
        1   -1    0    0  501    0  0.00000000000E+00  0.00000000000E+00  0.17546891809E+04  0.17546891809E+04  0.50400001928E-02 0.  1.
       -1   -1    0    0    0  501  0.00000000000E+00  0.00000000000E+00 -0.51321926002E+02  0.51321926249E+02  0.50400001928E-02 0. -1.
    10030    2    1    2    0    0  0.00000000000E+00  0.00000000000E+00  0.17033672549E+04  0.18060111072E+04  0.60018006808E+03 0.  0.
        5    1    3    3  502    0 -0.67696736956E+02  0.22010715383E+03  0.14305136435E+04  0.14489380185E+04  0.46999998093E+01 0.  1.
       -5    1    3    3    0  502  0.67696736956E+02 -0.22010715383E+03  0.27285361142E+03  0.35707308863E+03  0.46999998093E+01 0. -1.
</event>
<event>
 5   0  0.9391405E-03  0.6003360E+03  0.7818609E-02  0.9904709E-01
       -2   -1    0    0    0  501  0.00000000000E+00  0.00000000000E+00  0.62112280295E+02  0.62112280348E+02  0.25500000920E-02 0.  1.
        2   -1    0    0  501    0  0.00000000000E+00  0.00000000000E+00 -0.14506121821E+04  0.14506121821E+04  0.25500000920E-02 0. -1.
    10030    2    1    2    0    0  0.00000000000E+00  0.00000000000E+00 -0.13884999018E+04  0.15127244625E+04  0.60033600757E+03 0.  0.
        2    1    3    3  502    0  0.22337657506E+03 -0.16046999833E+03 -0.39131723462E+03  0.47830627507E+03  0.25500000920E-02 0.  1.
       -2    1    3    3    0  502 -0.22337657506E+03  0.16046999833E+03 -0.99718266719E+03  0.10344181874E+04  0.25500000920E-02 0. -1.
</event>
<event>
 5   0  0.9028473E-03  0.6002766E+03  0.7818609E-02  0.9904832E-01
        2   -1    0    0  501    0  0.00000000000E+00  0.00000000000E+00  0.85664991330E+03  0.85664991331E+03  0.25500000920E-02 0. -1.
       -2   -1    0    0    0  501  0.00000000000E+00  0.00000000000E+00 -0.10515732570E+03  0.10515732573E+03  0.25500000920E-02 0.  1.
    10030    2    1    2    0    0  0.00000000000E+00  0.00000000000E+00  0.75149258760E+03  0.96180723904E+03  0.60027664942E+03 0.  0.
        1    1    3    3  502    0  0.26934677833E+03 -0.96753055393E+02  0.23088294858E+03  0.36771697906E+03  0.50400001928E-02 0.  1.
       -1    1    3    3    0  502 -0.26934677833E+03  0.96753055393E+02  0.52060963903E+03  0.59409025997E+03  0.50400001928E-02 0. -1.
</event>
<event>
 5   0  0.6078658E-03  0.6003410E+03  0.7818609E-02  0.9904699E-01
       -1   -1    0    0    0  501  0.00000000000E+00  0.00000000000E+00  0.77072031828E+02  0.77072031993E+02  0.50400001928E-02 0. -1.
        1   -1    0    0  501    0  0.00000000000E+00  0.00000000000E+00 -0.11690666040E+04  0.11690666040E+04  0.50400001928E-02 0.  1.
    10030    2    1    2    0    0  0.00000000000E+00  0.00000000000E+00 -0.10919945721E+04  0.12461386360E+04  0.60034103182E+03 0.  0.
        2    1    3    3  502    0  0.12547741616E+03 -0.24622807308E+03 -0.78921521098E+03  0.83620182683E+03  0.25500000920E-02 0.  1.
       -2    1    3    3    0  502 -0.12547741616E+03  0.24622807308E+03 -0.30277936116E+03  0.40993680915E+03  0.25500000920E-02 0. -1.
</event>
<event>
 5   0  0.5765045E-03  0.6007066E+03  0.7818609E-02  0.9903941E-01
        1   -1    0    0  501    0  0.00000000000E+00  0.00000000000E+00  0.52170522493E+03  0.52170522495E+03  0.50400001928E-02 0. -1.
       -1   -1    0    0    0  501  0.00000000000E+00  0.00000000000E+00 -0.17291774289E+03  0.17291774296E+03  0.50400001928E-02 0.  1.
    10030    2    1    2    0    0  0.00000000000E+00  0.00000000000E+00  0.34878748204E+03  0.69462296791E+03  0.60070655059E+03 0.  0.
        1    1    3    3  502    0  0.12006999687E+03  0.60350392122E+02  0.48500294240E+03  0.50327609534E+03  0.50400001928E-02 0. -1.
       -1    1    3    3    0  502 -0.12006999687E+03 -0.60350392122E+02 -0.13621546036E+03  0.19134687257E+03  0.50400001928E-02 0.  1.
</event>
<event>
 5   0  0.9391405E-03  0.6021902E+03  0.7818609E-02  0.9900872E-01
        2   -1    0    0  501    0  0.00000000000E+00  0.00000000000E+00  0.82420081849E+03  0.82420081850E+03  0.25500000920E-02 0. -1.
       -2   -1    0    0    0  501  0.00000000000E+00  0.00000000000E+00 -0.10999536618E+03  0.10999536621E+03  0.25500000920E-02 0.  1.
    10030    2    1    2    0    0  0.00000000000E+00  0.00000000000E+00  0.71420545232E+03  0.93419618470E+03  0.60219023854E+03 0.  0.
        2    1    3    3  502    0 -0.23952509735E+03 -0.17395879604E+03  0.27178890629E+03  0.40187453834E+03  0.25500000920E-02 0.  1.
       -2    1    3    3    0  502  0.23952509735E+03  0.17395879604E+03  0.44241654602E+03  0.53232164636E+03  0.25500000920E-02 0. -1.
</event>
<event>
 5   0  0.5765045E-03  0.5992556E+03  0.7818609E-02  0.9906952E-01
       -1   -1    0    0    0  501  0.00000000000E+00  0.00000000000E+00  0.14838275030E+03  0.14838275039E+03  0.50400001928E-02 0. -1.
        1   -1    0    0  501    0  0.00000000000E+00  0.00000000000E+00 -0.60503547375E+03  0.60503547377E+03  0.50400001928E-02 0.  1.
    10030    2    1    2    0    0  0.00000000000E+00  0.00000000000E+00 -0.45665272345E+03  0.75341822416E+03  0.59925563048E+03 0.  0.
        1    1    3    3  502    0  0.69016315368E+01  0.62883965444E+02  0.13989065908E+03  0.15352987381E+03  0.50400001928E-02 0. -1.
       -1    1    3    3    0  502 -0.69016315368E+01 -0.62883965444E+02 -0.59654338253E+03  0.59988835036E+03  0.50400001928E-02 0.  1.
</event>
<event>
 5   0  0.5891927E-03  0.5988440E+03  0.7818609E-02  0.9907807E-01
        1   -1    0    0  501    0  0.00000000000E+00  0.00000000000E+00  0.53871762224E+03  0.53871762226E+03  0.50400001928E-02 0.  1.
       -1   -1    0    0    0  501  0.00000000000E+00  0.00000000000E+00 -0.16642026728E+03  0.16642026736E+03  0.50400001928E-02 0. -1.
    10030    2    1    2    0    0  0.00000000000E+00  0.00000000000E+00  0.37229735496E+03  0.70513788962E+03  0.59884398875E+03 0.  0.
        4    1    3    3  502    0 -0.53951686375E+01  0.94076752780E+02 -0.14850205688E+03  0.17588068983E+03  0.12699999809E+01 0. -1.
       -4    1    3    3    0  502  0.53951686375E+01 -0.94076752780E+02  0.52079941184E+03  0.52925719979E+03  0.12699999809E+01 0.  1.
</event>
<event>
 5   0  0.6078658E-03  0.6032745E+03  0.7818609E-02  0.9898636E-01
       -1   -1    0    0    0  501  0.00000000000E+00  0.00000000000E+00  0.28316598071E+03  0.28316598075E+03  0.50400001928E-02 0. -1.
        1   -1    0    0  501    0  0.00000000000E+00  0.00000000000E+00 -0.32131347498E+03  0.32131347502E+03  0.50400001928E-02 0.  1.
    10030    2    1    2    0    0  0.00000000000E+00  0.00000000000E+00 -0.38147494272E+02  0.60447945577E+03  0.60327454872E+03 0.  0.
        2    1    3    3  502    0 -0.10877708061E+03  0.20057482741E+03 -0.21675521648E+03  0.31471501162E+03  0.25500000920E-02 0.  1.
       -2    1    3    3    0  502  0.10877708061E+03 -0.20057482741E+03  0.17860772221E+03  0.28976444416E+03  0.25500000920E-02 0. -1.
</event>
<event>
 5   0  0.9303190E-03  0.6013345E+03  0.7818609E-02  0.9902641E-01
        2   -1    0    0  501    0  0.00000000000E+00  0.00000000000E+00  0.54604449562E+03  0.54604449562E+03  0.25500000920E-02 0. -1.
       -2   -1    0    0    0  501  0.00000000000E+00  0.00000000000E+00 -0.16555574977E+03  0.16555574979E+03  0.25500000920E-02 0.  1.
    10030    2    1    2    0    0  0.00000000000E+00  0.00000000000E+00  0.38048874585E+03  0.71160024541E+03  0.60133453547E+03 0.  0.
        4    1    3    3  502    0  0.24283609830E+03  0.85076639163E+02  0.37430204501E+03  0.45421474983E+03  0.12699999809E+01 0. -1.
       -4    1    3    3    0  502 -0.24283609830E+03 -0.85076639163E+02  0.61867008428E+01  0.25738549558E+03  0.12699999809E+01 0.  1.
</event>
<event>
 5   0  0.9162342E-03  0.5998374E+03  0.7818609E-02  0.9905743E-01
       -2   -1    0    0    0  501  0.00000000000E+00  0.00000000000E+00  0.13221767639E+03  0.13221767641E+03  0.25500000920E-02 0. -1.
        2   -1    0    0  501    0  0.00000000000E+00  0.00000000000E+00 -0.68032685087E+03  0.68032685088E+03  0.25500000920E-02 0.  1.
    10030    2    1    2    0    0  0.00000000000E+00  0.00000000000E+00 -0.54810917448E+03  0.81254452729E+03  0.59983742938E+03 0.  0.
        5    1    3    3  502    0 -0.81565882742E+02 -0.25056530750E+02  0.11537651078E+03  0.14357803522E+03  0.46999998093E+01 0. -1.
       -5    1    3    3    0  502  0.81565882742E+02  0.25056530750E+02 -0.66348568526E+03  0.66896649207E+03  0.46999998093E+01 0.  1.
</event>
<event>
 5   0  0.9303190E-03  0.5992418E+03  0.7818609E-02  0.9906980E-01
        2   -1    0    0  501    0  0.00000000000E+00  0.00000000000E+00  0.11053159336E+04  0.11053159336E+04  0.25500000920E-02 0. -1.
       -2   -1    0    0    0  501  0.00000000000E+00  0.00000000000E+00 -0.81219017844E+02  0.81219017884E+02  0.25500000920E-02 0.  1.
    10030    2    1    2    0    0  0.00000000000E+00  0.00000000000E+00  0.10240969157E+04  0.11865349515E+04  0.59924176943E+03 0.  0.
        4    1    3    3  502    0 -0.21582630934E+02  0.32290227259E+02 -0.76208129001E+02  0.85543910129E+02  0.12699999809E+01 0.  1.
       -4    1    3    3    0  502  0.21582630934E+02 -0.32290227259E+02  0.11003050447E+04  0.11009910413E+04  0.12699999809E+01 0. -1.
</event>
<event>
 5   0  0.9028473E-03  0.6001265E+03  0.7818609E-02  0.9905144E-01
        2   -1    0    0  501    0  0.00000000000E+00  0.00000000000E+00  0.12452156384E+04  0.12452156384E+04  0.25500000920E-02 0. -1.
       -2   -1    0    0    0  501  0.00000000000E+00  0.00000000000E+00 -0.72307123009E+02  0.72307123054E+02  0.25500000920E-02 0.  1.
    10030    2    1    2    0    0  0.00000000000E+00  0.00000000000E+00  0.11729085153E+04  0.13175227614E+04  0.60012652122E+03 0.  0.
        1    1    3    3  502    0  0.46312252871E+02 -0.10963417238E+02 -0.63968348693E+02  0.79730614844E+02  0.50400001928E-02 0.  1.
       -1    1    3    3    0  502 -0.46312252871E+02  0.10963417238E+02  0.12368768640E+04  0.12377921466E+04  0.50400001928E-02 0. -1.
</event>
<event>
 5   0  0.9162342E-03  0.5923234E+03  0.7818609E-02  0.9921462E-01
       -2   -1    0    0    0  501  0.00000000000E+00  0.00000000000E+00  0.48984382718E+02  0.48984382785E+02  0.25500000920E-02 0.  1.
        2   -1    0    0  501    0  0.00000000000E+00  0.00000000000E+00 -0.17906067662E+04  0.17906067662E+04  0.25500000920E-02 0. -1.
    10030    2    1    2    0    0  0.00000000000E+00  0.00000000000E+00 -0.17416223835E+04  0.18395911490E+04  0.59232344947E+03 0.  0.
        5    1    3    3  502    0 -0.27459693655E+03  0.33129451118E+02 -0.11993230251E+04  0.12308122711E+04  0.46999998093E+01 0. -1.
       -5    1    3    3    0  502  0.27459693655E+03 -0.33129451118E+02 -0.54229935841E+03  0.60877887794E+03  0.46999998093E+01 0.  1.
</event>
<event>
 5   0  0.9822607E-03  0.5993540E+03  0.7818609E-02  0.9906747E-01
        2   -1    0    0  501    0  0.00000000000E+00  0.00000000000E+00  0.34478057388E+03  0.34478057389E+03  0.25500000920E-02 0.  1.
       -2   -1    0    0    0  501  0.00000000000E+00  0.00000000000E+00 -0.26047381396E+03  0.26047381397E+03  0.25500000920E-02 0. -1.
    10030    2    1    2    0    0  0.00000000000E+00  0.00000000000E+00  0.84306759929E+02  0.60525438786E+03  0.59935402247E+03 0.  0.
        3    1    3    3  502    0  0.86607755719E+02 -0.26636472931E+03  0.14976333775E+03  0.31761634074E+03  0.10100000352E+00 0.  1.
       -3    1    3    3    0  502 -0.86607755719E+02  0.26636472931E+03 -0.65456577824E+02  0.28763804712E+03  0.10100000352E+00 0. -1.
</event>
<event>
 5   0  0.9303190E-03  0.6004353E+03  0.7818609E-02  0.9904503E-01
        2   -1    0    0  501    0  0.00000000000E+00  0.00000000000E+00  0.28015853517E+03  0.28015853518E+03  0.25500000920E-02 0. -1.
       -2   -1    0    0    0  501  0.00000000000E+00  0.00000000000E+00 -0.32171294083E+03  0.32171294084E+03  0.25500000920E-02 0.  1.
    10030    2    1    2    0    0  0.00000000000E+00  0.00000000000E+00 -0.41554405657E+02  0.60187147602E+03  0.60043526297E+03 0.  0.
        4    1    3    3  502    0 -0.71372120152E+02  0.92114143546E+02  0.25656133484E+03  0.28178773290E+03  0.12699999809E+01 0. -1.
       -4    1    3    3    0  502  0.71372120152E+02 -0.92114143546E+02 -0.29811574050E+03  0.32008374312E+03  0.12699999809E+01 0.  1.
</event>
<event>
 5   0  0.5790967E-03  0.5997413E+03  0.7818609E-02  0.9905943E-01
       -1   -1    0    0    0  501  0.00000000000E+00  0.00000000000E+00  0.12959104662E+03  0.12959104672E+03  0.50400001928E-02 0.  1.
        1   -1    0    0  501    0  0.00000000000E+00  0.00000000000E+00 -0.69389363200E+03  0.69389363202E+03  0.50400001928E-02 0. -1.
    10030    2    1    2    0    0  0.00000000000E+00  0.00000000000E+00 -0.56430258538E+03  0.82348467873E+03  0.59974128443E+03 0.  0.
        3    1    3    3  502    0 -0.20948660324E+03 -0.16422050594E+03 -0.92541890698E+02  0.28181026107E+03  0.10100000352E+00 0.  1.
       -3    1    3    3    0  502  0.20948660324E+03  0.16422050594E+03 -0.47176069468E+03  0.54167441767E+03  0.10100000352E+00 0. -1.
</event>
<event>
 5   0  0.6078658E-03  0.6013310E+03  0.7818609E-02  0.9902649E-01
       -1   -1    0    0    0  501  0.00000000000E+00  0.00000000000E+00  0.69140240701E+03  0.69140240703E+03  0.50400001928E-02 0. -1.
        1   -1    0    0  501    0  0.00000000000E+00  0.00000000000E+00 -0.13074837025E+03  0.13074837035E+03  0.50400001928E-02 0.  1.
    10030    2    1    2    0    0  0.00000000000E+00  0.00000000000E+00  0.56065403676E+03  0.82215077738E+03  0.60133098357E+03 0.  0.
        2    1    3    3  502    0 -0.18127402390E+03  0.65740411553E+02 -0.35075964243E+02  0.19599080776E+03  0.25500000920E-02 0.  1.
       -2    1    3    3    0  502  0.18127402390E+03 -0.65740411553E+02  0.59573000101E+03  0.62615996962E+03  0.25500000920E-02 0. -1.
</event>
<event>
 5   0  0.5790967E-03  0.6007318E+03  0.7818609E-02  0.9903889E-01
       -1   -1    0    0    0  501  0.00000000000E+00  0.00000000000E+00  0.64082653790E+02  0.64082653988E+02  0.50400001928E-02 0.  1.
        1   -1    0    0  501    0  0.00000000000E+00  0.00000000000E+00 -0.14078644126E+04  0.14078644126E+04  0.50400001928E-02 0. -1.
    10030    2    1    2    0    0  0.00000000000E+00  0.00000000000E+00 -0.13437817588E+04  0.14719470666E+04  0.60073184663E+03 0.  0.
        3    1    3    3  502    0  0.10009487221E+03 -0.86245708428E+02 -0.10946428400E+02  0.13257880736E+03  0.10100000352E+00 0.  1.
       -3    1    3    3    0  502 -0.10009487221E+03  0.86245708428E+02 -0.13328353304E+04  0.13393682592E+04  0.10100000352E+00 0. -1.
</event>
<event>
 5   0  0.9303190E-03  0.5991954E+03  0.7818609E-02  0.9907077E-01
       -2   -1    0    0    0  501  0.00000000000E+00  0.00000000000E+00  0.10940143295E+03  0.10940143298E+03  0.25500000920E-02 0. -1.
        2   -1    0    0  501    0  0.00000000000E+00  0.00000000000E+00 -0.82045347173E+03  0.82045347173E+03  0.25500000920E-02 0.  1.
    10030    2    1    2    0    0  0.00000000000E+00  0.00000000000E+00 -0.71105203878E+03  0.92985490471E+03  0.59919541216E+03 0.  0.
        4    1    3    3  502    0  0.28736715747E+03 -0.76422271020E+02 -0.41226746200E+03  0.50831714492E+03  0.12699999809E+01 0.  1.
       -4    1    3    3    0  502 -0.28736715747E+03  0.76422271020E+02 -0.29878457678E+03  0.42153775979E+03  0.12699999809E+01 0. -1.
</event>
<event>
 5   0  0.5765045E-03  0.5960325E+03  0.7818609E-02  0.9913672E-01
       -1   -1    0    0    0  501  0.00000000000E+00  0.00000000000E+00  0.80977576223E+02  0.80977576380E+02  0.50400001928E-02 0.  1.
        1   -1    0    0  501    0  0.00000000000E+00  0.00000000000E+00 -0.10967688429E+04  0.10967688429E+04  0.50400001928E-02 0. -1.
    10030    2    1    2    0    0  0.00000000000E+00  0.00000000000E+00 -0.10157912667E+04  0.11777464193E+04  0.59603249130E+03 0.  0.
        1    1    3    3  502    0  0.15863891304E+03  0.68551228222E+02 -0.28143638455E+02  0.17509323240E+03  0.50400001928E-02 0.  1.
       -1    1    3    3    0  502 -0.15863891304E+03 -0.68551228222E+02 -0.98764762820E+03  0.10026531869E+04  0.50400001928E-02 0. -1.
</event>
<event>
 5   0  0.5819446E-03  0.5997542E+03  0.7818609E-02  0.9905916E-01
       -1   -1    0    0    0  501  0.00000000000E+00  0.00000000000E+00  0.49570493783E+03  0.49570493786E+03  0.50400001928E-02 0. -1.
        1   -1    0    0  501    0  0.00000000000E+00  0.00000000000E+00 -0.18141091145E+03  0.18141091152E+03  0.50400001928E-02 0.  1.
    10030    2    1    2    0    0  0.00000000000E+00  0.00000000000E+00  0.31429402638E+03  0.67711584938E+03  0.59975423172E+03 0.  0.
        5    1    3    3  502    0 -0.10701323937E+03  0.24941080153E+03  0.13243604830E+02  0.27176288266E+03  0.46999998093E+01 0.  1.
       -5    1    3    3    0  502  0.10701323937E+03 -0.24941080153E+03  0.30105042155E+03  0.40535296673E+03  0.46999998093E+01 0. -1.
</event>
<event>
 5   0  0.5765045E-03  0.6001557E+03  0.7818609E-02  0.9905083E-01
       -1   -1    0    0    0  501  0.00000000000E+00  0.00000000000E+00  0.28066658766E+03  0.28066658770E+03  0.50400001928E-02 0.  1.
        1   -1    0    0  501    0  0.00000000000E+00  0.00000000000E+00 -0.32083160954E+03  0.32083160958E+03  0.50400001928E-02 0. -1.
    10030    2    1    2    0    0  0.00000000000E+00  0.00000000000E+00 -0.40165021882E+02  0.60149819728E+03  0.60015569009E+03 0.  0.
        1    1    3    3  502    0  0.68943249932E+02  0.27942129409E+03  0.65062113107E+02  0.29506356923E+03  0.50400001928E-02 0.  1.
       -1    1    3    3    0  502 -0.68943249932E+02 -0.27942129409E+03 -0.10522713499E+03  0.30643462805E+03  0.50400001928E-02 0. -1.
</event>
<event>
 5   0  0.6078658E-03  0.5980427E+03  0.7818609E-02  0.9909475E-01
        1   -1    0    0  501    0  0.00000000000E+00  0.00000000000E+00  0.11845737537E+04  0.11845737537E+04  0.50400001928E-02 0.  1.
       -1   -1    0    0    0  501  0.00000000000E+00  0.00000000000E+00 -0.75481795234E+02  0.75481795403E+02  0.50400001928E-02 0. -1.
    10030    2    1    2    0    0  0.00000000000E+00  0.00000000000E+00  0.11090919585E+04  0.12600555491E+04  0.59804265276E+03 0.  0.
        2    1    3    3  502    0  0.18649429308E+03 -0.11774277752E+03  0.12911478674E+03  0.25556625593E+03  0.25500000920E-02 0. -1.
       -2    1    3    3    0  502 -0.18649429308E+03  0.11774277752E+03  0.97997717173E+03  0.10044892932E+04  0.25500000920E-02 0.  1.
</event>
<event>
 5   0  0.9162342E-03  0.6006592E+03  0.7818609E-02  0.9904039E-01
        2   -1    0    0  501    0  0.00000000000E+00  0.00000000000E+00  0.79242214959E+03  0.79242214959E+03  0.25500000920E-02 0. -1.
       -2   -1    0    0    0  501  0.00000000000E+00  0.00000000000E+00 -0.11382551462E+03  0.11382551465E+03  0.25500000920E-02 0.  1.
    10030    2    1    2    0    0  0.00000000000E+00  0.00000000000E+00  0.67859663497E+03  0.90624766424E+03  0.60065916788E+03 0.  0.
        5    1    3    3  502    0 -0.42962366881E+01  0.11135047551E+03  0.76001758371E+03  0.76815766845E+03  0.46999998093E+01 0. -1.
       -5    1    3    3    0  502  0.42962366881E+01 -0.11135047551E+03 -0.81420948745E+02  0.13808999579E+03  0.46999998093E+01 0.  1.
</event>
<event>
 5   0  0.9303190E-03  0.6020012E+03  0.7818609E-02  0.9901263E-01
       -2   -1    0    0    0  501  0.00000000000E+00  0.00000000000E+00  0.22992566520E+03  0.22992566522E+03  0.25500000920E-02 0.  1.
        2   -1    0    0  501    0  0.00000000000E+00  0.00000000000E+00 -0.39404626982E+03  0.39404626983E+03  0.25500000920E-02 0. -1.
    10030    2    1    2    0    0  0.00000000000E+00  0.00000000000E+00 -0.16412060462E+03  0.62397193505E+03  0.60200116517E+03 0.  0.
        4    1    3    3  502    0  0.21789550088E+03  0.11843226197E+03  0.94737784466E+02  0.26548354127E+03  0.12699999809E+01 0.  1.
       -4    1    3    3    0  502 -0.21789550088E+03 -0.11843226197E+03 -0.25885838909E+03  0.35848839378E+03  0.12699999809E+01 0. -1.
</event>
<event>
 5   0  0.5790967E-03  0.6002447E+03  0.7818609E-02  0.9904898E-01
       -1   -1    0    0    0  501  0.00000000000E+00  0.00000000000E+00  0.50890810034E+03  0.50890810036E+03  0.50400001928E-02 0.  1.
        1   -1    0    0  501    0  0.00000000000E+00  0.00000000000E+00 -0.17699352657E+03  0.17699352664E+03  0.50400001928E-02 0. -1.
    10030    2    1    2    0    0  0.00000000000E+00  0.00000000000E+00  0.33191457376E+03  0.68590162701E+03  0.60024474813E+03 0.  0.
        3    1    3    3  502    0  0.74608023634E+02  0.73577870858E+00  0.49814120278E+03  0.50369789226E+03  0.10100000352E+00 0.  1.
       -3    1    3    3    0  502 -0.74608023634E+02 -0.73577870858E+00 -0.16622662901E+03  0.18220373475E+03  0.10100000352E+00 0. -1.
</event>
<event>
 5   0  0.3806250E-03  0.5996612E+03  0.7818609E-02  0.9906109E-01
        4   -1    0    0  501    0  0.00000000000E+00  0.00000000000E+00  0.19695615714E+03  0.19696025166E+03  0.12699999809E+01 0.  1.
       -4   -1    0    0    0  501  0.00000000000E+00  0.00000000000E+00 -0.45642883439E+03  0.45643060125E+03  0.12699999809E+01 0. -1.
    10030    2    1    2    0    0  0.00000000000E+00  0.00000000000E+00 -0.25947267725E+03  0.65339085292E+03  0.59966118470E+03 0.  0.
        1    1    3    3  502    0 -0.37119945030E+02 -0.17083089802E+03 -0.39515471930E+03  0.43209760269E+03  0.50400001928E-02 0. -1.
       -1    1    3    3    0  502  0.37119945030E+02  0.17083089802E+03  0.13568204205E+03  0.22129325023E+03  0.50400001928E-02 0.  1.
</event>
<event>
 5   0  0.9303190E-03  0.6001131E+03  0.7818609E-02  0.9905171E-01
       -2   -1    0    0    0  501  0.00000000000E+00  0.00000000000E+00  0.53859897211E+03  0.53859897211E+03  0.25500000920E-02 0. -1.
        2   -1    0    0  501    0  0.00000000000E+00  0.00000000000E+00 -0.16716322666E+03  0.16716322668E+03  0.25500000920E-02 0.  1.
    10030    2    1    2    0    0  0.00000000000E+00  0.00000000000E+00  0.37143574545E+03  0.70576219879E+03  0.60011312954E+03 0.  0.
        4    1    3    3  502    0 -0.58038593102E+02 -0.19841790391E+03 -0.70040078150E+02  0.21827819023E+03  0.12699999809E+01 0.  1.
       -4    1    3    3    0  502  0.58038593102E+02  0.19841790391E+03  0.44147582360E+03  0.48748400856E+03  0.12699999809E+01 0. -1.
</event>
<event>
 5   0  0.5891927E-03  0.6008440E+03  0.7818609E-02  0.9903657E-01
        1   -1    0    0  501    0  0.00000000000E+00  0.00000000000E+00  0.16003322660E+04  0.16003322660E+04  0.50400001928E-02 0.  1.
       -1   -1    0    0    0  501  0.00000000000E+00  0.00000000000E+00 -0.56396652875E+02  0.56396653100E+02  0.50400001928E-02 0. -1.
    10030    2    1    2    0    0  0.00000000000E+00  0.00000000000E+00  0.15439356132E+04  0.16567289191E+04  0.60084401798E+03 0.  0.
        4    1    3    3  502    0  0.19511499797E+03 -0.11906994270E+03  0.23443393694E+03  0.32742693441E+03  0.12699999809E+01 0. -1.
       -4    1    3    3    0  502 -0.19511499797E+03  0.11906994270E+03  0.13095016762E+04  0.13293019847E+04  0.12699999809E+01 0.  1.
</event>
<event>
 5   0  0.9028473E-03  0.6006700E+03  0.7818609E-02  0.9904017E-01
        2   -1    0    0  501    0  0.00000000000E+00  0.00000000000E+00  0.50285154877E+03  0.50285154878E+03  0.25500000920E-02 0. -1.
       -2   -1    0    0    0  501  0.00000000000E+00  0.00000000000E+00 -0.17937921902E+03  0.17937921904E+03  0.25500000920E-02 0.  1.
    10030    2    1    2    0    0  0.00000000000E+00  0.00000000000E+00  0.32347232975E+03  0.68223076782E+03  0.60067001959E+03 0.  0.
        1    1    3    3  502    0  0.21021559325E+03 -0.17875287353E+03  0.27070749627E+02  0.27726523574E+03  0.50400001928E-02 0.  1.
       -1    1    3    3    0  502 -0.21021559325E+03  0.17875287353E+03  0.29640158013E+03  0.40496553207E+03  0.50400001928E-02 0. -1.
</event>
<event>
 5   0  0.5891927E-03  0.5993921E+03  0.7818609E-02  0.9906668E-01
       -1   -1    0    0    0  501  0.00000000000E+00  0.00000000000E+00  0.16128060189E+03  0.16128060197E+03  0.50400001928E-02 0. -1.
        1   -1    0    0  501    0  0.00000000000E+00  0.00000000000E+00 -0.55690337498E+03  0.55690337500E+03  0.50400001928E-02 0.  1.
    10030    2    1    2    0    0  0.00000000000E+00  0.00000000000E+00 -0.39562277309E+03  0.71818397697E+03  0.59939206384E+03 0.  0.
        4    1    3    3  502    0  0.22164238726E+03  0.89961453687E+02  0.18519295886E+02  0.23992287969E+03  0.12699999809E+01 0. -1.
       -4    1    3    3    0  502 -0.22164238726E+03 -0.89961453687E+02 -0.41414206897E+03  0.47826109728E+03  0.12699999809E+01 0.  1.
</event>
<event>
 5   0  0.5765045E-03  0.5998403E+03  0.7818609E-02  0.9905738E-01
       -1   -1    0    0    0  501  0.00000000000E+00  0.00000000000E+00  0.51016188502E+03  0.51016188505E+03  0.50400001928E-02 0. -1.
        1   -1    0    0  501    0  0.00000000000E+00  0.00000000000E+00 -0.17632067074E+03  0.17632067081E+03  0.50400001928E-02 0.  1.
    10030    2    1    2    0    0  0.00000000000E+00  0.00000000000E+00  0.33384121428E+03  0.68648255586E+03  0.59984026469E+03 0.  0.
        1    1    3    3  502    0 -0.20436885278E+03  0.39716006594E+02  0.41399320113E+03  0.46339438901E+03  0.50400001928E-02 0. -1.
       -1    1    3    3    0  502  0.20436885278E+03 -0.39716006594E+02 -0.80151986847E+02  0.22308816685E+03  0.50400001928E-02 0.  1.
</event>
<event>
 5   0  0.9822607E-03  0.6000254E+03  0.7818609E-02  0.9905353E-01
       -2   -1    0    0    0  501  0.00000000000E+00  0.00000000000E+00  0.20051902539E+03  0.20051902541E+03  0.25500000920E-02 0.  1.
        2   -1    0    0  501    0  0.00000000000E+00  0.00000000000E+00 -0.44887324107E+03  0.44887324108E+03  0.25500000920E-02 0. -1.
    10030    2    1    2    0    0  0.00000000000E+00  0.00000000000E+00 -0.24835421568E+03  0.64939226648E+03  0.60002541556E+03 0.  0.
        3    1    3    3  502    0 -0.16712784845E+03  0.24516516396E+03 -0.17221278155E+03  0.34306694344E+03  0.10100000352E+00 0.  1.
       -3    1    3    3    0  502  0.16712784845E+03 -0.24516516396E+03 -0.76141434124E+02  0.30632532305E+03  0.10100000352E+00 0. -1.
</event>
<event>
 5   0  0.5819446E-03  0.6011918E+03  0.7818609E-02  0.9902937E-01
       -1   -1    0    0    0  501  0.00000000000E+00  0.00000000000E+00  0.11181603097E+03  0.11181603108E+03  0.50400001928E-02 0. -1.
        1   -1    0    0  501    0  0.00000000000E+00  0.00000000000E+00 -0.80809432165E+03  0.80809432167E+03  0.50400001928E-02 0.  1.
    10030    2    1    2    0    0  0.00000000000E+00  0.00000000000E+00 -0.69627829069E+03  0.91991035275E+03  0.60119181550E+03 0.  0.
        5    1    3    3  502    0 -0.27999924070E+03  0.17745370175E+02 -0.51309224878E+03  0.58480784769E+03  0.46999998093E+01 0.  1.
       -5    1    3    3    0  502  0.27999924070E+03 -0.17745370175E+02 -0.18318604190E+03  0.33510250507E+03  0.46999998093E+01 0. -1.
</event>
<event>
 5   0  0.9822607E-03  0.5998056E+03  0.7818609E-02  0.9905809E-01
        2   -1    0    0  501    0  0.00000000000E+00  0.00000000000E+00  0.97870157009E+03  0.97870157009E+03  0.25500000920E-02 0. -1.
       -2   -1    0    0    0  501  0.00000000000E+00  0.00000000000E+00 -0.91899004682E+02  0.91899004718E+02  0.25500000920E-02 0.  1.
    10030    2    1    2    0    0  0.00000000000E+00  0.00000000000E+00  0.88680256541E+03  0.10706005748E+04  0.59980563583E+03 0.  0.
        3    1    3    3  502    0 -0.25941782105E+03  0.98090976685E+01  0.71142279291E+03  0.75730853999E+03  0.10100000352E+00 0. -1.
       -3    1    3    3    0  502  0.25941782105E+03 -0.98090976685E+01  0.17537977250E+03  0.31329203482E+03  0.10100000352E+00 0.  1.
</event>
<event>
 5   0  0.9303190E-03  0.5998084E+03  0.7818609E-02  0.9905804E-01
        2   -1    0    0  501    0  0.00000000000E+00  0.00000000000E+00  0.11472787244E+04  0.11472787244E+04  0.25500000920E-02 0. -1.
       -2   -1    0    0    0  501  0.00000000000E+00  0.00000000000E+00 -0.78396405078E+02  0.78396405119E+02  0.25500000920E-02 0.  1.
    10030    2    1    2    0    0  0.00000000000E+00  0.00000000000E+00  0.10688823193E+04  0.12256751295E+04  0.59980839487E+03 0.  0.
        4    1    3    3  502    0  0.11188094343E+03 -0.22036815372E+03  0.88159492289E+03  0.91558215887E+03  0.12699999809E+01 0. -1.
       -4    1    3    3    0  502 -0.11188094343E+03  0.22036815372E+03  0.18728739640E+03  0.31009297062E+03  0.12699999809E+01 0.  1.
</event>
<event>
 5   0  0.9028473E-03  0.5973650E+03  0.7818609E-02  0.9910888E-01
       -2   -1    0    0    0  501  0.00000000000E+00  0.00000000000E+00  0.89285301645E+02  0.89285301682E+02  0.25500000920E-02 0. -1.
        2   -1    0    0  501    0  0.00000000000E+00  0.00000000000E+00 -0.99917059920E+03  0.99917059920E+03  0.25500000920E-02 0.  1.
    10030    2    1    2    0    0  0.00000000000E+00  0.00000000000E+00 -0.90988529756E+03  0.10884559009E+04  0.59736504205E+03 0.  0.
        1    1    3    3  502    0  0.15485380447E+03 -0.14100622688E+03 -0.66922843408E+02  0.21986614968E+03  0.50400001928E-02 0. -1.
       -1    1    3    3    0  502 -0.15485380447E+03  0.14100622688E+03 -0.84296245415E+03  0.86858975121E+03  0.50400001928E-02 0.  1.
</event>
<event>
 5   0  0.9028473E-03  0.5990873E+03  0.7818609E-02  0.9907302E-01
        2   -1    0    0  501    0  0.00000000000E+00  0.00000000000E+00  0.71086814529E+03  0.71086814530E+03  0.25500000920E-02 0.  1.
       -2   -1    0    0    0  501  0.00000000000E+00  0.00000000000E+00 -0.12622085741E+03  0.12622085744E+03  0.25500000920E-02 0. -1.
    10030    2    1    2    0    0  0.00000000000E+00  0.00000000000E+00  0.58464728788E+03  0.83708900273E+03  0.59908726182E+03 0.  0.
        1    1    3    3  502    0  0.27958725079E+03 -0.10607496645E+03  0.31674427786E+03  0.43560058183E+03  0.50400001928E-02 0.  1.
       -1    1    3    3    0  502 -0.27958725079E+03  0.10607496645E+03  0.26790301002E+03  0.40148842090E+03  0.50400001928E-02 0. -1.
</event>
<event>
 5   0  0.3806250E-03  0.5995803E+03  0.7818609E-02  0.9906277E-01
        4   -1    0    0  501    0  0.00000000000E+00  0.00000000000E+00  0.10550421149E+04  0.10550428793E+04  0.12699999809E+01 0. -1.
       -4   -1    0    0    0  501  0.00000000000E+00  0.00000000000E+00 -0.85179816296E+02  0.85189283388E+02  0.12699999809E+01 0.  1.
    10030    2    1    2    0    0  0.00000000000E+00  0.00000000000E+00  0.96986229863E+03  0.11402321627E+04  0.59958027530E+03 0.  0.
        1    1    3    3  502    0 -0.54956307174E+02 -0.68110404693E+02 -0.60350931467E+02  0.10630831520E+03  0.50400001928E-02 0.  1.
       -1    1    3    3    0  502  0.54956307174E+02  0.68110404693E+02  0.10302132301E+04  0.10339238475E+04  0.50400001928E-02 0. -1.
</event>
<event>
 5   0  0.5891927E-03  0.6004135E+03  0.7818609E-02  0.9904549E-01
        1   -1    0    0  501    0  0.00000000000E+00  0.00000000000E+00  0.43665202886E+03  0.43665202889E+03  0.50400001928E-02 0. -1.
       -1   -1    0    0    0  501  0.00000000000E+00  0.00000000000E+00 -0.20639793796E+03  0.20639793802E+03  0.50400001928E-02 0.  1.
    10030    2    1    2    0    0  0.00000000000E+00  0.00000000000E+00  0.23025409090E+03  0.64304996691E+03  0.60041345219E+03 0.  0.
        4    1    3    3  502    0 -0.17417934401E+03 -0.11527794740E+03 -0.11581207588E+03  0.23883362171E+03  0.12699999809E+01 0.  1.
       -4    1    3    3    0  502  0.17417934401E+03  0.11527794740E+03  0.34606616678E+03  0.40421634520E+03  0.12699999809E+01 0. -1.
</event>
<event>
 5   0  0.9162342E-03  0.6008109E+03  0.7818609E-02  0.9903725E-01
        2   -1    0    0  501    0  0.00000000000E+00  0.00000000000E+00  0.13408777484E+04  0.13408777484E+04  0.25500000920E-02 0. -1.
       -2   -1    0    0    0  501  0.00000000000E+00  0.00000000000E+00 -0.67301771655E+02  0.67301771704E+02  0.25500000920E-02 0.  1.
    10030    2    1    2    0    0  0.00000000000E+00  0.00000000000E+00  0.12735759767E+04  0.14081795201E+04  0.60081094556E+03 0.  0.
        5    1    3    3  502    0  0.11945119936E+03  0.21853426916E+03  0.24322847629E+03  0.34814938963E+03  0.46999998093E+01 0.  1.
       -5    1    3    3    0  502 -0.11945119936E+03 -0.21853426916E+03  0.10303475005E+04  0.10600301305E+04  0.46999998093E+01 0. -1.
</event>
<event>
 5   0  0.5765045E-03  0.6004454E+03  0.7818609E-02  0.9904482E-01
        1   -1    0    0  501    0  0.00000000000E+00  0.00000000000E+00  0.12346942892E+04  0.12346942892E+04  0.50400001928E-02 0. -1.
       -1   -1    0    0    0  501  0.00000000000E+00  0.00000000000E+00 -0.73000802949E+02  0.73000803123E+02  0.50400001928E-02 0.  1.
    10030    2    1    2    0    0  0.00000000000E+00  0.00000000000E+00  0.11616934863E+04  0.13076950924E+04  0.60044541677E+03 0.  0.
        1    1    3    3  502    0 -0.25859828373E+03  0.10212255806E+03  0.82754899799E+03  0.87300597553E+03  0.50400001928E-02 0. -1.
       -1    1    3    3    0  502  0.25859828373E+03 -0.10212255806E+03  0.33414448828E+03  0.43468911682E+03  0.50400001928E-02 0.  1.
</event>
<event>
 5   0  0.3806250E-03  0.5984198E+03  0.7818609E-02  0.9908690E-01
        3   -1    0    0  501    0  0.00000000000E+00  0.00000000000E+00  0.21616380055E+03  0.21616382415E+03  0.10100000352E+00 0.  1.
       -3   -1    0    0    0  501  0.00000000000E+00  0.00000000000E+00 -0.41416064936E+03  0.41416066167E+03  0.10100000352E+00 0. -1.
    10030    2    1    2    0    0  0.00000000000E+00  0.00000000000E+00 -0.19799684880E+03  0.63032448582E+03  0.59841975677E+03 0.  0.
        3    1    3    3  502    0 -0.17406657893E+03  0.70808123044E+02 -0.34425027104E+03  0.39220048891E+03  0.10100000352E+00 0. -1.
       -3    1    3    3    0  502  0.17406657893E+03 -0.70808123044E+02  0.14625342224E+03  0.23812399691E+03  0.10100000352E+00 0.  1.
</event>
<event>
 5   0  0.5891927E-03  0.5993029E+03  0.7818609E-02  0.9906853E-01
        1   -1    0    0  501    0  0.00000000000E+00  0.00000000000E+00  0.51447576251E+03  0.51447576253E+03  0.50400001928E-02 0. -1.
       -1   -1    0    0    0  501  0.00000000000E+00  0.00000000000E+00 -0.17452911801E+03  0.17452911808E+03  0.50400001928E-02 0.  1.
    10030    2    1    2    0    0  0.00000000000E+00  0.00000000000E+00  0.33994664450E+03  0.68900488061E+03  0.59930293208E+03 0.  0.
        4    1    3    3  502    0  0.21332258610E+03 -0.14708589513E+03  0.34299343671E+03  0.42986846455E+03  0.12699999809E+01 0. -1.
       -4    1    3    3    0  502 -0.21332258610E+03  0.14708589513E+03 -0.30467922185E+01  0.25913641606E+03  0.12699999809E+01 0.  1.
</event>
<event>
 5   0  0.5819446E-03  0.5999910E+03  0.7818609E-02  0.9905425E-01
        1   -1    0    0  501    0  0.00000000000E+00  0.00000000000E+00  0.66977281262E+03  0.66977281264E+03  0.50400001928E-02 0. -1.
       -1   -1    0    0    0  501  0.00000000000E+00  0.00000000000E+00 -0.13436990453E+03  0.13436990463E+03  0.50400001928E-02 0.  1.
    10030    2    1    2    0    0  0.00000000000E+00  0.00000000000E+00  0.53540290809E+03  0.80414271726E+03  0.59999102972E+03 0.  0.
        5    1    3    3  502    0 -0.12525471742E+02  0.21554457063E+03  0.54678057807E+03  0.58788386602E+03  0.46999998093E+01 0. -1.
       -5    1    3    3    0  502  0.12525471742E+02 -0.21554457063E+03 -0.11377669989E+02  0.21625885124E+03  0.46999998093E+01 0.  1.
</event>
<event>
 5   0  0.9303190E-03  0.6006204E+03  0.7818609E-02  0.9904120E-01
       -2   -1    0    0    0  501  0.00000000000E+00  0.00000000000E+00  0.13505895173E+03  0.13505895176E+03  0.25500000920E-02 0.  1.
        2   -1    0    0  501    0  0.00000000000E+00  0.00000000000E+00 -0.66775437982E+03  0.66775437982E+03  0.25500000920E-02 0. -1.
    10030    2    1    2    0    0  0.00000000000E+00  0.00000000000E+00 -0.53269542808E+03  0.80281333158E+03  0.60062036784E+03 0.  0.
        4    1    3    3  502    0 -0.55852171703E+02  0.26235808960E+03 -0.85859897821E+02  0.28164652885E+03  0.12699999809E+01 0.  1.
       -4    1    3    3    0  502  0.55852171703E+02 -0.26235808960E+03 -0.44683553026E+03  0.52116680273E+03  0.12699999809E+01 0. -1.
</event>
<event>
 5   0  0.5765045E-03  0.6005400E+03  0.7818609E-02  0.9904286E-01
        1   -1    0    0  501    0  0.00000000000E+00  0.00000000000E+00  0.30705968528E+03  0.30705968532E+03  0.50400001928E-02 0.  1.
       -1   -1    0    0    0  501  0.00000000000E+00  0.00000000000E+00 -0.29363042809E+03  0.29363042813E+03  0.50400001928E-02 0. -1.
    10030    2    1    2    0    0  0.00000000000E+00  0.00000000000E+00  0.13429257193E+02  0.60069011345E+03  0.60053997989E+03 0.  0.
        1    1    3    3  502    0  0.25234455799E+03 -0.16256453331E+03 -0.84129193881E+00  0.30017613368E+03  0.50400001928E-02 0. -1.
       -1    1    3    3    0  502 -0.25234455799E+03  0.16256453331E+03  0.14270549131E+02  0.30051397976E+03  0.50400001928E-02 0.  1.
</event>
<event>
 5   0  0.9391405E-03  0.5992520E+03  0.7818609E-02  0.9906959E-01
       -2   -1    0    0    0  501  0.00000000000E+00  0.00000000000E+00  0.70064205005E+02  0.70064205052E+02  0.25500000920E-02 0.  1.
        2   -1    0    0  501    0  0.00000000000E+00  0.00000000000E+00 -0.12813354685E+04  0.12813354685E+04  0.25500000920E-02 0. -1.
    10030    2    1    2    0    0  0.00000000000E+00  0.00000000000E+00 -0.12112712635E+04  0.13513996736E+04  0.59925203707E+03 0.  0.
        2    1    3    3  502    0 -0.31123574967E+02  0.22078013407E+03 -0.10570206529E+04  0.10802801512E+04  0.25500000920E-02 0. -1.
       -2    1    3    3    0  502  0.31123574967E+02 -0.22078013407E+03 -0.15425061068E+03  0.27111952239E+03  0.25500000920E-02 0.  1.
</event>
<event>
 5   0  0.9162342E-03  0.6004118E+03  0.7818609E-02  0.9904552E-01
        2   -1    0    0  501    0  0.00000000000E+00  0.00000000000E+00  0.25647542753E+03  0.25647542754E+03  0.25500000920E-02 0.  1.
       -2   -1    0    0    0  501  0.00000000000E+00  0.00000000000E+00 -0.35139263716E+03  0.35139263717E+03  0.25500000920E-02 0. -1.
    10030    2    1    2    0    0  0.00000000000E+00  0.00000000000E+00 -0.94917209629E+02  0.60786806471E+03  0.60041178154E+03 0.  0.
        5    1    3    3  502    0 -0.90037072804E+02 -0.39908861113E+02 -0.33453256810E+03  0.34875997590E+03  0.46999998093E+01 0. -1.
       -5    1    3    3    0  502  0.90037072804E+02  0.39908861113E+02  0.23961535847E+03  0.25910808881E+03  0.46999998093E+01 0.  1.
</event>
<event>
 5   0  0.5790967E-03  0.5998400E+03  0.7818609E-02  0.9905738E-01
        1   -1    0    0  501    0  0.00000000000E+00  0.00000000000E+00  0.60053351792E+03  0.60053351794E+03  0.50400001928E-02 0. -1.
       -1   -1    0    0    0  501  0.00000000000E+00  0.00000000000E+00 -0.14978680096E+03  0.14978680105E+03  0.50400001928E-02 0.  1.
    10030    2    1    2    0    0  0.00000000000E+00  0.00000000000E+00  0.45074671696E+03  0.75032031899E+03  0.59983996053E+03 0.  0.
        3    1    3    3  502    0 -0.11093382900E+03  0.25529500533E+02  0.57246129010E+03  0.58366943442E+03  0.10100000352E+00 0. -1.
       -3    1    3    3    0  502  0.11093382900E+03 -0.25529500533E+02 -0.12171457314E+03  0.16665088457E+03  0.10100000352E+00 0.  1.
</event>
<event>
 5   0  0.3806250E-03  0.6009424E+03  0.7818609E-02  0.9903453E-01
       -3   -1    0    0    0  501  0.00000000000E+00  0.00000000000E+00  0.23560946329E+03  0.23560948494E+03  0.10100000352E+00 0.  1.
        3   -1    0    0  501    0  0.00000000000E+00  0.00000000000E+00 -0.38318893495E+03  0.38318894826E+03  0.10100000352E+00 0. -1.
    10030    2    1    2    0    0  0.00000000000E+00  0.00000000000E+00 -0.14757947166E+03  0.61879843320E+03  0.60094242692E+03 0.  0.
        2    1    3    3  502    0 -0.16906098096E+03  0.14163202303E+03  0.13633664955E+03  0.25928541657E+03  0.25500000920E-02 0.  1.
       -2    1    3    3    0  502  0.16906098096E+03 -0.14163202303E+03 -0.28391612122E+03  0.35951301663E+03  0.25500000920E-02 0. -1.
</event>
<event>
 5   0  0.5819446E-03  0.5993567E+03  0.7818609E-02  0.9906742E-01
        1   -1    0    0  501    0  0.00000000000E+00  0.00000000000E+00  0.72942110131E+03  0.72942110133E+03  0.50400001928E-02 0.  1.
       -1   -1    0    0    0  501  0.00000000000E+00  0.00000000000E+00 -0.12312107487E+03  0.12312107498E+03  0.50400001928E-02 0. -1.
    10030    2    1    2    0    0  0.00000000000E+00  0.00000000000E+00  0.60630002644E+03  0.85254217630E+03  0.59935668872E+03 0.  0.
        5    1    3    3  502    0  0.15727119894E+03 -0.14497620983E+03  0.46680317225E+01  0.21400049521E+03  0.46999998093E+01 0. -1.
       -5    1    3    3    0  502 -0.15727119894E+03  0.14497620983E+03  0.60163199472E+03  0.63854168109E+03  0.46999998093E+01 0.  1.
</event>
<event>
 5   0  0.9391405E-03  0.5996169E+03  0.7818609E-02  0.9906201E-01
       -2   -1    0    0    0  501  0.00000000000E+00  0.00000000000E+00  0.11289274294E+03  0.11289274297E+03  0.25500000920E-02 0. -1.
        2   -1    0    0  501    0  0.00000000000E+00  0.00000000000E+00 -0.79619910925E+03  0.79619910926E+03  0.25500000920E-02 0.  1.
    10030    2    1    2    0    0  0.00000000000E+00  0.00000000000E+00 -0.68330636631E+03  0.90909185223E+03  0.59961688230E+03 0.  0.
        2    1    3    3  502    0  0.24057191791E+03  0.16643899855E+03 -0.44116795694E+03  0.52934483483E+03  0.25500000920E-02 0. -1.
       -2    1    3    3    0  502 -0.24057191791E+03 -0.16643899855E+03 -0.24213840937E+03  0.37974701740E+03  0.25500000920E-02 0.  1.
</event>
<event>
 5   0  0.5891927E-03  0.5982289E+03  0.7818609E-02  0.9909087E-01
        1   -1    0    0  501    0  0.00000000000E+00  0.00000000000E+00  0.45795292922E+03  0.45795292924E+03  0.50400001928E-02 0. -1.
       -1   -1    0    0    0  501  0.00000000000E+00  0.00000000000E+00 -0.19536826200E+03  0.19536826206E+03  0.50400001928E-02 0.  1.
    10030    2    1    2    0    0  0.00000000000E+00  0.00000000000E+00  0.26258466722E+03  0.65332119131E+03  0.59822894577E+03 0.  0.
        4    1    3    3  502    0 -0.26254092440E+03  0.14076041190E+03  0.10185392530E+03  0.31482862885E+03  0.12699999809E+01 0.  1.
       -4    1    3    3    0  502  0.26254092440E+03 -0.14076041190E+03  0.16073074192E+03  0.33849256246E+03  0.12699999809E+01 0. -1.
</event>
<event>
 5   0  0.9822607E-03  0.6008782E+03  0.7818609E-02  0.9903586E-01
        2   -1    0    0  501    0  0.00000000000E+00  0.00000000000E+00  0.89606249883E+03  0.89606249884E+03  0.25500000920E-02 0. -1.
       -2   -1    0    0    0  501  0.00000000000E+00  0.00000000000E+00 -0.10073366204E+03  0.10073366207E+03  0.25500000920E-02 0.  1.
    10030    2    1    2    0    0  0.00000000000E+00  0.00000000000E+00  0.79532883680E+03  0.99679616090E+03  0.60087821374E+03 0.  0.
        3    1    3    3  502    0  0.25517542599E+03 -0.11640986923E+03  0.57631704725E+03  0.64094235687E+03  0.10100000352E+00 0. -1.
       -3    1    3    3    0  502 -0.25517542599E+03  0.11640986923E+03  0.21901178955E+03  0.35585380403E+03  0.10100000352E+00 0.  1.
</event>
<event>
 5   0  0.9162342E-03  0.6017555E+03  0.7818609E-02  0.9901771E-01
        2   -1    0    0  501    0  0.00000000000E+00  0.00000000000E+00  0.90271949684E+03  0.90271949684E+03  0.25500000920E-02 0.  1.
       -2   -1    0    0    0  501  0.00000000000E+00  0.00000000000E+00 -0.10028299012E+03  0.10028299015E+03  0.25500000920E-02 0. -1.
    10030    2    1    2    0    0  0.00000000000E+00  0.00000000000E+00  0.80243650672E+03  0.10030024870E+04  0.60175546662E+03 0.  0.
        5    1    3    3  502    0 -0.19653914516E+03 -0.10106750824E+03  0.74143639042E+03  0.77368746135E+03  0.46999998093E+01 0.  1.
       -5    1    3    3    0  502  0.19653914516E+03  0.10106750824E+03  0.61000116295E+02  0.22931502565E+03  0.46999998093E+01 0. -1.
</event>
<event>
 5   0  0.9303190E-03  0.6051375E+03  0.7818609E-02  0.9894804E-01
        2   -1    0    0  501    0  0.00000000000E+00  0.00000000000E+00  0.38093507565E+03  0.38093507566E+03  0.25500000920E-02 0.  1.
       -2   -1    0    0    0  501  0.00000000000E+00  0.00000000000E+00 -0.24032403416E+03  0.24032403417E+03  0.25500000920E-02 0. -1.
    10030    2    1    2    0    0  0.00000000000E+00  0.00000000000E+00  0.14061104149E+03  0.62125910984E+03  0.60513751872E+03 0.  0.
        4    1    3    3  502    0 -0.50876330544E+02 -0.26553587674E+03 -0.69138427868E+02  0.27906887672E+03  0.12699999809E+01 0. -1.
       -4    1    3    3    0  502  0.50876330544E+02  0.26553587674E+03  0.20974946936E+03  0.34219023312E+03  0.12699999809E+01 0.  1.
</event>
<event>
 5   0  0.5891927E-03  0.6112948E+03  0.7818609E-02  0.9882246E-01
       -1   -1    0    0    0  501  0.00000000000E+00  0.00000000000E+00  0.30030137503E+03  0.30030137507E+03  0.50400001928E-02 0. -1.
        1   -1    0    0  501    0  0.00000000000E+00  0.00000000000E+00 -0.31108858073E+03  0.31108858077E+03  0.50400001928E-02 0.  1.
    10030    2    1    2    0    0  0.00000000000E+00  0.00000000000E+00 -0.10787205700E+02  0.61138995585E+03  0.61129478511E+03 0.  0.
        4    1    3    3  502    0 -0.21493097395E+03  0.15389888741E+03 -0.15884018777E+03  0.30840234964E+03  0.12699999809E+01 0.  1.
       -4    1    3    3    0  502  0.21493097395E+03 -0.15389888741E+03  0.14805298207E+03  0.30298760620E+03  0.12699999809E+01 0. -1.
</event>
<event>
 5   0  0.9028473E-03  0.5987433E+03  0.7818609E-02  0.9908017E-01
       -2   -1    0    0    0  501  0.00000000000E+00  0.00000000000E+00  0.30559309530E+03  0.30559309531E+03  0.25500000920E-02 0. -1.
        2   -1    0    0  501    0  0.00000000000E+00  0.00000000000E+00 -0.29327690840E+03  0.29327690841E+03  0.25500000920E-02 0.  1.
    10030    2    1    2    0    0  0.00000000000E+00  0.00000000000E+00  0.12316186900E+02  0.59887000372E+03  0.59874334477E+03 0.  0.
        1    1    3    3  502    0 -0.28695044932E+03  0.32458827929E+02  0.85100465433E+02  0.30105850780E+03  0.50400001928E-02 0. -1.
       -1    1    3    3    0  502  0.28695044932E+03 -0.32458827929E+02 -0.72784278533E+02  0.29781149592E+03  0.50400001928E-02 0.  1.
</event>
<event>
 5   0  0.5891927E-03  0.5982701E+03  0.7818609E-02  0.9909002E-01
        1   -1    0    0  501    0  0.00000000000E+00  0.00000000000E+00  0.12101013351E+04  0.12101013351E+04  0.50400001928E-02 0. -1.
       -1   -1    0    0    0  501  0.00000000000E+00  0.00000000000E+00 -0.73945678920E+02  0.73945679092E+02  0.50400001928E-02 0.  1.
    10030    2    1    2    0    0  0.00000000000E+00  0.00000000000E+00  0.11361556562E+04  0.12840470142E+04  0.59827005576E+03 0.  0.
        4    1    3    3  502    0 -0.26884971170E+03  0.11541964960E+03  0.70173853189E+03  0.76028970994E+03  0.12699999809E+01 0.  1.
       -4    1    3    3    0  502  0.26884971170E+03 -0.11541964960E+03  0.43441712430E+03  0.52375730427E+03  0.12699999809E+01 0. -1.
</event>
<event>
 5   0  0.9303190E-03  0.6003117E+03  0.7818609E-02  0.9904760E-01
        2   -1    0    0  501    0  0.00000000000E+00  0.00000000000E+00  0.11374378798E+04  0.11374378798E+04  0.25500000920E-02 0. -1.
       -2   -1    0    0    0  501  0.00000000000E+00  0.00000000000E+00 -0.79207431209E+02  0.79207431250E+02  0.25500000920E-02 0.  1.
    10030    2    1    2    0    0  0.00000000000E+00  0.00000000000E+00  0.10582304486E+04  0.12166453111E+04  0.60031169453E+03 0.  0.
        4    1    3    3  502    0 -0.12884991762E+03 -0.46039521923E+02  0.10705485371E+04  0.10792579497E+04  0.12699999809E+01 0. -1.
       -4    1    3    3    0  502  0.12884991762E+03  0.46039521923E+02 -0.12318088503E+02  0.13738736134E+03  0.12699999809E+01 0.  1.
</event>
<event>
 5   0  0.5765045E-03  0.6000946E+03  0.7818609E-02  0.9905210E-01
       -1   -1    0    0    0  501  0.00000000000E+00  0.00000000000E+00  0.16564113342E+03  0.16564113350E+03  0.50400001928E-02 0.  1.
        1   -1    0    0  501    0  0.00000000000E+00  0.00000000000E+00 -0.54351457615E+03  0.54351457618E+03  0.50400001928E-02 0. -1.
    10030    2    1    2    0    0  0.00000000000E+00  0.00000000000E+00 -0.37787344273E+03  0.70915570968E+03  0.60009456075E+03 0.  0.
        1    1    3    3  502    0  0.12473527770E+03  0.20310959279E+03 -0.40431178121E+03  0.46934040167E+03  0.50400001928E-02 0. -1.
       -1    1    3    3    0  502 -0.12473527770E+03 -0.20310959279E+03  0.26438338481E+02  0.23981530801E+03  0.50400001928E-02 0.  1.
</event>
<event>
 5   0  0.9162342E-03  0.6005792E+03  0.7818609E-02  0.9904205E-01
        2   -1    0    0  501    0  0.00000000000E+00  0.00000000000E+00  0.68780094036E+03  0.68780094037E+03  0.25500000920E-02 0. -1.
       -2   -1    0    0    0  501  0.00000000000E+00  0.00000000000E+00 -0.13110455956E+03  0.13110455958E+03  0.25500000920E-02 0.  1.
    10030    2    1    2    0    0  0.00000000000E+00  0.00000000000E+00  0.55669638080E+03  0.81890549995E+03  0.60057918500E+03 0.  0.
        5    1    3    3  502    0  0.13579221627E+03  0.40089940625E+02  0.63937385035E+03  0.65487994308E+03  0.46999998093E+01 0. -1.
       -5    1    3    3    0  502 -0.13579221627E+03 -0.40089940625E+02 -0.82677469546E+02  0.16402555687E+03  0.46999998093E+01 0.  1.
</event>
<event>
 5   0  0.9162342E-03  0.5983699E+03  0.7818609E-02  0.9908794E-01
       -2   -1    0    0    0  501  0.00000000000E+00  0.00000000000E+00  0.47480996724E+02  0.47480996793E+02  0.25500000920E-02 0.  1.
        2   -1    0    0  501    0  0.00000000000E+00  0.00000000000E+00 -0.18852097661E+04  0.18852097661E+04  0.25500000920E-02 0. -1.
    10030    2    1    2    0    0  0.00000000000E+00  0.00000000000E+00 -0.18377287694E+04  0.19326907629E+04  0.59836991501E+03 0.  0.
        5    1    3    3  502    0  0.74953502176E+02  0.19705934042E+02  0.14373065514E+02  0.78962182945E+02  0.46999998093E+01 0.  1.
       -5    1    3    3    0  502 -0.74953502176E+02 -0.19705934042E+02 -0.18521018349E+04  0.18537285799E+04  0.46999998093E+01 0. -1.
</event>
<event>
 5   0  0.9391405E-03  0.6029193E+03  0.7818609E-02  0.9899368E-01
       -2   -1    0    0    0  501  0.00000000000E+00  0.00000000000E+00  0.12061151566E+03  0.12061151568E+03  0.25500000920E-02 0.  1.
        2   -1    0    0  501    0  0.00000000000E+00  0.00000000000E+00 -0.75347638544E+03  0.75347638544E+03  0.25500000920E-02 0. -1.
    10030    2    1    2    0    0  0.00000000000E+00  0.00000000000E+00 -0.63286486978E+03  0.87408790113E+03  0.60291932752E+03 0.  0.
        2    1    3    3  502    0 -0.19203985591E+03 -0.46476808658E+02  0.13649865180E+02  0.19805483793E+03  0.25500000920E-02 0.  1.
       -2    1    3    3    0  502  0.19203985591E+03  0.46476808658E+02 -0.64651473496E+03  0.67603306319E+03  0.25500000920E-02 0. -1.
</event>
<event>
 5   0  0.9391405E-03  0.5996727E+03  0.7818609E-02  0.9906085E-01
        2   -1    0    0  501    0  0.00000000000E+00  0.00000000000E+00  0.34492953983E+03  0.34492953984E+03  0.25500000920E-02 0.  1.
       -2   -1    0    0    0  501  0.00000000000E+00  0.00000000000E+00 -0.26063827268E+03  0.26063827269E+03  0.25500000920E-02 0. -1.
    10030    2    1    2    0    0  0.00000000000E+00  0.00000000000E+00  0.84291267147E+02  0.60556781253E+03  0.59967270895E+03 0.  0.
        2    1    3    3  502    0 -0.64698729792E+02  0.28744363955E+03 -0.14007372447E+02  0.29496775763E+03  0.25500000920E-02 0. -1.
       -2    1    3    3    0  502  0.64698729792E+02 -0.28744363955E+03  0.98298639593E+02  0.31060005490E+03  0.25500000920E-02 0.  1.
</event>
<event>
 5   0  0.9028473E-03  0.6006544E+03  0.7818609E-02  0.9904049E-01
       -2   -1    0    0    0  501  0.00000000000E+00  0.00000000000E+00  0.22939303663E+03  0.22939303664E+03  0.25500000920E-02 0.  1.
        2   -1    0    0  501    0  0.00000000000E+00  0.00000000000E+00 -0.39319604086E+03  0.39319604086E+03  0.25500000920E-02 0. -1.
    10030    2    1    2    0    0  0.00000000000E+00  0.00000000000E+00 -0.16380300423E+03  0.62258907751E+03  0.60065442247E+03 0.  0.
        1    1    3    3  502    0 -0.15172026900E+03  0.23142590827E+03 -0.20286559900E+03  0.34312015727E+03  0.50400001928E-02 0. -1.
       -1    1    3    3    0  502  0.15172026900E+03 -0.23142590827E+03  0.39062594765E+02  0.27946892024E+03  0.50400001928E-02 0.  1.
</event>
<event>
 5   0  0.5790967E-03  0.5995618E+03  0.7818609E-02  0.9906316E-01
       -1   -1    0    0    0  501  0.00000000000E+00  0.00000000000E+00  0.51382852657E+03  0.51382852659E+03  0.50400001928E-02 0.  1.
        1   -1    0    0  501    0  0.00000000000E+00  0.00000000000E+00 -0.17489994970E+03  0.17489994978E+03  0.50400001928E-02 0. -1.
    10030    2    1    2    0    0  0.00000000000E+00  0.00000000000E+00  0.33892857687E+03  0.68872847637E+03  0.59956178493E+03 0.  0.
        3    1    3    3  502    0 -0.28804506658E+03 -0.28911141188E+02  0.80020694353E+02  0.30034835806E+03  0.10100000352E+00 0.  1.
       -3    1    3    3    0  502  0.28804506658E+03  0.28911141188E+02  0.25890788251E+03  0.38838011830E+03  0.10100000352E+00 0. -1.
</event>
<event>
 5   0  0.5790967E-03  0.6015630E+03  0.7818609E-02  0.9902169E-01
        1   -1    0    0  501    0  0.00000000000E+00  0.00000000000E+00  0.13847368309E+04  0.13847368309E+04  0.50400001928E-02 0.  1.
       -1   -1    0    0    0  501  0.00000000000E+00  0.00000000000E+00 -0.65333350569E+02  0.65333350763E+02  0.50400001928E-02 0. -1.
    10030    2    1    2    0    0  0.00000000000E+00  0.00000000000E+00  0.13194034803E+04  0.14500701817E+04  0.60156295420E+03 0.  0.
        3    1    3    3  502    0  0.10587410575E+02  0.70746570588E+02  0.13639334790E+04  0.13658080817E+04  0.10100000352E+00 0.  1.
       -3    1    3    3    0  502 -0.10587410575E+02 -0.70746570588E+02 -0.44529998700E+02  0.84262100009E+02  0.10100000352E+00 0. -1.
</event>
<event>
 5   0  0.3806250E-03  0.6045170E+03  0.7818609E-02  0.9896079E-01
        3   -1    0    0  501    0  0.00000000000E+00  0.00000000000E+00  0.19395879806E+03  0.19395882436E+03  0.10100000352E+00 0.  1.
       -3   -1    0    0    0  501  0.00000000000E+00  0.00000000000E+00 -0.47102886335E+03  0.47102887418E+03  0.10100000352E+00 0. -1.
    10030    2    1    2    0    0  0.00000000000E+00  0.00000000000E+00 -0.27707006529E+03  0.66498769854E+03  0.60451701228E+03 0.  0.
        2    1    3    3  502    0 -0.16283681531E+03  0.66373692582E+01  0.14148794170E+03  0.21582103870E+03  0.25500000920E-02 0.  1.
       -2    1    3    3    0  502  0.16283681531E+03 -0.66373692582E+01 -0.41855800699E+03  0.44916665984E+03  0.25500000920E-02 0. -1.
</event>
<event>
 5   0  0.9822607E-03  0.5999580E+03  0.7818609E-02  0.9905493E-01
       -2   -1    0    0    0  501  0.00000000000E+00  0.00000000000E+00  0.19194049254E+03  0.19194049256E+03  0.25500000920E-02 0.  1.
        2   -1    0    0  501    0  0.00000000000E+00  0.00000000000E+00 -0.46882976170E+03  0.46882976170E+03  0.25500000920E-02 0. -1.
    10030    2    1    2    0    0  0.00000000000E+00  0.00000000000E+00 -0.27688926915E+03  0.66077025426E+03  0.59995804982E+03 0.  0.
        3    1    3    3  502    0  0.17918069031E+03  0.15194885482E+03  0.66991568251E+02  0.24429910904E+03  0.10100000352E+00 0.  1.
       -3    1    3    3    0  502 -0.17918069031E+03 -0.15194885482E+03 -0.34388083740E+03  0.41647114522E+03  0.10100000352E+00 0. -1.
</event>
<event>
 5   0  0.5891927E-03  0.5997815E+03  0.7818609E-02  0.9905859E-01
        1   -1    0    0  501    0  0.00000000000E+00  0.00000000000E+00  0.48551097409E+03  0.48551097412E+03  0.50400001928E-02 0. -1.
       -1   -1    0    0    0  501  0.00000000000E+00  0.00000000000E+00 -0.18523673670E+03  0.18523673677E+03  0.50400001928E-02 0.  1.
    10030    2    1    2    0    0  0.00000000000E+00  0.00000000000E+00  0.30027423739E+03  0.67074771089E+03  0.59978152191E+03 0.  0.
        4    1    3    3  502    0 -0.28855030022E+03  0.76160183331E+01  0.24108326375E+03  0.37608779886E+03  0.12699999809E+01 0. -1.
       -4    1    3    3    0  502  0.28855030022E+03 -0.76160183331E+01  0.59190973636E+02  0.29465991202E+03  0.12699999809E+01 0.  1.
</event>
<event>
 5   0  0.9391405E-03  0.6001053E+03  0.7818609E-02  0.9905188E-01
        2   -1    0    0  501    0  0.00000000000E+00  0.00000000000E+00  0.28940769273E+03  0.28940769274E+03  0.25500000920E-02 0.  1.
       -2   -1    0    0    0  501  0.00000000000E+00  0.00000000000E+00 -0.31108918381E+03  0.31108918382E+03  0.25500000920E-02 0. -1.
    10030    2    1    2    0    0  0.00000000000E+00  0.00000000000E+00 -0.21681491078E+02  0.60049687656E+03  0.60010533384E+03 0.  0.
        2    1    3    3  502    0  0.21854349157E+03 -0.74075385414E+02 -0.20275530208E+03  0.30717768955E+03  0.25500000920E-02 0.  1.
       -2    1    3    3    0  502 -0.21854349157E+03  0.74075385414E+02  0.18107381100E+03  0.29331918701E+03  0.25500000920E-02 0. -1.
</event>
<event>
 5   0  0.5891927E-03  0.6002252E+03  0.7818609E-02  0.9904939E-01
       -1   -1    0    0    0  501  0.00000000000E+00  0.00000000000E+00  0.75996842185E+02  0.75996842352E+02  0.50400001928E-02 0. -1.
        1   -1    0    0  501    0  0.00000000000E+00  0.00000000000E+00 -0.11851488482E+04  0.11851488482E+04  0.50400001928E-02 0.  1.
    10030    2    1    2    0    0  0.00000000000E+00  0.00000000000E+00 -0.11091520060E+04  0.12611456905E+04  0.60022519138E+03 0.  0.
        4    1    3    3  502    0 -0.22762680408E+03 -0.15458830428E+03 -0.80631143173E+03  0.85196903911E+03  0.12699999809E+01 0.  1.
       -4    1    3    3    0  502  0.22762680408E+03  0.15458830428E+03 -0.30284057427E+03  0.40917665144E+03  0.12699999809E+01 0. -1.
</event>
<event>
 5   0  0.5765045E-03  0.5991518E+03  0.7818609E-02  0.9907167E-01
       -1   -1    0    0    0  501  0.00000000000E+00  0.00000000000E+00  0.14011431655E+03  0.14011431664E+03  0.50400001928E-02 0.  1.
        1   -1    0    0  501    0  0.00000000000E+00  0.00000000000E+00 -0.64051789527E+03  0.64051789529E+03  0.50400001928E-02 0. -1.
    10030    2    1    2    0    0  0.00000000000E+00  0.00000000000E+00 -0.50040357872E+03  0.78063221193E+03  0.59915182442E+03 0.  0.
        1    1    3    3  502    0  0.24396563058E+03  0.58307430884E+01 -0.23810806834E+02  0.24519417003E+03  0.50400001928E-02 0.  1.
       -1    1    3    3    0  502 -0.24396563058E+03 -0.58307430884E+01 -0.47659277189E+03  0.53543804190E+03  0.50400001928E-02 0. -1.
</event>
<event>
 5   0  0.6078658E-03  0.6008789E+03  0.7818609E-02  0.9903584E-01
        1   -1    0    0  501    0  0.00000000000E+00  0.00000000000E+00  0.64136421406E+03  0.64136421408E+03  0.50400001928E-02 0.  1.
       -1   -1    0    0    0  501  0.00000000000E+00  0.00000000000E+00 -0.14073730490E+03  0.14073730499E+03  0.50400001928E-02 0. -1.
    10030    2    1    2    0    0  0.00000000000E+00  0.00000000000E+00  0.50062690915E+03  0.78210151907E+03  0.60087892621E+03 0.  0.
        2    1    3    3  502    0 -0.27461125895E+03 -0.11241859184E+03  0.18906112743E+03  0.35184285305E+03  0.25500000920E-02 0. -1.
       -2    1    3    3    0  502  0.27461125895E+03  0.11241859184E+03  0.31156578172E+03  0.43025866602E+03  0.25500000920E-02 0.  1.
</event>
<event>
 5   0  0.5790967E-03  0.6006210E+03  0.7818609E-02  0.9904119E-01
        1   -1    0    0  501    0  0.00000000000E+00  0.00000000000E+00  0.41676039261E+03  0.41676039264E+03  0.50400001928E-02 0.  1.
       -1   -1    0    0    0  501  0.00000000000E+00  0.00000000000E+00 -0.21639866560E+03  0.21639866566E+03  0.50400001928E-02 0. -1.
    10030    2    1    2    0    0  0.00000000000E+00  0.00000000000E+00  0.20036172701E+03  0.63315905830E+03  0.60062098819E+03 0.  0.
        3    1    3    3  502    0 -0.25054445237E+03 -0.10952543179E+03 -0.30715295279E+02  0.27515774091E+03  0.10100000352E+00 0. -1.
       -3    1    3    3    0  502  0.25054445237E+03  0.10952543179E+03  0.23107702229E+03  0.35800131739E+03  0.10100000352E+00 0.  1.
</event>
<event>
 5   0  0.9303190E-03  0.6013200E+03  0.7818609E-02  0.9902671E-01
       -2   -1    0    0    0  501  0.00000000000E+00  0.00000000000E+00  0.11856004237E+03  0.11856004239E+03  0.25500000920E-02 0. -1.
        2   -1    0    0  501    0  0.00000000000E+00  0.00000000000E+00 -0.76245291850E+03  0.76245291850E+03  0.25500000920E-02 0.  1.
    10030    2    1    2    0    0  0.00000000000E+00  0.00000000000E+00 -0.64389287613E+03  0.88101296090E+03  0.60132004900E+03 0.  0.
        4    1    3    3  502    0 -0.17277005938E+03 -0.14780962381E+03 -0.33729857931E+02  0.22986190316E+03  0.12699999809E+01 0. -1.
       -4    1    3    3    0  502  0.17277005938E+03  0.14780962381E+03 -0.61016301820E+03  0.65115105773E+03  0.12699999809E+01 0.  1.
</event>
<event>
 5   0  0.9303190E-03  0.5968813E+03  0.7818609E-02  0.9911897E-01
       -2   -1    0    0    0  501  0.00000000000E+00  0.00000000000E+00  0.22049103692E+03  0.22049103693E+03  0.25500000920E-02 0.  1.
        2   -1    0    0  501    0  0.00000000000E+00  0.00000000000E+00 -0.40394764431E+03  0.40394764432E+03  0.25500000920E-02 0. -1.
    10030    2    1    2    0    0  0.00000000000E+00  0.00000000000E+00 -0.18345660740E+03  0.62443868125E+03  0.59688134486E+03 0.  0.
        4    1    3    3  502    0  0.18159568860E+03 -0.12526879595E+03 -0.30199512116E+03  0.37399456074E+03  0.12699999809E+01 0. -1.
       -4    1    3    3    0  502 -0.18159568860E+03  0.12526879595E+03  0.11853851376E+03  0.25044412052E+03  0.12699999809E+01 0.  1.
</event>
<event>
 5   0  0.6078658E-03  0.5996613E+03  0.7818609E-02  0.9906109E-01
       -1   -1    0    0    0  501  0.00000000000E+00  0.00000000000E+00  0.36470179069E+03  0.36470179072E+03  0.50400001928E-02 0.  1.
        1   -1    0    0  501    0  0.00000000000E+00  0.00000000000E+00 -0.24649844572E+03  0.24649844577E+03  0.50400001928E-02 0. -1.
    10030    2    1    2    0    0  0.00000000000E+00  0.00000000000E+00  0.11820334496E+03  0.61120023649E+03  0.59966131969E+03 0.  0.
        2    1    3    3  502    0 -0.71934794237E+02  0.14351697003E+03 -0.19900360627E+03  0.25568373164E+03  0.25500000920E-02 0. -1.
       -2    1    3    3    0  502  0.71934794237E+02 -0.14351697003E+03  0.31720695123E+03  0.35551650486E+03  0.25500000920E-02 0.  1.
</event>
<event>
 5   0  0.9303190E-03  0.6010970E+03  0.7818609E-02  0.9903133E-01
        2   -1    0    0  501    0  0.00000000000E+00  0.00000000000E+00  0.17722174026E+03  0.17722174028E+03  0.25500000920E-02 0.  1.
       -2   -1    0    0    0  501  0.00000000000E+00  0.00000000000E+00 -0.50969714835E+03  0.50969714836E+03  0.25500000920E-02 0. -1.
    10030    2    1    2    0    0  0.00000000000E+00  0.00000000000E+00 -0.33247540809E+03  0.68691888864E+03  0.60109704922E+03 0.  0.
        4    1    3    3  502    0 -0.22088235881E+03 -0.13602327077E+03 -0.33968546467E+03  0.42740984363E+03  0.12699999809E+01 0. -1.
       -4    1    3    3    0  502  0.22088235881E+03  0.13602327077E+03  0.72100565766E+01  0.25950904501E+03  0.12699999809E+01 0.  1.
</event>
<event>
 5   0  0.9028473E-03  0.6029532E+03  0.7818609E-02  0.9899298E-01
        2   -1    0    0  501    0  0.00000000000E+00  0.00000000000E+00  0.16317790917E+04  0.16317790917E+04  0.25500000920E-02 0.  1.
       -2   -1    0    0    0  501  0.00000000000E+00  0.00000000000E+00 -0.55698808509E+02  0.55698808567E+02  0.25500000920E-02 0. -1.
    10030    2    1    2    0    0  0.00000000000E+00  0.00000000000E+00  0.15760802832E+04  0.16874779003E+04  0.60295323603E+03 0.  0.
        1    1    3    3  502    0  0.24344620823E+03  0.16464002648E+03  0.97611022814E+03  0.10193937277E+04  0.50400001928E-02 0. -1.
       -1    1    3    3    0  502 -0.24344620823E+03 -0.16464002648E+03  0.59997005505E+03  0.66808417255E+03  0.50400001928E-02 0.  1.
</event>
<event>
 5   0  0.3806250E-03  0.5959719E+03  0.7818609E-02  0.9913799E-01
       -3   -1    0    0    0  501  0.00000000000E+00  0.00000000000E+00  0.30551730572E+03  0.30551732241E+03  0.10100000352E+00 0.  1.
        3   -1    0    0  501    0  0.00000000000E+00  0.00000000000E+00 -0.29064019442E+03  0.29064021197E+03  0.10100000352E+00 0. -1.
    10030    2    1    2    0    0  0.00000000000E+00  0.00000000000E+00  0.14877111303E+02  0.59615753438E+03  0.59597187631E+03 0.  0.
        1    1    3    3  502    0 -0.16372175448E+03  0.93227248310E+02 -0.22350018004E+03  0.29231569103E+03  0.50400001928E-02 0. -1.
       -1    1    3    3    0  502  0.16372175448E+03 -0.93227248310E+02  0.23837729134E+03  0.30384184335E+03  0.50400001928E-02 0.  1.
</event>
<event>
 5   0  0.9303190E-03  0.6001001E+03  0.7818609E-02  0.9905198E-01
        2   -1    0    0  501    0  0.00000000000E+00  0.00000000000E+00  0.12781423526E+03  0.12781423528E+03  0.25500000920E-02 0.  1.
       -2   -1    0    0    0  501  0.00000000000E+00  0.00000000000E+00 -0.70438180313E+03  0.70438180314E+03  0.25500000920E-02 0. -1.
    10030    2    1    2    0    0  0.00000000000E+00  0.00000000000E+00 -0.57656756788E+03  0.83219603842E+03  0.60010006335E+03 0.  0.
        4    1    3    3  502    0  0.20881959658E+03  0.21393426967E+03 -0.25279478404E+03  0.39151029539E+03  0.12699999809E+01 0. -1.
       -4    1    3    3    0  502 -0.20881959658E+03 -0.21393426967E+03 -0.32377278384E+03  0.44068574303E+03  0.12699999809E+01 0.  1.
</event>
<event>
 5   0  0.5790967E-03  0.5982716E+03  0.7818609E-02  0.9908998E-01
        1   -1    0    0  501    0  0.00000000000E+00  0.00000000000E+00  0.52842669687E+03  0.52842669690E+03  0.50400001928E-02 0. -1.
       -1   -1    0    0    0  501  0.00000000000E+00  0.00000000000E+00 -0.16933706474E+03  0.16933706482E+03  0.50400001928E-02 0.  1.
    10030    2    1    2    0    0  0.00000000000E+00  0.00000000000E+00  0.35908963213E+03  0.69776376171E+03  0.59827159656E+03 0.  0.
        3    1    3    3  502    0 -0.18347578881E+03 -0.46759271917E+02 -0.90554650686E+02  0.20988079843E+03  0.10100000352E+00 0.  1.
       -3    1    3    3    0  502  0.18347578881E+03  0.46759271917E+02  0.44964428282E+03  0.48788296328E+03  0.10100000352E+00 0. -1.
</event>
<event>
 5   0  0.9162342E-03  0.6026054E+03  0.7818609E-02  0.9900015E-01
        2   -1    0    0  501    0  0.00000000000E+00  0.00000000000E+00  0.14712808494E+03  0.14712808496E+03  0.25500000920E-02 0.  1.
       -2   -1    0    0    0  501  0.00000000000E+00  0.00000000000E+00 -0.61703601666E+03  0.61703601666E+03  0.25500000920E-02 0. -1.
    10030    2    1    2    0    0  0.00000000000E+00  0.00000000000E+00 -0.46990793171E+03  0.76416410163E+03  0.60260543470E+03 0.  0.
        5    1    3    3  502    0  0.69230615655E+02  0.48005185967E+02  0.13184030231E+03  0.15652901116E+03  0.46999998093E+01 0.  1.
       -5    1    3    3    0  502 -0.69230615655E+02 -0.48005185967E+02 -0.60174823402E+03  0.60763509047E+03  0.46999998093E+01 0. -1.
</event>
<event>
 5   0  0.5790967E-03  0.5987920E+03  0.7818609E-02  0.9907915E-01
        1   -1    0    0  501    0  0.00000000000E+00  0.00000000000E+00  0.87928287938E+03  0.87928287940E+03  0.50400001928E-02 0.  1.
       -1   -1    0    0    0  501  0.00000000000E+00  0.00000000000E+00 -0.10194440937E+03  0.10194440949E+03  0.50400001928E-02 0. -1.
    10030    2    1    2    0    0  0.00000000000E+00  0.00000000000E+00  0.77733847002E+03  0.98122728889E+03  0.59879203025E+03 0.  0.
        3    1    3    3  502    0 -0.11697886377E+03 -0.25102656583E+03  0.20226594725E+03  0.34294301996E+03  0.10100000352E+00 0. -1.
       -3    1    3    3    0  502  0.11697886377E+03  0.25102656583E+03  0.57507252276E+03  0.63828426893E+03  0.10100000352E+00 0.  1.
</event>
<event>
 5   0  0.5790967E-03  0.6017327E+03  0.7818609E-02  0.9901818E-01
        1   -1    0    0  501    0  0.00000000000E+00  0.00000000000E+00  0.11879116722E+04  0.11879116722E+04  0.50400001928E-02 0.  1.
       -1   -1    0    0    0  501  0.00000000000E+00  0.00000000000E+00 -0.76201420474E+02  0.76201420640E+02  0.50400001928E-02 0. -1.
    10030    2    1    2    0    0  0.00000000000E+00  0.00000000000E+00  0.11117102517E+04  0.12641130928E+04  0.60173268793E+03 0.  0.
        3    1    3    3  502    0  0.23405873514E+03 -0.12572179874E+03  0.85243917556E+03  0.89288410245E+03  0.10100000352E+00 0.  1.
       -3    1    3    3    0  502 -0.23405873514E+03  0.12572179874E+03  0.25927107615E+03  0.37122899039E+03  0.10100000352E+00 0. -1.
</event>
<event>
 5   0  0.9822607E-03  0.5997950E+03  0.7818609E-02  0.9905832E-01
        2   -1    0    0  501    0  0.00000000000E+00  0.00000000000E+00  0.82754182765E+03  0.82754182765E+03  0.25500000920E-02 0.  1.
       -2   -1    0    0    0  501  0.00000000000E+00  0.00000000000E+00 -0.10868151442E+03  0.10868151445E+03  0.25500000920E-02 0. -1.
    10030    2    1    2    0    0  0.00000000000E+00  0.00000000000E+00  0.71886031323E+03  0.93622334211E+03  0.59979496194E+03 0.  0.
        3    1    3    3  502    0  0.78910215050E+02 -0.58254084890E+02  0.80179788965E+03  0.80777486127E+03  0.10100000352E+00 0.  1.
       -3    1    3    3    0  502 -0.78910215050E+02  0.58254084890E+02 -0.82937576424E+02  0.12844848084E+03  0.10100000352E+00 0. -1.
</event>
<event>
 5   0  0.3806250E-03  0.6015780E+03  0.7818609E-02  0.9902138E-01
        3   -1    0    0  501    0  0.00000000000E+00  0.00000000000E+00  0.10647211751E+04  0.10647211799E+04  0.10100000352E+00 0. -1.
       -3   -1    0    0    0  501  0.00000000000E+00  0.00000000000E+00 -0.84974338385E+02  0.84974398409E+02  0.10100000352E+00 0.  1.
    10030    2    1    2    0    0  0.00000000000E+00  0.00000000000E+00  0.97974683669E+03  0.11496955783E+04  0.60157797391E+03 0.  0.
        5    1    3    3  502    0 -0.19232955648E+03  0.16654390462E+03  0.18335010418E+03  0.31363494889E+03  0.46999998093E+01 0.  1.
       -5    1    3    3    0  502  0.19232955648E+03 -0.16654390462E+03  0.79639673251E+03  0.83606062939E+03  0.46999998093E+01 0. -1.
</event>
<event>
 5   0  0.5765045E-03  0.5987245E+03  0.7818609E-02  0.9908056E-01
       -1   -1    0    0    0  501  0.00000000000E+00  0.00000000000E+00  0.13368721373E+03  0.13368721383E+03  0.50400001928E-02 0. -1.
        1   -1    0    0  501    0  0.00000000000E+00  0.00000000000E+00 -0.67035400192E+03  0.67035400194E+03  0.50400001928E-02 0.  1.
    10030    2    1    2    0    0  0.00000000000E+00  0.00000000000E+00 -0.53666678819E+03  0.80404121576E+03  0.59872450685E+03 0.  0.
        1    1    3    3  502    0 -0.29142411138E+03 -0.61905180589E+02 -0.30765823660E+03  0.42826843761E+03  0.50400001928E-02 0. -1.
       -1    1    3    3    0  502  0.29142411138E+03  0.61905180589E+02 -0.22900855159E+03  0.37577277816E+03  0.50400001928E-02 0.  1.
</event>
<event>
 5   0  0.5891927E-03  0.5988914E+03  0.7818609E-02  0.9907709E-01
        1   -1    0    0  501    0  0.00000000000E+00  0.00000000000E+00  0.13061202821E+04  0.13061202821E+04  0.50400001928E-02 0. -1.
       -1   -1    0    0    0  501  0.00000000000E+00  0.00000000000E+00 -0.68651976109E+02  0.68651976294E+02  0.50400001928E-02 0.  1.
    10030    2    1    2    0    0  0.00000000000E+00  0.00000000000E+00  0.12374683060E+04  0.13747722584E+04  0.59889143768E+03 0.  0.
        4    1    3    3  502    0  0.10486538267E+03  0.86452622249E+02  0.12312373824E+04  0.12387162343E+04  0.12699999809E+01 0. -1.
       -4    1    3    3    0  502 -0.10486538267E+03 -0.86452622249E+02  0.62309235416E+01  0.13605602406E+03  0.12699999809E+01 0.  1.
</event>
<event>
 5   0  0.5819446E-03  0.6024911E+03  0.7818609E-02  0.9900251E-01
        1   -1    0    0  501    0  0.00000000000E+00  0.00000000000E+00  0.33911940157E+03  0.33911940160E+03  0.50400001928E-02 0. -1.
       -1   -1    0    0    0  501  0.00000000000E+00  0.00000000000E+00 -0.26760160436E+03  0.26760160441E+03  0.50400001928E-02 0.  1.
    10030    2    1    2    0    0  0.00000000000E+00  0.00000000000E+00  0.71517797206E+02  0.60672100601E+03  0.60249114833E+03 0.  0.
        5    1    3    3  502    0 -0.28296717611E+03  0.88848877828E+02 -0.17167293242E+02  0.29712177941E+03  0.46999998093E+01 0. -1.
       -5    1    3    3    0  502  0.28296717611E+03 -0.88848877828E+02  0.88685090448E+02  0.30959922660E+03  0.46999998093E+01 0.  1.
</event>
<event>
 5   0  0.3806250E-03  0.6003785E+03  0.7818609E-02  0.9904621E-01
        3   -1    0    0  501    0  0.00000000000E+00  0.00000000000E+00  0.56468152520E+03  0.56468153423E+03  0.10100000352E+00 0. -1.
       -3   -1    0    0    0  501  0.00000000000E+00  0.00000000000E+00 -0.15958299102E+03  0.15958302298E+03  0.10100000352E+00 0.  1.
    10030    2    1    2    0    0  0.00000000000E+00  0.00000000000E+00  0.40509853418E+03  0.72426455721E+03  0.60037848598E+03 0.  0.
        3    1    3    3  502    0  0.58609563314E+02  0.21762912776E+03  0.44174700541E+03  0.49592130944E+03  0.10100000352E+00 0. -1.
       -3    1    3    3    0  502 -0.58609563314E+02 -0.21762912776E+03 -0.36648471228E+02  0.22834324778E+03  0.10100000352E+00 0.  1.
</event>
<event>
 5   0  0.5891927E-03  0.6053822E+03  0.7818609E-02  0.9894302E-01
        1   -1    0    0  501    0  0.00000000000E+00  0.00000000000E+00  0.18403158541E+03  0.18403158548E+03  0.50400001928E-02 0. -1.
       -1   -1    0    0    0  501  0.00000000000E+00  0.00000000000E+00 -0.49785969818E+03  0.49785969821E+03  0.50400001928E-02 0.  1.
    10030    2    1    2    0    0  0.00000000000E+00  0.00000000000E+00 -0.31382811277E+03  0.68189128369E+03  0.60538222505E+03 0.  0.
        4    1    3    3  502    0  0.28562226448E+03  0.93431359994E+02 -0.19769465919E+03  0.35971417566E+03  0.12699999809E+01 0.  1.
       -4    1    3    3    0  502 -0.28562226448E+03 -0.93431359994E+02 -0.11613345358E+03  0.32217710803E+03  0.12699999809E+01 0. -1.
</event>
<event>
 5   0  0.5765045E-03  0.5994803E+03  0.7818609E-02  0.9906485E-01
       -1   -1    0    0    0  501  0.00000000000E+00  0.00000000000E+00  0.27761402481E+03  0.27761402485E+03  0.50400001928E-02 0.  1.
        1   -1    0    0  501    0  0.00000000000E+00  0.00000000000E+00 -0.32362979562E+03  0.32362979566E+03  0.50400001928E-02 0. -1.
    10030    2    1    2    0    0  0.00000000000E+00  0.00000000000E+00 -0.46015770816E+02  0.60124382052E+03  0.59948034209E+03 0.  0.
        1    1    3    3  502    0  0.17941720865E+03  0.12151581713E+02 -0.26351734513E+03  0.31902913176E+03  0.50400001928E-02 0. -1.
       -1    1    3    3    0  502 -0.17941720865E+03 -0.12151581713E+02  0.21750157432E+03  0.28221468876E+03  0.50400001928E-02 0.  1.
</event>
<event>
 5   0  0.9303190E-03  0.6012265E+03  0.7818609E-02  0.9902865E-01
        2   -1    0    0  501    0  0.00000000000E+00  0.00000000000E+00  0.20233134628E+04  0.20233134628E+04  0.25500000920E-02 0.  1.
       -2   -1    0    0    0  501  0.00000000000E+00  0.00000000000E+00 -0.44663537773E+02  0.44663537846E+02  0.25500000920E-02 0. -1.
    10030    2    1    2    0    0  0.00000000000E+00  0.00000000000E+00  0.19786499250E+04  0.20679770006E+04  0.60122653749E+03 0.  0.
        4    1    3    3  502    0 -0.26408858134E+03  0.46492883720E+02  0.14566845323E+04  0.14811602907E+04  0.12699999809E+01 0.  1.
       -4    1    3    3    0  502  0.26408858134E+03 -0.46492883720E+02  0.52196539265E+03  0.58681670993E+03  0.12699999809E+01 0. -1.
</event>
<event>
 5   0  0.5891927E-03  0.5993917E+03  0.7818609E-02  0.9906669E-01
       -1   -1    0    0    0  501  0.00000000000E+00  0.00000000000E+00  0.25251416910E+03  0.25251416915E+03  0.50400001928E-02 0. -1.
        1   -1    0    0  501    0  0.00000000000E+00  0.00000000000E+00 -0.35569327853E+03  0.35569327857E+03  0.50400001928E-02 0.  1.
    10030    2    1    2    0    0  0.00000000000E+00  0.00000000000E+00 -0.10317910943E+03  0.60820744771E+03  0.59939166730E+03 0.  0.
        4    1    3    3  502    0  0.14974734491E+02  0.22538738615E+03 -0.25144389862E+03  0.33800793417E+03  0.12699999809E+01 0.  1.
       -4    1    3    3    0  502 -0.14974734491E+02 -0.22538738615E+03  0.14826478919E+03  0.27019951355E+03  0.12699999809E+01 0. -1.
</event>
<event>
 5   0  0.5891927E-03  0.5996807E+03  0.7818609E-02  0.9906069E-01
       -1   -1    0    0    0  501  0.00000000000E+00  0.00000000000E+00  0.19893821605E+03  0.19893821611E+03  0.50400001928E-02 0.  1.
        1   -1    0    0  501    0  0.00000000000E+00  0.00000000000E+00 -0.45192033925E+03  0.45192033928E+03  0.50400001928E-02 0. -1.
    10030    2    1    2    0    0  0.00000000000E+00  0.00000000000E+00 -0.25298212320E+03  0.65085855539E+03  0.59968066874E+03 0.  0.
        4    1    3    3  502    0 -0.13462510471E+03  0.84468062295E+02  0.14945877735E+03  0.21817037240E+03  0.12699999809E+01 0.  1.
       -4    1    3    3    0  502  0.13462510471E+03 -0.84468062295E+02 -0.40244090055E+03  0.43268818299E+03  0.12699999809E+01 0. -1.
</event>
<event>
 5   0  0.5790967E-03  0.5959011E+03  0.7818609E-02  0.9913947E-01
        1   -1    0    0  501    0  0.00000000000E+00  0.00000000000E+00  0.30218337991E+03  0.30218337995E+03  0.50400001928E-02 0.  1.
       -1   -1    0    0    0  501  0.00000000000E+00  0.00000000000E+00 -0.29377702043E+03  0.29377702048E+03  0.50400001928E-02 0. -1.
    10030    2    1    2    0    0  0.00000000000E+00  0.00000000000E+00  0.84063594747E+01  0.59596040043E+03  0.59590110925E+03 0.  0.
        3    1    3    3  502    0  0.28133802699E+03  0.96366220366E+02  0.22562264853E+02  0.29823916552E+03  0.10100000352E+00 0.  1.
       -3    1    3    3    0  502 -0.28133802699E+03 -0.96366220366E+02 -0.14155905378E+02  0.29772123491E+03  0.10100000352E+00 0. -1.
</event>
<event>
 5   0  0.5790967E-03  0.6030270E+03  0.7818609E-02  0.9899146E-01
        1   -1    0    0  501    0  0.00000000000E+00  0.00000000000E+00  0.61920525091E+02  0.61920525296E+02  0.50400001928E-02 0. -1.
       -1   -1    0    0    0  501  0.00000000000E+00  0.00000000000E+00 -0.14681786882E+04  0.14681786882E+04  0.50400001928E-02 0.  1.
    10030    2    1    2    0    0  0.00000000000E+00  0.00000000000E+00 -0.14062581631E+04  0.15300992135E+04  0.60302701585E+03 0.  0.
        3    1    3    3  502    0  0.26301939448E+03  0.12481434688E+03 -0.50410261658E+03  0.58213167007E+03  0.10100000352E+00 0. -1.
       -3    1    3    3    0  502 -0.26301939448E+03 -0.12481434688E+03 -0.90215554650E+03  0.94796754341E+03  0.10100000352E+00 0.  1.
</event>
<event>
 5   0  0.3806250E-03  0.6004031E+03  0.7818609E-02  0.9904570E-01
       -3   -1    0    0    0  501  0.00000000000E+00  0.00000000000E+00  0.33048338850E+03  0.33048340393E+03  0.10100000352E+00 0. -1.
        3   -1    0    0  501    0  0.00000000000E+00  0.00000000000E+00 -0.27269434312E+03  0.27269436182E+03  0.10100000352E+00 0.  1.
    10030    2    1    2    0    0  0.00000000000E+00  0.00000000000E+00  0.57789045378E+02  0.60317776575E+03  0.60040306739E+03 0.  0.
        1    1    3    3  502    0  0.10032917106E+03  0.96422721854E+02 -0.23833793449E+03  0.27598596866E+03  0.50400001928E-02 0.  1.
       -1    1    3    3    0  502 -0.10032917106E+03 -0.96422721854E+02  0.29612697987E+03  0.32719179709E+03  0.50400001928E-02 0. -1.
</event>
<event>
 5   0  0.9303190E-03  0.6000907E+03  0.7818609E-02  0.9905218E-01
        2   -1    0    0  501    0  0.00000000000E+00  0.00000000000E+00  0.91232517432E+03  0.91232517433E+03  0.25500000920E-02 0.  1.
       -2   -1    0    0    0  501  0.00000000000E+00  0.00000000000E+00 -0.98678850908E+02  0.98678850941E+02  0.25500000920E-02 0. -1.
    10030    2    1    2    0    0  0.00000000000E+00  0.00000000000E+00  0.81364632341E+03  0.10110040253E+04  0.60009065940E+03 0.  0.
        4    1    3    3  502    0 -0.14405113200E+03 -0.16690985605E+03  0.63960750386E+02  0.22956963904E+03  0.12699999809E+01 0. -1.
       -4    1    3    3    0  502  0.14405113200E+03  0.16690985605E+03  0.74968557303E+03  0.78143438623E+03  0.12699999809E+01 0.  1.
</event>
<event>
 5   0  0.6078658E-03  0.6000616E+03  0.7818609E-02  0.9905278E-01
       -1   -1    0    0    0  501  0.00000000000E+00  0.00000000000E+00  0.14649283929E+03  0.14649283938E+03  0.50400001928E-02 0. -1.
        1   -1    0    0  501    0  0.00000000000E+00  0.00000000000E+00 -0.61449075519E+03  0.61449075521E+03  0.50400001928E-02 0.  1.
    10030    2    1    2    0    0  0.00000000000E+00  0.00000000000E+00 -0.46799791589E+03  0.76098359459E+03  0.60006164846E+03 0.  0.
        2    1    3    3  502    0 -0.89074620279E+02  0.26673802919E+03 -0.36661297741E+03  0.46204820031E+03  0.25500000920E-02 0.  1.
       -2    1    3    3    0  502  0.89074620279E+02 -0.26673802919E+03 -0.10138493848E+03  0.29893539428E+03  0.25500000920E-02 0. -1.
</event>
<event>
 5   0  0.5891927E-03  0.6033265E+03  0.7818609E-02  0.9898529E-01
        1   -1    0    0  501    0  0.00000000000E+00  0.00000000000E+00  0.50124909217E+03  0.50124909220E+03  0.50400001928E-02 0.  1.
       -1   -1    0    0    0  501  0.00000000000E+00  0.00000000000E+00 -0.18154788750E+03  0.18154788757E+03  0.50400001928E-02 0. -1.
    10030    2    1    2    0    0  0.00000000000E+00  0.00000000000E+00  0.31970120467E+03  0.68279697977E+03  0.60332649147E+03 0.  0.
        4    1    3    3  502    0  0.13761017375E+03 -0.34646500359E+02  0.46111401575E+03  0.48245692899E+03  0.12699999809E+01 0.  1.
       -4    1    3    3    0  502 -0.13761017375E+03  0.34646500359E+02 -0.14141281108E+03  0.20034005078E+03  0.12699999809E+01 0. -1.
</event>
<event>
 5   0  0.9303190E-03  0.6003203E+03  0.7818609E-02  0.9904742E-01
        2   -1    0    0  501    0  0.00000000000E+00  0.00000000000E+00  0.17877830301E+03  0.17877830303E+03  0.25500000920E-02 0.  1.
       -2   -1    0    0    0  501  0.00000000000E+00  0.00000000000E+00 -0.50395437657E+03  0.50395437658E+03  0.25500000920E-02 0. -1.
    10030    2    1    2    0    0  0.00000000000E+00  0.00000000000E+00 -0.32517607356E+03  0.68273267960E+03  0.60032027534E+03 0.  0.
        4    1    3    3  502    0  0.27438081115E+02 -0.10885470840E+03  0.15400178900E+03  0.19057901183E+03  0.12699999809E+01 0.  1.
       -4    1    3    3    0  502 -0.27438081115E+02  0.10885470840E+03 -0.47917786256E+03  0.49215366777E+03  0.12699999809E+01 0. -1.
</event>
<event>
 5   0  0.9162342E-03  0.5970050E+03  0.7818609E-02  0.9911639E-01
       -2   -1    0    0    0  501  0.00000000000E+00  0.00000000000E+00  0.82164851934E+02  0.82164851974E+02  0.25500000920E-02 0.  1.
        2   -1    0    0  501    0  0.00000000000E+00  0.00000000000E+00 -0.10844507892E+04  0.10844507892E+04  0.25500000920E-02 0. -1.
    10030    2    1    2    0    0  0.00000000000E+00  0.00000000000E+00 -0.10022859373E+04  0.11666156412E+04  0.59700498675E+03 0.  0.
        5    1    3    3  502    0 -0.33083027139E+02  0.28721279314E+03 -0.64601086178E+03  0.70776959441E+03  0.46999998093E+01 0. -1.
       -5    1    3    3    0  502  0.33083027139E+02 -0.28721279314E+03 -0.35627507551E+03  0.45884604679E+03  0.46999998093E+01 0.  1.
</event>
<event>
 5   0  0.5891927E-03  0.5996039E+03  0.7818609E-02  0.9906228E-01
       -1   -1    0    0    0  501  0.00000000000E+00  0.00000000000E+00  0.82705455232E+02  0.82705455386E+02  0.50400001928E-02 0. -1.
        1   -1    0    0  501    0  0.00000000000E+00  0.00000000000E+00 -0.10867627200E+04  0.10867627200E+04  0.50400001928E-02 0.  1.
    10030    2    1    2    0    0  0.00000000000E+00  0.00000000000E+00 -0.10040572647E+04  0.11694681754E+04  0.59960388785E+03 0.  0.
        4    1    3    3  502    0 -0.16711251336E+03 -0.73163259029E+01 -0.16776514250E+02  0.16811658180E+03  0.12699999809E+01 0. -1.
       -4    1    3    3    0  502  0.16711251336E+03  0.73163259029E+01 -0.98728075047E+03  0.10013515935E+04  0.12699999809E+01 0.  1.
</event>
<event>
 5   0  0.9303190E-03  0.5996723E+03  0.7818609E-02  0.9906086E-01
        2   -1    0    0  501    0  0.00000000000E+00  0.00000000000E+00  0.88580695076E+03  0.88580695077E+03  0.25500000920E-02 0.  1.
       -2   -1    0    0    0  501  0.00000000000E+00  0.00000000000E+00 -0.10149130720E+03  0.10149130723E+03  0.25500000920E-02 0. -1.
    10030    2    1    2    0    0  0.00000000000E+00  0.00000000000E+00  0.78431564357E+03  0.98729825800E+03  0.59967226173E+03 0.  0.
        4    1    3    3  502    0  0.27616188423E+03 -0.50026475605E+02  0.56586674910E+03  0.63164454023E+03  0.12699999809E+01 0.  1.
       -4    1    3    3    0  502 -0.27616188423E+03  0.50026475605E+02  0.21844889447E+03  0.35565371777E+03  0.12699999809E+01 0. -1.
</event>
<event>
 5   0  0.9822607E-03  0.5860133E+03  0.7818609E-02  0.9934856E-01
       -2   -1    0    0    0  501  0.00000000000E+00  0.00000000000E+00  0.12099601235E+03  0.12099601238E+03  0.25500000920E-02 0. -1.
        2   -1    0    0  501    0  0.00000000000E+00  0.00000000000E+00 -0.70955155661E+03  0.70955155662E+03  0.25500000920E-02 0.  1.
    10030    2    1    2    0    0  0.00000000000E+00  0.00000000000E+00 -0.58855554426E+03  0.83054756900E+03  0.58601334088E+03 0.  0.
        3    1    3    3  502    0  0.14531711035E+03 -0.15887581710E+03 -0.12618353415E+02  0.21567990371E+03  0.10100000352E+00 0. -1.
       -3    1    3    3    0  502 -0.14531711035E+03  0.15887581710E+03 -0.57593719085E+03  0.61486766529E+03  0.10100000352E+00 0.  1.
</event>
<event>
 5   0  0.5819446E-03  0.5991648E+03  0.7818609E-02  0.9907140E-01
        1   -1    0    0  501    0  0.00000000000E+00  0.00000000000E+00  0.17939225408E+03  0.17939225415E+03  0.50400001928E-02 0.  1.
       -1   -1    0    0    0  501  0.00000000000E+00  0.00000000000E+00 -0.50029819867E+03  0.50029819869E+03  0.50400001928E-02 0. -1.
    10030    2    1    2    0    0  0.00000000000E+00  0.00000000000E+00 -0.32090594459E+03  0.67969045284E+03  0.59916482408E+03 0.  0.
        5    1    3    3  502    0  0.29836888231E+03 -0.20107264417E+02 -0.14082956642E+03  0.33058032124E+03  0.46999998093E+01 0. -1.
       -5    1    3    3    0  502 -0.29836888231E+03  0.20107264417E+02 -0.18007637817E+03  0.34911013160E+03  0.46999998093E+01 0.  1.
</event>
<event>
 5   0  0.9391405E-03  0.6003158E+03  0.7818609E-02  0.9904751E-01
       -2   -1    0    0    0  501  0.00000000000E+00  0.00000000000E+00  0.31271126370E+03  0.31271126371E+03  0.25500000920E-02 0. -1.
        2   -1    0    0  501    0  0.00000000000E+00  0.00000000000E+00 -0.28810842818E+03  0.28810842819E+03  0.25500000920E-02 0.  1.
    10030    2    1    2    0    0  0.00000000000E+00  0.00000000000E+00  0.24602835521E+02  0.60081969191E+03  0.60031575248E+03 0.  0.
        2    1    3    3  502    0 -0.90049851357E+02  0.15803059278E+03 -0.22667110223E+03  0.29062421196E+03  0.25500000920E-02 0.  1.
       -2    1    3    3    0  502  0.90049851357E+02 -0.15803059278E+03  0.25127393775E+03  0.31019547995E+03  0.25500000920E-02 0. -1.
</event>
<event>
 5   0  0.5819446E-03  0.6058541E+03  0.7818609E-02  0.9893334E-01
        1   -1    0    0  501    0  0.00000000000E+00  0.00000000000E+00  0.21627462516E+04  0.21627462516E+04  0.50400001928E-02 0. -1.
       -1   -1    0    0    0  501  0.00000000000E+00  0.00000000000E+00 -0.42429762827E+02  0.42429763126E+02  0.50400001928E-02 0.  1.
    10030    2    1    2    0    0  0.00000000000E+00  0.00000000000E+00  0.21203164888E+04  0.22051760147E+04  0.60585414365E+03 0.  0.
        5    1    3    3  502    0 -0.12768481781E+03 -0.75993016133E+02  0.20208421908E+04  0.20263029392E+04  0.46999998093E+01 0. -1.
       -5    1    3    3    0  502  0.12768481781E+03  0.75993016133E+02  0.99474297949E+02  0.17887307553E+03  0.46999998093E+01 0.  1.
</event>
<event>
 5   0  0.9391405E-03  0.6001719E+03  0.7818609E-02  0.9905049E-01
        2   -1    0    0  501    0  0.00000000000E+00  0.00000000000E+00  0.14004359705E+04  0.14004359705E+04  0.25500000920E-02 0. -1.
       -2   -1    0    0    0  501  0.00000000000E+00  0.00000000000E+00 -0.64302536707E+02  0.64302536758E+02  0.25500000920E-02 0.  1.
    10030    2    1    2    0    0  0.00000000000E+00  0.00000000000E+00  0.13361334338E+04  0.14647385073E+04  0.60017192684E+03 0.  0.
        2    1    3    3  502    0  0.13795166952E+03  0.26359543941E+03  0.76378928631E+03  0.81968731397E+03  0.25500000920E-02 0.  1.
       -2    1    3    3    0  502 -0.13795166952E+03 -0.26359543941E+03  0.57234414753E+03  0.64505119333E+03  0.25500000920E-02 0. -1.
</event>
<event>
 5   0  0.5790967E-03  0.6008336E+03  0.7818609E-02  0.9903678E-01
        1   -1    0    0  501    0  0.00000000000E+00  0.00000000000E+00  0.75208679438E+03  0.75208679439E+03  0.50400001928E-02 0. -1.
       -1   -1    0    0    0  501  0.00000000000E+00  0.00000000000E+00 -0.11999978471E+03  0.11999978481E+03  0.50400001928E-02 0.  1.
    10030    2    1    2    0    0  0.00000000000E+00  0.00000000000E+00  0.63208700967E+03  0.87208657921E+03  0.60083359913E+03 0.  0.
        3    1    3    3  502    0 -0.27328532457E+02 -0.19832160587E+03  0.64115761508E+03  0.67168549606E+03  0.10100000352E+00 0. -1.
       -3    1    3    3    0  502  0.27328532457E+02  0.19832160587E+03 -0.90706054128E+01  0.20040108314E+03  0.10100000352E+00 0.  1.
</event>
<event>
 5   0  0.9822607E-03  0.6003185E+03  0.7818609E-02  0.9904746E-01
       -2   -1    0    0    0  501  0.00000000000E+00  0.00000000000E+00  0.40768501878E+02  0.40768501958E+02  0.25500000920E-02 0.  1.
        2   -1    0    0  501    0  0.00000000000E+00  0.00000000000E+00 -0.22099307819E+04  0.22099307820E+04  0.25500000920E-02 0. -1.
    10030    2    1    2    0    0  0.00000000000E+00  0.00000000000E+00 -0.21691622801E+04  0.22506992839E+04  0.60031847323E+03 0.  0.
        3    1    3    3  502    0 -0.30643874796E+02 -0.28280437086E+03 -0.72539921520E+03  0.77917994767E+03  0.10100000352E+00 0.  1.
       -3    1    3    3    0  502  0.30643874796E+02  0.28280437086E+03 -0.14437630649E+04  0.14715193362E+04  0.10100000352E+00 0. -1.
</event>
<event>
 5   0  0.6078658E-03  0.5989721E+03  0.7818609E-02  0.9907541E-01
        1   -1    0    0  501    0  0.00000000000E+00  0.00000000000E+00  0.11613259395E+04  0.11613259395E+04  0.50400001928E-02 0.  1.
       -1   -1    0    0    0  501  0.00000000000E+00  0.00000000000E+00 -0.77232305373E+02  0.77232305537E+02  0.50400001928E-02 0. -1.
    10030    2    1    2    0    0  0.00000000000E+00  0.00000000000E+00  0.10840936341E+04  0.12385582450E+04  0.59897205178E+03 0.  0.
        2    1    3    3  502    0  0.76344285696E+02  0.24869061855E+03  0.84886640949E+03  0.88783424967E+03  0.25500000920E-02 0.  1.
       -2    1    3    3    0  502 -0.76344285696E+02 -0.24869061855E+03  0.23522722462E+03  0.35072399536E+03  0.25500000920E-02 0. -1.
</event>
<event>
 5   0  0.5765045E-03  0.5994459E+03  0.7818609E-02  0.9906556E-01
        1   -1    0    0  501    0  0.00000000000E+00  0.00000000000E+00  0.11107253428E+04  0.11107253428E+04  0.50400001928E-02 0. -1.
       -1   -1    0    0    0  501  0.00000000000E+00  0.00000000000E+00 -0.80878539856E+02  0.80878540013E+02  0.50400001928E-02 0.  1.
    10030    2    1    2    0    0  0.00000000000E+00  0.00000000000E+00  0.10298468029E+04  0.11916038828E+04  0.59944589082E+03 0.  0.
        1    1    3    3  502    0 -0.26190126323E+03 -0.95902267372E+02  0.73308243382E+03  0.78434646131E+03  0.50400001928E-02 0. -1.
       -1    1    3    3    0  502  0.26190126323E+03  0.95902267372E+02  0.29676436911E+03  0.40725742150E+03  0.50400001928E-02 0.  1.
</event>
<event>
 5   0  0.9391405E-03  0.6025045E+03  0.7818609E-02  0.9900224E-01
       -2   -1    0    0    0  501  0.00000000000E+00  0.00000000000E+00  0.19073927347E+03  0.19073927349E+03  0.25500000920E-02 0.  1.
        2   -1    0    0  501    0  0.00000000000E+00  0.00000000000E+00 -0.47579564916E+03  0.47579564917E+03  0.25500000920E-02 0. -1.
    10030    2    1    2    0    0  0.00000000000E+00  0.00000000000E+00 -0.28505637569E+03  0.66653492265E+03  0.60250449442E+03 0.  0.
        2    1    3    3  502    0 -0.29362116386E+03 -0.44196980479E+02 -0.86269456502E+02  0.30920734157E+03  0.25500000920E-02 0. -1.
       -2    1    3    3    0  502  0.29362116386E+03  0.44196980479E+02 -0.19878691919E+03  0.35732758108E+03  0.25500000920E-02 0.  1.
</event>
<event>
 5   0  0.5790967E-03  0.6003799E+03  0.7818609E-02  0.9904618E-01
       -1   -1    0    0    0  501  0.00000000000E+00  0.00000000000E+00  0.14789783378E+03  0.14789783386E+03  0.50400001928E-02 0.  1.
        1   -1    0    0  501    0  0.00000000000E+00  0.00000000000E+00 -0.60929897637E+03  0.60929897639E+03  0.50400001928E-02 0. -1.
    10030    2    1    2    0    0  0.00000000000E+00  0.00000000000E+00 -0.46140114259E+03  0.75719681025E+03  0.60037987564E+03 0.  0.
        3    1    3    3  502    0  0.16109146028E+03  0.18721484539E+03 -0.44589675737E+03  0.50972912939E+03  0.10100000352E+00 0. -1.
       -3    1    3    3    0  502 -0.16109146028E+03 -0.18721484539E+03 -0.15504385217E+02  0.24746768086E+03  0.10100000352E+00 0.  1.
</event>
<event>
 5   0  0.9303190E-03  0.6000814E+03  0.7818609E-02  0.9905237E-01
        2   -1    0    0  501    0  0.00000000000E+00  0.00000000000E+00  0.10154879847E+04  0.10154879847E+04  0.25500000920E-02 0.  1.
       -2   -1    0    0    0  501  0.00000000000E+00  0.00000000000E+00 -0.88651392499E+02  0.88651392536E+02  0.25500000920E-02 0. -1.
    10030    2    1    2    0    0  0.00000000000E+00  0.00000000000E+00  0.92683659223E+03  0.11041393773E+04  0.60008140759E+03 0.  0.
        4    1    3    3  502    0  0.21984684890E+03 -0.19400951672E+03  0.34631555715E+03  0.45377131638E+03  0.12699999809E+01 0. -1.
       -4    1    3    3    0  502 -0.21984684890E+03  0.19400951672E+03  0.58052103508E+03  0.65036806089E+03  0.12699999809E+01 0.  1.
</event>
<event>
 5   0  0.9822607E-03  0.5985441E+03  0.7818609E-02  0.9908431E-01
       -2   -1    0    0    0  501  0.00000000000E+00  0.00000000000E+00  0.15639245614E+03  0.15639245616E+03  0.25500000920E-02 0.  1.
        2   -1    0    0  501    0  0.00000000000E+00  0.00000000000E+00 -0.57268592381E+03  0.57268592381E+03  0.25500000920E-02 0. -1.
    10030    2    1    2    0    0  0.00000000000E+00  0.00000000000E+00 -0.41629346767E+03  0.72907837997E+03  0.59854409438E+03 0.  0.
        3    1    3    3  502    0 -0.66614046924E+02  0.26572032255E+03 -0.35491995501E+03  0.44834462831E+03  0.10100000352E+00 0. -1.
       -3    1    3    3    0  502  0.66614046924E+02 -0.26572032255E+03 -0.61373512659E+02  0.28073375166E+03  0.10100000352E+00 0.  1.
</event>
<event>
 5   0  0.9162342E-03  0.6005963E+03  0.7818609E-02  0.9904170E-01
       -2   -1    0    0    0  501  0.00000000000E+00  0.00000000000E+00  0.41738478583E+03  0.41738478583E+03  0.25500000920E-02 0. -1.
        2   -1    0    0  501    0  0.00000000000E+00  0.00000000000E+00 -0.21605720904E+03  0.21605720906E+03  0.25500000920E-02 0.  1.
    10030    2    1    2    0    0  0.00000000000E+00  0.00000000000E+00  0.20132757679E+03  0.63344199489E+03  0.60059634341E+03 0.  0.
        5    1    3    3  502    0  0.26893122533E+03 -0.58709952104E+02  0.22716503128E+03  0.35692702877E+03  0.46999998093E+01 0. -1.
       -5    1    3    3    0  502 -0.26893122533E+03  0.58709952104E+02 -0.25837454494E+02  0.27651496612E+03  0.46999998093E+01 0.  1.
</event>
<event>
 5   0  0.5891927E-03  0.5989103E+03  0.7818609E-02  0.9907669E-01
        1   -1    0    0  501    0  0.00000000000E+00  0.00000000000E+00  0.29874102328E+03  0.29874102332E+03  0.50400001928E-02 0.  1.
       -1   -1    0    0    0  501  0.00000000000E+00  0.00000000000E+00 -0.30017098794E+03  0.30017098798E+03  0.50400001928E-02 0. -1.
    10030    2    1    2    0    0  0.00000000000E+00  0.00000000000E+00 -0.14299646609E+01  0.59891201130E+03  0.59891030420E+03 0.  0.
        4    1    3    3  502    0  0.12517060235E+03 -0.64749481065E+02 -0.26493458456E+03  0.30008685740E+03  0.12699999809E+01 0. -1.
       -4    1    3    3    0  502 -0.12517060235E+03  0.64749481065E+02  0.26350461990E+03  0.29882515389E+03  0.12699999809E+01 0.  1.
</event>
<event>
 5   0  0.5765045E-03  0.6015262E+03  0.7818609E-02  0.9902245E-01
       -1   -1    0    0    0  501  0.00000000000E+00  0.00000000000E+00  0.31918417971E+03  0.31918417975E+03  0.50400001928E-02 0.  1.
        1   -1    0    0  501    0  0.00000000000E+00  0.00000000000E+00 -0.28340515515E+03  0.28340515519E+03  0.50400001928E-02 0. -1.
    10030    2    1    2    0    0  0.00000000000E+00  0.00000000000E+00  0.35779024564E+02  0.60258933495E+03  0.60152619892E+03 0.  0.
        1    1    3    3  502    0  0.33465341342E+02  0.19732491082E+03  0.24278884203E+03  0.31464817072E+03  0.50400001928E-02 0.  1.
       -1    1    3    3    0  502 -0.33465341342E+02 -0.19732491082E+03 -0.20700981747E+03  0.28794116422E+03  0.50400001928E-02 0. -1.
</event>
<event>
 5   0  0.5819446E-03  0.5984944E+03  0.7818609E-02  0.9908535E-01
        1   -1    0    0  501    0  0.00000000000E+00  0.00000000000E+00  0.84857639378E+03  0.84857639380E+03  0.50400001928E-02 0. -1.
       -1   -1    0    0    0  501  0.00000000000E+00  0.00000000000E+00 -0.10552837526E+03  0.10552837538E+03  0.50400001928E-02 0.  1.
    10030    2    1    2    0    0  0.00000000000E+00  0.00000000000E+00  0.74304801852E+03  0.95410476917E+03  0.59849440493E+03 0.  0.
        5    1    3    3  502    0  0.10155689162E+03  0.40617279804E+02 -0.72456517596E+02  0.13128443394E+03  0.46999998093E+01 0.  1.
       -5    1    3    3    0  502 -0.10155689162E+03 -0.40617279804E+02  0.81550453612E+03  0.82282033524E+03  0.46999998093E+01 0. -1.
</event>
<event>
 5   0  0.9303190E-03  0.5993651E+03  0.7818609E-02  0.9906724E-01
       -2   -1    0    0    0  501  0.00000000000E+00  0.00000000000E+00  0.20779186324E+03  0.20779186326E+03  0.25500000920E-02 0. -1.
        2   -1    0    0  501    0  0.00000000000E+00  0.00000000000E+00 -0.43220959822E+03  0.43220959823E+03  0.25500000920E-02 0.  1.
    10030    2    1    2    0    0  0.00000000000E+00  0.00000000000E+00 -0.22441773498E+03  0.64000146149E+03  0.59936512322E+03 0.  0.
        4    1    3    3  502    0  0.12672792006E+03 -0.26242268801E+03 -0.37597359576E+02  0.29383806297E+03  0.12699999809E+01 0. -1.
       -4    1    3    3    0  502 -0.12672792006E+03  0.26242268801E+03 -0.18682037541E+03  0.34616339851E+03  0.12699999809E+01 0.  1.
</event>
<event>
 5   0  0.9028473E-03  0.6021104E+03  0.7818609E-02  0.9901037E-01
       -2   -1    0    0    0  501  0.00000000000E+00  0.00000000000E+00  0.19139334721E+03  0.19139334723E+03  0.25500000920E-02 0.  1.
        2   -1    0    0  501    0  0.00000000000E+00  0.00000000000E+00 -0.47354949767E+03  0.47354949767E+03  0.25500000920E-02 0. -1.
    10030    2    1    2    0    0  0.00000000000E+00  0.00000000000E+00 -0.28215615045E+03  0.66494284491E+03  0.60211036675E+03 0.  0.
        1    1    3    3  502    0 -0.10239449995E+02  0.24887622083E+03  0.45652450050E+02  0.25323579102E+03  0.50400001928E-02 0.  1.
       -1    1    3    3    0  502  0.10239449995E+02 -0.24887622083E+03 -0.32780860050E+03  0.41170705389E+03  0.50400001928E-02 0. -1.
</event>
<event>
 5   0  0.9162342E-03  0.6026261E+03  0.7818609E-02  0.9899973E-01
       -2   -1    0    0    0  501  0.00000000000E+00  0.00000000000E+00  0.11482513923E+03  0.11482513926E+03  0.25500000920E-02 0. -1.
        2   -1    0    0  501    0  0.00000000000E+00  0.00000000000E+00 -0.79067663148E+03  0.79067663149E+03  0.25500000920E-02 0.  1.
    10030    2    1    2    0    0  0.00000000000E+00  0.00000000000E+00 -0.67585149225E+03  0.90550177074E+03  0.60262610069E+03 0.  0.
        5    1    3    3  502    0 -0.36946716873E+02 -0.32792559092E+02  0.10864290776E+03  0.11943945421E+03  0.46999998093E+01 0. -1.
       -5    1    3    3    0  502  0.36946716873E+02  0.32792559092E+02 -0.78449440001E+03  0.78606231653E+03  0.46999998093E+01 0.  1.
</event>
<event>
 5   0  0.9303190E-03  0.5972839E+03  0.7818609E-02  0.9911057E-01
       -2   -1    0    0    0  501  0.00000000000E+00  0.00000000000E+00  0.10531463146E+03  0.10531463149E+03  0.25500000920E-02 0. -1.
        2   -1    0    0  501    0  0.00000000000E+00  0.00000000000E+00 -0.84686239388E+03  0.84686239389E+03  0.25500000920E-02 0.  1.
    10030    2    1    2    0    0  0.00000000000E+00  0.00000000000E+00 -0.74154776242E+03  0.95217702538E+03  0.59728385522E+03 0.  0.
        4    1    3    3  502    0 -0.10199492973E+03 -0.27379178022E+03 -0.27223761938E+03  0.39934926932E+03  0.12699999809E+01 0. -1.
       -4    1    3    3    0  502  0.10199492973E+03  0.27379178022E+03 -0.46931014305E+03  0.55282775606E+03  0.12699999809E+01 0.  1.
</event>
<event>
 5   0  0.9391405E-03  0.5991037E+03  0.7818609E-02  0.9907267E-01
        2   -1    0    0  501    0  0.00000000000E+00  0.00000000000E+00  0.78197018072E+03  0.78197018072E+03  0.25500000920E-02 0. -1.
       -2   -1    0    0    0  501  0.00000000000E+00  0.00000000000E+00 -0.11475031322E+03  0.11475031324E+03  0.25500000920E-02 0.  1.
    10030    2    1    2    0    0  0.00000000000E+00  0.00000000000E+00  0.66721986750E+03  0.89672049397E+03  0.59910374119E+03 0.  0.
        2    1    3    3  502    0  0.67622245358E+02  0.22509262443E+03  0.55630026340E+02  0.24152465190E+03  0.25500000920E-02 0.  1.
       -2    1    3    3    0  502 -0.67622245358E+02 -0.22509262443E+03  0.61158984116E+03  0.65519584206E+03  0.25500000920E-02 0. -1.
</event>
<event>
 5   0  0.9162342E-03  0.6002003E+03  0.7818609E-02  0.9904991E-01
       -2   -1    0    0    0  501  0.00000000000E+00  0.00000000000E+00  0.12345234567E+03  0.12345234570E+03  0.25500000920E-02 0.  1.
        2   -1    0    0  501    0  0.00000000000E+00  0.00000000000E+00 -0.72951306186E+03  0.72951306187E+03  0.25500000920E-02 0. -1.
    10030    2    1    2    0    0  0.00000000000E+00  0.00000000000E+00 -0.60606071619E+03  0.85296540756E+03  0.60020029556E+03 0.  0.
        5    1    3    3  502    0  0.13953434497E+03  0.22639819407E+03 -0.50052222302E+03  0.56680734067E+03  0.46999998093E+01 0. -1.
       -5    1    3    3    0  502 -0.13953434497E+03 -0.22639819407E+03 -0.10553849318E+03  0.28615806689E+03  0.46999998093E+01 0.  1.
</event>
<event>
 5   0  0.9162342E-03  0.5996122E+03  0.7818609E-02  0.9906211E-01
        2   -1    0    0  501    0  0.00000000000E+00  0.00000000000E+00  0.47813250872E+03  0.47813250873E+03  0.25500000920E-02 0. -1.
       -2   -1    0    0    0  501  0.00000000000E+00  0.00000000000E+00 -0.18798906573E+03  0.18798906574E+03  0.25500000920E-02 0.  1.
    10030    2    1    2    0    0  0.00000000000E+00  0.00000000000E+00  0.29014344300E+03  0.66612157448E+03  0.59961215337E+03 0.  0.
        5    1    3    3  502    0  0.12094902423E+03 -0.24761363593E+03  0.27614348903E+03  0.39015188798E+03  0.46999998093E+01 0. -1.
       -5    1    3    3    0  502 -0.12094902423E+03  0.24761363593E+03  0.13999953966E+02  0.27596968650E+03  0.46999998093E+01 0.  1.
</event>
<event>
 5   0  0.3806250E-03  0.5990978E+03  0.7818609E-02  0.9907280E-01
       -4   -1    0    0    0  501  0.00000000000E+00  0.00000000000E+00  0.69266754221E+03  0.69266870647E+03  0.12699999809E+01 0. -1.
        4   -1    0    0  501    0  0.00000000000E+00  0.00000000000E+00 -0.12953760252E+03  0.12954382798E+03  0.12699999809E+01 0.  1.
    10030    2    1    2    0    0  0.00000000000E+00  0.00000000000E+00  0.56312993969E+03  0.82221253445E+03  0.59909775732E+03 0.  0.
        1    1    3    3  502    0 -0.21463289080E+03  0.81400875369E+02  0.17446167876E+02  0.23021240002E+03  0.50400001928E-02 0.  1.
       -1    1    3    3    0  502  0.21463289080E+03 -0.81400875369E+02  0.54568377181E+03  0.59200013443E+03  0.50400001928E-02 0. -1.
</event>
<event>
 5   0  0.3806250E-03  0.6002175E+03  0.7818609E-02  0.9904955E-01
        4   -1    0    0  501    0  0.00000000000E+00  0.00000000000E+00  0.74170657129E+03  0.74170765858E+03  0.12699999809E+01 0. -1.
       -4   -1    0    0    0  501  0.00000000000E+00  0.00000000000E+00 -0.12142528096E+03  0.12143192231E+03  0.12699999809E+01 0.  1.
    10030    2    1    2    0    0  0.00000000000E+00  0.00000000000E+00  0.62028129033E+03  0.86313958089E+03  0.60021750805E+03 0.  0.
        5    1    3    3  502    0  0.13704635773E+03 -0.94692382608E+02 -0.48779926057E+02  0.17363733088E+03  0.46999998093E+01 0.  1.
       -5    1    3    3    0  502 -0.13704635773E+03  0.94692382608E+02  0.66906121639E+03  0.68950225001E+03  0.46999998093E+01 0. -1.
</event>
<event>
 5   0  0.3806250E-03  0.5998866E+03  0.7818609E-02  0.9905641E-01
       -4   -1    0    0    0  501  0.00000000000E+00  0.00000000000E+00  0.33742547048E+03  0.33742786048E+03  0.12699999809E+01 0. -1.
        4   -1    0    0  501    0  0.00000000000E+00  0.00000000000E+00 -0.26661986822E+03  0.26662289292E+03  0.12699999809E+01 0.  1.
    10030    2    1    2    0    0  0.00000000000E+00  0.00000000000E+00  0.70805602256E+02  0.60405075340E+03  0.59988655542E+03 0.  0.
        2    1    3    3  502    0  0.89224305832E+02 -0.28181832520E+03  0.86583027509E+02  0.30802461887E+03  0.25500000920E-02 0. -1.
       -2    1    3    3    0  502 -0.89224305832E+02  0.28181832520E+03 -0.15777425253E+02  0.29602613453E+03  0.25500000920E-02 0.  1.
</event>
<event>
 5   0  0.5790967E-03  0.6010453E+03  0.7818609E-02  0.9903240E-01
        1   -1    0    0  501    0  0.00000000000E+00  0.00000000000E+00  0.32975988065E+03  0.32975988068E+03  0.50400001928E-02 0. -1.
       -1   -1    0    0    0  501  0.00000000000E+00  0.00000000000E+00 -0.27387762947E+03  0.27387762952E+03  0.50400001928E-02 0.  1.
    10030    2    1    2    0    0  0.00000000000E+00  0.00000000000E+00  0.55882251172E+02  0.60363751020E+03  0.60104527095E+03 0.  0.
        3    1    3    3  502    0  0.27943174965E+03 -0.54768455207E+02  0.12443964389E+03  0.31075218675E+03  0.10100000352E+00 0.  1.
       -3    1    3    3    0  502 -0.27943174965E+03  0.54768455207E+02 -0.68557392717E+02  0.29288532345E+03  0.10100000352E+00 0. -1.
</event>
<event>
 5   0  0.9822607E-03  0.5993473E+03  0.7818609E-02  0.9906761E-01
        2   -1    0    0  501    0  0.00000000000E+00  0.00000000000E+00  0.18287614882E+04  0.18287614882E+04  0.25500000920E-02 0. -1.
       -2   -1    0    0    0  501  0.00000000000E+00  0.00000000000E+00 -0.49106627272E+02  0.49106627339E+02  0.25500000920E-02 0.  1.
    10030    2    1    2    0    0  0.00000000000E+00  0.00000000000E+00  0.17796548610E+04  0.18778681156E+04  0.59934734115E+03 0.  0.
        3    1    3    3  502    0  0.18841077917E+03  0.74844790344E+01  0.16005909850E+03  0.24733290187E+03  0.10100000352E+00 0.  1.
       -3    1    3    3    0  502 -0.18841077917E+03 -0.74844790344E+01  0.16195957625E+04  0.16305352137E+04  0.10100000352E+00 0. -1.
</event>
<event>
 5   0  0.5765045E-03  0.6010561E+03  0.7818609E-02  0.9903218E-01
        1   -1    0    0  501    0  0.00000000000E+00  0.00000000000E+00  0.57805974922E+03  0.57805974924E+03  0.50400001928E-02 0. -1.
       -1   -1    0    0    0  501  0.00000000000E+00  0.00000000000E+00 -0.15624179886E+03  0.15624179894E+03  0.50400001928E-02 0.  1.
    10030    2    1    2    0    0  0.00000000000E+00  0.00000000000E+00  0.42181795036E+03  0.73430154818E+03  0.60105605430E+03 0.  0.
        1    1    3    3  502    0 -0.14607458216E+03 -0.24249104624E+03  0.87661515806E+02  0.29635153524E+03  0.50400001928E-02 0.  1.
       -1    1    3    3    0  502  0.14607458216E+03  0.24249104624E+03  0.33415643455E+03  0.43795001294E+03  0.50400001928E-02 0. -1.
</event>
<event>
 5   0  0.6078658E-03  0.6001616E+03  0.7818609E-02  0.9905071E-01
       -1   -1    0    0    0  501  0.00000000000E+00  0.00000000000E+00  0.77550672889E+03  0.77550672891E+03  0.50400001928E-02 0. -1.
        1   -1    0    0  501    0  0.00000000000E+00  0.00000000000E+00 -0.11611566640E+03  0.11611566651E+03  0.50400001928E-02 0.  1.
    10030    2    1    2    0    0  0.00000000000E+00  0.00000000000E+00  0.65939106249E+03  0.89162239542E+03  0.60016158050E+03 0.  0.
        2    1    3    3  502    0  0.86085889895E+02  0.20794516874E+03  0.34818030529E+02  0.22773728043E+03  0.25500000920E-02 0.  1.
       -2    1    3    3    0  502 -0.86085889895E+02 -0.20794516874E+03  0.62457303197E+03  0.66388511499E+03  0.25500000920E-02 0. -1.
</event>
<event>
 5   0  0.5819446E-03  0.6002392E+03  0.7818609E-02  0.9904910E-01
       -1   -1    0    0    0  501  0.00000000000E+00  0.00000000000E+00  0.66257139096E+03  0.66257139098E+03  0.50400001928E-02 0. -1.
        1   -1    0    0  501    0  0.00000000000E+00  0.00000000000E+00 -0.13594274440E+03  0.13594274449E+03  0.50400001928E-02 0.  1.
    10030    2    1    2    0    0  0.00000000000E+00  0.00000000000E+00  0.52662864656E+03  0.79851413548E+03  0.60023919663E+03 0.  0.
        5    1    3    3  502    0 -0.21030819925E+03  0.17554479617E+02 -0.20491396902E+02  0.21208414785E+03  0.46999998093E+01 0.  1.
       -5    1    3    3    0  502  0.21030819925E+03 -0.17554479617E+02  0.54712004347E+03  0.58642998763E+03  0.46999998093E+01 0. -1.
</event>
<event>
 5   0  0.9391405E-03  0.6017038E+03  0.7818609E-02  0.9901877E-01
       -2   -1    0    0    0  501  0.00000000000E+00  0.00000000000E+00  0.37855925316E+03  0.37855925316E+03  0.25500000920E-02 0.  1.
        2   -1    0    0  501    0  0.00000000000E+00  0.00000000000E+00 -0.23909564232E+03  0.23909564233E+03  0.25500000920E-02 0. -1.
    10030    2    1    2    0    0  0.00000000000E+00  0.00000000000E+00  0.13946361084E+03  0.61765489550E+03  0.60170380686E+03 0.  0.
        2    1    3    3  502    0 -0.22560418130E+02  0.23840709404E+03  0.25667205612E+03  0.35103768936E+03  0.25500000920E-02 0.  1.
       -2    1    3    3    0  502  0.22560418130E+02 -0.23840709404E+03 -0.11720844528E+03  0.26661720614E+03  0.25500000920E-02 0. -1.
</event>
<event>
 5   0  0.9303190E-03  0.5999408E+03  0.7818609E-02  0.9905529E-01
       -2   -1    0    0    0  501  0.00000000000E+00  0.00000000000E+00  0.24154141101E+03  0.24154141103E+03  0.25500000920E-02 0. -1.
        2   -1    0    0  501    0  0.00000000000E+00  0.00000000000E+00 -0.37253339458E+03  0.37253339459E+03  0.25500000920E-02 0.  1.
    10030    2    1    2    0    0  0.00000000000E+00  0.00000000000E+00 -0.13099198357E+03  0.61407480562E+03  0.59994080303E+03 0.  0.
        4    1    3    3  502    0  0.68408104124E+02  0.18650015377E+03 -0.29555474387E+03  0.35611261644E+03  0.12699999809E+01 0.  1.
       -4    1    3    3    0  502 -0.68408104124E+02 -0.18650015377E+03  0.16456276030E+03  0.25796218918E+03  0.12699999809E+01 0. -1.
</event>
<event>
 5   0  0.5790967E-03  0.5997476E+03  0.7818609E-02  0.9905930E-01
       -1   -1    0    0    0  501  0.00000000000E+00  0.00000000000E+00  0.13826667803E+03  0.13826667812E+03  0.50400001928E-02 0. -1.
        1   -1    0    0  501    0  0.00000000000E+00  0.00000000000E+00 -0.65036860538E+03  0.65036860540E+03  0.50400001928E-02 0.  1.
    10030    2    1    2    0    0  0.00000000000E+00  0.00000000000E+00 -0.51210192735E+03  0.78863528352E+03  0.59974763561E+03 0.  0.
        3    1    3    3  502    0 -0.14563901248E+02 -0.11897299525E+03 -0.61749975854E+03  0.62902515277E+03  0.10100000352E+00 0.  1.
       -3    1    3    3    0  502  0.14563901248E+02  0.11897299525E+03  0.10539783119E+03  0.15961013075E+03  0.10100000352E+00 0. -1.
</event>
<event>
 5   0  0.9391405E-03  0.5995963E+03  0.7818609E-02  0.9906244E-01
        2   -1    0    0  501    0  0.00000000000E+00  0.00000000000E+00  0.54291496064E+03  0.54291496065E+03  0.25500000920E-02 0.  1.
       -2   -1    0    0    0  501  0.00000000000E+00  0.00000000000E+00 -0.16554883562E+03  0.16554883564E+03  0.25500000920E-02 0. -1.
    10030    2    1    2    0    0  0.00000000000E+00  0.00000000000E+00  0.37736612502E+03  0.70846379629E+03  0.59959632949E+03 0.  0.
        2    1    3    3  502    0 -0.20551238753E+02 -0.18238669459E+03  0.46877119246E+03  0.50342198071E+03  0.25500000920E-02 0.  1.
       -2    1    3    3    0  502  0.20551238753E+02  0.18238669459E+03 -0.91405067438E+02  0.20504181558E+03  0.25500000920E-02 0. -1.
</event>
<event>
 5   0  0.5819446E-03  0.5995410E+03  0.7818609E-02  0.9906359E-01
       -1   -1    0    0    0  501  0.00000000000E+00  0.00000000000E+00  0.11016034602E+03  0.11016034614E+03  0.50400001928E-02 0.  1.
        1   -1    0    0  501    0  0.00000000000E+00  0.00000000000E+00 -0.81574144979E+03  0.81574144980E+03  0.50400001928E-02 0. -1.
    10030    2    1    2    0    0  0.00000000000E+00  0.00000000000E+00 -0.70558110376E+03  0.92590179594E+03  0.59954102590E+03 0.  0.
        5    1    3    3  502    0 -0.17104435166E+03  0.24276722149E+03 -0.41548771074E+03  0.51072910809E+03  0.46999998093E+01 0. -1.
       -5    1    3    3    0  502  0.17104435166E+03 -0.24276722149E+03 -0.29009339302E+03  0.41517268785E+03  0.46999998093E+01 0.  1.
</event>
<event>
 5   0  0.3806250E-03  0.6002542E+03  0.7818609E-02  0.9904879E-01
        3   -1    0    0  501    0  0.00000000000E+00  0.00000000000E+00  0.19302677305E+03  0.19302679947E+03  0.10100000352E+00 0.  1.
       -3   -1    0    0    0  501  0.00000000000E+00  0.00000000000E+00 -0.46665170319E+03  0.46665171412E+03  0.10100000352E+00 0. -1.
    10030    2    1    2    0    0  0.00000000000E+00  0.00000000000E+00 -0.27362493014E+03  0.65967851359E+03  0.60025422856E+03 0.  0.
        2    1    3    3  502    0  0.19509910551E+03  0.12876393041E+03 -0.34368262449E+03  0.41564595165E+03  0.25500000920E-02 0. -1.
       -2    1    3    3    0  502 -0.19509910551E+03 -0.12876393041E+03  0.70057694347E+02  0.24403256194E+03  0.25500000920E-02 0.  1.
</event>
<event>
 5   0  0.5891927E-03  0.5995736E+03  0.7818609E-02  0.9906291E-01
       -1   -1    0    0    0  501  0.00000000000E+00  0.00000000000E+00  0.11089121776E+04  0.11089121776E+04  0.50400001928E-02 0.  1.
        1   -1    0    0  501    0  0.00000000000E+00  0.00000000000E+00 -0.81045316603E+02  0.81045316760E+02  0.50400001928E-02 0. -1.
    10030    2    1    2    0    0  0.00000000000E+00  0.00000000000E+00  0.10278668610E+04  0.11899574944E+04  0.59957364392E+03 0.  0.
        4    1    3    3  502    0 -0.28390832358E+03  0.93017359963E+02  0.56312610947E+03  0.63747062169E+03  0.12699999809E+01 0.  1.
       -4    1    3    3    0  502  0.28390832358E+03 -0.93017359963E+02  0.46474075154E+03  0.55248687269E+03  0.12699999809E+01 0. -1.
</event>
<event>
 5   0  0.6078658E-03  0.5997330E+03  0.7818609E-02  0.9905960E-01
        1   -1    0    0  501    0  0.00000000000E+00  0.00000000000E+00  0.61696617473E+03  0.61696617475E+03  0.50400001928E-02 0.  1.
       -1   -1    0    0    0  501  0.00000000000E+00  0.00000000000E+00 -0.14574531302E+03  0.14574531311E+03  0.50400001928E-02 0. -1.
    10030    2    1    2    0    0  0.00000000000E+00  0.00000000000E+00  0.47122086171E+03  0.76271148786E+03  0.59973303494E+03 0.  0.
        2    1    3    3  502    0  0.16259361213E+03  0.16888956751E+03 -0.21750277121E+01  0.23444636801E+03  0.25500000920E-02 0. -1.
       -2    1    3    3    0  502 -0.16259361213E+03 -0.16888956751E+03  0.47339588943E+03  0.52826511985E+03  0.25500000920E-02 0.  1.
</event>
<event>
 5   0  0.5819446E-03  0.5998667E+03  0.7818609E-02  0.9905683E-01
       -1   -1    0    0    0  501  0.00000000000E+00  0.00000000000E+00  0.74105128535E+03  0.74105128537E+03  0.50400001928E-02 0.  1.
        1   -1    0    0  501    0  0.00000000000E+00  0.00000000000E+00 -0.12139514180E+03  0.12139514191E+03  0.50400001928E-02 0. -1.
    10030    2    1    2    0    0  0.00000000000E+00  0.00000000000E+00  0.61965614355E+03  0.86244642728E+03  0.59986673827E+03 0.  0.
        5    1    3    3  502    0  0.26554587643E+03  0.13929185225E+03  0.31643276802E+03  0.43596859894E+03  0.46999998093E+01 0.  1.
       -5    1    3    3    0  502 -0.26554587643E+03 -0.13929185225E+03  0.30322337554E+03  0.42647782833E+03  0.46999998093E+01 0. -1.
</event>
<event>
 5   0  0.5765045E-03  0.5987907E+03  0.7818609E-02  0.9907918E-01
       -1   -1    0    0    0  501  0.00000000000E+00  0.00000000000E+00  0.12360912636E+03  0.12360912646E+03  0.50400001928E-02 0.  1.
        1   -1    0    0  501    0  0.00000000000E+00  0.00000000000E+00 -0.72516958222E+03  0.72516958223E+03  0.50400001928E-02 0. -1.
    10030    2    1    2    0    0  0.00000000000E+00  0.00000000000E+00 -0.60156045586E+03  0.84877870870E+03  0.59879070992E+03 0.  0.
        1    1    3    3  502    0 -0.24700566862E+03  0.14504496040E+03 -0.17730621096E+03  0.33687881105E+03  0.50400001928E-02 0.  1.
       -1    1    3    3    0  502  0.24700566862E+03 -0.14504496040E+03 -0.42425424490E+03  0.51189989764E+03  0.50400001928E-02 0. -1.
</event>
<event>
 5   0  0.9822607E-03  0.5997762E+03  0.7818609E-02  0.9905870E-01
        2   -1    0    0  501    0  0.00000000000E+00  0.00000000000E+00  0.62872232570E+03  0.62872232571E+03  0.25500000920E-02 0. -1.
       -2   -1    0    0    0  501  0.00000000000E+00  0.00000000000E+00 -0.14304069909E+03  0.14304069911E+03  0.25500000920E-02 0.  1.
    10030    2    1    2    0    0  0.00000000000E+00  0.00000000000E+00  0.48568162662E+03  0.77176302482E+03  0.59977622831E+03 0.  0.
        3    1    3    3  502    0 -0.24280446097E+03 -0.14173676735E+03  0.37711723268E+03  0.47038360396E+03  0.10100000352E+00 0. -1.
       -3    1    3    3    0  502  0.24280446097E+03  0.14173676735E+03  0.10856439393E+03  0.30137942086E+03  0.10100000352E+00 0.  1.
</event>
<event>
 5   0  0.9822607E-03  0.5996877E+03  0.7818609E-02  0.9906054E-01
        2   -1    0    0  501    0  0.00000000000E+00  0.00000000000E+00  0.53443212548E+03  0.53443212548E+03  0.25500000920E-02 0. -1.
       -2   -1    0    0    0  501  0.00000000000E+00  0.00000000000E+00 -0.16822779699E+03  0.16822779701E+03  0.25500000920E-02 0.  1.
    10030    2    1    2    0    0  0.00000000000E+00  0.00000000000E+00  0.36620432849E+03  0.70265992249E+03  0.59968771579E+03 0.  0.
        3    1    3    3  502    0  0.12622078571E+02 -0.62193449400E+02  0.52647306442E+03  0.53028411232E+03  0.10100000352E+00 0. -1.
       -3    1    3    3    0  502 -0.12622078571E+02  0.62193449400E+02 -0.16026873593E+03  0.17237581018E+03  0.10100000352E+00 0.  1.
</event>
<event>
 5   0  0.5819446E-03  0.6008363E+03  0.7818609E-02  0.9903673E-01
        1   -1    0    0  501    0  0.00000000000E+00  0.00000000000E+00  0.47124844188E+03  0.47124844191E+03  0.50400001928E-02 0.  1.
       -1   -1    0    0    0  501  0.00000000000E+00  0.00000000000E+00 -0.19151482656E+03  0.19151482662E+03  0.50400001928E-02 0. -1.
    10030    2    1    2    0    0  0.00000000000E+00  0.00000000000E+00  0.27973361532E+03  0.66276326853E+03  0.60083629598E+03 0.  0.
        5    1    3    3  502    0  0.65195952450E+02 -0.30021206816E+02 -0.18187599154E+03  0.19558310605E+03  0.46999998093E+01 0. -1.
       -5    1    3    3    0  502 -0.65195952450E+02  0.30021206816E+02  0.46160960686E+03  0.46718016248E+03  0.46999998093E+01 0.  1.
</event>
<event>
 5   0  0.5765045E-03  0.6017323E+03  0.7818609E-02  0.9901819E-01
       -1   -1    0    0    0  501  0.00000000000E+00  0.00000000000E+00  0.43042452021E+03  0.43042452024E+03  0.50400001928E-02 0.  1.
        1   -1    0    0  501    0  0.00000000000E+00  0.00000000000E+00 -0.21030504627E+03  0.21030504633E+03  0.50400001928E-02 0. -1.
    10030    2    1    2    0    0  0.00000000000E+00  0.00000000000E+00  0.22011947395E+03  0.64072956657E+03  0.60173232809E+03 0.  0.
        1    1    3    3  502    0  0.19801230771E+03 -0.22360527157E+03  0.14863251308E+03  0.33361626976E+03  0.50400001928E-02 0. -1.
       -1    1    3    3    0  502 -0.19801230771E+03  0.22360527157E+03  0.71486960871E+02  0.30711329681E+03  0.50400001928E-02 0.  1.
</event>
<event>
 5   0  0.5790967E-03  0.6021204E+03  0.7818609E-02  0.9901017E-01
       -1   -1    0    0    0  501  0.00000000000E+00  0.00000000000E+00  0.28891999353E+03  0.28891999358E+03  0.50400001928E-02 0.  1.
        1   -1    0    0  501    0  0.00000000000E+00  0.00000000000E+00 -0.31371052865E+03  0.31371052869E+03  0.50400001928E-02 0. -1.
    10030    2    1    2    0    0  0.00000000000E+00  0.00000000000E+00 -0.24790535116E+02  0.60263052226E+03  0.60212039970E+03 0.  0.
        3    1    3    3  502    0  0.15252615840E+03 -0.14643769339E+03 -0.22688737163E+03  0.31013886671E+03  0.10100000352E+00 0. -1.
       -3    1    3    3    0  502 -0.15252615840E+03  0.14643769339E+03  0.20209683651E+03  0.29249165555E+03  0.10100000352E+00 0.  1.
</event>
<event>
 5   0  0.9391405E-03  0.6002354E+03  0.7818609E-02  0.9904918E-01
       -2   -1    0    0    0  501  0.00000000000E+00  0.00000000000E+00  0.55972242835E+03  0.55972242836E+03  0.25500000920E-02 0.  1.
        2   -1    0    0  501    0  0.00000000000E+00  0.00000000000E+00 -0.16092019425E+03  0.16092019427E+03  0.25500000920E-02 0. -1.
    10030    2    1    2    0    0  0.00000000000E+00  0.00000000000E+00  0.39880223410E+03  0.72064262263E+03  0.60023542683E+03 0.  0.
        2    1    3    3  502    0  0.18922626578E+03  0.23228363121E+03  0.17831778511E+03  0.34865383618E+03  0.25500000920E-02 0. -1.
       -2    1    3    3    0  502 -0.18922626578E+03 -0.23228363121E+03  0.22048444899E+03  0.37198878645E+03  0.25500000920E-02 0.  1.
</event>
<event>
 5   0  0.9391405E-03  0.6008835E+03  0.7818609E-02  0.9903575E-01
       -2   -1    0    0    0  501  0.00000000000E+00  0.00000000000E+00  0.91940019579E+02  0.91940019614E+02  0.25500000920E-02 0.  1.
        2   -1    0    0  501    0  0.00000000000E+00  0.00000000000E+00 -0.98178406454E+03  0.98178406454E+03  0.25500000920E-02 0. -1.
    10030    2    1    2    0    0  0.00000000000E+00  0.00000000000E+00 -0.88984404496E+03  0.10737240842E+04  0.60088350331E+03 0.  0.
        2    1    3    3  502    0  0.20090335606E+03 -0.13336423254E+03 -0.76515818060E+03  0.80225632957E+03  0.25500000920E-02 0. -1.
       -2    1    3    3    0  502 -0.20090335606E+03  0.13336423254E+03 -0.12468586436E+03  0.27146775458E+03  0.25500000920E-02 0.  1.
</event>
<event>
 5   0  0.5891927E-03  0.6004147E+03  0.7818609E-02  0.9904546E-01
        1   -1    0    0  501    0  0.00000000000E+00  0.00000000000E+00  0.67676766533E+03  0.67676766535E+03  0.50400001928E-02 0. -1.
       -1   -1    0    0    0  501  0.00000000000E+00  0.00000000000E+00 -0.13316897465E+03  0.13316897475E+03  0.50400001928E-02 0.  1.
    10030    2    1    2    0    0  0.00000000000E+00  0.00000000000E+00  0.54359869068E+03  0.80993664009E+03  0.60041471039E+03 0.  0.
        4    1    3    3  502    0 -0.27556879797E+03  0.31725724875E+02  0.11694368068E+03  0.30103508331E+03  0.12699999809E+01 0.  1.
       -4    1    3    3    0  502  0.27556879797E+03 -0.31725724875E+02  0.42665501000E+03  0.50890155678E+03  0.12699999809E+01 0. -1.
</event>
<event>
 5   0  0.9028473E-03  0.5982408E+03  0.7818609E-02  0.9909063E-01
        2   -1    0    0  501    0  0.00000000000E+00  0.00000000000E+00  0.88496307346E+03  0.88496307346E+03  0.25500000920E-02 0. -1.
       -2   -1    0    0    0  501  0.00000000000E+00  0.00000000000E+00 -0.10110367027E+03  0.10110367031E+03  0.25500000920E-02 0.  1.
    10030    2    1    2    0    0  0.00000000000E+00  0.00000000000E+00  0.78385940318E+03  0.98606674376E+03  0.59824080369E+03 0.  0.
        1    1    3    3  502    0 -0.87537466128E+02  0.88866055992E+02 -0.56186644817E+02  0.13680980581E+03  0.50400001928E-02 0.  1.
       -1    1    3    3    0  502  0.87537466128E+02 -0.88866055992E+02  0.84004604800E+03  0.84925693796E+03  0.50400001928E-02 0. -1.
</event>
<event>
 5   0  0.5819446E-03  0.6018174E+03  0.7818609E-02  0.9901643E-01
       -1   -1    0    0    0  501  0.00000000000E+00  0.00000000000E+00  0.47274590817E+02  0.47274591085E+02  0.50400001928E-02 0.  1.
        1   -1    0    0  501    0  0.00000000000E+00  0.00000000000E+00 -0.19153213209E+04  0.19153213209E+04  0.50400001928E-02 0. -1.
    10030    2    1    2    0    0  0.00000000000E+00  0.00000000000E+00 -0.18680467300E+04  0.19625959120E+04  0.60181735434E+03 0.  0.
        5    1    3    3  502    0  0.28245540964E+03  0.10115417415E+03 -0.10077214456E+04  0.10514455893E+04  0.46999998093E+01 0. -1.
       -5    1    3    3    0  502 -0.28245540964E+03 -0.10115417415E+03 -0.86032528442E+03  0.91115032261E+03  0.46999998093E+01 0.  1.
</event>
<event>
 5   0  0.9162342E-03  0.6028070E+03  0.7818609E-02  0.9899600E-01
       -2   -1    0    0    0  501  0.00000000000E+00  0.00000000000E+00  0.14514076910E+03  0.14514076913E+03  0.25500000920E-02 0. -1.
        2   -1    0    0  501    0  0.00000000000E+00  0.00000000000E+00 -0.62590310789E+03  0.62590310789E+03  0.25500000920E-02 0.  1.
    10030    2    1    2    0    0  0.00000000000E+00  0.00000000000E+00 -0.48076233878E+03  0.77104387702E+03  0.60280696238E+03 0.  0.
        5    1    3    3  502    0 -0.40338725654E+02 -0.16654467218E+03 -0.55747568427E+03  0.58323714659E+03  0.46999998093E+01 0.  1.
       -5    1    3    3    0  502  0.40338725654E+02  0.16654467218E+03  0.76713345485E+02  0.18780673042E+03  0.46999998093E+01 0. -1.
</event>
<event>
 5   0  0.9162342E-03  0.6001338E+03  0.7818609E-02  0.9905128E-01
       -2   -1    0    0    0  501  0.00000000000E+00  0.00000000000E+00  0.46212359502E+02  0.46212359572E+02  0.25500000920E-02 0. -1.
        2   -1    0    0  501    0  0.00000000000E+00  0.00000000000E+00 -0.19483997387E+04  0.19483997387E+04  0.25500000920E-02 0.  1.
    10030    2    1    2    0    0  0.00000000000E+00  0.00000000000E+00 -0.19021873792E+04  0.19946120983E+04  0.60013381591E+03 0.  0.
        5    1    3    3  502    0  0.71185542762E+02 -0.10308767238E+03 -0.44998662800E+02  0.13319691944E+03  0.46999998093E+01 0. -1.
       -5    1    3    3    0  502 -0.71185542762E+02  0.10308767238E+03 -0.18571887164E+04  0.18614151788E+04  0.46999998093E+01 0.  1.
</event>
<event>
 5   0  0.3806250E-03  0.5991372E+03  0.7818609E-02  0.9907198E-01
       -3   -1    0    0    0  501  0.00000000000E+00  0.00000000000E+00  0.12042827873E+03  0.12042832108E+03  0.10100000352E+00 0. -1.
        3   -1    0    0  501    0  0.00000000000E+00  0.00000000000E+00 -0.74518476210E+03  0.74518476895E+03  0.10100000352E+00 0.  1.
    10030    2    1    2    0    0  0.00000000000E+00  0.00000000000E+00 -0.62475648337E+03  0.86561309003E+03  0.59913717804E+03 0.  0.
        1    1    3    3  502    0  0.24349934818E+03  0.13444141658E+03 -0.15165872666E+03  0.31680719129E+03  0.50400001928E-02 0. -1.
       -1    1    3    3    0  502 -0.24349934818E+03 -0.13444141658E+03 -0.47309775671E+03  0.54880589874E+03  0.50400001928E-02 0.  1.
</event>
<event>
 5   0  0.9391405E-03  0.6004586E+03  0.7818609E-02  0.9904455E-01
        2   -1    0    0  501    0  0.00000000000E+00  0.00000000000E+00  0.17416526512E+03  0.17416526514E+03  0.25500000920E-02 0.  1.
       -2   -1    0    0    0  501  0.00000000000E+00  0.00000000000E+00 -0.51754072790E+03  0.51754072790E+03  0.25500000920E-02 0. -1.
    10030    2    1    2    0    0  0.00000000000E+00  0.00000000000E+00 -0.34337546278E+03  0.69170599304E+03  0.60045855175E+03 0.  0.
        2    1    3    3  502    0  0.22999189478E+03  0.19233341470E+03 -0.18987284488E+03  0.35488041832E+03  0.25500000920E-02 0. -1.
       -2    1    3    3    0  502 -0.22999189478E+03 -0.19233341470E+03 -0.15350261790E+03  0.33682557472E+03  0.25500000920E-02 0.  1.
</event>
<event>
 5   0  0.5819446E-03  0.6004243E+03  0.7818609E-02  0.9904526E-01
        1   -1    0    0  501    0  0.00000000000E+00  0.00000000000E+00  0.32656087923E+03  0.32656087927E+03  0.50400001928E-02 0.  1.
       -1   -1    0    0    0  501  0.00000000000E+00  0.00000000000E+00 -0.27598940595E+03  0.27598940599E+03  0.50400001928E-02 0. -1.
    10030    2    1    2    0    0  0.00000000000E+00  0.00000000000E+00  0.50571473286E+02  0.60255028527E+03  0.60042432693E+03 0.  0.
        5    1    3    3  502    0  0.17499768675E+03 -0.19497540356E+03 -0.12174464560E+03  0.28893502227E+03  0.46999998093E+01 0. -1.
       -5    1    3    3    0  502 -0.17499768675E+03  0.19497540356E+03  0.17231611888E+03  0.31361526300E+03  0.46999998093E+01 0.  1.
</event>
<event>
 5   0  0.9822607E-03  0.5998551E+03  0.7818609E-02  0.9905707E-01
       -2   -1    0    0    0  501  0.00000000000E+00  0.00000000000E+00  0.78952434170E+02  0.78952434211E+02  0.25500000920E-02 0. -1.
        2   -1    0    0  501    0  0.00000000000E+00  0.00000000000E+00 -0.11393763404E+04  0.11393763404E+04  0.25500000920E-02 0.  1.
    10030    2    1    2    0    0  0.00000000000E+00  0.00000000000E+00 -0.10604239062E+04  0.12183287746E+04  0.59985510096E+03 0.  0.
        3    1    3    3  502    0  0.26495801762E+03 -0.28348069166E+01 -0.81561252004E+03  0.85757482489E+03  0.10100000352E+00 0.  1.
       -3    1    3    3    0  502 -0.26495801762E+03  0.28348069166E+01 -0.24481138617E+03  0.36075394971E+03  0.10100000352E+00 0. -1.
</event>
<event>
 5   0  0.5790967E-03  0.5991108E+03  0.7818609E-02  0.9907253E-01
        1   -1    0    0  501    0  0.00000000000E+00  0.00000000000E+00  0.51742328251E+03  0.51742328253E+03  0.50400001928E-02 0. -1.
       -1   -1    0    0    0  501  0.00000000000E+00  0.00000000000E+00 -0.17342365931E+03  0.17342365939E+03  0.50400001928E-02 0.  1.
    10030    2    1    2    0    0  0.00000000000E+00  0.00000000000E+00  0.34399962320E+03  0.69084694192E+03  0.59911080478E+03 0.  0.
        3    1    3    3  502    0 -0.43093187115E+02 -0.21155743300E+03 -0.67449367134E+02  0.22619239059E+03  0.10100000352E+00 0.  1.
       -3    1    3    3    0  502  0.43093187115E+02  0.21155743300E+03  0.41144899033E+03  0.46465455133E+03  0.10100000352E+00 0. -1.
</event>
<event>
 5   0  0.9303190E-03  0.5991418E+03  0.7818609E-02  0.9907188E-01
        2   -1    0    0  501    0  0.00000000000E+00  0.00000000000E+00  0.11281415708E+04  0.11281415708E+04  0.25500000920E-02 0.  1.
       -2   -1    0    0    0  501  0.00000000000E+00  0.00000000000E+00 -0.79549180830E+02  0.79549180871E+02  0.25500000920E-02 0. -1.
    10030    2    1    2    0    0  0.00000000000E+00  0.00000000000E+00  0.10485923900E+04  0.12076907517E+04  0.59914184580E+03 0.  0.
        4    1    3    3  502    0 -0.92626949905E+02  0.18145561295E+03  0.81597460295E+02  0.21946673950E+03  0.12699999809E+01 0. -1.
       -4    1    3    3    0  502  0.92626949905E+02 -0.18145561295E+03  0.96699492970E+03  0.98822401220E+03  0.12699999809E+01 0.  1.
</event>
<event>
 5   0  0.6078658E-03  0.6000761E+03  0.7818609E-02  0.9905248E-01
        1   -1    0    0  501    0  0.00000000000E+00  0.00000000000E+00  0.17170472643E+04  0.17170472644E+04  0.50400001928E-02 0. -1.
       -1   -1    0    0    0  501  0.00000000000E+00  0.00000000000E+00 -0.52428867508E+02  0.52428867750E+02  0.50400001928E-02 0.  1.
    10030    2    1    2    0    0  0.00000000000E+00  0.00000000000E+00  0.16646183968E+04  0.17694761321E+04  0.60007614099E+03 0.  0.
        2    1    3    3  502    0 -0.17557884309E+03 -0.22236100018E+03  0.54113574668E+03  0.61081931934E+03  0.25500000920E-02 0.  1.
       -2    1    3    3    0  502  0.17557884309E+03  0.22236100018E+03  0.11234826502E+04  0.11586568128E+04  0.25500000920E-02 0. -1.
</event>
<event>
 5   0  0.5765045E-03  0.5994360E+03  0.7818609E-02  0.9906577E-01
        1   -1    0    0  501    0  0.00000000000E+00  0.00000000000E+00  0.75824645574E+03  0.75824645576E+03  0.50400001928E-02 0. -1.
       -1   -1    0    0    0  501  0.00000000000E+00  0.00000000000E+00 -0.11847188920E+03  0.11847188931E+03  0.50400001928E-02 0.  1.
    10030    2    1    2    0    0  0.00000000000E+00  0.00000000000E+00  0.63977456654E+03  0.87671834507E+03  0.59943603544E+03 0.  0.
        1    1    3    3  502    0  0.90781987752E+02 -0.31199070236E+02  0.73515507040E+03  0.74139579770E+03  0.50400001928E-02 0. -1.
       -1    1    3    3    0  502 -0.90781987752E+02  0.31199070236E+02 -0.95380503861E+02  0.13532254737E+03  0.50400001928E-02 0.  1.
</event>
<event>
 5   0  0.9162342E-03  0.5984738E+03  0.7818609E-02  0.9908578E-01
       -2   -1    0    0    0  501  0.00000000000E+00  0.00000000000E+00  0.12029739240E+03  0.12029739242E+03  0.25500000920E-02 0.  1.
        2   -1    0    0  501    0  0.00000000000E+00  0.00000000000E+00 -0.74434457299E+03  0.74434457299E+03  0.25500000920E-02 0. -1.
    10030    2    1    2    0    0  0.00000000000E+00  0.00000000000E+00 -0.62404718059E+03  0.86464196542E+03  0.59847376280E+03 0.  0.
        5    1    3    3  502    0 -0.12162788599E+03 -0.16956845416E+03 -0.62179867200E+03  0.65589822519E+03  0.46999998093E+01 0. -1.
       -5    1    3    3    0  502  0.12162788599E+03  0.16956845416E+03 -0.22485085873E+01  0.20874374023E+03  0.46999998093E+01 0.  1.
</event>
<event>
 5   0  0.5819446E-03  0.5994744E+03  0.7818609E-02  0.9906497E-01
        1   -1    0    0  501    0  0.00000000000E+00  0.00000000000E+00  0.38802806356E+03  0.38802806359E+03  0.50400001928E-02 0. -1.
       -1   -1    0    0    0  501  0.00000000000E+00  0.00000000000E+00 -0.23153582206E+03  0.23153582212E+03  0.50400001928E-02 0.  1.
    10030    2    1    2    0    0  0.00000000000E+00  0.00000000000E+00  0.15649224150E+03  0.61956388571E+03  0.59947442550E+03 0.  0.
        5    1    3    3  502    0  0.23458407473E+03 -0.13586520138E+03  0.21032256130E+03  0.34314240609E+03  0.46999998093E+01 0. -1.
       -5    1    3    3    0  502 -0.23458407473E+03  0.13586520138E+03 -0.53830319804E+02  0.27642147962E+03  0.46999998093E+01 0.  1.
</event>
<event>
 5   0  0.9822607E-03  0.5997197E+03  0.7818609E-02  0.9905988E-01
        2   -1    0    0  501    0  0.00000000000E+00  0.00000000000E+00  0.14762379036E+04  0.14762379036E+04  0.25500000920E-02 0.  1.
       -2   -1    0    0    0  501  0.00000000000E+00  0.00000000000E+00 -0.60908832103E+02  0.60908832156E+02  0.25500000920E-02 0. -1.
    10030    2    1    2    0    0  0.00000000000E+00  0.00000000000E+00  0.14153290715E+04  0.15371467358E+04  0.59971969005E+03 0.  0.
        3    1    3    3  502    0 -0.17967225356E+03 -0.20487285109E+03  0.10284210999E+04  0.10639102278E+04  0.10100000352E+00 0.  1.
       -3    1    3    3    0  502  0.17967225356E+03  0.20487285109E+03  0.38690797157E+03  0.47323650797E+03  0.10100000352E+00 0. -1.
</event>
<event>
 5   0  0.9028473E-03  0.5998459E+03  0.7818609E-02  0.9905726E-01
       -2   -1    0    0    0  501  0.00000000000E+00  0.00000000000E+00  0.23302820233E+03  0.23302820234E+03  0.25500000920E-02 0. -1.
        2   -1    0    0  501    0  0.00000000000E+00  0.00000000000E+00 -0.38602098999E+03  0.38602099000E+03  0.25500000920E-02 0.  1.
    10030    2    1    2    0    0  0.00000000000E+00  0.00000000000E+00 -0.15299278766E+03  0.61904919235E+03  0.59984590477E+03 0.  0.
        1    1    3    3  502    0 -0.25676485544E+03  0.14045789290E+03 -0.88450290122E+01  0.29280513184E+03  0.50400001928E-02 0. -1.
       -1    1    3    3    0  502  0.25676485544E+03 -0.14045789290E+03 -0.14414775865E+03  0.32624406051E+03  0.50400001928E-02 0.  1.
</event>
<event>
 5   0  0.3806250E-03  0.6013992E+03  0.7818609E-02  0.9902507E-01
        4   -1    0    0  501    0  0.00000000000E+00  0.00000000000E+00  0.61724766091E+02  0.61737829966E+02  0.12699999809E+01 0. -1.
       -4   -1    0    0    0  501  0.00000000000E+00  0.00000000000E+00 -0.14647257509E+04  0.14647263015E+04  0.12699999809E+01 0.  1.
    10030    2    1    2    0    0  0.00000000000E+00  0.00000000000E+00 -0.14030009848E+04  0.15264641315E+04  0.60139918625E+03 0.  0.
        5    1    3    3  502    0 -0.25792484586E+03 -0.53155826099E+02 -0.33326735816E+03  0.42478228538E+03  0.46999998093E+01 0. -1.
       -5    1    3    3    0  502  0.25792484586E+03  0.53155826099E+02 -0.10697336267E+04  0.11016818461E+04  0.46999998093E+01 0.  1.
</event>
<event>
 5   0  0.3806250E-03  0.6007418E+03  0.7818609E-02  0.9903868E-01
       -4   -1    0    0    0  501  0.00000000000E+00  0.00000000000E+00  0.12021184820E+04  0.12021191529E+04  0.12699999809E+01 0.  1.
        4   -1    0    0  501    0  0.00000000000E+00  0.00000000000E+00 -0.75047011598E+02  0.75057756759E+02  0.12699999809E+01 0. -1.
    10030    2    1    2    0    0  0.00000000000E+00  0.00000000000E+00  0.11270714704E+04  0.12771769096E+04  0.60074184062E+03 0.  0.
        1    1    3    3  502    0 -0.10768369767E+03 -0.18995860181E+03  0.12502987791E+03  0.25161979163E+03  0.50400001928E-02 0. -1.
       -1    1    3    3    0  502  0.10768369767E+03  0.18995860181E+03  0.10020415925E+04  0.10255571180E+04  0.50400001928E-02 0.  1.
</event>
<event>
 5   0  0.9822607E-03  0.6028282E+03  0.7818609E-02  0.9899556E-01
       -2   -1    0    0    0  501  0.00000000000E+00  0.00000000000E+00  0.72683638995E+02  0.72683639039E+02  0.25500000920E-02 0. -1.
        2   -1    0    0  501    0  0.00000000000E+00  0.00000000000E+00 -0.12499435916E+04  0.12499435916E+04  0.25500000920E-02 0.  1.
    10030    2    1    2    0    0  0.00000000000E+00  0.00000000000E+00 -0.11772599526E+04  0.13226272306E+04  0.60282816392E+03 0.  0.
        3    1    3    3  502    0  0.57392818462E+02 -0.19697448933E+03 -0.10416221899E+03  0.23009272723E+03  0.10100000352E+00 0. -1.
       -3    1    3    3    0  502 -0.57392818462E+02  0.19697448933E+03 -0.10730977336E+04  0.10925345034E+04  0.10100000352E+00 0.  1.
</event>
<event>
 5   0  0.9822607E-03  0.5998343E+03  0.7818609E-02  0.9905750E-01
       -2   -1    0    0    0  501  0.00000000000E+00  0.00000000000E+00  0.72439162232E+03  0.72439162232E+03  0.25500000920E-02 0.  1.
        2   -1    0    0  501    0  0.00000000000E+00  0.00000000000E+00 -0.12417359420E+03  0.12417359423E+03  0.25500000920E-02 0. -1.
    10030    2    1    2    0    0  0.00000000000E+00  0.00000000000E+00  0.60021802812E+03  0.84856521655E+03  0.59983434835E+03 0.  0.
        3    1    3    3  502    0 -0.94518506745E+01 -0.13494153537E+03 -0.78566551305E+02  0.15643295252E+03  0.10100000352E+00 0. -1.
       -3    1    3    3    0  502  0.94518506745E+01  0.13494153537E+03  0.67878457942E+03  0.69213226403E+03  0.10100000352E+00 0.  1.
</event>
<event>
 5   0  0.6078658E-03  0.6008863E+03  0.7818609E-02  0.9903569E-01
        1   -1    0    0  501    0  0.00000000000E+00  0.00000000000E+00  0.90903802176E+03  0.90903802177E+03  0.50400001928E-02 0. -1.
       -1   -1    0    0    0  501  0.00000000000E+00  0.00000000000E+00 -0.99298456098E+02  0.99298456226E+02  0.50400001928E-02 0.  1.
    10030    2    1    2    0    0  0.00000000000E+00  0.00000000000E+00  0.80973956566E+03  0.10083364780E+04  0.60088625268E+03 0.  0.
        2    1    3    3  502    0  0.28994018734E+03  0.59894437328E+02  0.49065599816E+03  0.57305843018E+03  0.25500000920E-02 0.  1.
       -2    1    3    3    0  502 -0.28994018734E+03 -0.59894437328E+02  0.31908356750E+03  0.43527804782E+03  0.25500000920E-02 0. -1.
</event>
<event>
 5   0  0.5891927E-03  0.5989020E+03  0.7818609E-02  0.9907687E-01
       -1   -1    0    0    0  501  0.00000000000E+00  0.00000000000E+00  0.31923588973E+03  0.31923588977E+03  0.50400001928E-02 0. -1.
        1   -1    0    0  501    0  0.00000000000E+00  0.00000000000E+00 -0.28089227436E+03  0.28089227440E+03  0.50400001928E-02 0.  1.
    10030    2    1    2    0    0  0.00000000000E+00  0.00000000000E+00  0.38343615372E+02  0.60012816418E+03  0.59890197912E+03 0.  0.
        4    1    3    3  502    0  0.24614231185E+03  0.13897908435E+03 -0.79864032523E+02  0.29373644677E+03  0.12699999809E+01 0.  1.
       -4    1    3    3    0  502 -0.24614231185E+03 -0.13897908435E+03  0.11820764790E+03  0.30639171740E+03  0.12699999809E+01 0. -1.
</event>
<event>
 5   0  0.5765045E-03  0.5985958E+03  0.7818609E-02  0.9908324E-01
        1   -1    0    0  501    0  0.00000000000E+00  0.00000000000E+00  0.28554290062E+03  0.28554290066E+03  0.50400001928E-02 0. -1.
       -1   -1    0    0    0  501  0.00000000000E+00  0.00000000000E+00 -0.31371554065E+03  0.31371554070E+03  0.50400001928E-02 0.  1.
    10030    2    1    2    0    0  0.00000000000E+00  0.00000000000E+00 -0.28172640037E+02  0.59925844136E+03  0.59859584186E+03 0.  0.
        1    1    3    3  502    0 -0.20444797006E+02  0.24867022186E+03  0.15139752186E+03  0.29184941085E+03  0.50400001928E-02 0. -1.
       -1    1    3    3    0  502  0.20444797006E+02 -0.24867022186E+03 -0.17957016190E+03  0.30740903050E+03  0.50400001928E-02 0.  1.
</event>
<event>
 5   0  0.5765045E-03  0.6021290E+03  0.7818609E-02  0.9900999E-01
       -1   -1    0    0    0  501  0.00000000000E+00  0.00000000000E+00  0.24702490804E+03  0.24702490809E+03  0.50400001928E-02 0. -1.
        1   -1    0    0  501    0  0.00000000000E+00  0.00000000000E+00 -0.36692593169E+03  0.36692593172E+03  0.50400001928E-02 0.  1.
    10030    2    1    2    0    0  0.00000000000E+00  0.00000000000E+00 -0.11990102365E+03  0.61395083981E+03  0.60212903786E+03 0.  0.
        1    1    3    3  502    0 -0.11609574443E+03 -0.84396163672E+02  0.20989407851E+03  0.25427634286E+03  0.50400001928E-02 0. -1.
       -1    1    3    3    0  502  0.11609574443E+03  0.84396163672E+02 -0.32979510217E+03  0.35967449695E+03  0.50400001928E-02 0.  1.
</event>
<event>
 5   0  0.6078658E-03  0.6003498E+03  0.7818609E-02  0.9904681E-01
       -1   -1    0    0    0  501  0.00000000000E+00  0.00000000000E+00  0.16084872468E+03  0.16084872476E+03  0.50400001928E-02 0.  1.
        1   -1    0    0  501    0  0.00000000000E+00  0.00000000000E+00 -0.56018456530E+03  0.56018456532E+03  0.50400001928E-02 0. -1.
    10030    2    1    2    0    0  0.00000000000E+00  0.00000000000E+00 -0.39933584062E+03  0.72103329008E+03  0.60034980786E+03 0.  0.
        2    1    3    3  502    0 -0.26103363584E+03  0.78704087226E+02 -0.35050059551E+03  0.44405355516E+03  0.25500000920E-02 0.  1.
       -2    1    3    3    0  502  0.26103363584E+03 -0.78704087226E+02 -0.48835245109E+02  0.27697973492E+03  0.25500000920E-02 0. -1.
</event>
<event>
 5   0  0.5819446E-03  0.6001249E+03  0.7818609E-02  0.9905147E-01
       -1   -1    0    0    0  501  0.00000000000E+00  0.00000000000E+00  0.12302831199E+03  0.12302831210E+03  0.50400001928E-02 0.  1.
        1   -1    0    0  501    0  0.00000000000E+00  0.00000000000E+00 -0.73184349504E+03  0.73184349505E+03  0.50400001928E-02 0. -1.
    10030    2    1    2    0    0  0.00000000000E+00  0.00000000000E+00 -0.60881518304E+03  0.85487180715E+03  0.60012488664E+03 0.  0.
        5    1    3    3  502    0  0.16625288291E+02 -0.16748635348E+03  0.49391931068E+02  0.17547003068E+03  0.46999998093E+01 0.  1.
       -5    1    3    3    0  502 -0.16625288291E+02  0.16748635348E+03 -0.65820711411E+03  0.67940177648E+03  0.46999998093E+01 0. -1.
</event>
<event>
 5   0  0.3806250E-03  0.6005779E+03  0.7818609E-02  0.9904208E-01
        3   -1    0    0  501    0  0.00000000000E+00  0.00000000000E+00  0.95499212620E+02  0.95499266028E+02  0.10100000352E+00 0. -1.
       -3   -1    0    0    0  501  0.00000000000E+00  0.00000000000E+00 -0.94423203978E+03  0.94423204518E+03  0.10100000352E+00 0.  1.
    10030    2    1    2    0    0  0.00000000000E+00  0.00000000000E+00 -0.84873282716E+03  0.10397313112E+04  0.60057787805E+03 0.  0.
        1    1    3    3  502    0  0.37307435598E+02  0.26450229376E+03 -0.66186618816E+03  0.71373675765E+03  0.50400001928E-02 0.  1.
       -1    1    3    3    0  502 -0.37307435598E+02 -0.26450229376E+03 -0.18686663899E+03  0.32599455356E+03  0.50400001928E-02 0. -1.
</event>
<event>
 5   0  0.6078658E-03  0.6000263E+03  0.7818609E-02  0.9905352E-01
       -1   -1    0    0    0  501  0.00000000000E+00  0.00000000000E+00  0.49444482383E+03  0.49444482386E+03  0.50400001928E-02 0.  1.
        1   -1    0    0  501    0  0.00000000000E+00  0.00000000000E+00 -0.18203826335E+03  0.18203826342E+03  0.50400001928E-02 0. -1.
    10030    2    1    2    0    0  0.00000000000E+00  0.00000000000E+00  0.31240656049E+03  0.67648308727E+03  0.60002625637E+03 0.  0.
        2    1    3    3  502    0 -0.49139990308E+02  0.27909348884E+03  0.26724130442E+03  0.38951999815E+03  0.25500000920E-02 0. -1.
       -2    1    3    3    0  502  0.49139990308E+02 -0.27909348884E+03  0.45165256066E+02  0.28696308913E+03  0.25500000920E-02 0.  1.
</event>
<event>
 5   0  0.9028473E-03  0.6028998E+03  0.7818609E-02  0.9899408E-01
        2   -1    0    0  501    0  0.00000000000E+00  0.00000000000E+00  0.48141247459E+03  0.48141247459E+03  0.25500000920E-02 0. -1.
       -2   -1    0    0    0  501  0.00000000000E+00  0.00000000000E+00 -0.18876128760E+03  0.18876128762E+03  0.25500000920E-02 0.  1.
    10030    2    1    2    0    0  0.00000000000E+00  0.00000000000E+00  0.29265118699E+03  0.67017376221E+03  0.60289978795E+03 0.  0.
        1    1    3    3  502    0  0.12023254302E+03  0.25104167568E+03  0.17678046409E+02  0.27890912620E+03  0.50400001928E-02 0. -1.
       -1    1    3    3    0  502 -0.12023254302E+03 -0.25104167568E+03  0.27497314058E+03  0.39126463601E+03  0.50400001928E-02 0.  1.
</event>
<event>
 5   0  0.9028473E-03  0.6006960E+03  0.7818609E-02  0.9903963E-01
       -2   -1    0    0    0  501  0.00000000000E+00  0.00000000000E+00  0.69330214703E+03  0.69330214704E+03  0.25500000920E-02 0. -1.
        2   -1    0    0  501    0  0.00000000000E+00  0.00000000000E+00 -0.13011487386E+03  0.13011487389E+03  0.25500000920E-02 0.  1.
    10030    2    1    2    0    0  0.00000000000E+00  0.00000000000E+00  0.56318727317E+03  0.82341702092E+03  0.60069600105E+03 0.  0.
        1    1    3    3  502    0  0.58796098918E+02  0.21091868717E+02  0.68429981621E+03  0.68714488041E+03  0.50400001928E-02 0. -1.
       -1    1    3    3    0  502 -0.58796098918E+02 -0.21091868717E+02 -0.12111254304E+03  0.13627214052E+03  0.50400001928E-02 0.  1.
</event>
<event>
 5   0  0.9391405E-03  0.5993591E+03  0.7818609E-02  0.9906737E-01
       -2   -1    0    0    0  501  0.00000000000E+00  0.00000000000E+00  0.13582294038E+03  0.13582294040E+03  0.25500000920E-02 0.  1.
        2   -1    0    0  501    0  0.00000000000E+00  0.00000000000E+00 -0.66121257370E+03  0.66121257371E+03  0.25500000920E-02 0. -1.
    10030    2    1    2    0    0  0.00000000000E+00  0.00000000000E+00 -0.52538963332E+03  0.79703551411E+03  0.59935911101E+03 0.  0.
        2    1    3    3  502    0  0.15991950758E+03 -0.67398245420E+02 -0.58759145677E+03  0.61268302772E+03  0.25500000920E-02 0. -1.
       -2    1    3    3    0  502 -0.15991950758E+03  0.67398245420E+02  0.62201823444E+02  0.18435248638E+03  0.25500000920E-02 0.  1.
</event>
<event>
 5   0  0.6078658E-03  0.5997886E+03  0.7818609E-02  0.9905845E-01
       -1   -1    0    0    0  501  0.00000000000E+00  0.00000000000E+00  0.14845562782E+03  0.14845562791E+03  0.50400001928E-02 0. -1.
        1   -1    0    0  501    0  0.00000000000E+00  0.00000000000E+00 -0.60581471137E+03  0.60581471139E+03  0.50400001928E-02 0.  1.
    10030    2    1    2    0    0  0.00000000000E+00  0.00000000000E+00 -0.45735908354E+03  0.75427033929E+03  0.59978864064E+03 0.  0.
        2    1    3    3  502    0 -0.27226867149E+03  0.16631072624E+02 -0.38539486526E+03  0.47216101515E+03  0.25500000920E-02 0.  1.
       -2    1    3    3    0  502  0.27226867149E+03 -0.16631072624E+02 -0.71964218282E+02  0.28210932415E+03  0.25500000920E-02 0. -1.
</event>
<event>
 5   0  0.5891927E-03  0.6114980E+03  0.7818609E-02  0.9881834E-01
        1   -1    0    0  501    0  0.00000000000E+00  0.00000000000E+00  0.93330074697E+03  0.93330074699E+03  0.50400001928E-02 0.  1.
       -1   -1    0    0    0  501  0.00000000000E+00  0.00000000000E+00 -0.10016327743E+03  0.10016327756E+03  0.50400001928E-02 0. -1.
    10030    2    1    2    0    0  0.00000000000E+00  0.00000000000E+00  0.83313746954E+03  0.10334640245E+04  0.61149803506E+03 0.  0.
        4    1    3    3  502    0 -0.41378373278E+02  0.82781550713E+02 -0.75918286961E+02  0.11970862170E+03  0.12699999809E+01 0. -1.
       -4    1    3    3    0  502  0.41378373278E+02 -0.82781550713E+02  0.90905575650E+03  0.91375540285E+03  0.12699999809E+01 0.  1.
</event>
<event>
 5   0  0.5765045E-03  0.6055090E+03  0.7818609E-02  0.9894042E-01
        1   -1    0    0  501    0  0.00000000000E+00  0.00000000000E+00  0.98666819161E+03  0.98666819163E+03  0.50400001928E-02 0. -1.
       -1   -1    0    0    0  501  0.00000000000E+00  0.00000000000E+00 -0.92898798033E+02  0.92898798170E+02  0.50400001928E-02 0.  1.
    10030    2    1    2    0    0  0.00000000000E+00  0.00000000000E+00  0.89376939358E+03  0.10795669898E+04  0.60550900617E+03 0.  0.
        1    1    3    3  502    0  0.60808592973E+02  0.21583550833E+03  0.84214527851E+02  0.23953024519E+03  0.50400001928E-02 0.  1.
       -1    1    3    3    0  502 -0.60808592973E+02 -0.21583550833E+03  0.80955486573E+03  0.84003674460E+03  0.50400001928E-02 0. -1.
</event>
<event>
 5   0  0.6078658E-03  0.6007151E+03  0.7818609E-02  0.9903924E-01
        1   -1    0    0  501    0  0.00000000000E+00  0.00000000000E+00  0.11666106894E+03  0.11666106904E+03  0.50400001928E-02 0. -1.
       -1   -1    0    0    0  501  0.00000000000E+00  0.00000000000E+00 -0.77330556678E+03  0.77330556679E+03  0.50400001928E-02 0.  1.
    10030    2    1    2    0    0  0.00000000000E+00  0.00000000000E+00 -0.65664449784E+03  0.88996663584E+03  0.60071508751E+03 0.  0.
        2    1    3    3  502    0  0.94939417602E+02 -0.67318788192E+02  0.81897017181E+02  0.14231104556E+03  0.25500000920E-02 0. -1.
       -2    1    3    3    0  502 -0.94939417602E+02  0.67318788192E+02 -0.73854151502E+03  0.74765559028E+03  0.25500000920E-02 0.  1.
</event>
<event>
 5   0  0.3806250E-03  0.5999814E+03  0.7818609E-02  0.9905445E-01
        4   -1    0    0  501    0  0.00000000000E+00  0.00000000000E+00  0.87055852297E+02  0.87065115397E+02  0.12699999809E+01 0. -1.
       -4   -1    0    0    0  501  0.00000000000E+00  0.00000000000E+00 -0.10336902325E+04  0.10336910126E+04  0.12699999809E+01 0.  1.
    10030    2    1    2    0    0  0.00000000000E+00  0.00000000000E+00 -0.94663438016E+03  0.11207561280E+04  0.59998137370E+03 0.  0.
        4    1    3    3  502    0  0.28825906140E+03 -0.14638973941E+02 -0.32058485660E+03  0.43137437247E+03  0.12699999809E+01 0. -1.
       -4    1    3    3    0  502 -0.28825906140E+03  0.14638973941E+02 -0.62604952356E+03  0.68938175556E+03  0.12699999809E+01 0.  1.
</event>
<event>
 5   0  0.9822607E-03  0.5947290E+03  0.7818609E-02  0.9916402E-01
       -2   -1    0    0    0  501  0.00000000000E+00  0.00000000000E+00  0.79421512759E+02  0.79421512800E+02  0.25500000920E-02 0. -1.
        2   -1    0    0  501    0  0.00000000000E+00  0.00000000000E+00 -0.11133714979E+04  0.11133714979E+04  0.25500000920E-02 0.  1.
    10030    2    1    2    0    0  0.00000000000E+00  0.00000000000E+00 -0.10339499851E+04  0.11927930107E+04  0.59472900938E+03 0.  0.
        3    1    3    3  502    0  0.21910058499E+03  0.48920938936E+02 -0.90808037006E+03  0.93541877964E+03  0.10100000352E+00 0.  1.
       -3    1    3    3    0  502 -0.21910058499E+03 -0.48920938936E+02 -0.12586961507E+03  0.25737423105E+03  0.10100000352E+00 0. -1.
</event>
<event>
 5   0  0.9028473E-03  0.6006103E+03  0.7818609E-02  0.9904141E-01
       -2   -1    0    0    0  501  0.00000000000E+00  0.00000000000E+00  0.84573499067E+02  0.84573499106E+02  0.25500000920E-02 0. -1.
        2   -1    0    0  501    0  0.00000000000E+00  0.00000000000E+00 -0.10663292440E+04  0.10663292440E+04  0.25500000920E-02 0.  1.
    10030    2    1    2    0    0  0.00000000000E+00  0.00000000000E+00 -0.98175574492E+03  0.11509027431E+04  0.60061034072E+03 0.  0.
        1    1    3    3  502    0 -0.46989291247E+02 -0.12718084804E+03 -0.10043403937E+04  0.10134508316E+04  0.50400001928E-02 0.  1.
       -1    1    3    3    0  502  0.46989291247E+02  0.12718084804E+03  0.22584648752E+02  0.13745191154E+03  0.50400001928E-02 0. -1.
</event>
<event>
 5   0  0.9822607E-03  0.5999864E+03  0.7818609E-02  0.9905434E-01
       -2   -1    0    0    0  501  0.00000000000E+00  0.00000000000E+00  0.14230115954E+03  0.14230115957E+03  0.25500000920E-02 0.  1.
        2   -1    0    0  501    0  0.00000000000E+00  0.00000000000E+00 -0.63243271793E+03  0.63243271793E+03  0.25500000920E-02 0. -1.
    10030    2    1    2    0    0  0.00000000000E+00  0.00000000000E+00 -0.49013155839E+03  0.77473387750E+03  0.59998636353E+03 0.  0.
        3    1    3    3  502    0  0.19250397211E+03  0.16919804508E+03 -0.44639411689E+03  0.51473631650E+03  0.10100000352E+00 0. -1.
       -3    1    3    3    0  502 -0.19250397211E+03 -0.16919804508E+03 -0.43737441499E+02  0.25999756100E+03  0.10100000352E+00 0.  1.
</event>
<event>
 5   0  0.5891927E-03  0.6012297E+03  0.7818609E-02  0.9902858E-01
        1   -1    0    0  501    0  0.00000000000E+00  0.00000000000E+00  0.29982264608E+03  0.29982264612E+03  0.50400001928E-02 0.  1.
       -1   -1    0    0    0  501  0.00000000000E+00  0.00000000000E+00 -0.30140918843E+03  0.30140918847E+03  0.50400001928E-02 0. -1.
    10030    2    1    2    0    0  0.00000000000E+00  0.00000000000E+00 -0.15865423563E+01  0.60123183459E+03  0.60122974129E+03 0.  0.
        4    1    3    3  502    0  0.15764092188E+03 -0.18883157703E+03  0.17200681777E+03  0.30015992903E+03  0.12699999809E+01 0.  1.
       -4    1    3    3    0  502 -0.15764092188E+03  0.18883157703E+03 -0.17359336013E+03  0.30107190556E+03  0.12699999809E+01 0. -1.
</event>
<event>
 5   0  0.9391405E-03  0.5998072E+03  0.7818609E-02  0.9905806E-01
       -2   -1    0    0    0  501  0.00000000000E+00  0.00000000000E+00  0.25754328230E+03  0.25754328231E+03  0.25500000920E-02 0.  1.
        2   -1    0    0  501    0  0.00000000000E+00  0.00000000000E+00 -0.34923125302E+03  0.34923125303E+03  0.25500000920E-02 0. -1.
    10030    2    1    2    0    0  0.00000000000E+00  0.00000000000E+00 -0.91687970720E+02  0.60677453534E+03  0.59980717965E+03 0.  0.
        2    1    3    3  502    0 -0.10391222320E+03  0.16440420228E+02  0.23826368917E+03  0.26045656668E+03  0.25500000920E-02 0.  1.
       -2    1    3    3    0  502  0.10391222320E+03 -0.16440420228E+02 -0.32995165989E+03  0.34631796866E+03  0.25500000920E-02 0. -1.
</event>
<event>
 5   0  0.9391405E-03  0.6029537E+03  0.7818609E-02  0.9899297E-01
       -2   -1    0    0    0  501  0.00000000000E+00  0.00000000000E+00  0.98099419129E+02  0.98099419162E+02  0.25500000920E-02 0.  1.
        2   -1    0    0  501    0  0.00000000000E+00  0.00000000000E+00 -0.92649171689E+03  0.92649171690E+03  0.25500000920E-02 0. -1.
    10030    2    1    2    0    0  0.00000000000E+00  0.00000000000E+00 -0.82839229776E+03  0.10245911361E+04  0.60295372716E+03 0.  0.
        2    1    3    3  502    0  0.86970989490E+02 -0.17888143562E+03 -0.79917279257E+03  0.82355307869E+03  0.25500000920E-02 0. -1.
       -2    1    3    3    0  502 -0.86970989490E+02  0.17888143562E+03 -0.29219505191E+02  0.20103805737E+03  0.25500000920E-02 0.  1.
</event>
<event>
 5   0  0.5891927E-03  0.5976226E+03  0.7818609E-02  0.9910351E-01
       -1   -1    0    0    0  501  0.00000000000E+00  0.00000000000E+00  0.15617617043E+03  0.15617617051E+03  0.50400001928E-02 0.  1.
        1   -1    0    0  501    0  0.00000000000E+00  0.00000000000E+00 -0.57171448769E+03  0.57171448771E+03  0.50400001928E-02 0. -1.
    10030    2    1    2    0    0  0.00000000000E+00  0.00000000000E+00 -0.41553831726E+03  0.72789065822E+03  0.59762255413E+03 0.  0.
        4    1    3    3  502    0  0.22364589873E+03  0.57977738296E+02 -0.43856751943E+03  0.49570352849E+03  0.12699999809E+01 0. -1.
       -4    1    3    3    0  502 -0.22364589873E+03 -0.57977738296E+02  0.23029202171E+02  0.23218712973E+03  0.12699999809E+01 0.  1.
</event>
<event>
 5   0  0.6078658E-03  0.5985934E+03  0.7818609E-02  0.9908329E-01
       -1   -1    0    0    0  501  0.00000000000E+00  0.00000000000E+00  0.29135923601E+03  0.29135923605E+03  0.50400001928E-02 0.  1.
        1   -1    0    0  501    0  0.00000000000E+00  0.00000000000E+00 -0.30745044606E+03  0.30745044611E+03  0.50400001928E-02 0. -1.
    10030    2    1    2    0    0  0.00000000000E+00  0.00000000000E+00 -0.16091210058E+02  0.59880968215E+03  0.59859344166E+03 0.  0.
        2    1    3    3  502    0 -0.16629346250E+03  0.48221758549E+02  0.23617302999E+03  0.29284219943E+03  0.25500000920E-02 0.  1.
       -2    1    3    3    0  502  0.16629346250E+03 -0.48221758549E+02 -0.25226424005E+03  0.30596748272E+03  0.25500000920E-02 0. -1.
</event>
<event>
 5   0  0.5819446E-03  0.5994224E+03  0.7818609E-02  0.9906605E-01
        1   -1    0    0  501    0  0.00000000000E+00  0.00000000000E+00  0.39160072858E+03  0.39160072861E+03  0.50400001928E-02 0. -1.
       -1   -1    0    0    0  501  0.00000000000E+00  0.00000000000E+00 -0.22938365197E+03  0.22938365202E+03  0.50400001928E-02 0.  1.
    10030    2    1    2    0    0  0.00000000000E+00  0.00000000000E+00  0.16221707661E+03  0.62098438063E+03  0.59942240619E+03 0.  0.
        5    1    3    3  502    0 -0.20940238105E+03 -0.19322699296E+03 -0.15067805940E+02  0.28536845792E+03  0.46999998093E+01 0.  1.
       -5    1    3    3    0  502  0.20940238105E+03  0.19322699296E+03  0.17728488255E+03  0.33561592271E+03  0.46999998093E+01 0. -1.
</event>
<event>
 5   0  0.9303190E-03  0.6004241E+03  0.7818609E-02  0.9904527E-01
        2   -1    0    0  501    0  0.00000000000E+00  0.00000000000E+00  0.33450756540E+03  0.33450756541E+03  0.25500000920E-02 0.  1.
       -2   -1    0    0    0  501  0.00000000000E+00  0.00000000000E+00 -0.26943266262E+03  0.26943266263E+03  0.25500000920E-02 0. -1.
    10030    2    1    2    0    0  0.00000000000E+00  0.00000000000E+00  0.65074902781E+02  0.60394022804E+03  0.60042406354E+03 0.  0.
        4    1    3    3  502    0  0.12115883910E+03 -0.15924415561E+03 -0.19257550165E+03  0.27771406540E+03  0.12699999809E+01 0. -1.
       -4    1    3    3    0  502 -0.12115883910E+03  0.15924415561E+03  0.25765040443E+03  0.32622616264E+03  0.12699999809E+01 0.  1.
</event>
<event>
 5   0  0.5819446E-03  0.6055351E+03  0.7818609E-02  0.9893989E-01
        1   -1    0    0  501    0  0.00000000000E+00  0.00000000000E+00  0.10087422659E+04  0.10087422659E+04  0.50400001928E-02 0. -1.
       -1   -1    0    0    0  501  0.00000000000E+00  0.00000000000E+00 -0.90873752551E+02  0.90873752691E+02  0.50400001928E-02 0.  1.
    10030    2    1    2    0    0  0.00000000000E+00  0.00000000000E+00  0.91786851334E+03  0.10996160186E+04  0.60553511919E+03 0.  0.
        5    1    3    3  502    0 -0.29196523908E+03  0.78410645612E+02  0.48788555925E+03  0.57397416240E+03  0.46999998093E+01 0. -1.
       -5    1    3    3    0  502  0.29196523908E+03 -0.78410645612E+02  0.42998295410E+03  0.52564185620E+03  0.46999998093E+01 0.  1.
</event>
<event>
 5   0  0.9028473E-03  0.5999940E+03  0.7818609E-02  0.9905419E-01
        2   -1    0    0  501    0  0.00000000000E+00  0.00000000000E+00  0.10839259726E+04  0.10839259726E+04  0.25500000920E-02 0. -1.
       -2   -1    0    0    0  501  0.00000000000E+00  0.00000000000E+00 -0.83029839337E+02  0.83029839376E+02  0.25500000920E-02 0.  1.
    10030    2    1    2    0    0  0.00000000000E+00  0.00000000000E+00  0.10008961333E+04  0.11669558120E+04  0.59999399792E+03 0.  0.
        1    1    3    3  502    0 -0.18621449651E+03  0.15631281060E+03  0.15862050191E+03  0.29029295052E+03  0.50400001928E-02 0.  1.
       -1    1    3    3    0  502  0.18621449651E+03 -0.15631281060E+03  0.84227563139E+03  0.87666286150E+03  0.50400001928E-02 0. -1.
</event>
<event>
 5   0  0.5819446E-03  0.5998596E+03  0.7818609E-02  0.9905697E-01
       -1   -1    0    0    0  501  0.00000000000E+00  0.00000000000E+00  0.29003686820E+03  0.29003686824E+03  0.50400001928E-02 0.  1.
        1   -1    0    0  501    0  0.00000000000E+00  0.00000000000E+00 -0.31016020030E+03  0.31016020034E+03  0.50400001928E-02 0. -1.
    10030    2    1    2    0    0  0.00000000000E+00  0.00000000000E+00 -0.20123332098E+02  0.60019706858E+03  0.59985962744E+03 0.  0.
        5    1    3    3  502    0  0.11593827499E+03  0.19762042044E+02  0.26596229479E+03  0.29084403752E+03  0.46999998093E+01 0.  1.
       -5    1    3    3    0  502 -0.11593827499E+03 -0.19762042044E+02 -0.28608562689E+03  0.30935303106E+03  0.46999998093E+01 0. -1.
</event>
<event>
 5   0  0.5765045E-03  0.5999763E+03  0.7818609E-02  0.9905455E-01
       -1   -1    0    0    0  501  0.00000000000E+00  0.00000000000E+00  0.32907898894E+03  0.32907898898E+03  0.50400001928E-02 0. -1.
        1   -1    0    0  501    0  0.00000000000E+00  0.00000000000E+00 -0.27346893045E+03  0.27346893050E+03  0.50400001928E-02 0.  1.
    10030    2    1    2    0    0  0.00000000000E+00  0.00000000000E+00  0.55610058493E+02  0.60254791948E+03  0.59997626341E+03 0.  0.
        1    1    3    3  502    0 -0.25502680082E+03  0.88520975122E+02  0.15920254856E+03  0.31340083546E+03  0.50400001928E-02 0. -1.
       -1    1    3    3    0  502  0.25502680082E+03 -0.88520975122E+02 -0.10359249007E+03  0.28914708402E+03  0.50400001928E-02 0.  1.
</event>
<event>
 5   0  0.5765045E-03  0.6009305E+03  0.7818609E-02  0.9903478E-01
       -1   -1    0    0    0  501  0.00000000000E+00  0.00000000000E+00  0.80222166702E+02  0.80222166861E+02  0.50400001928E-02 0. -1.
        1   -1    0    0  501    0  0.00000000000E+00  0.00000000000E+00 -0.11253667010E+04  0.11253667010E+04  0.50400001928E-02 0.  1.
    10030    2    1    2    0    0  0.00000000000E+00  0.00000000000E+00 -0.10451445343E+04  0.12055888678E+04  0.60093046250E+03 0.  0.
        1    1    3    3  502    0 -0.19204879192E+03  0.21647828140E+03 -0.68473719855E+03  0.74337784194E+03  0.50400001928E-02 0.  1.
       -1    1    3    3    0  502  0.19204879192E+03 -0.21647828140E+03 -0.36040733573E+03  0.46221102590E+03  0.50400001928E-02 0. -1.
</event>
<event>
 5   0  0.5819446E-03  0.5996383E+03  0.7818609E-02  0.9906157E-01
       -1   -1    0    0    0  501  0.00000000000E+00  0.00000000000E+00  0.14556917393E+03  0.14556917402E+03  0.50400001928E-02 0. -1.
        1   -1    0    0  501    0  0.00000000000E+00  0.00000000000E+00 -0.61751756196E+03  0.61751756198E+03  0.50400001928E-02 0.  1.
    10030    2    1    2    0    0  0.00000000000E+00  0.00000000000E+00 -0.47194838802E+03  0.76308673600E+03  0.59963829572E+03 0.  0.
        5    1    3    3  502    0  0.26942580854E+03  0.88326738257E+02 -0.11208522431E+03  0.30492141038E+03  0.46999998093E+01 0. -1.
       -5    1    3    3    0  502 -0.26942580854E+03 -0.88326738257E+02 -0.35986316372E+03  0.45816532562E+03  0.46999998093E+01 0.  1.
</event>
<event>
 5   0  0.9303190E-03  0.6004007E+03  0.7818609E-02  0.9904575E-01
       -2   -1    0    0    0  501  0.00000000000E+00  0.00000000000E+00  0.10318863061E+03  0.10318863064E+03  0.25500000920E-02 0.  1.
        2   -1    0    0  501    0  0.00000000000E+00  0.00000000000E+00 -0.87335458909E+03  0.87335458910E+03  0.25500000920E-02 0. -1.
    10030    2    1    2    0    0  0.00000000000E+00  0.00000000000E+00 -0.77016595849E+03  0.97654321973E+03  0.60040074650E+03 0.  0.
        4    1    3    3  502    0 -0.20466466964E+03  0.14637851842E+03 -0.65137178764E+03  0.69828440931E+03  0.12699999809E+01 0.  1.
       -4    1    3    3    0  502  0.20466466964E+03 -0.14637851842E+03 -0.11879417085E+03  0.27825881043E+03  0.12699999809E+01 0. -1.
</event>
<event>
 5   0  0.9822607E-03  0.5998920E+03  0.7818609E-02  0.9905630E-01
        2   -1    0    0  501    0  0.00000000000E+00  0.00000000000E+00  0.92307427899E+03  0.92307427900E+03  0.25500000920E-02 0. -1.
       -2   -1    0    0    0  501  0.00000000000E+00  0.00000000000E+00 -0.97465189085E+02  0.97465189118E+02  0.25500000920E-02 0.  1.
    10030    2    1    2    0    0  0.00000000000E+00  0.00000000000E+00  0.82560908991E+03  0.10205394681E+04  0.59989202082E+03 0.  0.
        3    1    3    3  502    0 -0.17862907586E+03  0.66393023726E+02  0.18758915240E+02  0.19148965362E+03  0.10100000352E+00 0.  1.
       -3    1    3    3    0  502  0.17862907586E+03 -0.66393023726E+02  0.80685017467E+03  0.82904981449E+03  0.10100000352E+00 0. -1.
</event>
<event>
 5   0  0.9391405E-03  0.6003137E+03  0.7818609E-02  0.9904755E-01
       -2   -1    0    0    0  501  0.00000000000E+00  0.00000000000E+00  0.13675624690E+03  0.13675624693E+03  0.25500000920E-02 0.  1.
        2   -1    0    0  501    0  0.00000000000E+00  0.00000000000E+00 -0.65879359957E+03  0.65879359957E+03  0.25500000920E-02 0. -1.
    10030    2    1    2    0    0  0.00000000000E+00  0.00000000000E+00 -0.52203735267E+03  0.79554984650E+03  0.60031371856E+03 0.  0.
        2    1    3    3  502    0 -0.27533686963E+03  0.10760944039E+03 -0.19210760582E+03  0.35255569157E+03  0.25500000920E-02 0. -1.
       -2    1    3    3    0  502  0.27533686963E+03 -0.10760944039E+03 -0.32992974684E+03  0.44299415493E+03  0.25500000920E-02 0.  1.
</event>
<event>
 5   0  0.9028473E-03  0.5982805E+03  0.7818609E-02  0.9908980E-01
       -2   -1    0    0    0  501  0.00000000000E+00  0.00000000000E+00  0.32016824026E+03  0.32016824027E+03  0.25500000920E-02 0. -1.
        2   -1    0    0  501    0  0.00000000000E+00  0.00000000000E+00 -0.27949329205E+03  0.27949329206E+03  0.25500000920E-02 0.  1.
    10030    2    1    2    0    0  0.00000000000E+00  0.00000000000E+00  0.40674948203E+02  0.59966153233E+03  0.59828045426E+03 0.  0.
        1    1    3    3  502    0 -0.17726913113E+03 -0.36049211363E+02 -0.21845813509E+03  0.28363329724E+03  0.50400001928E-02 0.  1.
       -1    1    3    3    0  502  0.17726913113E+03  0.36049211363E+02  0.25913308329E+03  0.31602823509E+03  0.50400001928E-02 0. -1.
</event>
<event>
 5   0  0.9162342E-03  0.5990515E+03  0.7818609E-02  0.9907376E-01
       -2   -1    0    0    0  501  0.00000000000E+00  0.00000000000E+00  0.29021510531E+03  0.29021510532E+03  0.25500000920E-02 0. -1.
        2   -1    0    0  501    0  0.00000000000E+00  0.00000000000E+00 -0.30913511224E+03  0.30913511225E+03  0.25500000920E-02 0.  1.
    10030    2    1    2    0    0  0.00000000000E+00  0.00000000000E+00 -0.18920006928E+02  0.59935021756E+03  0.59905151417E+03 0.  0.
        5    1    3    3  502    0 -0.11959220302E+03  0.21313210771E+03 -0.18265321920E+03  0.30514239109E+03  0.46999998093E+01 0.  1.
       -5    1    3    3    0  502  0.11959220302E+03 -0.21313210771E+03  0.16373321227E+03  0.29420782647E+03  0.46999998093E+01 0. -1.
</event>
<event>
 5   0  0.9822607E-03  0.5994157E+03  0.7818609E-02  0.9906619E-01
        2   -1    0    0  501    0  0.00000000000E+00  0.00000000000E+00  0.16001030091E+04  0.16001030091E+04  0.25500000920E-02 0.  1.
       -2   -1    0    0    0  501  0.00000000000E+00  0.00000000000E+00 -0.56136879396E+02  0.56136879454E+02  0.25500000920E-02 0. -1.
    10030    2    1    2    0    0  0.00000000000E+00  0.00000000000E+00  0.15439661297E+04  0.16562398886E+04  0.59941568112E+03 0.  0.
        3    1    3    3  502    0 -0.15457811501E+03 -0.14373806769E+03  0.13598773057E+04  0.13761618083E+04  0.10100000352E+00 0.  1.
       -3    1    3    3    0  502  0.15457811501E+03  0.14373806769E+03  0.18408882403E+03  0.28007808032E+03  0.10100000352E+00 0. -1.
</event>
<event>
 5   0  0.5765045E-03  0.5960715E+03  0.7818609E-02  0.9913590E-01
       -1   -1    0    0    0  501  0.00000000000E+00  0.00000000000E+00  0.20287551678E+03  0.20287551684E+03  0.50400001928E-02 0.  1.
        1   -1    0    0  501    0  0.00000000000E+00  0.00000000000E+00 -0.43783155935E+03  0.43783155938E+03  0.50400001928E-02 0. -1.
    10030    2    1    2    0    0  0.00000000000E+00  0.00000000000E+00 -0.23495604257E+03  0.64070707622E+03  0.59607148529E+03 0.  0.
        1    1    3    3  502    0 -0.11246848600E+03  0.10103609349E+03  0.15859714553E+03  0.21911300081E+03  0.50400001928E-02 0.  1.
       -1    1    3    3    0  502  0.11246848600E+03 -0.10103609349E+03 -0.39355318810E+03  0.42159407541E+03  0.50400001928E-02 0. -1.
</event>
<event>
 5   0  0.5790967E-03  0.6002513E+03  0.7818609E-02  0.9904885E-01
       -1   -1    0    0    0  501  0.00000000000E+00  0.00000000000E+00  0.99952015525E+02  0.99952015652E+02  0.50400001928E-02 0.  1.
        1   -1    0    0  501    0  0.00000000000E+00  0.00000000000E+00 -0.90118648272E+03  0.90118648274E+03  0.50400001928E-02 0. -1.
    10030    2    1    2    0    0  0.00000000000E+00  0.00000000000E+00 -0.80123446720E+03  0.10011384984E+04  0.60025129865E+03 0.  0.
        3    1    3    3  502    0 -0.10793960887E+03  0.24497166520E+03 -0.17429506508E+03  0.31943834433E+03  0.10100000352E+00 0.  1.
       -3    1    3    3    0  502  0.10793960887E+03 -0.24497166520E+03 -0.62693940211E+03  0.68170015406E+03  0.10100000352E+00 0. -1.
</event>
<event>
 5   0  0.5819446E-03  0.5963981E+03  0.7818609E-02  0.9912907E-01
        1   -1    0    0  501    0  0.00000000000E+00  0.00000000000E+00  0.23482770479E+03  0.23482770484E+03  0.50400001928E-02 0. -1.
       -1   -1    0    0    0  501  0.00000000000E+00  0.00000000000E+00 -0.37867199015E+03  0.37867199019E+03  0.50400001928E-02 0.  1.
    10030    2    1    2    0    0  0.00000000000E+00  0.00000000000E+00 -0.14384428536E+03  0.61349969503E+03  0.59639810309E+03 0.  0.
        5    1    3    3  502    0 -0.84370668056E+02 -0.13446602361E+03  0.18770580375E+03  0.24587614747E+03  0.46999998093E+01 0. -1.
       -5    1    3    3    0  502  0.84370668056E+02  0.13446602361E+03 -0.33155008912E+03  0.36762354756E+03  0.46999998093E+01 0.  1.
</event>
<event>
 5   0  0.5790967E-03  0.6000830E+03  0.7818609E-02  0.9905234E-01
       -1   -1    0    0    0  501  0.00000000000E+00  0.00000000000E+00  0.39701791671E+03  0.39701791674E+03  0.50400001928E-02 0.  1.
        1   -1    0    0  501    0  0.00000000000E+00  0.00000000000E+00 -0.22675271089E+03  0.22675271095E+03  0.50400001928E-02 0. -1.
    10030    2    1    2    0    0  0.00000000000E+00  0.00000000000E+00  0.17026520581E+03  0.62377062769E+03  0.60008295731E+03 0.  0.
        3    1    3    3  502    0 -0.29804372861E+03 -0.94848595074E+00  0.49215581110E+02  0.30208135893E+03  0.10100000352E+00 0.  1.
       -3    1    3    3    0  502  0.29804372861E+03  0.94848595074E+00  0.12104962470E+03  0.32168926876E+03  0.10100000352E+00 0. -1.
</event>
<event>
 5   0  0.9391405E-03  0.6008269E+03  0.7818609E-02  0.9903692E-01
       -2   -1    0    0    0  501  0.00000000000E+00  0.00000000000E+00  0.20704296091E+03  0.20704296092E+03  0.25500000920E-02 0. -1.
        2   -1    0    0  501    0  0.00000000000E+00  0.00000000000E+00 -0.43589134236E+03  0.43589134236E+03  0.25500000920E-02 0.  1.
    10030    2    1    2    0    0  0.00000000000E+00  0.00000000000E+00 -0.22884838145E+03  0.64293430329E+03  0.60082687744E+03 0.  0.
        2    1    3    3  502    0 -0.48432097819E+02  0.76186576129E+02  0.19218416661E+03  0.21233185437E+03  0.25500000920E-02 0. -1.
       -2    1    3    3    0  502  0.48432097819E+02 -0.76186576129E+02 -0.42103254806E+03  0.43060244891E+03  0.25500000920E-02 0.  1.
</event>
<event>
 5   0  0.9822607E-03  0.5997554E+03  0.7818609E-02  0.9905914E-01
       -2   -1    0    0    0  501  0.00000000000E+00  0.00000000000E+00  0.64976496242E+02  0.64976496292E+02  0.25500000920E-02 0. -1.
        2   -1    0    0  501    0  0.00000000000E+00  0.00000000000E+00 -0.13839869080E+04  0.13839869080E+04  0.25500000920E-02 0.  1.
    10030    2    1    2    0    0  0.00000000000E+00  0.00000000000E+00 -0.13190104118E+04  0.14489634043E+04  0.59975535068E+03 0.  0.
        3    1    3    3  502    0 -0.12486639124E+02 -0.27828566546E+03 -0.39126383358E+03  0.48029805894E+03  0.10100000352E+00 0. -1.
       -3    1    3    3    0  502  0.12486639124E+02  0.27828566546E+03 -0.92774657821E+03  0.96866534538E+03  0.10100000352E+00 0.  1.
</event>
<event>
 5   0  0.5790967E-03  0.5994156E+03  0.7818609E-02  0.9906619E-01
       -1   -1    0    0    0  501  0.00000000000E+00  0.00000000000E+00  0.25769680574E+03  0.25769680579E+03  0.50400001928E-02 0. -1.
        1   -1    0    0  501    0  0.00000000000E+00  0.00000000000E+00 -0.34856758729E+03  0.34856758732E+03  0.50400001928E-02 0.  1.
    10030    2    1    2    0    0  0.00000000000E+00  0.00000000000E+00 -0.90870781548E+02  0.60626439311E+03  0.59941556154E+03 0.  0.
        3    1    3    3  502    0  0.19789604577E+03  0.19240598554E+03  0.72697396755E+02  0.28542569944E+03  0.10100000352E+00 0.  1.
       -3    1    3    3    0  502 -0.19789604577E+03 -0.19240598554E+03 -0.16356817830E+03  0.32083869367E+03  0.10100000352E+00 0. -1.
</event>
<event>
 5   0  0.6078658E-03  0.6000112E+03  0.7818609E-02  0.9905383E-01
       -1   -1    0    0    0  501  0.00000000000E+00  0.00000000000E+00  0.26631246106E+03  0.26631246111E+03  0.50400001928E-02 0.  1.
        1   -1    0    0  501    0  0.00000000000E+00  0.00000000000E+00 -0.33796152097E+03  0.33796152101E+03  0.50400001928E-02 0. -1.
    10030    2    1    2    0    0  0.00000000000E+00  0.00000000000E+00 -0.71649059904E+02  0.60427398212E+03  0.60001121463E+03 0.  0.
        2    1    3    3  502    0 -0.61136993037E+02 -0.37943406811E+02  0.25749355685E+03  0.26735812287E+03  0.25500000920E-02 0.  1.
       -2    1    3    3    0  502  0.61136993037E+02  0.37943406811E+02 -0.32914261676E+03  0.33691585924E+03  0.25500000920E-02 0. -1.
</event>
<event>
 5   0  0.9391405E-03  0.5877937E+03  0.7818609E-02  0.9931059E-01
       -2   -1    0    0    0  501  0.00000000000E+00  0.00000000000E+00  0.82862079343E+02  0.82862079382E+02  0.25500000920E-02 0.  1.
        2   -1    0    0  501    0  0.00000000000E+00  0.00000000000E+00 -0.10423991242E+04  0.10423991242E+04  0.25500000920E-02 0. -1.
    10030    2    1    2    0    0  0.00000000000E+00  0.00000000000E+00 -0.95953704489E+03  0.11252612036E+04  0.58779370178E+03 0.  0.
        2    1    3    3  502    0 -0.14378868455E+03 -0.18527578357E+03 -0.14068488144E+03  0.27348590028E+03  0.25500000920E-02 0.  1.
       -2    1    3    3    0  502  0.14378868455E+03  0.18527578357E+03 -0.81885216344E+03  0.85177530333E+03  0.25500000920E-02 0. -1.
</event>
<event>
 5   0  0.6078658E-03  0.6005549E+03  0.7818609E-02  0.9904255E-01
        1   -1    0    0  501    0  0.00000000000E+00  0.00000000000E+00  0.25708697956E+03  0.25708697961E+03  0.50400001928E-02 0. -1.
       -1   -1    0    0    0  501  0.00000000000E+00  0.00000000000E+00 -0.35072393829E+03  0.35072393833E+03  0.50400001928E-02 0.  1.
    10030    2    1    2    0    0  0.00000000000E+00  0.00000000000E+00 -0.93636958732E+02  0.60781091794E+03  0.60055493664E+03 0.  0.
        2    1    3    3  502    0  0.15953167309E+03 -0.22408763110E+03 -0.16869324292E+03  0.32268100556E+03  0.25500000920E-02 0.  1.
       -2    1    3    3    0  502 -0.15953167309E+03  0.22408763110E+03  0.75056284193E+02  0.28512991238E+03  0.25500000920E-02 0. -1.
</event>
<event>
 5   0  0.3806250E-03  0.6001869E+03  0.7818609E-02  0.9905018E-01
       -3   -1    0    0    0  501  0.00000000000E+00  0.00000000000E+00  0.14527273371E+04  0.14527273406E+04  0.10100000352E+00 0.  1.
        3   -1    0    0  501    0  0.00000000000E+00  0.00000000000E+00 -0.61990987100E+02  0.61991069378E+02  0.10100000352E+00 0. -1.
    10030    2    1    2    0    0  0.00000000000E+00  0.00000000000E+00  0.13907363500E+04  0.15147184100E+04  0.60018685952E+03 0.  0.
        2    1    3    3  502    0 -0.20874357551E+03  0.12818139630E+03  0.11328701908E+04  0.11590509997E+04  0.25500000920E-02 0.  1.
       -2    1    3    3    0  502  0.20874357551E+03 -0.12818139630E+03  0.25786615916E+03  0.35566741026E+03  0.25500000920E-02 0. -1.
</event>
<event>
 5   0  0.9028473E-03  0.6023447E+03  0.7818609E-02  0.9900554E-01
       -2   -1    0    0    0  501  0.00000000000E+00  0.00000000000E+00  0.30913399433E+03  0.30913399434E+03  0.25500000920E-02 0. -1.
        2   -1    0    0  501    0  0.00000000000E+00  0.00000000000E+00 -0.29341571730E+03  0.29341571732E+03  0.25500000920E-02 0.  1.
    10030    2    1    2    0    0  0.00000000000E+00  0.00000000000E+00  0.15718277024E+02  0.60254971166E+03  0.60234466112E+03 0.  0.
        1    1    3    3  502    0  0.18043680769E+03  0.44216159063E+02 -0.22927062954E+03  0.29508902367E+03  0.50400001928E-02 0.  1.
       -1    1    3    3    0  502 -0.18043680769E+03 -0.44216159063E+02  0.24498890657E+03  0.30746068799E+03  0.50400001928E-02 0. -1.
</event>
<event>
 5   0  0.6078658E-03  0.6038116E+03  0.7818609E-02  0.9897530E-01
       -1   -1    0    0    0  501  0.00000000000E+00  0.00000000000E+00  0.26388970240E+03  0.26388970245E+03  0.50400001928E-02 0. -1.
        1   -1    0    0  501    0  0.00000000000E+00  0.00000000000E+00 -0.34539851850E+03  0.34539851854E+03  0.50400001928E-02 0.  1.
    10030    2    1    2    0    0  0.00000000000E+00  0.00000000000E+00 -0.81508816098E+02  0.60928822098E+03  0.60381160069E+03 0.  0.
        2    1    3    3  502    0 -0.16838644459E+03  0.51466323330E+02  0.20671338983E+03  0.27153858419E+03  0.25500000920E-02 0. -1.
       -2    1    3    3    0  502  0.16838644459E+03 -0.51466323330E+02 -0.28822220593E+03  0.33774963680E+03  0.25500000920E-02 0.  1.
</event>
<event>
 5   0  0.5765045E-03  0.5995047E+03  0.7818609E-02  0.9906434E-01
        1   -1    0    0  501    0  0.00000000000E+00  0.00000000000E+00  0.38514944015E+03  0.38514944018E+03  0.50400001928E-02 0. -1.
       -1   -1    0    0    0  501  0.00000000000E+00  0.00000000000E+00 -0.23328986678E+03  0.23328986684E+03  0.50400001928E-02 0.  1.
    10030    2    1    2    0    0  0.00000000000E+00  0.00000000000E+00  0.15185957336E+03  0.61843930702E+03  0.59950466758E+03 0.  0.
        1    1    3    3  502    0  0.23470299351E+02  0.11909947728E+02  0.38395518331E+03  0.38485618693E+03  0.50400001928E-02 0. -1.
       -1    1    3    3    0  502 -0.23470299351E+02 -0.11909947728E+02 -0.23209560995E+03  0.23358312008E+03  0.50400001928E-02 0.  1.
</event>
<event>
 5   0  0.6078658E-03  0.5986967E+03  0.7818609E-02  0.9908114E-01
        1   -1    0    0  501    0  0.00000000000E+00  0.00000000000E+00  0.45498085465E+03  0.45498085468E+03  0.50400001928E-02 0. -1.
       -1   -1    0    0    0  501  0.00000000000E+00  0.00000000000E+00 -0.19695209401E+03  0.19695209407E+03  0.50400001928E-02 0.  1.
    10030    2    1    2    0    0  0.00000000000E+00  0.00000000000E+00  0.25802876064E+03  0.65193294875E+03  0.59869669144E+03 0.  0.
        2    1    3    3  502    0  0.22753410505E+02 -0.18524562241E+02  0.45341129725E+03  0.45435963903E+03  0.25500000920E-02 0. -1.
       -2    1    3    3    0  502 -0.22753410505E+02  0.18524562241E+02 -0.19538253661E+03  0.19757330972E+03  0.25500000920E-02 0.  1.
</event>
<event>
 5   0  0.9028473E-03  0.6014822E+03  0.7818609E-02  0.9902336E-01
        2   -1    0    0  501    0  0.00000000000E+00  0.00000000000E+00  0.39565015845E+03  0.39565015846E+03  0.25500000920E-02 0. -1.
       -2   -1    0    0    0  501  0.00000000000E+00  0.00000000000E+00 -0.22859893350E+03  0.22859893351E+03  0.25500000920E-02 0.  1.
    10030    2    1    2    0    0  0.00000000000E+00  0.00000000000E+00  0.16705122495E+03  0.62424909197E+03  0.60148218350E+03 0.  0.
        1    1    3    3  502    0 -0.20750590193E+03 -0.21540692913E+03  0.50930473903E+02  0.30340197370E+03  0.50400001928E-02 0.  1.
       -1    1    3    3    0  502  0.20750590193E+03  0.21540692913E+03  0.11612075105E+03  0.32084711827E+03  0.50400001928E-02 0. -1.
</event>
<event>
 5   0  0.9162342E-03  0.5970362E+03  0.7818609E-02  0.9911574E-01
       -2   -1    0    0    0  501  0.00000000000E+00  0.00000000000E+00  0.28231699864E+03  0.28231699866E+03  0.25500000920E-02 0. -1.
        2   -1    0    0  501    0  0.00000000000E+00  0.00000000000E+00 -0.31564896288E+03  0.31564896289E+03  0.25500000920E-02 0.  1.
    10030    2    1    2    0    0  0.00000000000E+00  0.00000000000E+00 -0.33331964237E+02  0.59796596155E+03  0.59703623954E+03 0.  0.
        5    1    3    3  502    0  0.57076904519E+02  0.67771852376E+02 -0.30213646558E+03  0.31489574598E+03  0.46999998093E+01 0.  1.
       -5    1    3    3    0  502 -0.57076904519E+02 -0.67771852376E+02  0.26880450134E+03  0.28307021557E+03  0.46999998093E+01 0. -1.
</event>
<event>
 5   0  0.5790967E-03  0.5995201E+03  0.7818609E-02  0.9906402E-01
       -1   -1    0    0    0  501  0.00000000000E+00  0.00000000000E+00  0.35608455770E+03  0.35608455773E+03  0.50400001928E-02 0. -1.
        1   -1    0    0  501    0  0.00000000000E+00  0.00000000000E+00 -0.25234480264E+03  0.25234480269E+03  0.50400001928E-02 0.  1.
    10030    2    1    2    0    0  0.00000000000E+00  0.00000000000E+00  0.10373975506E+03  0.60842936042E+03  0.59952009961E+03 0.  0.
        3    1    3    3  502    0  0.27994148893E+03  0.27661376173E+02 -0.53224263857E+02  0.28629568880E+03  0.10100000352E+00 0.  1.
       -3    1    3    3    0  502 -0.27994148893E+03 -0.27661376173E+02  0.15696401892E+03  0.32213367162E+03  0.10100000352E+00 0. -1.
</event>
<event>
 5   0  0.9303190E-03  0.5989948E+03  0.7818609E-02  0.9907494E-01
       -2   -1    0    0    0  501  0.00000000000E+00  0.00000000000E+00  0.53326466474E+02  0.53326466535E+02  0.25500000920E-02 0. -1.
        2   -1    0    0  501    0  0.00000000000E+00  0.00000000000E+00 -0.16820672703E+04  0.16820672703E+04  0.25500000920E-02 0.  1.
    10030    2    1    2    0    0  0.00000000000E+00  0.00000000000E+00 -0.16287408039E+04  0.17353937369E+04  0.59899483789E+03 0.  0.
        4    1    3    3  502    0 -0.16088201517E+02 -0.54138986529E+02  0.37750368665E+02  0.67945296561E+02  0.12699999809E+01 0. -1.
       -4    1    3    3    0  502  0.16088201517E+02  0.54138986529E+02 -0.16664911725E+04  0.16674484403E+04  0.12699999809E+01 0.  1.
</event>
<event>
 5   0  0.5891927E-03  0.5983391E+03  0.7818609E-02  0.9908858E-01
       -1   -1    0    0    0  501  0.00000000000E+00  0.00000000000E+00  0.41741777704E+03  0.41741777707E+03  0.50400001928E-02 0.  1.
        1   -1    0    0  501    0  0.00000000000E+00  0.00000000000E+00 -0.21441929907E+03  0.21441929913E+03  0.50400001928E-02 0. -1.
    10030    2    1    2    0    0  0.00000000000E+00  0.00000000000E+00  0.20299847797E+03  0.63183707621E+03  0.59833912525E+03 0.  0.
        4    1    3    3  502    0 -0.21933190321E+02  0.23838136348E+03 -0.87973040635E+02  0.25504432570E+03  0.12699999809E+01 0. -1.
       -4    1    3    3    0  502  0.21933190321E+02 -0.23838136348E+03  0.29097151860E+03  0.37679275050E+03  0.12699999809E+01 0.  1.
</event>
<event>
 5   0  0.5819446E-03  0.6139178E+03  0.7818609E-02  0.9876944E-01
       -1   -1    0    0    0  501  0.00000000000E+00  0.00000000000E+00  0.52570032984E+02  0.52570033226E+02  0.50400001928E-02 0. -1.
        1   -1    0    0  501    0  0.00000000000E+00  0.00000000000E+00 -0.17923474889E+04  0.17923474889E+04  0.50400001928E-02 0.  1.
    10030    2    1    2    0    0  0.00000000000E+00  0.00000000000E+00 -0.17397774559E+04  0.18449175221E+04  0.61391780180E+03 0.  0.
        5    1    3    3  502    0 -0.12184675438E+02  0.24689802608E+03 -0.14165837690E+04  0.14379981802E+04  0.46999998093E+01 0.  1.
       -5    1    3    3    0  502  0.12184675438E+02 -0.24689802608E+03 -0.32319368692E+03  0.40691934196E+03  0.46999998093E+01 0. -1.
</event>
<event>
 5   0  0.6078658E-03  0.5997431E+03  0.7818609E-02  0.9905939E-01
        1   -1    0    0  501    0  0.00000000000E+00  0.00000000000E+00  0.20326372798E+03  0.20326372804E+03  0.50400001928E-02 0. -1.
       -1   -1    0    0    0  501  0.00000000000E+00  0.00000000000E+00 -0.44239547194E+03  0.44239547197E+03  0.50400001928E-02 0.  1.
    10030    2    1    2    0    0  0.00000000000E+00  0.00000000000E+00 -0.23913174396E+03  0.64565920001E+03  0.59974312134E+03 0.  0.
        2    1    3    3  502    0 -0.17509530651E+02  0.17281856857E+03  0.14358658449E+03  0.22536625426E+03  0.25500000920E-02 0. -1.
       -2    1    3    3    0  502  0.17509530651E+02 -0.17281856857E+03 -0.38271832845E+03  0.42029294575E+03  0.25500000920E-02 0.  1.
</event>
<event>
 5   0  0.6078658E-03  0.6028129E+03  0.7818609E-02  0.9899587E-01
       -1   -1    0    0    0  501  0.00000000000E+00  0.00000000000E+00  0.12787934755E+03  0.12787934765E+03  0.50400001928E-02 0. -1.
        1   -1    0    0  501    0  0.00000000000E+00  0.00000000000E+00 -0.71040292521E+03  0.71040292523E+03  0.50400001928E-02 0.  1.
    10030    2    1    2    0    0  0.00000000000E+00  0.00000000000E+00 -0.58252357766E+03  0.83828227288E+03  0.60281294818E+03 0.  0.
        2    1    3    3  502    0 -0.24549122571E+03 -0.17486463433E+03 -0.29336174892E+03  0.42060040178E+03  0.25500000920E-02 0.  1.
       -2    1    3    3    0  502  0.24549122571E+03  0.17486463433E+03 -0.28916182874E+03  0.41768187110E+03  0.25500000920E-02 0. -1.
</event>
<event>
 5   0  0.5819446E-03  0.6098702E+03  0.7818609E-02  0.9885138E-01
        1   -1    0    0  501    0  0.00000000000E+00  0.00000000000E+00  0.15454344589E+04  0.15454344589E+04  0.50400001928E-02 0.  1.
       -1   -1    0    0    0  501  0.00000000000E+00  0.00000000000E+00 -0.60167807920E+02  0.60167808131E+02  0.50400001928E-02 0. -1.
    10030    2    1    2    0    0  0.00000000000E+00  0.00000000000E+00  0.14852666510E+04  0.16056022670E+04  0.60987016274E+03 0.  0.
        5    1    3    3  502    0  0.15999495176E+03  0.16297021101E+03  0.21081820508E+03  0.31084414078E+03  0.46999998093E+01 0. -1.
       -5    1    3    3    0  502 -0.15999495176E+03 -0.16297021101E+03  0.12744484459E+04  0.12947581262E+04  0.46999998093E+01 0.  1.
</event>
<event>
 5   0  0.5819446E-03  0.6004747E+03  0.7818609E-02  0.9904422E-01
       -1   -1    0    0    0  501  0.00000000000E+00  0.00000000000E+00  0.56318817598E+03  0.56318817601E+03  0.50400001928E-02 0.  1.
        1   -1    0    0  501    0  0.00000000000E+00  0.00000000000E+00 -0.16005745003E+03  0.16005745011E+03  0.50400001928E-02 0. -1.
    10030    2    1    2    0    0  0.00000000000E+00  0.00000000000E+00  0.40313072595E+03  0.72324562612E+03  0.60047469013E+03 0.  0.
        5    1    3    3  502    0 -0.14101486494E+03  0.23250231141E+03  0.35476283458E+03  0.44701373104E+03  0.46999998093E+01 0.  1.
       -5    1    3    3    0  502  0.14101486494E+03 -0.23250231141E+03  0.48367891377E+02  0.27623189508E+03  0.46999998093E+01 0. -1.
</event>
<event>
 5   0  0.6078658E-03  0.5993874E+03  0.7818609E-02  0.9906678E-01
       -1   -1    0    0    0  501  0.00000000000E+00  0.00000000000E+00  0.40032197055E+02  0.40032197372E+02  0.50400001928E-02 0. -1.
        1   -1    0    0  501    0  0.00000000000E+00  0.00000000000E+00 -0.22436015993E+04  0.22436015993E+04  0.50400001928E-02 0.  1.
    10030    2    1    2    0    0  0.00000000000E+00  0.00000000000E+00 -0.22035694022E+04  0.22836337967E+04  0.59938735958E+03 0.  0.
        2    1    3    3  502    0 -0.57036091461E+02 -0.14706458931E+03 -0.13091947039E+03  0.20499028487E+03  0.25500000920E-02 0. -1.
       -2    1    3    3    0  502  0.57036091461E+02  0.14706458931E+03 -0.20726499319E+04  0.20786435118E+04  0.25500000920E-02 0.  1.
</event>
<event>
 5   0  0.3806250E-03  0.6011949E+03  0.7818609E-02  0.9902930E-01
        4   -1    0    0  501    0  0.00000000000E+00  0.00000000000E+00  0.89829508551E+03  0.89829598326E+03  0.12699999809E+01 0.  1.
       -4   -1    0    0    0  501  0.00000000000E+00  0.00000000000E+00 -0.10058427721E+03  0.10059229454E+03  0.12699999809E+01 0. -1.
    10030    2    1    2    0    0  0.00000000000E+00  0.00000000000E+00  0.79771080830E+03  0.99888827780E+03  0.60119485847E+03 0.  0.
        1    1    3    3  502    0  0.25403680489E+03 -0.27334815053E+02  0.13574453366E+03  0.28932415869E+03  0.50400001928E-02 0. -1.
       -1    1    3    3    0  502 -0.25403680489E+03  0.27334815053E+02  0.66196627464E+03  0.70956411912E+03  0.50400001928E-02 0.  1.
</event>
<event>
 5   0  0.3806250E-03  0.6050951E+03  0.7818609E-02  0.9894891E-01
       -3   -1    0    0    0  501  0.00000000000E+00  0.00000000000E+00  0.82463834050E+03  0.82463834669E+03  0.10100000352E+00 0. -1.
        3   -1    0    0  501    0  0.00000000000E+00  0.00000000000E+00 -0.11100016868E+03  0.11100021463E+03  0.10100000352E+00 0.  1.
    10030    2    1    2    0    0  0.00000000000E+00  0.00000000000E+00  0.71363817182E+03  0.93563856131E+03  0.60509509759E+03 0.  0.
        3    1    3    3  502    0 -0.51552607851E+02  0.29447936025E+03  0.28496766714E+03  0.41301615768E+03  0.10100000352E+00 0. -1.
       -3    1    3    3    0  502  0.51552607851E+02 -0.29447936025E+03  0.42867050468E+03  0.52262240363E+03  0.10100000352E+00 0.  1.
</event>
<event>
 5   0  0.3806250E-03  0.6004769E+03  0.7818609E-02  0.9904417E-01
        4   -1    0    0  501    0  0.00000000000E+00  0.00000000000E+00  0.49899269855E+03  0.49899431470E+03  0.12699999809E+01 0. -1.
       -4   -1    0    0    0  501  0.00000000000E+00  0.00000000000E+00 -0.18064604169E+03  0.18065050589E+03  0.12699999809E+01 0.  1.
    10030    2    1    2    0    0  0.00000000000E+00  0.00000000000E+00  0.31834665686E+03  0.67964482059E+03  0.60047688401E+03 0.  0.
        2    1    3    3  502    0 -0.51368497986E+02 -0.11378196714E+03  0.46822637399E+03  0.48458332198E+03  0.25500000920E-02 0. -1.
       -2    1    3    3    0  502  0.51368497986E+02  0.11378196714E+03 -0.14987971713E+03  0.19506149862E+03  0.25500000920E-02 0.  1.
</event>
<event>
 5   0  0.9028473E-03  0.6166867E+03  0.7818609E-02  0.9871379E-01
        2   -1    0    0  501    0  0.00000000000E+00  0.00000000000E+00  0.21178118627E+04  0.21178118627E+04  0.25500000920E-02 0. -1.
       -2   -1    0    0    0  501  0.00000000000E+00  0.00000000000E+00 -0.44893331886E+02  0.44893331959E+02  0.25500000920E-02 0.  1.
    10030    2    1    2    0    0  0.00000000000E+00  0.00000000000E+00  0.20729185308E+04  0.21627051946E+04  0.61668673053E+03 0.  0.
        1    1    3    3  502    0 -0.49110895802E+02 -0.19932699317E+03  0.22960718112E+03  0.30799770768E+03  0.50400001928E-02 0.  1.
       -1    1    3    3    0  502  0.49110895802E+02  0.19932699317E+03  0.18433113497E+04  0.18547074869E+04  0.50400001928E-02 0. -1.
</event>
<event>
 5   0  0.5819446E-03  0.6004943E+03  0.7818609E-02  0.9904381E-01
       -1   -1    0    0    0  501  0.00000000000E+00  0.00000000000E+00  0.54638411097E+03  0.54638411099E+03  0.50400001928E-02 0.  1.
        1   -1    0    0  501    0  0.00000000000E+00  0.00000000000E+00 -0.16499079282E+03  0.16499079290E+03  0.50400001928E-02 0. -1.
    10030    2    1    2    0    0  0.00000000000E+00  0.00000000000E+00  0.38139331814E+03  0.71137490389E+03  0.60049428870E+03 0.  0.
        5    1    3    3  502    0 -0.85404246818E+02  0.20658431422E+03 -0.46692597670E+02  0.22841465131E+03  0.46999998093E+01 0. -1.
       -5    1    3    3    0  502  0.85404246818E+02 -0.20658431422E+03  0.42808591581E+03  0.48296025258E+03  0.46999998093E+01 0.  1.
</event>
<event>
 5   0  0.6078658E-03  0.5997030E+03  0.7818609E-02  0.9906022E-01
        1   -1    0    0  501    0  0.00000000000E+00  0.00000000000E+00  0.86632259029E+03  0.86632259031E+03  0.50400001928E-02 0.  1.
       -1   -1    0    0    0  501  0.00000000000E+00  0.00000000000E+00 -0.10378459141E+03  0.10378459153E+03  0.50400001928E-02 0. -1.
    10030    2    1    2    0    0  0.00000000000E+00  0.00000000000E+00  0.76253799889E+03  0.97010718184E+03  0.59970304694E+03 0.  0.
        2    1    3    3  502    0  0.11497285151E+03 -0.14536244227E+03  0.76257370483E+03  0.78477235649E+03  0.25500000920E-02 0.  1.
       -2    1    3    3    0  502 -0.11497285151E+03  0.14536244227E+03 -0.35705940739E-01  0.18533482535E+03  0.25500000920E-02 0. -1.
</event>
<event>
 5   0  0.5765045E-03  0.6125895E+03  0.7818609E-02  0.9879626E-01
       -1   -1    0    0    0  501  0.00000000000E+00  0.00000000000E+00  0.53218792504E+03  0.53218792506E+03  0.50400001928E-02 0. -1.
        1   -1    0    0  501    0  0.00000000000E+00  0.00000000000E+00 -0.17628447481E+03  0.17628447489E+03  0.50400001928E-02 0.  1.
    10030    2    1    2    0    0  0.00000000000E+00  0.00000000000E+00  0.35590345023E+03  0.70847239995E+03  0.61258948376E+03 0.  0.
        1    1    3    3  502    0 -0.90255944084E+02 -0.28140762201E+02  0.51489133624E+03  0.52349892655E+03  0.50400001928E-02 0. -1.
       -1    1    3    3    0  502  0.90255944084E+02  0.28140762201E+02 -0.15898788601E+03  0.18497347340E+03  0.50400001928E-02 0.  1.
</event>
<event>
 5   0  0.9162342E-03  0.6005320E+03  0.7818609E-02  0.9904303E-01
        2   -1    0    0  501    0  0.00000000000E+00  0.00000000000E+00  0.28663882166E+04  0.28663882166E+04  0.25500000920E-02 0. -1.
       -2   -1    0    0    0  501  0.00000000000E+00  0.00000000000E+00 -0.31454099147E+02  0.31454099251E+02  0.25500000920E-02 0.  1.
    10030    2    1    2    0    0  0.00000000000E+00  0.00000000000E+00  0.28349341174E+04  0.28978423158E+04  0.60053196188E+03 0.  0.
        5    1    3    3  502    0  0.40652475519E+01  0.29152334461E+03  0.17632603551E+04  0.17872077542E+04  0.46999998093E+01 0.  1.
       -5    1    3    3    0  502 -0.40652475519E+01 -0.29152334461E+03  0.10716737623E+04  0.11106345616E+04  0.46999998093E+01 0. -1.
</event>
<event>
 5   0  0.9162342E-03  0.6003000E+03  0.7818609E-02  0.9904784E-01
        2   -1    0    0  501    0  0.00000000000E+00  0.00000000000E+00  0.47444102792E+03  0.47444102793E+03  0.25500000920E-02 0.  1.
       -2   -1    0    0    0  501  0.00000000000E+00  0.00000000000E+00 -0.18988667991E+03  0.18988667993E+03  0.25500000920E-02 0. -1.
    10030    2    1    2    0    0  0.00000000000E+00  0.00000000000E+00  0.28455434801E+03  0.66432770785E+03  0.60030003036E+03 0.  0.
        5    1    3    3  502    0  0.56051300923E+02  0.27584309484E+03  0.25748026605E+03  0.38150929046E+03  0.46999998093E+01 0.  1.
       -5    1    3    3    0  502 -0.56051300923E+02 -0.27584309484E+03  0.27074081953E+02  0.28281841739E+03  0.46999998093E+01 0. -1.
</event>
<event>
 5   0  0.9303190E-03  0.6001141E+03  0.7818609E-02  0.9905169E-01
        2   -1    0    0  501    0  0.00000000000E+00  0.00000000000E+00  0.18994216484E+03  0.18994216486E+03  0.25500000920E-02 0.  1.
       -2   -1    0    0    0  501  0.00000000000E+00  0.00000000000E+00 -0.47400862127E+03  0.47400862128E+03  0.25500000920E-02 0. -1.
    10030    2    1    2    0    0  0.00000000000E+00  0.00000000000E+00 -0.28406645643E+03  0.66395078613E+03  0.60011406811E+03 0.  0.
        4    1    3    3  502    0  0.19193240585E+03 -0.12517270521E+03 -0.35635696870E+03  0.42367222777E+03  0.12699999809E+01 0. -1.
       -4    1    3    3    0  502 -0.19193240585E+03  0.12517270521E+03  0.72290512271E+02  0.24027855836E+03  0.12699999809E+01 0.  1.
</event>
<event>
 5   0  0.5819446E-03  0.6011746E+03  0.7818609E-02  0.9902972E-01
       -1   -1    0    0    0  501  0.00000000000E+00  0.00000000000E+00  0.41489391502E+03  0.41489391505E+03  0.50400001928E-02 0.  1.
        1   -1    0    0  501    0  0.00000000000E+00  0.00000000000E+00 -0.21777306955E+03  0.21777306961E+03  0.50400001928E-02 0. -1.
    10030    2    1    2    0    0  0.00000000000E+00  0.00000000000E+00  0.19712084546E+03  0.63266698466E+03  0.60117458842E+03 0.  0.
        5    1    3    3  502    0  0.28327246449E+03  0.26779631307E+02 -0.33101716502E+01  0.28459354354E+03  0.46999998093E+01 0. -1.
       -5    1    3    3    0  502 -0.28327246449E+03 -0.26779631307E+02  0.20043101711E+03  0.34807344112E+03  0.46999998093E+01 0.  1.
</event>
<event>
 5   0  0.9391405E-03  0.5996865E+03  0.7818609E-02  0.9906057E-01
       -2   -1    0    0    0  501  0.00000000000E+00  0.00000000000E+00  0.10609512289E+03  0.10609512292E+03  0.25500000920E-02 0. -1.
        2   -1    0    0  501    0  0.00000000000E+00  0.00000000000E+00 -0.84740913506E+03  0.84740913507E+03  0.25500000920E-02 0.  1.
    10030    2    1    2    0    0  0.00000000000E+00  0.00000000000E+00 -0.74131401217E+03  0.95350425799E+03  0.59968650590E+03 0.  0.
        2    1    3    3  502    0 -0.82829517067E+02  0.21894307031E+03 -0.66858320775E+03  0.70837864355E+03  0.25500000920E-02 0.  1.
       -2    1    3    3    0  502  0.82829517067E+02 -0.21894307031E+03 -0.72730804418E+02  0.24512561444E+03  0.25500000920E-02 0. -1.
</event>
<event>
 5   0  0.6078658E-03  0.6001028E+03  0.7818609E-02  0.9905193E-01
       -1   -1    0    0    0  501  0.00000000000E+00  0.00000000000E+00  0.10192162722E+03  0.10192162735E+03  0.50400001928E-02 0.  1.
        1   -1    0    0  501    0  0.00000000000E+00  0.00000000000E+00 -0.88333395860E+03  0.88333395862E+03  0.50400001928E-02 0. -1.
    10030    2    1    2    0    0  0.00000000000E+00  0.00000000000E+00 -0.78141233138E+03  0.98525558597E+03  0.60010277290E+03 0.  0.
        2    1    3    3  502    0  0.28723880681E+03  0.81159606647E+02 -0.34042756757E+03  0.45275152419E+03  0.25500000920E-02 0. -1.
       -2    1    3    3    0  502 -0.28723880681E+03 -0.81159606647E+02 -0.44098476381E+03  0.53250406178E+03  0.25500000920E-02 0.  1.
</event>
<event>
 5   0  0.9391405E-03  0.6005602E+03  0.7818609E-02  0.9904245E-01
        2   -1    0    0  501    0  0.00000000000E+00  0.00000000000E+00  0.21173281037E+03  0.21173281039E+03  0.25500000920E-02 0.  1.
       -2   -1    0    0    0  501  0.00000000000E+00  0.00000000000E+00 -0.42585806975E+03  0.42585806975E+03  0.25500000920E-02 0. -1.
    10030    2    1    2    0    0  0.00000000000E+00  0.00000000000E+00 -0.21412525938E+03  0.63759088014E+03  0.60056015830E+03 0.  0.
        2    1    3    3  502    0 -0.34067705983E+02 -0.21133066428E+03 -0.33063444550E+03  0.39387865494E+03  0.25500000920E-02 0. -1.
       -2    1    3    3    0  502  0.34067705983E+02  0.21133066428E+03  0.11650918613E+03  0.24371222520E+03  0.25500000920E-02 0.  1.
</event>
<event>
 5   0  0.5819446E-03  0.6004753E+03  0.7818609E-02  0.9904421E-01
        1   -1    0    0  501    0  0.00000000000E+00  0.00000000000E+00  0.20605939308E+03  0.20605939314E+03  0.50400001928E-02 0. -1.
       -1   -1    0    0    0  501  0.00000000000E+00  0.00000000000E+00 -0.43745949011E+03  0.43745949014E+03  0.50400001928E-02 0.  1.
    10030    2    1    2    0    0  0.00000000000E+00  0.00000000000E+00 -0.23140009703E+03  0.64351888327E+03  0.60047526862E+03 0.  0.
        5    1    3    3  502    0 -0.27754427432E+02 -0.29336597983E+03 -0.54261310814E+02  0.29966695883E+03  0.46999998093E+01 0. -1.
       -5    1    3    3    0  502  0.27754427432E+02  0.29336597983E+03 -0.17713878622E+03  0.34385192445E+03  0.46999998093E+01 0.  1.
</event>
<event>
 5   0  0.9303190E-03  0.6007288E+03  0.7818609E-02  0.9903895E-01
       -2   -1    0    0    0  501  0.00000000000E+00  0.00000000000E+00  0.23901633374E+03  0.23901633375E+03  0.25500000920E-02 0.  1.
        2   -1    0    0  501    0  0.00000000000E+00  0.00000000000E+00 -0.37745858330E+03  0.37745858331E+03  0.25500000920E-02 0. -1.
    10030    2    1    2    0    0  0.00000000000E+00  0.00000000000E+00 -0.13844224956E+03  0.61647491707E+03  0.60072877982E+03 0.  0.
        4    1    3    3  502    0  0.51854904070E+02  0.40345275207E+02 -0.36999130172E+03  0.37578165010E+03  0.12699999809E+01 0. -1.
       -4    1    3    3    0  502 -0.51854904070E+02 -0.40345275207E+02  0.23154905215E+03  0.24069326696E+03  0.12699999809E+01 0.  1.
</event>
<event>
 5   0  0.5765045E-03  0.5996342E+03  0.7818609E-02  0.9906165E-01
       -1   -1    0    0    0  501  0.00000000000E+00  0.00000000000E+00  0.17371257301E+03  0.17371257309E+03  0.50400001928E-02 0. -1.
        1   -1    0    0  501    0  0.00000000000E+00  0.00000000000E+00 -0.51746563805E+03  0.51746563807E+03  0.50400001928E-02 0.  1.
    10030    2    1    2    0    0  0.00000000000E+00  0.00000000000E+00 -0.34375306504E+03  0.69117821116E+03  0.59963418003E+03 0.  0.
        1    1    3    3  502    0  0.10697532084E+03  0.10477138253E+03  0.12752739068E+03  0.19668247829E+03  0.50400001928E-02 0. -1.
       -1    1    3    3    0  502 -0.10697532084E+03 -0.10477138253E+03 -0.47128045571E+03  0.49449573287E+03  0.50400001928E-02 0.  1.
</event>
<event>
 5   0  0.5819446E-03  0.5999197E+03  0.7818609E-02  0.9905573E-01
        1   -1    0    0  501    0  0.00000000000E+00  0.00000000000E+00  0.40465889437E+03  0.40465889440E+03  0.50400001928E-02 0. -1.
       -1   -1    0    0    0  501  0.00000000000E+00  0.00000000000E+00 -0.22235004755E+03  0.22235004761E+03  0.50400001928E-02 0.  1.
    10030    2    1    2    0    0  0.00000000000E+00  0.00000000000E+00  0.18230884682E+03  0.62700894201E+03  0.59991974274E+03 0.  0.
        5    1    3    3  502    0  0.13636177683E+03  0.13600987522E+03  0.33145050126E+03  0.38337285392E+03  0.46999998093E+01 0. -1.
       -5    1    3    3    0  502 -0.13636177683E+03 -0.13600987522E+03 -0.14914165443E+03  0.24363608809E+03  0.46999998093E+01 0.  1.
</event>
<event>
 5   0  0.5891927E-03  0.6007120E+03  0.7818609E-02  0.9903930E-01
       -1   -1    0    0    0  501  0.00000000000E+00  0.00000000000E+00  0.35953227851E+03  0.35953227855E+03  0.50400001928E-02 0.  1.
        1   -1    0    0  501    0  0.00000000000E+00  0.00000000000E+00 -0.25091969919E+03  0.25091969924E+03  0.50400001928E-02 0. -1.
    10030    2    1    2    0    0  0.00000000000E+00  0.00000000000E+00  0.10861257932E+03  0.61045197779E+03  0.60071201486E+03 0.  0.
        4    1    3    3  502    0  0.25435001746E+03 -0.26254346715E+02  0.21443304115E+03  0.33371599324E+03  0.12699999809E+01 0.  1.
       -4    1    3    3    0  502 -0.25435001746E+03  0.26254346715E+02 -0.10582046183E+03  0.27673598455E+03  0.12699999809E+01 0. -1.
</event>
<event>
 5   0  0.9391405E-03  0.5886719E+03  0.7818609E-02  0.9929191E-01
       -2   -1    0    0    0  501  0.00000000000E+00  0.00000000000E+00  0.20264576849E+03  0.20264576851E+03  0.25500000920E-02 0. -1.
        2   -1    0    0  501    0  0.00000000000E+00  0.00000000000E+00 -0.42751280652E+03  0.42751280653E+03  0.25500000920E-02 0.  1.
    10030    2    1    2    0    0  0.00000000000E+00  0.00000000000E+00 -0.22486703803E+03  0.63015857504E+03  0.58867193317E+03 0.  0.
        2    1    3    3  502    0 -0.22971560819E+03 -0.10647943655E+03  0.48232366143E+02  0.25774695382E+03  0.25500000920E-02 0. -1.
       -2    1    3    3    0  502  0.22971560819E+03  0.10647943655E+03 -0.27309940417E+03  0.37241162122E+03  0.25500000920E-02 0.  1.
</event>
<event>
 5   0  0.9028473E-03  0.5996405E+03  0.7818609E-02  0.9906152E-01
       -2   -1    0    0    0  501  0.00000000000E+00  0.00000000000E+00  0.17005953952E+03  0.17005953954E+03  0.25500000920E-02 0. -1.
        2   -1    0    0  501    0  0.00000000000E+00  0.00000000000E+00 -0.52859245258E+03  0.52859245259E+03  0.25500000920E-02 0.  1.
    10030    2    1    2    0    0  0.00000000000E+00  0.00000000000E+00 -0.35853291306E+03  0.69865199213E+03  0.59964052261E+03 0.  0.
        1    1    3    3  502    0  0.65179656948E+01 -0.67936696414E+02  0.16088877428E+03  0.17476577557E+03  0.50400001928E-02 0. -1.
       -1    1    3    3    0  502 -0.65179656948E+01  0.67936696414E+02 -0.51942168734E+03  0.52388621656E+03  0.50400001928E-02 0.  1.
</event>
<event>
 5   0  0.5790967E-03  0.6007055E+03  0.7818609E-02  0.9903943E-01
        1   -1    0    0  501    0  0.00000000000E+00  0.00000000000E+00  0.10581581039E+03  0.10581581051E+03  0.50400001928E-02 0. -1.
       -1   -1    0    0    0  501  0.00000000000E+00  0.00000000000E+00 -0.85253589005E+03  0.85253589006E+03  0.50400001928E-02 0.  1.
    10030    2    1    2    0    0  0.00000000000E+00  0.00000000000E+00 -0.74672007966E+03  0.95835170057E+03  0.60070550574E+03 0.  0.
        3    1    3    3  502    0  0.13142356485E+03  0.21739261828E+03 -0.62901918941E+03  0.67837810602E+03  0.10100000352E+00 0.  1.
       -3    1    3    3    0  502 -0.13142356485E+03 -0.21739261828E+03 -0.11770089024E+03  0.27997359455E+03  0.10100000352E+00 0. -1.
</event>
<event>
 5   0  0.9162342E-03  0.5972201E+03  0.7818609E-02  0.9911190E-01
       -2   -1    0    0    0  501  0.00000000000E+00  0.00000000000E+00  0.52711816625E+02  0.52711816686E+02  0.25500000920E-02 0.  1.
        2   -1    0    0  501    0  0.00000000000E+00  0.00000000000E+00 -0.16916124071E+04  0.16916124071E+04  0.25500000920E-02 0. -1.
    10030    2    1    2    0    0  0.00000000000E+00  0.00000000000E+00 -0.16389005905E+04  0.17443242238E+04  0.59722010368E+03 0.  0.
        5    1    3    3  502    0  0.23168014984E+03  0.49757565682E+02 -0.28891694879E+03  0.37369319029E+03  0.46999998093E+01 0.  1.
       -5    1    3    3    0  502 -0.23168014984E+03 -0.49757565682E+02 -0.13499836417E+04  0.13706310335E+04  0.46999998093E+01 0. -1.
</event>
<event>
 5   0  0.9162342E-03  0.5998727E+03  0.7818609E-02  0.9905670E-01
        2   -1    0    0  501    0  0.00000000000E+00  0.00000000000E+00  0.10483582220E+04  0.10483582220E+04  0.25500000920E-02 0.  1.
       -2   -1    0    0    0  501  0.00000000000E+00  0.00000000000E+00 -0.85812098843E+02  0.85812098881E+02  0.25500000920E-02 0. -1.
    10030    2    1    2    0    0  0.00000000000E+00  0.00000000000E+00  0.96254612318E+03  0.11341703209E+04  0.59987271781E+03 0.  0.
        5    1    3    3  502    0 -0.59337042888E+02  0.26698709551E+03  0.71388675647E+03  0.76449943420E+03  0.46999998093E+01 0.  1.
       -5    1    3    3    0  502  0.59337042888E+02 -0.26698709551E+03  0.24865936671E+03  0.36967088671E+03  0.46999998093E+01 0. -1.
</event>
<event>
 5   0  0.9162342E-03  0.5869576E+03  0.7818609E-02  0.9932841E-01
       -2   -1    0    0    0  501  0.00000000000E+00  0.00000000000E+00  0.54226117481E+03  0.54226117482E+03  0.25500000920E-02 0. -1.
        2   -1    0    0  501    0  0.00000000000E+00  0.00000000000E+00 -0.15883453759E+03  0.15883453761E+03  0.25500000920E-02 0.  1.
    10030    2    1    2    0    0  0.00000000000E+00  0.00000000000E+00  0.38342663722E+03  0.70109571243E+03  0.58695758949E+03 0.  0.
        5    1    3    3  502    0 -0.15184467306E+03  0.25008454526E+03  0.16477497353E+03  0.33581537549E+03  0.46999998093E+01 0.  1.
       -5    1    3    3    0  502  0.15184467306E+03 -0.25008454526E+03  0.21865166369E+03  0.36528033694E+03  0.46999998093E+01 0. -1.
</event>
<event>
 5   0  0.5891927E-03  0.5986938E+03  0.7818609E-02  0.9908120E-01
        1   -1    0    0  501    0  0.00000000000E+00  0.00000000000E+00  0.32804270783E+03  0.32804270787E+03  0.50400001928E-02 0. -1.
       -1   -1    0    0    0  501  0.00000000000E+00  0.00000000000E+00 -0.27316124232E+03  0.27316124237E+03  0.50400001928E-02 0.  1.
    10030    2    1    2    0    0  0.00000000000E+00  0.00000000000E+00  0.54881465511E+02  0.60120395024E+03  0.59869375688E+03 0.  0.
        4    1    3    3  502    0  0.90422319105E+02 -0.24496911727E+03 -0.11953164319E+03  0.28718546417E+03  0.12699999809E+01 0.  1.
       -4    1    3    3    0  502 -0.90422319105E+02  0.24496911727E+03  0.17441310870E+03  0.31401848607E+03  0.12699999809E+01 0. -1.
</event>
<event>
 5   0  0.9303190E-03  0.6007391E+03  0.7818609E-02  0.9903874E-01
        2   -1    0    0  501    0  0.00000000000E+00  0.00000000000E+00  0.13059168748E+04  0.13059168748E+04  0.25500000920E-02 0.  1.
       -2   -1    0    0    0  501  0.00000000000E+00  0.00000000000E+00 -0.69086985557E+02  0.69086985604E+02  0.25500000920E-02 0. -1.
    10030    2    1    2    0    0  0.00000000000E+00  0.00000000000E+00  0.12368298892E+04  0.13750038604E+04  0.60073907914E+03 0.  0.
        4    1    3    3  502    0 -0.22991439274E+03 -0.15279293827E+03  0.34745935165E+03  0.44377463191E+03  0.12699999809E+01 0. -1.
       -4    1    3    3    0  502  0.22991439274E+03  0.15279293827E+03  0.88937053759E+03  0.93122922849E+03  0.12699999809E+01 0.  1.
</event>
<event>
 5   0  0.5891927E-03  0.6037713E+03  0.7818609E-02  0.9897612E-01
       -1   -1    0    0    0  501  0.00000000000E+00  0.00000000000E+00  0.61974941216E+02  0.61974941421E+02  0.50400001928E-02 0.  1.
        1   -1    0    0  501    0  0.00000000000E+00  0.00000000000E+00 -0.14705129874E+04  0.14705129874E+04  0.50400001928E-02 0. -1.
    10030    2    1    2    0    0  0.00000000000E+00  0.00000000000E+00 -0.14085380462E+04  0.15324879289E+04  0.60377133459E+03 0.  0.
        4    1    3    3  502    0 -0.29313961275E+03 -0.55915879676E+02 -0.58862307863E+03  0.65995163441E+03  0.12699999809E+01 0.  1.
       -4    1    3    3    0  502  0.29313961275E+03  0.55915879676E+02 -0.81991496757E+03  0.87253629444E+03  0.12699999809E+01 0. -1.
</event>
<event>
 5   0  0.3806250E-03  0.5973861E+03  0.7818609E-02  0.9910844E-01
       -3   -1    0    0    0  501  0.00000000000E+00  0.00000000000E+00  0.98569695203E+03  0.98569695720E+03  0.10100000352E+00 0. -1.
        3   -1    0    0  501    0  0.00000000000E+00  0.00000000000E+00 -0.90512102922E+02  0.90512159273E+02  0.10100000352E+00 0.  1.
    10030    2    1    2    0    0  0.00000000000E+00  0.00000000000E+00  0.89518484911E+03  0.10762091165E+04  0.59738609652E+03 0.  0.
        4    1    3    3  502    0  0.24659203081E+03  0.24748458622E+02  0.14723995305E+03  0.28827301736E+03  0.12699999809E+01 0.  1.
       -4    1    3    3    0  502 -0.24659203081E+03 -0.24748458622E+02  0.74794489605E+03  0.78793609912E+03  0.12699999809E+01 0. -1.
</event>
<event>
 5   0  0.5765045E-03  0.6005276E+03  0.7818609E-02  0.9904312E-01
       -1   -1    0    0    0  501  0.00000000000E+00  0.00000000000E+00  0.76133965447E+02  0.76133965614E+02  0.50400001928E-02 0.  1.
        1   -1    0    0  501    0  0.00000000000E+00  0.00000000000E+00 -0.11842065021E+04  0.11842065021E+04  0.50400001928E-02 0. -1.
    10030    2    1    2    0    0  0.00000000000E+00  0.00000000000E+00 -0.11080725367E+04  0.12603404677E+04  0.60052755815E+03 0.  0.
        1    1    3    3  502    0  0.19245226263E+03  0.16447486096E+03 -0.89289043066E+03  0.92808575814E+03  0.50400001928E-02 0. -1.
       -1    1    3    3    0  502 -0.19245226263E+03 -0.16447486096E+03 -0.21518210600E+03  0.33225470959E+03  0.50400001928E-02 0.  1.
</event>
<event>
 5   0  0.6078658E-03  0.6018527E+03  0.7818609E-02  0.9901570E-01
        1   -1    0    0  501    0  0.00000000000E+00  0.00000000000E+00  0.30190526541E+03  0.30190526545E+03  0.50400001928E-02 0. -1.
       -1   -1    0    0    0  501  0.00000000000E+00  0.00000000000E+00 -0.29995059667E+03  0.29995059671E+03  0.50400001928E-02 0.  1.
    10030    2    1    2    0    0  0.00000000000E+00  0.00000000000E+00  0.19546687418E+01  0.60185586216E+03  0.60185268803E+03 0.  0.
        2    1    3    3  502    0 -0.23719145091E+03 -0.18062382433E+03  0.41866597640E+02  0.30106072860E+03  0.25500000920E-02 0. -1.
       -2    1    3    3    0  502  0.23719145091E+03  0.18062382433E+03 -0.39911928898E+02  0.30079513356E+03  0.25500000920E-02 0.  1.
</event>
<event>
 5   0  0.9303190E-03  0.6023343E+03  0.7818609E-02  0.9900575E-01
        2   -1    0    0  501    0  0.00000000000E+00  0.00000000000E+00  0.27568950329E+03  0.27568950330E+03  0.25500000920E-02 0. -1.
       -2   -1    0    0    0  501  0.00000000000E+00  0.00000000000E+00 -0.32899926640E+03  0.32899926641E+03  0.25500000920E-02 0.  1.
    10030    2    1    2    0    0  0.00000000000E+00  0.00000000000E+00 -0.53309763112E+02  0.60468876971E+03  0.60233427378E+03 0.  0.
        4    1    3    3  502    0  0.53300308889E+02  0.25370835116E+03  0.12721256732E+03  0.28877932848E+03  0.12699999809E+01 0. -1.
       -4    1    3    3    0  502 -0.53300308889E+02 -0.25370835116E+03 -0.18052233043E+03  0.31590944123E+03  0.12699999809E+01 0.  1.
</event>
<event>
 5   0  0.5891927E-03  0.6079851E+03  0.7818609E-02  0.9888977E-01
       -1   -1    0    0    0  501  0.00000000000E+00  0.00000000000E+00  0.16072932914E+03  0.16072932921E+03  0.50400001928E-02 0.  1.
        1   -1    0    0  501    0  0.00000000000E+00  0.00000000000E+00 -0.57495091394E+03  0.57495091397E+03  0.50400001928E-02 0. -1.
    10030    2    1    2    0    0  0.00000000000E+00  0.00000000000E+00 -0.41422158481E+03  0.73568024318E+03  0.60798511403E+03 0.  0.
        4    1    3    3  502    0  0.85588891951E+02 -0.14413251217E+03  0.99746290781E+02  0.19506556568E+03  0.12699999809E+01 0.  1.
       -4    1    3    3    0  502 -0.85588891951E+02  0.14413251217E+03 -0.51396787559E+03  0.54061467750E+03  0.12699999809E+01 0. -1.
</event>
<event>
 5   0  0.5765045E-03  0.5997466E+03  0.7818609E-02  0.9905932E-01
        1   -1    0    0  501    0  0.00000000000E+00  0.00000000000E+00  0.10911988499E+04  0.10911988500E+04  0.50400001928E-02 0.  1.
       -1   -1    0    0    0  501  0.00000000000E+00  0.00000000000E+00 -0.82408439320E+02  0.82408439474E+02  0.50400001928E-02 0. -1.
    10030    2    1    2    0    0  0.00000000000E+00  0.00000000000E+00  0.10087904106E+04  0.11736072894E+04  0.59974659418E+03 0.  0.
        1    1    3    3  502    0 -0.16142284008E+01  0.26271413974E+03  0.78731014599E+03  0.82998710288E+03  0.50400001928E-02 0.  1.
       -1    1    3    3    0  502  0.16142284008E+01 -0.26271413974E+03  0.22148026463E+03  0.34362018654E+03  0.50400001928E-02 0. -1.
</event>
<event>
 5   0  0.9028473E-03  0.5993006E+03  0.7818609E-02  0.9906858E-01
       -2   -1    0    0    0  501  0.00000000000E+00  0.00000000000E+00  0.35772892873E+03  0.35772892874E+03  0.25500000920E-02 0. -1.
        2   -1    0    0  501    0  0.00000000000E+00  0.00000000000E+00 -0.25100095015E+03  0.25100095016E+03  0.25500000920E-02 0.  1.
    10030    2    1    2    0    0  0.00000000000E+00  0.00000000000E+00  0.10672797858E+03  0.60872987890E+03  0.59930059574E+03 0.  0.
        1    1    3    3  502    0 -0.23347971485E+03 -0.15849160665E+03 -0.49008346107E+02  0.28641610402E+03  0.50400001928E-02 0.  1.
       -1    1    3    3    0  502  0.23347971485E+03  0.15849160665E+03  0.15573632469E+03  0.32231377488E+03  0.50400001928E-02 0. -1.
</event>
<event>
 5   0  0.3806250E-03  0.6000695E+03  0.7818609E-02  0.9905262E-01
        3   -1    0    0  501    0  0.00000000000E+00  0.00000000000E+00  0.35961762741E+03  0.35961764159E+03  0.10100000352E+00 0.  1.
       -3   -1    0    0    0  501  0.00000000000E+00  0.00000000000E+00 -0.25032374329E+03  0.25032376367E+03  0.10100000352E+00 0. -1.
    10030    2    1    2    0    0  0.00000000000E+00  0.00000000000E+00  0.10929388412E+03  0.60994140526E+03  0.60006946660E+03 0.  0.
        5    1    3    3  502    0  0.13621327255E+03  0.96426423420E+02 -0.19874652573E+03  0.25956575706E+03  0.46999998093E+01 0. -1.
       -5    1    3    3    0  502 -0.13621327255E+03 -0.96426423420E+02  0.30804040985E+03  0.35037564820E+03  0.46999998093E+01 0.  1.
</event>
<event>
 5   0  0.9162342E-03  0.6006797E+03  0.7818609E-02  0.9903997E-01
        2   -1    0    0  501    0  0.00000000000E+00  0.00000000000E+00  0.24603174872E+03  0.24603174874E+03  0.25500000920E-02 0.  1.
       -2   -1    0    0    0  501  0.00000000000E+00  0.00000000000E+00 -0.36663573195E+03  0.36663573196E+03  0.25500000920E-02 0. -1.
    10030    2    1    2    0    0  0.00000000000E+00  0.00000000000E+00 -0.12060398323E+03  0.61266748069E+03  0.60067971593E+03 0.  0.
        5    1    3    3  502    0 -0.17850635691E+03 -0.10516670065E+02  0.18577374909E+03  0.25789357429E+03  0.46999998093E+01 0.  1.
       -5    1    3    3    0  502  0.17850635691E+03  0.10516670065E+02 -0.30637773232E+03  0.35477390641E+03  0.46999998093E+01 0. -1.
</event>
<event>
 5   0  0.5891927E-03  0.5974172E+03  0.7818609E-02  0.9910779E-01
       -1   -1    0    0    0  501  0.00000000000E+00  0.00000000000E+00  0.51189700856E+02  0.51189701104E+02  0.50400001928E-02 0.  1.
        1   -1    0    0  501    0  0.00000000000E+00  0.00000000000E+00 -0.17430621047E+04  0.17430621047E+04  0.50400001928E-02 0. -1.
    10030    2    1    2    0    0  0.00000000000E+00  0.00000000000E+00 -0.16918724038E+04  0.17942518058E+04  0.59741720076E+03 0.  0.
        4    1    3    3  502    0 -0.44707874833E+02  0.28859499365E+03 -0.65743332312E+03  0.71937893469E+03  0.12699999809E+01 0. -1.
       -4    1    3    3    0  502  0.44707874833E+02 -0.28859499365E+03 -0.10344390807E+04  0.10748728711E+04  0.12699999809E+01 0.  1.
</event>
<event>
 5   0  0.9303190E-03  0.6003545E+03  0.7818609E-02  0.9904671E-01
        2   -1    0    0  501    0  0.00000000000E+00  0.00000000000E+00  0.33700790059E+03  0.33700790060E+03  0.25500000920E-02 0. -1.
       -2   -1    0    0    0  501  0.00000000000E+00  0.00000000000E+00 -0.26737172257E+03  0.26737172258E+03  0.25500000920E-02 0.  1.
    10030    2    1    2    0    0  0.00000000000E+00  0.00000000000E+00  0.69636178022E+02  0.60437962318E+03  0.60035450496E+03 0.  0.
        4    1    3    3  502    0 -0.29711901275E+02  0.12781976997E+03  0.30659864064E+03  0.33350416791E+03  0.12699999809E+01 0. -1.
       -4    1    3    3    0  502  0.29711901275E+02 -0.12781976997E+03 -0.23696246262E+03  0.27087545526E+03  0.12699999809E+01 0.  1.
</event>
<event>
 5   0  0.9391405E-03  0.5997166E+03  0.7818609E-02  0.9905994E-01
       -2   -1    0    0    0  501  0.00000000000E+00  0.00000000000E+00  0.93844689226E+02  0.93844689260E+02  0.25500000920E-02 0.  1.
        2   -1    0    0  501    0  0.00000000000E+00  0.00000000000E+00 -0.95812555140E+03  0.95812555140E+03  0.25500000920E-02 0. -1.
    10030    2    1    2    0    0  0.00000000000E+00  0.00000000000E+00 -0.86428086217E+03  0.10519702407E+04  0.59971658183E+03 0.  0.
        2    1    3    3  502    0  0.64598603471E+02 -0.10530910227E+03 -0.91140811266E+03  0.91974329811E+03  0.25500000920E-02 0. -1.
       -2    1    3    3    0  502 -0.64598603471E+02  0.10530910227E+03  0.47127250489E+02  0.13222694255E+03  0.25500000920E-02 0.  1.
</event>
<event>
 5   0  0.5765045E-03  0.6051262E+03  0.7818609E-02  0.9894827E-01
        1   -1    0    0  501    0  0.00000000000E+00  0.00000000000E+00  0.41221655237E+03  0.41221655240E+03  0.50400001928E-02 0. -1.
       -1   -1    0    0    0  501  0.00000000000E+00  0.00000000000E+00 -0.22207851726E+03  0.22207851732E+03  0.50400001928E-02 0.  1.
    10030    2    1    2    0    0  0.00000000000E+00  0.00000000000E+00  0.19013803511E+03  0.63429506972E+03  0.60512623731E+03 0.  0.
        1    1    3    3  502    0  0.27494189105E+03  0.99523129142E+02  0.13561256643E+02  0.29271454422E+03  0.50400001928E-02 0.  1.
       -1    1    3    3    0  502 -0.27494189105E+03 -0.99523129142E+02  0.17657677847E+03  0.34158052551E+03  0.50400001928E-02 0. -1.
</event>
<event>
 5   0  0.9391405E-03  0.6016802E+03  0.7818609E-02  0.9901926E-01
       -2   -1    0    0    0  501  0.00000000000E+00  0.00000000000E+00  0.80790518838E+03  0.80790518838E+03  0.25500000920E-02 0.  1.
        2   -1    0    0  501    0  0.00000000000E+00  0.00000000000E+00 -0.11202398225E+03  0.11202398228E+03  0.25500000920E-02 0. -1.
    10030    2    1    2    0    0  0.00000000000E+00  0.00000000000E+00  0.69588120613E+03  0.91992917066E+03  0.60168016919E+03 0.  0.
        2    1    3    3  502    0 -0.27100488410E+03 -0.12728872892E+03  0.39274355046E+03  0.49385581312E+03  0.25500000920E-02 0.  1.
       -2    1    3    3    0  502  0.27100488410E+03  0.12728872892E+03  0.30313765567E+03  0.42607335754E+03  0.25500000920E-02 0. -1.
</event>
<event>
 5   0  0.6078658E-03  0.5988115E+03  0.7818609E-02  0.9907875E-01
       -1   -1    0    0    0  501  0.00000000000E+00  0.00000000000E+00  0.30257669403E+03  0.30257669407E+03  0.50400001928E-02 0. -1.
        1   -1    0    0  501    0  0.00000000000E+00  0.00000000000E+00 -0.29626802925E+03  0.29626802929E+03  0.50400001928E-02 0.  1.
    10030    2    1    2    0    0  0.00000000000E+00  0.00000000000E+00  0.63086647789E+01  0.59884472336E+03  0.59881149241E+03 0.  0.
        2    1    3    3  502    0  0.22450024156E+03  0.13671224057E+03  0.14652618085E+03  0.30093274475E+03  0.25500000920E-02 0. -1.
       -2    1    3    3    0  502 -0.22450024156E+03 -0.13671224057E+03 -0.14021751607E+03  0.29791197861E+03  0.25500000920E-02 0.  1.
</event>
<event>
 5   0  0.5891927E-03  0.6005313E+03  0.7818609E-02  0.9904304E-01
       -1   -1    0    0    0  501  0.00000000000E+00  0.00000000000E+00  0.65117251997E+02  0.65117252192E+02  0.50400001928E-02 0. -1.
        1   -1    0    0  501    0  0.00000000000E+00  0.00000000000E+00 -0.13845708094E+04  0.13845708094E+04  0.50400001928E-02 0.  1.
    10030    2    1    2    0    0  0.00000000000E+00  0.00000000000E+00 -0.13194535574E+04  0.14496880616E+04  0.60053125299E+03 0.  0.
        4    1    3    3  502    0  0.15925081490E+03 -0.12656709422E+03 -0.11928774660E+04  0.12100984725E+04  0.12699999809E+01 0.  1.
       -4    1    3    3    0  502 -0.15925081490E+03  0.12656709422E+03 -0.12657609141E+03  0.23958958910E+03  0.12699999809E+01 0. -1.
</event>
<event>
 5   0  0.9028473E-03  0.5997073E+03  0.7818609E-02  0.9906013E-01
        2   -1    0    0  501    0  0.00000000000E+00  0.00000000000E+00  0.49889861020E+03  0.49889861021E+03  0.25500000920E-02 0. -1.
       -2   -1    0    0    0  501  0.00000000000E+00  0.00000000000E+00 -0.18022142753E+03  0.18022142754E+03  0.25500000920E-02 0.  1.
    10030    2    1    2    0    0  0.00000000000E+00  0.00000000000E+00  0.31867718268E+03  0.67912003775E+03  0.59970732772E+03 0.  0.
        1    1    3    3  502    0 -0.64837942778E+02  0.13433731656E+03 -0.13522481295E+03  0.20133609589E+03  0.50400001928E-02 0.  1.
       -1    1    3    3    0  502  0.64837942778E+02 -0.13433731656E+03  0.45390199563E+03  0.47778394187E+03  0.50400001928E-02 0. -1.
</event>
<event>
 5   0  0.9391405E-03  0.5978512E+03  0.7818609E-02  0.9909874E-01
        2   -1    0    0  501    0  0.00000000000E+00  0.00000000000E+00  0.58042811689E+03  0.58042811690E+03  0.25500000920E-02 0.  1.
       -2   -1    0    0    0  501  0.00000000000E+00  0.00000000000E+00 -0.15394929887E+03  0.15394929889E+03  0.25500000920E-02 0. -1.
    10030    2    1    2    0    0  0.00000000000E+00  0.00000000000E+00  0.42647881802E+03  0.73437741579E+03  0.59785115757E+03 0.  0.
        2    1    3    3  502    0  0.20781918397E+03 -0.11499531524E+03  0.43619217244E+03  0.49666522634E+03  0.25500000920E-02 0.  1.
       -2    1    3    3    0  502 -0.20781918397E+03  0.11499531524E+03 -0.97133544170E+01  0.23771218945E+03  0.25500000920E-02 0. -1.
</event>
<event>
 5   0  0.5765045E-03  0.5986037E+03  0.7818609E-02  0.9908307E-01
        1   -1    0    0  501    0  0.00000000000E+00  0.00000000000E+00  0.30719090568E+03  0.30719090572E+03  0.50400001928E-02 0.  1.
       -1   -1    0    0    0  501  0.00000000000E+00  0.00000000000E+00 -0.29161543568E+03  0.29161543572E+03  0.50400001928E-02 0. -1.
    10030    2    1    2    0    0  0.00000000000E+00  0.00000000000E+00  0.15575470005E+02  0.59880634145E+03  0.59860374146E+03 0.  0.
        1    1    3    3  502    0  0.26958293359E+03 -0.62048128770E+02 -0.10651677542E+03  0.29643001171E+03  0.50400001928E-02 0. -1.
       -1    1    3    3    0  502 -0.26958293359E+03  0.62048128770E+02  0.12209224543E+03  0.30237632974E+03  0.50400001928E-02 0.  1.
</event>
<event>
 5   0  0.6078658E-03  0.6000735E+03  0.7818609E-02  0.9905254E-01
       -1   -1    0    0    0  501  0.00000000000E+00  0.00000000000E+00  0.21715268778E+03  0.21715268784E+03  0.50400001928E-02 0. -1.
        1   -1    0    0  501    0  0.00000000000E+00  0.00000000000E+00 -0.41455640139E+03  0.41455640142E+03  0.50400001928E-02 0.  1.
    10030    2    1    2    0    0  0.00000000000E+00  0.00000000000E+00 -0.19740371361E+03  0.63170908926E+03  0.60007345159E+03 0.  0.
        2    1    3    3  502    0 -0.12204624304E+03 -0.67533258901E+02 -0.37834906919E+03  0.40324191829E+03  0.25500000920E-02 0.  1.
       -2    1    3    3    0  502  0.12204624304E+03  0.67533258901E+02  0.18094535558E+03  0.22846717097E+03  0.25500000920E-02 0. -1.
</event>
<event>
 5   0  0.9028473E-03  0.6002063E+03  0.7818609E-02  0.9904978E-01
       -2   -1    0    0    0  501  0.00000000000E+00  0.00000000000E+00  0.16310439653E+03  0.16310439655E+03  0.25500000920E-02 0.  1.
        2   -1    0    0  501    0  0.00000000000E+00  0.00000000000E+00 -0.55217343795E+03  0.55217343795E+03  0.25500000920E-02 0. -1.
    10030    2    1    2    0    0  0.00000000000E+00  0.00000000000E+00 -0.38906904141E+03  0.71527783451E+03  0.60020634914E+03 0.  0.
        1    1    3    3  502    0  0.40991906231E+02 -0.24254429093E+03  0.10336808086E+02  0.24620097292E+03  0.50400001928E-02 0.  1.
       -1    1    3    3    0  502 -0.40991906231E+02  0.24254429093E+03 -0.39940584950E+03  0.46907686159E+03  0.50400001928E-02 0. -1.
</event>
<event>
 5   0  0.3806250E-03  0.6004759E+03  0.7818609E-02  0.9904419E-01
       -4   -1    0    0    0  501  0.00000000000E+00  0.00000000000E+00  0.67481340338E+03  0.67481459845E+03  0.12699999809E+01 0. -1.
        4   -1    0    0  501    0  0.00000000000E+00  0.00000000000E+00 -0.13357752087E+03  0.13358355805E+03  0.12699999809E+01 0.  1.
    10030    2    1    2    0    0  0.00000000000E+00  0.00000000000E+00  0.54123588251E+03  0.80839815651E+03  0.60047589370E+03 0.  0.
        5    1    3    3  502    0 -0.18419986897E+03 -0.20567835080E+03  0.11196698430E+03  0.29797964911E+03  0.46999998093E+01 0.  1.
       -5    1    3    3    0  502  0.18419986897E+03  0.20567835080E+03  0.42926889822E+03  0.51041850739E+03  0.46999998093E+01 0. -1.
</event>
<event>
 5   0  0.5765045E-03  0.6002230E+03  0.7818609E-02  0.9904943E-01
       -1   -1    0    0    0  501  0.00000000000E+00  0.00000000000E+00  0.34614889559E+03  0.34614889563E+03  0.50400001928E-02 0.  1.
        1   -1    0    0  501    0  0.00000000000E+00  0.00000000000E+00 -0.26019703505E+03  0.26019703510E+03  0.50400001928E-02 0. -1.
    10030    2    1    2    0    0  0.00000000000E+00  0.00000000000E+00  0.85951860539E+02  0.60634593073E+03  0.60022301304E+03 0.  0.
        1    1    3    3  502    0  0.26362897018E+03  0.60329281987E+02 -0.88455306090E+02  0.28454208367E+03  0.50400001928E-02 0. -1.
       -1    1    3    3    0  502 -0.26362897018E+03 -0.60329281987E+02  0.17440716663E+03  0.32180384705E+03  0.50400001928E-02 0.  1.
</event>
<event>
 5   0  0.3806250E-03  0.6005402E+03  0.7818609E-02  0.9904286E-01
       -3   -1    0    0    0  501  0.00000000000E+00  0.00000000000E+00  0.32970894075E+03  0.32970895622E+03  0.10100000352E+00 0.  1.
        3   -1    0    0  501    0  0.00000000000E+00  0.00000000000E+00 -0.27345977430E+03  0.27345979295E+03  0.10100000352E+00 0. -1.
    10030    2    1    2    0    0  0.00000000000E+00  0.00000000000E+00  0.56249166453E+02  0.60316874917E+03  0.60054023283E+03 0.  0.
        3    1    3    3  502    0 -0.21191569639E+03 -0.19485122017E+03  0.11386138943E+03  0.30957985494E+03  0.10100000352E+00 0.  1.
       -3    1    3    3    0  502  0.21191569639E+03  0.19485122017E+03 -0.57612222976E+02  0.29358889423E+03  0.10100000352E+00 0. -1.
</event>
<event>
 5   0  0.9303190E-03  0.6000538E+03  0.7818609E-02  0.9905294E-01
       -2   -1    0    0    0  501  0.00000000000E+00  0.00000000000E+00  0.42657044991E+03  0.42657044992E+03  0.25500000920E-02 0.  1.
        2   -1    0    0  501    0  0.00000000000E+00  0.00000000000E+00 -0.21102293779E+03  0.21102293781E+03  0.25500000920E-02 0. -1.
    10030    2    1    2    0    0  0.00000000000E+00  0.00000000000E+00  0.21554751211E+03  0.63759338772E+03  0.60005382933E+03 0.  0.
        4    1    3    3  502    0 -0.74881112554E+02  0.28148207303E+03  0.31334388497E+02  0.29295527859E+03  0.12699999809E+01 0. -1.
       -4    1    3    3    0  502  0.74881112554E+02 -0.28148207303E+03  0.18421312362E+03  0.34463810913E+03  0.12699999809E+01 0.  1.
</event>
<event>
 5   0  0.9303190E-03  0.6004280E+03  0.7818609E-02  0.9904519E-01
       -2   -1    0    0    0  501  0.00000000000E+00  0.00000000000E+00  0.74511139935E+02  0.74511139979E+02  0.25500000920E-02 0. -1.
        2   -1    0    0  501    0  0.00000000000E+00  0.00000000000E+00 -0.12095968667E+04  0.12095968667E+04  0.25500000920E-02 0.  1.
    10030    2    1    2    0    0  0.00000000000E+00  0.00000000000E+00 -0.11350857268E+04  0.12841080067E+04  0.60042798545E+03 0.  0.
        4    1    3    3  502    0 -0.42311263356E+02  0.13310465262E+03  0.79118574792E+00  0.13967580474E+03  0.12699999809E+01 0. -1.
       -4    1    3    3    0  502  0.42311263356E+02 -0.13310465262E+03 -0.11358769125E+04  0.11444322019E+04  0.12699999809E+01 0.  1.
</event>
<event>
 5   0  0.9303190E-03  0.6001789E+03  0.7818609E-02  0.9905035E-01
        2   -1    0    0  501    0  0.00000000000E+00  0.00000000000E+00  0.68493530645E+02  0.68493530693E+02  0.25500000920E-02 0.  1.
       -2   -1    0    0    0  501  0.00000000000E+00  0.00000000000E+00 -0.13147765986E+04  0.13147765986E+04  0.25500000920E-02 0. -1.
    10030    2    1    2    0    0  0.00000000000E+00  0.00000000000E+00 -0.12462830680E+04  0.13832701293E+04  0.60017894427E+03 0.  0.
        4    1    3    3  502    0  0.29992558329E+03 -0.95726236950E+01 -0.61794290242E+03  0.68695126042E+03  0.12699999809E+01 0. -1.
       -4    1    3    3    0  502 -0.29992558329E+03  0.95726236950E+01 -0.62834016557E+03  0.69631886892E+03  0.12699999809E+01 0.  1.
</event>
<event>
 5   0  0.9822607E-03  0.6011160E+03  0.7818609E-02  0.9903093E-01
       -2   -1    0    0    0  501  0.00000000000E+00  0.00000000000E+00  0.15876206973E+03  0.15876206975E+03  0.25500000920E-02 0.  1.
        2   -1    0    0  501    0  0.00000000000E+00  0.00000000000E+00 -0.56899676412E+03  0.56899676413E+03  0.25500000920E-02 0. -1.
    10030    2    1    2    0    0  0.00000000000E+00  0.00000000000E+00 -0.41023469439E+03  0.72775883388E+03  0.60111597534E+03 0.  0.
        3    1    3    3  502    0  0.60834163606E+01  0.29882810589E+03 -0.16683518946E+03  0.34229992034E+03  0.10100000352E+00 0.  1.
       -3    1    3    3    0  502 -0.60834163606E+01 -0.29882810589E+03 -0.24339950493E+03  0.38545891353E+03  0.10100000352E+00 0. -1.
</event>
<event>
 5   0  0.5765045E-03  0.5999927E+03  0.7818609E-02  0.9905421E-01
       -1   -1    0    0    0  501  0.00000000000E+00  0.00000000000E+00  0.69692457014E+02  0.69692457196E+02  0.50400001928E-02 0.  1.
        1   -1    0    0  501    0  0.00000000000E+00  0.00000000000E+00 -0.12913563752E+04  0.12913563752E+04  0.50400001928E-02 0. -1.
    10030    2    1    2    0    0  0.00000000000E+00  0.00000000000E+00 -0.12216639182E+04  0.13610488324E+04  0.59999266261E+03 0.  0.
        1    1    3    3  502    0 -0.22866128579E+03 -0.12947290952E+03 -0.28250611338E+03  0.38582239702E+03  0.50400001928E-02 0.  1.
       -1    1    3    3    0  502  0.22866128579E+03  0.12947290952E+03 -0.93915780479E+03  0.97522643537E+03  0.50400001928E-02 0. -1.
</event>
<event>
 5   0  0.9391405E-03  0.6004948E+03  0.7818609E-02  0.9904380E-01
       -2   -1    0    0    0  501  0.00000000000E+00  0.00000000000E+00  0.76211623753E+02  0.76211623795E+02  0.25500000920E-02 0.  1.
        2   -1    0    0  501    0  0.00000000000E+00  0.00000000000E+00 -0.11828709084E+04  0.11828709084E+04  0.25500000920E-02 0. -1.
    10030    2    1    2    0    0  0.00000000000E+00  0.00000000000E+00 -0.11066592847E+04  0.12590825322E+04  0.60049483811E+03 0.  0.
        2    1    3    3  502    0  0.12094743534E+03 -0.14231850884E+03 -0.10462453411E+04  0.10627850930E+04  0.25500000920E-02 0. -1.
       -2    1    3    3    0  502 -0.12094743534E+03  0.14231850884E+03 -0.60413943585E+02  0.19629743926E+03  0.25500000920E-02 0.  1.
</event>
<event>
 5   0  0.9028473E-03  0.5992955E+03  0.7818609E-02  0.9906869E-01
       -2   -1    0    0    0  501  0.00000000000E+00  0.00000000000E+00  0.40094044262E+02  0.40094044343E+02  0.25500000920E-02 0. -1.
        2   -1    0    0  501    0  0.00000000000E+00  0.00000000000E+00 -0.22394540169E+04  0.22394540169E+04  0.25500000920E-02 0.  1.
    10030    2    1    2    0    0  0.00000000000E+00  0.00000000000E+00 -0.21993599726E+04  0.22795480612E+04  0.59929548160E+03 0.  0.
        1    1    3    3  502    0  0.46357012402E+02 -0.14267567251E+03 -0.11303282493E+03  0.18783434101E+03  0.50400001928E-02 0. -1.
       -1    1    3    3    0  502 -0.46357012402E+02  0.14267567251E+03 -0.20863271477E+04  0.20917137202E+04  0.50400001928E-02 0.  1.
</event>
<event>
 5   0  0.6078658E-03  0.6002976E+03  0.7818609E-02  0.9904789E-01
        1   -1    0    0  501    0  0.00000000000E+00  0.00000000000E+00  0.18043740965E+03  0.18043740972E+03  0.50400001928E-02 0. -1.
       -1   -1    0    0    0  501  0.00000000000E+00  0.00000000000E+00 -0.49928279021E+03  0.49928279024E+03  0.50400001928E-02 0.  1.
    10030    2    1    2    0    0  0.00000000000E+00  0.00000000000E+00 -0.31884538057E+03  0.67972019995E+03  0.60029757081E+03 0.  0.
        2    1    3    3  502    0 -0.17198530942E+03 -0.24182643254E+03 -0.21044336333E+03  0.36379304461E+03  0.25500000920E-02 0. -1.
       -2    1    3    3    0  502  0.17198530942E+03  0.24182643254E+03 -0.10840201724E+03  0.31592715534E+03  0.25500000920E-02 0.  1.
</event>
<event>
 5   0  0.6078658E-03  0.6001767E+03  0.7818609E-02  0.9905040E-01
        1   -1    0    0  501    0  0.00000000000E+00  0.00000000000E+00  0.66340262730E+03  0.66340262732E+03  0.50400001928E-02 0.  1.
       -1   -1    0    0    0  501  0.00000000000E+00  0.00000000000E+00 -0.13574413157E+03  0.13574413166E+03  0.50400001928E-02 0. -1.
    10030    2    1    2    0    0  0.00000000000E+00  0.00000000000E+00  0.52765849573E+03  0.79914675898E+03  0.60017668587E+03 0.  0.
        2    1    3    3  502    0  0.12956493739E+03 -0.65655332236E+02  0.61347745360E+03  0.63043816646E+03  0.25500000920E-02 0.  1.
       -2    1    3    3    0  502 -0.12956493739E+03  0.65655332236E+02 -0.85818957865E+02  0.16870859251E+03  0.25500000920E-02 0. -1.
</event>
<event>
 5   0  0.9303190E-03  0.5984582E+03  0.7818609E-02  0.9908610E-01
        2   -1    0    0  501    0  0.00000000000E+00  0.00000000000E+00  0.58500277333E+03  0.58500277334E+03  0.25500000920E-02 0. -1.
       -2   -1    0    0    0  501  0.00000000000E+00  0.00000000000E+00 -0.15305576024E+03  0.15305576026E+03  0.25500000920E-02 0.  1.
    10030    2    1    2    0    0  0.00000000000E+00  0.00000000000E+00  0.43194701309E+03  0.73805853360E+03  0.59845816637E+03 0.  0.
        4    1    3    3  502    0  0.18999591623E+03  0.35103084150E+02  0.49775742600E+03  0.53394263993E+03  0.12699999809E+01 0. -1.
       -4    1    3    3    0  502 -0.18999591623E+03 -0.35103084150E+02 -0.65810412907E+02  0.20411589366E+03  0.12699999809E+01 0.  1.
</event>
<event>
 5   0  0.9303190E-03  0.5991457E+03  0.7818609E-02  0.9907180E-01
       -2   -1    0    0    0  501  0.00000000000E+00  0.00000000000E+00  0.65432839412E+02  0.65432839462E+02  0.25500000920E-02 0. -1.
        2   -1    0    0  501    0  0.00000000000E+00  0.00000000000E+00 -0.13715418782E+04  0.13715418782E+04  0.25500000920E-02 0.  1.
    10030    2    1    2    0    0  0.00000000000E+00  0.00000000000E+00 -0.13061090388E+04  0.14369747177E+04  0.59914565675E+03 0.  0.
        4    1    3    3  502    0  0.17452927756E+03 -0.22350347812E+03 -0.88469306039E+03  0.92903051482E+03  0.12699999809E+01 0.  1.
       -4    1    3    3    0  502 -0.17452927756E+03  0.22350347812E+03 -0.42141597841E+03  0.50794420286E+03  0.12699999809E+01 0. -1.
</event>
<event>
 5   0  0.9303190E-03  0.5997978E+03  0.7818609E-02  0.9905826E-01
       -2   -1    0    0    0  501  0.00000000000E+00  0.00000000000E+00  0.88910798327E+02  0.88910798363E+02  0.25500000920E-02 0.  1.
        2   -1    0    0  501    0  0.00000000000E+00  0.00000000000E+00 -0.10115682453E+04  0.10115682453E+04  0.25500000920E-02 0. -1.
    10030    2    1    2    0    0  0.00000000000E+00  0.00000000000E+00 -0.92265744697E+03  0.11004790437E+04  0.59979776683E+03 0.  0.
        4    1    3    3  502    0  0.18135434093E+03 -0.89231097922E+02 -0.86782482048E+03  0.89105169197E+03  0.12699999809E+01 0. -1.
       -4    1    3    3    0  502 -0.18135434093E+03  0.89231097922E+02 -0.54832626482E+02  0.20942735169E+03  0.12699999809E+01 0.  1.
</event>
<event>
 5   0  0.5790967E-03  0.5999608E+03  0.7818609E-02  0.9905487E-01
        1   -1    0    0  501    0  0.00000000000E+00  0.00000000000E+00  0.77408890864E+03  0.77408890865E+03  0.50400001928E-02 0. -1.
       -1   -1    0    0    0  501  0.00000000000E+00  0.00000000000E+00 -0.11625053349E+03  0.11625053360E+03  0.50400001928E-02 0.  1.
    10030    2    1    2    0    0  0.00000000000E+00  0.00000000000E+00  0.65783837515E+03  0.89033944225E+03  0.59996082756E+03 0.  0.
        3    1    3    3  502    0  0.59393023062E+02  0.46245608149E+02  0.75984578319E+03  0.76356519819E+03  0.10100000352E+00 0. -1.
       -3    1    3    3    0  502 -0.59393023062E+02 -0.46245608149E+02 -0.10200740804E+03  0.12677424406E+03  0.10100000352E+00 0.  1.
</event>
<event>
 5   0  0.3806250E-03  0.5986178E+03  0.7818609E-02  0.9908278E-01
       -3   -1    0    0    0  501  0.00000000000E+00  0.00000000000E+00  0.38972553814E+03  0.38972555123E+03  0.10100000352E+00 0.  1.
        3   -1    0    0  501    0  0.00000000000E+00  0.00000000000E+00 -0.22986893782E+03  0.22986896001E+03  0.10100000352E+00 0. -1.
    10030    2    1    2    0    0  0.00000000000E+00  0.00000000000E+00  0.15985660032E+03  0.61959451124E+03  0.59861776259E+03 0.  0.
        4    1    3    3  502    0 -0.90376590114E+02  0.23926262383E+03  0.24084208645E+03  0.35131332839E+03  0.12699999809E+01 0.  1.
       -4    1    3    3    0  502  0.90376590114E+02 -0.23926262383E+03 -0.80985486131E+02  0.26828118284E+03  0.12699999809E+01 0. -1.
</event>
<event>
 5   0  0.5790967E-03  0.5994887E+03  0.7818609E-02  0.9906467E-01
       -1   -1    0    0    0  501  0.00000000000E+00  0.00000000000E+00  0.11332673530E+03  0.11332673542E+03  0.50400001928E-02 0. -1.
        1   -1    0    0  501    0  0.00000000000E+00  0.00000000000E+00 -0.79281085077E+03  0.79281085078E+03  0.50400001928E-02 0.  1.
    10030    2    1    2    0    0  0.00000000000E+00  0.00000000000E+00 -0.67948411546E+03  0.90613758620E+03  0.59948866708E+03 0.  0.
        3    1    3    3  502    0 -0.16548825646E+03  0.24703141376E+03 -0.39701586323E+03  0.49601662096E+03  0.10100000352E+00 0.  1.
       -3    1    3    3    0  502  0.16548825646E+03 -0.24703141376E+03 -0.28246825223E+03  0.41012096524E+03  0.10100000352E+00 0. -1.
</event>
<event>
 5   0  0.9391405E-03  0.6007583E+03  0.7818609E-02  0.9903834E-01
        2   -1    0    0  501    0  0.00000000000E+00  0.00000000000E+00  0.50856016808E+03  0.50856016808E+03  0.25500000920E-02 0.  1.
       -2   -1    0    0    0  501  0.00000000000E+00  0.00000000000E+00 -0.17741783146E+03  0.17741783148E+03  0.25500000920E-02 0. -1.
    10030    2    1    2    0    0  0.00000000000E+00  0.00000000000E+00  0.33114233661E+03  0.68597799956E+03  0.60075832810E+03 0.  0.
        2    1    3    3  502    0 -0.39401225294E+02 -0.25170314473E+03 -0.16126079508E+02  0.25527824049E+03  0.25500000920E-02 0. -1.
       -2    1    3    3    0  502  0.39401225294E+02  0.25170314473E+03  0.34726841612E+03  0.43069975907E+03  0.25500000920E-02 0.  1.
</event>
<event>
 5   0  0.3806250E-03  0.5997836E+03  0.7818609E-02  0.9905855E-01
        4   -1    0    0  501    0  0.00000000000E+00  0.00000000000E+00  0.19717657960E+03  0.19718066955E+03  0.12699999809E+01 0. -1.
       -4   -1    0    0    0  501  0.00000000000E+00  0.00000000000E+00 -0.45610470931E+03  0.45610647743E+03  0.12699999809E+01 0.  1.
    10030    2    1    2    0    0  0.00000000000E+00  0.00000000000E+00 -0.25892812971E+03  0.65328714698E+03  0.59978356101E+03 0.  0.
        5    1    3    3  502    0 -0.19888929166E+03 -0.19272144117E+03 -0.25467281767E+03  0.37626963508E+03  0.46999998093E+01 0.  1.
       -5    1    3    3    0  502  0.19888929166E+03  0.19272144117E+03 -0.42553120315E+01  0.27701751190E+03  0.46999998093E+01 0. -1.
</event>
<event>
 5   0  0.6078658E-03  0.6002418E+03  0.7818609E-02  0.9904905E-01
       -1   -1    0    0    0  501  0.00000000000E+00  0.00000000000E+00  0.67251499350E+02  0.67251499539E+02  0.50400001928E-02 0. -1.
        1   -1    0    0  501    0  0.00000000000E+00  0.00000000000E+00 -0.13393389826E+04  0.13393389826E+04  0.50400001928E-02 0.  1.
    10030    2    1    2    0    0  0.00000000000E+00  0.00000000000E+00 -0.12720874832E+04  0.14065904821E+04  0.60024180079E+03 0.  0.
        2    1    3    3  502    0  0.10591343513E+03  0.20687399013E+03 -0.10810258652E+04  0.11057266501E+04  0.25500000920E-02 0.  1.
       -2    1    3    3    0  502 -0.10591343513E+03 -0.20687399013E+03 -0.19106161807E+03  0.30086383206E+03  0.25500000920E-02 0. -1.
</event>
<event>
 5   0  0.5765045E-03  0.6005896E+03  0.7818609E-02  0.9904184E-01
        1   -1    0    0  501    0  0.00000000000E+00  0.00000000000E+00  0.12192768586E+04  0.12192768586E+04  0.50400001928E-02 0. -1.
       -1   -1    0    0    0  501  0.00000000000E+00  0.00000000000E+00 -0.73959382697E+02  0.73959382869E+02  0.50400001928E-02 0.  1.
    10030    2    1    2    0    0  0.00000000000E+00  0.00000000000E+00  0.11453174759E+04  0.12932362415E+04  0.60058959005E+03 0.  0.
        1    1    3    3  502    0 -0.24568244683E+03 -0.46976481861E+02  0.21486255529E+03  0.32974622397E+03  0.50400001928E-02 0.  1.
       -1    1    3    3    0  502  0.24568244683E+03  0.46976481861E+02  0.93045492064E+03  0.96349001754E+03  0.50400001928E-02 0. -1.
</event>
<event>
 5   0  0.9391405E-03  0.6035355E+03  0.7818609E-02  0.9898098E-01
        2   -1    0    0  501    0  0.00000000000E+00  0.00000000000E+00  0.16602993675E+04  0.16602993675E+04  0.25500000920E-02 0. -1.
       -2   -1    0    0    0  501  0.00000000000E+00  0.00000000000E+00 -0.54847805308E+02  0.54847805368E+02  0.25500000920E-02 0.  1.
    10030    2    1    2    0    0  0.00000000000E+00  0.00000000000E+00  0.16054515622E+04  0.17151471729E+04  0.60353550522E+03 0.  0.
        2    1    3    3  502    0  0.14728721062E+03  0.13720572695E+03  0.14416318181E+04  0.14556171313E+04  0.25500000920E-02 0. -1.
       -2    1    3    3    0  502 -0.14728721062E+03 -0.13720572695E+03  0.16381974406E+03  0.25953004156E+03  0.25500000920E-02 0.  1.
</event>
<event>
 5   0  0.9303190E-03  0.5991822E+03  0.7818609E-02  0.9907104E-01
        2   -1    0    0  501    0  0.00000000000E+00  0.00000000000E+00  0.18029714768E+03  0.18029714770E+03  0.25500000920E-02 0.  1.
       -2   -1    0    0    0  501  0.00000000000E+00  0.00000000000E+00 -0.49781607275E+03  0.49781607276E+03  0.25500000920E-02 0. -1.
    10030    2    1    2    0    0  0.00000000000E+00  0.00000000000E+00 -0.31751892507E+03  0.67811322046E+03  0.59918216928E+03 0.  0.
        4    1    3    3  502    0 -0.10821540692E+03  0.16305360766E+01  0.15739686877E+03  0.19101994697E+03  0.12699999809E+01 0.  1.
       -4    1    3    3    0  502  0.10821540692E+03 -0.16305360766E+01 -0.47491579384E+03  0.48709327349E+03  0.12699999809E+01 0. -1.
</event>
<event>
 5   0  0.5765045E-03  0.5935013E+03  0.7818609E-02  0.9918981E-01
       -1   -1    0    0    0  501  0.00000000000E+00  0.00000000000E+00  0.49035506579E+02  0.49035506839E+02  0.50400001928E-02 0.  1.
        1   -1    0    0  501    0  0.00000000000E+00  0.00000000000E+00 -0.17958610037E+04  0.17958610037E+04  0.50400001928E-02 0. -1.
    10030    2    1    2    0    0  0.00000000000E+00  0.00000000000E+00 -0.17468254971E+04  0.18448965106E+04  0.59350132033E+03 0.  0.
        1    1    3    3  502    0  0.61860703807E+02  0.28081728324E+03 -0.64549699900E+03  0.70664805171E+03  0.50400001928E-02 0. -1.
       -1    1    3    3    0  502 -0.61860703807E+02 -0.28081728324E+03 -0.11013284981E+04  0.11382484589E+04  0.50400001928E-02 0.  1.
</event>
<event>
 5   0  0.9028473E-03  0.5996953E+03  0.7818609E-02  0.9906039E-01
        2   -1    0    0  501    0  0.00000000000E+00  0.00000000000E+00  0.62773110248E+03  0.62773110249E+03  0.25500000920E-02 0.  1.
       -2   -1    0    0    0  501  0.00000000000E+00  0.00000000000E+00 -0.14322788584E+03  0.14322788587E+03  0.25500000920E-02 0. -1.
    10030    2    1    2    0    0  0.00000000000E+00  0.00000000000E+00  0.48450321664E+03  0.77095898835E+03  0.59969525160E+03 0.  0.
        1    1    3    3  502    0  0.27468370198E+02  0.23731123483E+02  0.62489593144E+03  0.62594936116E+03  0.50400001928E-02 0.  1.
       -1    1    3    3    0  502 -0.27468370198E+02 -0.23731123483E+02 -0.14039271480E+03  0.14500962719E+03  0.50400001928E-02 0. -1.
</event>
<event>
 5   0  0.6078658E-03  0.5997879E+03  0.7818609E-02  0.9905846E-01
        1   -1    0    0  501    0  0.00000000000E+00  0.00000000000E+00  0.20943154493E+03  0.20943154499E+03  0.50400001928E-02 0.  1.
       -1   -1    0    0    0  501  0.00000000000E+00  0.00000000000E+00 -0.42943088926E+03  0.42943088929E+03  0.50400001928E-02 0. -1.
    10030    2    1    2    0    0  0.00000000000E+00  0.00000000000E+00 -0.21999934433E+03  0.63886243428E+03  0.59978787786E+03 0.  0.
        2    1    3    3  502    0 -0.71717795152E+02  0.27308551978E+03 -0.21766510268E+03  0.35650699880E+03  0.25500000920E-02 0. -1.
       -2    1    3    3    0  502  0.71717795152E+02 -0.27308551978E+03 -0.23342416488E+01  0.28235543548E+03  0.25500000920E-02 0.  1.
</event>
<event>
 5   0  0.5891927E-03  0.6003851E+03  0.7818609E-02  0.9904607E-01
       -1   -1    0    0    0  501  0.00000000000E+00  0.00000000000E+00  0.99682629198E+02  0.99682629325E+02  0.50400001928E-02 0. -1.
        1   -1    0    0  501    0  0.00000000000E+00  0.00000000000E+00 -0.90402481799E+03  0.90402481801E+03  0.50400001928E-02 0.  1.
    10030    2    1    2    0    0  0.00000000000E+00  0.00000000000E+00 -0.80434218880E+03  0.10037074473E+04  0.60038511237E+03 0.  0.
        4    1    3    3  502    0  0.84030694635E+02 -0.28655745771E+03 -0.45336184714E+03  0.54287651593E+03  0.12699999809E+01 0. -1.
       -4    1    3    3    0  502 -0.84030694635E+02  0.28655745771E+03 -0.35098034165E+03  0.46083093140E+03  0.12699999809E+01 0.  1.
</event>
<event>
 5   0  0.5765045E-03  0.5993381E+03  0.7818609E-02  0.9906780E-01
       -1   -1    0    0    0  501  0.00000000000E+00  0.00000000000E+00  0.10891580038E+03  0.10891580049E+03  0.50400001928E-02 0. -1.
        1   -1    0    0  501    0  0.00000000000E+00  0.00000000000E+00 -0.82450432610E+03  0.82450432611E+03  0.50400001928E-02 0.  1.
    10030    2    1    2    0    0  0.00000000000E+00  0.00000000000E+00 -0.71558852572E+03  0.93342012661E+03  0.59933813045E+03 0.  0.
        1    1    3    3  502    0 -0.74746148767E+01 -0.26197737650E+03 -0.58409486395E+03  0.64019905169E+03  0.50400001928E-02 0.  1.
       -1    1    3    3    0  502  0.74746148767E+01  0.26197737650E+03 -0.13149366178E+03  0.29322107492E+03  0.50400001928E-02 0. -1.
</event>
<event>
 5   0  0.5765045E-03  0.6013900E+03  0.7818609E-02  0.9902527E-01
       -1   -1    0    0    0  501  0.00000000000E+00  0.00000000000E+00  0.25854653708E+03  0.25854653713E+03  0.50400001928E-02 0. -1.
        1   -1    0    0  501    0  0.00000000000E+00  0.00000000000E+00 -0.34971450181E+03  0.34971450185E+03  0.50400001928E-02 0.  1.
    10030    2    1    2    0    0  0.00000000000E+00  0.00000000000E+00 -0.91167964730E+02  0.60826103898E+03  0.60138996812E+03 0.  0.
        1    1    3    3  502    0 -0.22294425980E+03  0.52464312840E+02 -0.24264542092E+03  0.33366667112E+03  0.50400001928E-02 0. -1.
       -1    1    3    3    0  502  0.22294425980E+03 -0.52464312840E+02  0.15147745619E+03  0.27459436786E+03  0.50400001928E-02 0.  1.
</event>
<event>
 5   0  0.5765045E-03  0.5996633E+03  0.7818609E-02  0.9906105E-01
       -1   -1    0    0    0  501  0.00000000000E+00  0.00000000000E+00  0.91144362385E+02  0.91144362525E+02  0.50400001928E-02 0. -1.
        1   -1    0    0  501    0  0.00000000000E+00  0.00000000000E+00 -0.98633667065E+03  0.98633667066E+03  0.50400001928E-02 0.  1.
    10030    2    1    2    0    0  0.00000000000E+00  0.00000000000E+00 -0.89519230826E+03  0.10774810332E+04  0.59966332896E+03 0.  0.
        1    1    3    3  502    0 -0.34983472729E+02  0.16000458188E+03 -0.89885565292E+03  0.91365573079E+03  0.50400001928E-02 0.  1.
       -1    1    3    3    0  502  0.34983472729E+02 -0.16000458188E+03  0.36633446613E+01  0.16382530240E+03  0.50400001928E-02 0. -1.
</event>
<event>
 5   0  0.3806250E-03  0.6001544E+03  0.7818609E-02  0.9905086E-01
       -3   -1    0    0    0  501  0.00000000000E+00  0.00000000000E+00  0.14621017962E+03  0.14621021451E+03  0.10100000352E+00 0. -1.
        3   -1    0    0  501    0  0.00000000000E+00  0.00000000000E+00 -0.61586903608E+03  0.61586904436E+03  0.10100000352E+00 0.  1.
    10030    2    1    2    0    0  0.00000000000E+00  0.00000000000E+00 -0.46965885646E+03  0.76207925887E+03  0.60015444292E+03 0.  0.
        3    1    3    3  502    0 -0.50157336248E+02 -0.29406097419E+03 -0.27614620044E+03  0.40650258196E+03  0.10100000352E+00 0.  1.
       -3    1    3    3    0  502  0.50157336248E+02  0.29406097419E+03 -0.19351265602E+03  0.35557667691E+03  0.10100000352E+00 0. -1.
</event>
<event>
 5   0  0.6078658E-03  0.5999512E+03  0.7818609E-02  0.9905507E-01
        1   -1    0    0  501    0  0.00000000000E+00  0.00000000000E+00  0.81745558806E+03  0.81745558808E+03  0.50400001928E-02 0. -1.
       -1   -1    0    0    0  501  0.00000000000E+00  0.00000000000E+00 -0.11007980888E+03  0.11007980899E+03  0.50400001928E-02 0.  1.
    10030    2    1    2    0    0  0.00000000000E+00  0.00000000000E+00  0.70737577918E+03  0.92753539707E+03  0.59995118121E+03 0.  0.
        2    1    3    3  502    0  0.45137262825E+02 -0.28544995591E+03  0.22936741004E+03  0.36895590335E+03  0.25500000920E-02 0.  1.
       -2    1    3    3    0  502 -0.45137262825E+02  0.28544995591E+03  0.47800836914E+03  0.55857949371E+03  0.25500000920E-02 0. -1.
</event>
<event>
 5   0  0.5891927E-03  0.6011507E+03  0.7818609E-02  0.9903022E-01
       -1   -1    0    0    0  501  0.00000000000E+00  0.00000000000E+00  0.32747224592E+03  0.32747224596E+03  0.50400001928E-02 0.  1.
        1   -1    0    0  501    0  0.00000000000E+00  0.00000000000E+00 -0.27588759721E+03  0.27588759725E+03  0.50400001928E-02 0. -1.
    10030    2    1    2    0    0  0.00000000000E+00  0.00000000000E+00  0.51584648714E+02  0.60335984321E+03  0.60115066699E+03 0.  0.
        4    1    3    3  502    0  0.19753303693E+03 -0.20128056401E+02 -0.20069038098E+03  0.28231663297E+03  0.12699999809E+01 0. -1.
       -4    1    3    3    0  502 -0.19753303693E+03  0.20128056401E+02  0.25227502970E+03  0.32104321024E+03  0.12699999809E+01 0.  1.
</event>
<event>
 5   0  0.9391405E-03  0.5997728E+03  0.7818609E-02  0.9905878E-01
       -2   -1    0    0    0  501  0.00000000000E+00  0.00000000000E+00  0.48174891022E+02  0.48174891089E+02  0.25500000920E-02 0.  1.
        2   -1    0    0  501    0  0.00000000000E+00  0.00000000000E+00 -0.18667783005E+04  0.18667783005E+04  0.25500000920E-02 0. -1.
    10030    2    1    2    0    0  0.00000000000E+00  0.00000000000E+00 -0.18186034095E+04  0.19149531916E+04  0.59977276115E+03 0.  0.
        2    1    3    3  502    0  0.11439345291E+03 -0.27720231937E+03 -0.90226789609E+03  0.95079668923E+03  0.25500000920E-02 0.  1.
       -2    1    3    3    0  502 -0.11439345291E+03  0.27720231937E+03 -0.91633551338E+03  0.96415650235E+03  0.25500000920E-02 0. -1.
</event>
<event>
 5   0  0.3806250E-03  0.5989227E+03  0.7818609E-02  0.9907644E-01
       -4   -1    0    0    0  501  0.00000000000E+00  0.00000000000E+00  0.47215724589E+03  0.47215895390E+03  0.12699999809E+01 0.  1.
        4   -1    0    0  501    0  0.00000000000E+00  0.00000000000E+00 -0.18992639163E+03  0.18993063770E+03  0.12699999809E+01 0. -1.
    10030    2    1    2    0    0  0.00000000000E+00  0.00000000000E+00  0.28223085425E+03  0.66208959160E+03  0.59892267632E+03 0.  0.
        3    1    3    3  502    0  0.16439792304E+03  0.14898626952E+03  0.36345872367E+03  0.42582371895E+03  0.10100000352E+00 0.  1.
       -3    1    3    3    0  502 -0.16439792304E+03 -0.14898626952E+03 -0.81227869419E+02  0.23626587265E+03  0.10100000352E+00 0. -1.
</event>
<event>
 5   0  0.5819446E-03  0.5949758E+03  0.7818609E-02  0.9915885E-01
        1   -1    0    0  501    0  0.00000000000E+00  0.00000000000E+00  0.12484747503E+04  0.12484747503E+04  0.50400001928E-02 0. -1.
       -1   -1    0    0    0  501  0.00000000000E+00  0.00000000000E+00 -0.70885727911E+02  0.70885728090E+02  0.50400001928E-02 0.  1.
    10030    2    1    2    0    0  0.00000000000E+00  0.00000000000E+00  0.11775890224E+04  0.13193604784E+04  0.59497576951E+03 0.  0.
        5    1    3    3  502    0 -0.21430638173E+03 -0.17454670189E+03  0.83255018156E+03  0.87724322238E+03  0.46999998093E+01 0. -1.
       -5    1    3    3    0  502  0.21430638173E+03  0.17454670189E+03  0.34503884081E+03  0.44211725600E+03  0.46999998093E+01 0.  1.
</event>
<event>
 5   0  0.9028473E-03  0.5990390E+03  0.7818609E-02  0.9907402E-01
       -2   -1    0    0    0  501  0.00000000000E+00  0.00000000000E+00  0.53096296847E+02  0.53096296908E+02  0.25500000920E-02 0. -1.
        2   -1    0    0  501    0  0.00000000000E+00  0.00000000000E+00 -0.16896081664E+04  0.16896081664E+04  0.25500000920E-02 0.  1.
    10030    2    1    2    0    0  0.00000000000E+00  0.00000000000E+00 -0.16365118695E+04  0.17427044633E+04  0.59903901981E+03 0.  0.
        1    1    3    3  502    0 -0.26479887962E+03 -0.12842881750E+03 -0.98021918431E+03  0.10234461672E+04  0.50400001928E-02 0.  1.
       -1    1    3    3    0  502  0.26479887962E+03  0.12842881750E+03 -0.65629268523E+03  0.71925829611E+03  0.50400001928E-02 0. -1.
</event>
<event>
 5   0  0.9028473E-03  0.5999225E+03  0.7818609E-02  0.9905567E-01
        2   -1    0    0  501    0  0.00000000000E+00  0.00000000000E+00  0.31882977420E+03  0.31882977421E+03  0.25500000920E-02 0. -1.
       -2   -1    0    0    0  501  0.00000000000E+00  0.00000000000E+00 -0.28220935131E+03  0.28220935132E+03  0.25500000920E-02 0.  1.
    10030    2    1    2    0    0  0.00000000000E+00  0.00000000000E+00  0.36620422893E+02  0.60103912553E+03  0.59992247420E+03 0.  0.
        1    1    3    3  502    0 -0.53228714764E+02 -0.13976565693E+03  0.27881151251E+03  0.31639152085E+03  0.50400001928E-02 0. -1.
       -1    1    3    3    0  502  0.53228714764E+02  0.13976565693E+03 -0.24219108962E+03  0.28464760468E+03  0.50400001928E-02 0.  1.
</event>
<event>
 5   0  0.9391405E-03  0.5993455E+03  0.7818609E-02  0.9906765E-01
       -2   -1    0    0    0  501  0.00000000000E+00  0.00000000000E+00  0.50740661232E+02  0.50740661296E+02  0.25500000920E-02 0.  1.
        2   -1    0    0  501    0  0.00000000000E+00  0.00000000000E+00 -0.17698578355E+04  0.17698578355E+04  0.25500000920E-02 0. -1.
    10030    2    1    2    0    0  0.00000000000E+00  0.00000000000E+00 -0.17191171743E+04  0.18205984968E+04  0.59934549942E+03 0.  0.
        2    1    3    3  502    0  0.38932563902E+02 -0.38046662588E+02  0.35595911516E+02  0.65041232993E+02  0.25500000920E-02 0.  1.
       -2    1    3    3    0  502 -0.38932563902E+02  0.38046662588E+02 -0.17547130858E+04  0.17555572638E+04  0.25500000920E-02 0. -1.
</event>
<event>
 5   0  0.9162342E-03  0.6000831E+03  0.7818609E-02  0.9905234E-01
       -2   -1    0    0    0  501  0.00000000000E+00  0.00000000000E+00  0.32178192974E+03  0.32178192975E+03  0.25500000920E-02 0.  1.
        2   -1    0    0  501    0  0.00000000000E+00  0.00000000000E+00 -0.27977002831E+03  0.27977002832E+03  0.25500000920E-02 0. -1.
    10030    2    1    2    0    0  0.00000000000E+00  0.00000000000E+00  0.42011901432E+02  0.60155195807E+03  0.60008312624E+03 0.  0.
        5    1    3    3  502    0 -0.20125975248E+02  0.26919416375E+03  0.15221673341E+03  0.30993963380E+03  0.46999998093E+01 0.  1.
       -5    1    3    3    0  502  0.20125975248E+02 -0.26919416375E+03 -0.11020483197E+03  0.29161232427E+03  0.46999998093E+01 0. -1.
</event>
<event>
 5   0  0.6078658E-03  0.6002174E+03  0.7818609E-02  0.9904955E-01
       -1   -1    0    0    0  501  0.00000000000E+00  0.00000000000E+00  0.99360937088E+02  0.99360937216E+02  0.50400001928E-02 0.  1.
        1   -1    0    0  501    0  0.00000000000E+00  0.00000000000E+00 -0.90644522021E+03  0.90644522023E+03  0.50400001928E-02 0. -1.
    10030    2    1    2    0    0  0.00000000000E+00  0.00000000000E+00 -0.80708428313E+03  0.10058061574E+04  0.60021744917E+03 0.  0.
        2    1    3    3  502    0  0.22404033002E+03  0.31051356323E+02 -0.73407869312E+03  0.76813396222E+03  0.25500000920E-02 0. -1.
       -2    1    3    3    0  502 -0.22404033002E+03 -0.31051356323E+02 -0.73005590002E+02  0.23767219523E+03  0.25500000920E-02 0.  1.
</event>
<event>
 5   0  0.9028473E-03  0.6011838E+03  0.7818609E-02  0.9902953E-01
       -2   -1    0    0    0  501  0.00000000000E+00  0.00000000000E+00  0.22427467649E+03  0.22427467650E+03  0.25500000920E-02 0.  1.
        2   -1    0    0  501    0  0.00000000000E+00  0.00000000000E+00 -0.40287868926E+03  0.40287868927E+03  0.25500000920E-02 0. -1.
    10030    2    1    2    0    0  0.00000000000E+00  0.00000000000E+00 -0.17860401277E+03  0.62715336577E+03  0.60118379121E+03 0.  0.
        1    1    3    3  502    0 -0.11733680033E+03 -0.92363024050E+02  0.18284385216E+03  0.23607356316E+03  0.50400001928E-02 0.  1.
       -1    1    3    3    0  502  0.11733680033E+03  0.92363024050E+02 -0.36144786493E+03  0.39107980261E+03  0.50400001928E-02 0. -1.
</event>
<event>
 5   0  0.5765045E-03  0.6000244E+03  0.7818609E-02  0.9905355E-01
        1   -1    0    0  501    0  0.00000000000E+00  0.00000000000E+00  0.65866757943E+03  0.65866757945E+03  0.50400001928E-02 0.  1.
       -1   -1    0    0    0  501  0.00000000000E+00  0.00000000000E+00 -0.13665060367E+03  0.13665060376E+03  0.50400001928E-02 0. -1.
    10030    2    1    2    0    0  0.00000000000E+00  0.00000000000E+00  0.52201697576E+03  0.79531818320E+03  0.60002440747E+03 0.  0.
        1    1    3    3  502    0 -0.28586439042E+01 -0.66118822118E+02 -0.12685464871E+03  0.14308030056E+03  0.50400001928E-02 0. -1.
       -1    1    3    3    0  502  0.28586439042E+01  0.66118822118E+02  0.64887162447E+03  0.65223788264E+03  0.50400001928E-02 0.  1.
</event>
<event>
 5   0  0.3806250E-03  0.6000206E+03  0.7818609E-02  0.9905363E-01
       -4   -1    0    0    0  501  0.00000000000E+00  0.00000000000E+00  0.12089973868E+03  0.12090640890E+03  0.12699999809E+01 0. -1.
        4   -1    0    0  501    0  0.00000000000E+00  0.00000000000E+00 -0.74444175590E+03  0.74444283919E+03  0.12699999809E+01 0.  1.
    10030    2    1    2    0    0  0.00000000000E+00  0.00000000000E+00 -0.62354201722E+03  0.86534924809E+03  0.60002056125E+03 0.  0.
        4    1    3    3  502    0  0.15742006670E+03 -0.20369172292E+03 -0.89591975157E+02  0.27257976869E+03  0.12699999809E+01 0. -1.
       -4    1    3    3    0  502 -0.15742006670E+03  0.20369172292E+03 -0.53395004206E+03  0.59276947940E+03  0.12699999809E+01 0.  1.
</event>
<event>
 5   0  0.5765045E-03  0.5991689E+03  0.7818609E-02  0.9907132E-01
        1   -1    0    0  501    0  0.00000000000E+00  0.00000000000E+00  0.64663717947E+03  0.64663717949E+03  0.50400001928E-02 0. -1.
       -1   -1    0    0    0  501  0.00000000000E+00  0.00000000000E+00 -0.13879631436E+03  0.13879631445E+03  0.50400001928E-02 0.  1.
    10030    2    1    2    0    0  0.00000000000E+00  0.00000000000E+00  0.50784086511E+03  0.78543349394E+03  0.59916894873E+03 0.  0.
        1    1    3    3  502    0 -0.80032681900E+02 -0.18759595888E+03  0.54157648888E+03  0.57870766997E+03  0.50400001928E-02 0. -1.
       -1    1    3    3    0  502  0.80032681900E+02  0.18759595888E+03 -0.33735623760E+02  0.20672582397E+03  0.50400001928E-02 0.  1.
</event>
<event>
 5   0  0.5819446E-03  0.6050788E+03  0.7818609E-02  0.9894925E-01
       -1   -1    0    0    0  501  0.00000000000E+00  0.00000000000E+00  0.16646631586E+03  0.16646631593E+03  0.50400001928E-02 0. -1.
        1   -1    0    0  501    0  0.00000000000E+00  0.00000000000E+00 -0.54984154509E+03  0.54984154511E+03  0.50400001928E-02 0.  1.
    10030    2    1    2    0    0  0.00000000000E+00  0.00000000000E+00 -0.38337522923E+03  0.71630786105E+03  0.60507882578E+03 0.  0.
        5    1    3    3  502    0 -0.16717799018E+03 -0.11658533678E+03 -0.45631273801E+03  0.49978397936E+03  0.46999998093E+01 0.  1.
       -5    1    3    3    0  502  0.16717799018E+03  0.11658533678E+03  0.72937508780E+02  0.21652388169E+03  0.46999998093E+01 0. -1.
</event>
<event>
 5   0  0.3806250E-03  0.5980873E+03  0.7818609E-02  0.9909382E-01
       -4   -1    0    0    0  501  0.00000000000E+00  0.00000000000E+00  0.13263554105E+03  0.13264162111E+03  0.12699999809E+01 0.  1.
        4   -1    0    0  501    0  0.00000000000E+00  0.00000000000E+00 -0.67420979597E+03  0.67421099211E+03  0.12699999809E+01 0. -1.
    10030    2    1    2    0    0  0.00000000000E+00  0.00000000000E+00 -0.54157425492E+03  0.80685261322E+03  0.59808733966E+03 0.  0.
        4    1    3    3  502    0  0.14381451451E+02 -0.99910942987E+02 -0.65053223745E+03  0.65831818108E+03  0.12699999809E+01 0. -1.
       -4    1    3    3    0  502 -0.14381451451E+02  0.99910942987E+02  0.10895798253E+03  0.14853443214E+03  0.12699999809E+01 0.  1.
</event>
<event>
 5   0  0.9028473E-03  0.6002348E+03  0.7818609E-02  0.9904919E-01
        2   -1    0    0  501    0  0.00000000000E+00  0.00000000000E+00  0.27024100093E+03  0.27024100094E+03  0.25500000920E-02 0. -1.
       -2   -1    0    0    0  501  0.00000000000E+00  0.00000000000E+00 -0.33329680571E+03  0.33329680572E+03  0.25500000920E-02 0.  1.
    10030    2    1    2    0    0  0.00000000000E+00  0.00000000000E+00 -0.63055804782E+02  0.60353780666E+03  0.60023482868E+03 0.  0.
        1    1    3    3  502    0  0.23541882802E+03  0.58102358347E+02 -0.20934149724E+03  0.32034632997E+03  0.50400001928E-02 0.  1.
       -1    1    3    3    0  502 -0.23541882802E+03 -0.58102358347E+02  0.14628569245E+03  0.28319147670E+03  0.50400001928E-02 0. -1.
</event>
<event>
 5   0  0.9822607E-03  0.5980364E+03  0.7818609E-02  0.9909488E-01
        2   -1    0    0  501    0  0.00000000000E+00  0.00000000000E+00  0.84971235273E+03  0.84971235274E+03  0.25500000920E-02 0. -1.
       -2   -1    0    0    0  501  0.00000000000E+00  0.00000000000E+00 -0.10522605769E+03  0.10522605772E+03  0.25500000920E-02 0.  1.
    10030    2    1    2    0    0  0.00000000000E+00  0.00000000000E+00  0.74448629505E+03  0.95493841046E+03  0.59803639041E+03 0.  0.
        3    1    3    3  502    0 -0.16379234550E+03 -0.18353692859E+03  0.10079764336E+03  0.26584565392E+03  0.10100000352E+00 0.  1.
       -3    1    3    3    0  502  0.16379234550E+03  0.18353692859E+03  0.64368865169E+03  0.68909275654E+03  0.10100000352E+00 0. -1.
</event>
<event>
 5   0  0.5765045E-03  0.6002923E+03  0.7818609E-02  0.9904800E-01
        1   -1    0    0  501    0  0.00000000000E+00  0.00000000000E+00  0.11245768746E+04  0.11245768746E+04  0.50400001928E-02 0. -1.
       -1   -1    0    0    0  501  0.00000000000E+00  0.00000000000E+00 -0.80108083528E+02  0.80108083686E+02  0.50400001928E-02 0.  1.
    10030    2    1    2    0    0  0.00000000000E+00  0.00000000000E+00  0.10444687911E+04  0.12046849583E+04  0.60029225651E+03 0.  0.
        1    1    3    3  502    0  0.21603428596E+02 -0.28939000640E+03  0.67604739264E+03  0.73569923274E+03  0.50400001928E-02 0.  1.
       -1    1    3    3    0  502 -0.21603428596E+02  0.28939000640E+03  0.36842139845E+03  0.46898572557E+03  0.50400001928E-02 0. -1.
</event>
<event>
 5   0  0.6078658E-03  0.6012036E+03  0.7818609E-02  0.9902912E-01
       -1   -1    0    0    0  501  0.00000000000E+00  0.00000000000E+00  0.86747853025E+02  0.86747853171E+02  0.50400001928E-02 0.  1.
        1   -1    0    0  501    0  0.00000000000E+00  0.00000000000E+00 -0.10416560817E+04  0.10416560817E+04  0.50400001928E-02 0. -1.
    10030    2    1    2    0    0  0.00000000000E+00  0.00000000000E+00 -0.95490822866E+03  0.11284039349E+04  0.60120355543E+03 0.  0.
        2    1    3    3  502    0 -0.29103481052E+03 -0.67837184018E+02 -0.41639588209E+03  0.51253163326E+03  0.25500000920E-02 0.  1.
       -2    1    3    3    0  502  0.29103481052E+03  0.67837184018E+02 -0.53851234658E+03  0.61587230161E+03  0.25500000920E-02 0. -1.
</event>
<event>
 5   0  0.3806250E-03  0.5999698E+03  0.7818609E-02  0.9905469E-01
        3   -1    0    0  501    0  0.00000000000E+00  0.00000000000E+00  0.70221727177E+03  0.70221727903E+03  0.10100000352E+00 0. -1.
       -3   -1    0    0    0  501  0.00000000000E+00  0.00000000000E+00 -0.12815252144E+03  0.12815256124E+03  0.10100000352E+00 0.  1.
    10030    2    1    2    0    0  0.00000000000E+00  0.00000000000E+00  0.57406475033E+03  0.83036984027E+03  0.59996977762E+03 0.  0.
        2    1    3    3  502    0  0.42023885575E+02  0.25746355260E+03  0.82041173425E+02  0.27346707667E+03  0.25500000920E-02 0.  1.
       -2    1    3    3    0  502 -0.42023885575E+02 -0.25746355260E+03  0.49202357690E+03  0.55690276360E+03  0.25500000920E-02 0. -1.
</event>
<event>
 5   0  0.5891927E-03  0.6013181E+03  0.7818609E-02  0.9902675E-01
        1   -1    0    0  501    0  0.00000000000E+00  0.00000000000E+00  0.23294502778E+03  0.23294502784E+03  0.50400001928E-02 0.  1.
       -1   -1    0    0    0  501  0.00000000000E+00  0.00000000000E+00 -0.38805669372E+03  0.38805669375E+03  0.50400001928E-02 0. -1.
    10030    2    1    2    0    0  0.00000000000E+00  0.00000000000E+00 -0.15511166594E+03  0.62100172159E+03  0.60131814318E+03 0.  0.
        4    1    3    3  502    0 -0.85984016335E+02  0.15461078215E+03  0.17349949815E+03  0.24779312699E+03  0.12699999809E+01 0.  1.
       -4    1    3    3    0  502  0.85984016335E+02 -0.15461078215E+03 -0.32861116409E+03  0.37320859461E+03  0.12699999809E+01 0. -1.
</event>
<event>
 5   0  0.6078658E-03  0.5989394E+03  0.7818609E-02  0.9907609E-01
        1   -1    0    0  501    0  0.00000000000E+00  0.00000000000E+00  0.21704512966E+03  0.21704512972E+03  0.50400001928E-02 0. -1.
       -1   -1    0    0    0  501  0.00000000000E+00  0.00000000000E+00 -0.41319567299E+03  0.41319567302E+03  0.50400001928E-02 0.  1.
    10030    2    1    2    0    0  0.00000000000E+00  0.00000000000E+00 -0.19615054332E+03  0.63024080274E+03  0.59893942414E+03 0.  0.
        2    1    3    3  502    0 -0.47019820386E+02 -0.11581974315E+03 -0.38443158822E+03  0.40424339504E+03  0.25500000920E-02 0.  1.
       -2    1    3    3    0  502  0.47019820386E+02  0.11581974315E+03  0.18828104489E+03  0.22599740769E+03  0.25500000920E-02 0. -1.
</event>
<event>
 5   0  0.5790967E-03  0.6004615E+03  0.7818609E-02  0.9904449E-01
        1   -1    0    0  501    0  0.00000000000E+00  0.00000000000E+00  0.21869214395E+04  0.21869214395E+04  0.50400001928E-02 0.  1.
       -1   -1    0    0    0  501  0.00000000000E+00  0.00000000000E+00 -0.41217076661E+02  0.41217076969E+02  0.50400001928E-02 0. -1.
    10030    2    1    2    0    0  0.00000000000E+00  0.00000000000E+00  0.21457043629E+04  0.22281385165E+04  0.60046151908E+03 0.  0.
        3    1    3    3  502    0 -0.24158580760E+03 -0.11399477808E+03  0.56433615108E+03  0.62436672996E+03  0.10100000352E+00 0. -1.
       -3    1    3    3    0  502  0.24158580760E+03  0.11399477808E+03  0.15813682118E+04  0.16037717865E+04  0.10100000352E+00 0.  1.
</event>
<event>
 5   0  0.9028473E-03  0.5987040E+03  0.7818609E-02  0.9908099E-01
       -2   -1    0    0    0  501  0.00000000000E+00  0.00000000000E+00  0.18560635388E+03  0.18560635389E+03  0.25500000920E-02 0.  1.
        2   -1    0    0  501    0  0.00000000000E+00  0.00000000000E+00 -0.48280467842E+03  0.48280467843E+03  0.25500000920E-02 0. -1.
    10030    2    1    2    0    0  0.00000000000E+00  0.00000000000E+00 -0.29719832455E+03  0.66841103232E+03  0.59870398697E+03 0.  0.
        1    1    3    3  502    0  0.23397153635E+03 -0.30320295423E+01 -0.35704515449E+03  0.42688770818E+03  0.50400001928E-02 0. -1.
       -1    1    3    3    0  502 -0.23397153635E+03  0.30320295423E+01  0.59846829947E+02  0.24152332414E+03  0.50400001928E-02 0.  1.
</event>
<event>
 5   0  0.5819446E-03  0.6016461E+03  0.7818609E-02  0.9901997E-01
        1   -1    0    0  501    0  0.00000000000E+00  0.00000000000E+00  0.15681252236E+03  0.15681252245E+03  0.50400001928E-02 0. -1.
       -1   -1    0    0    0  501  0.00000000000E+00  0.00000000000E+00 -0.57708722499E+03  0.57708722501E+03  0.50400001928E-02 0.  1.
    10030    2    1    2    0    0  0.00000000000E+00  0.00000000000E+00 -0.42027470263E+03  0.73389974746E+03  0.60164608671E+03 0.  0.
        5    1    3    3  502    0  0.19378178385E+03 -0.18099359675E+03 -0.38334466809E+03  0.46613869864E+03  0.46999998093E+01 0.  1.
       -5    1    3    3    0  502 -0.19378178385E+03  0.18099359675E+03 -0.36930034541E+02  0.26776104882E+03  0.46999998093E+01 0. -1.
</event>
<event>
 5   0  0.9391405E-03  0.6050700E+03  0.7818609E-02  0.9894943E-01
       -2   -1    0    0    0  501  0.00000000000E+00  0.00000000000E+00  0.36082470726E+03  0.36082470727E+03  0.25500000920E-02 0. -1.
        2   -1    0    0  501    0  0.00000000000E+00  0.00000000000E+00 -0.25366175403E+03  0.25366175404E+03  0.25500000920E-02 0.  1.
    10030    2    1    2    0    0  0.00000000000E+00  0.00000000000E+00  0.10716295324E+03  0.61448646131E+03  0.60507000635E+03 0.  0.
        2    1    3    3  502    0  0.15047444508E+03  0.14295303608E+03 -0.16995605053E+03  0.26825955392E+03  0.25500000920E-02 0.  1.
       -2    1    3    3    0  502 -0.15047444508E+03 -0.14295303608E+03  0.27711900377E+03  0.34622690740E+03  0.25500000920E-02 0. -1.
</event>
<event>
 5   0  0.6078658E-03  0.5979118E+03  0.7818609E-02  0.9909748E-01
       -1   -1    0    0    0  501  0.00000000000E+00  0.00000000000E+00  0.21782240266E+03  0.21782240272E+03  0.50400001928E-02 0. -1.
        1   -1    0    0  501    0  0.00000000000E+00  0.00000000000E+00 -0.41030966544E+03  0.41030966547E+03  0.50400001928E-02 0.  1.
    10030    2    1    2    0    0  0.00000000000E+00  0.00000000000E+00 -0.19248726278E+03  0.62813206819E+03  0.59791182356E+03 0.  0.
        2    1    3    3  502    0 -0.16538498097E+03  0.20522197726E+03 -0.24446472985E+03  0.35948749078E+03  0.25500000920E-02 0.  1.
       -2    1    3    3    0  502  0.16538498097E+03 -0.20522197726E+03  0.51977467067E+02  0.26864457741E+03  0.25500000920E-02 0. -1.
</event>
<event>
 5   0  0.9822607E-03  0.6003028E+03  0.7818609E-02  0.9904778E-01
        2   -1    0    0  501    0  0.00000000000E+00  0.00000000000E+00  0.16191324680E+04  0.16191324680E+04  0.25500000920E-02 0. -1.
       -2   -1    0    0    0  501  0.00000000000E+00  0.00000000000E+00 -0.55641441773E+02  0.55641441831E+02  0.25500000920E-02 0.  1.
    10030    2    1    2    0    0  0.00000000000E+00  0.00000000000E+00  0.15634910263E+04  0.16747739099E+04  0.60030280690E+03 0.  0.
        3    1    3    3  502    0 -0.11110611088E+03  0.23357030474E+03  0.35688397199E+03  0.44075598101E+03  0.10100000352E+00 0.  1.
       -3    1    3    3    0  502  0.11110611088E+03 -0.23357030474E+03  0.12066070543E+04  0.12340179288E+04  0.10100000352E+00 0. -1.
</event>
<event>
 5   0  0.5765045E-03  0.5926389E+03  0.7818609E-02  0.9920797E-01
       -1   -1    0    0    0  501  0.00000000000E+00  0.00000000000E+00  0.55144307339E+02  0.55144307570E+02  0.50400001928E-02 0. -1.
        1   -1    0    0  501    0  0.00000000000E+00  0.00000000000E+00 -0.15922805914E+04  0.15922805914E+04  0.50400001928E-02 0.  1.
    10030    2    1    2    0    0  0.00000000000E+00  0.00000000000E+00 -0.15371362841E+04  0.16474248990E+04  0.59263887992E+03 0.  0.
        1    1    3    3  502    0 -0.25834439424E+03 -0.12518943634E+03 -0.97267130143E+03  0.10141517054E+04  0.50400001928E-02 0.  1.
       -1    1    3    3    0  502  0.25834439424E+03  0.12518943634E+03 -0.56446498264E+03  0.63327319354E+03  0.50400001928E-02 0. -1.
</event>
<event>
 5   0  0.9822607E-03  0.6065336E+03  0.7818609E-02  0.9891943E-01
       -2   -1    0    0    0  501  0.00000000000E+00  0.00000000000E+00  0.18744340898E+03  0.18744340900E+03  0.25500000920E-02 0.  1.
        2   -1    0    0  501    0  0.00000000000E+00  0.00000000000E+00 -0.49065881769E+03  0.49065881770E+03  0.25500000920E-02 0. -1.
    10030    2    1    2    0    0  0.00000000000E+00  0.00000000000E+00 -0.30321540870E+03  0.67810222670E+03  0.60653363120E+03 0.  0.
        3    1    3    3  502    0 -0.17847248808E+02 -0.16633765268E+03 -0.43440549925E+03  0.46550498060E+03  0.10100000352E+00 0. -1.
       -3    1    3    3    0  502  0.17847248808E+02  0.16633765268E+03  0.13119009054E+03  0.21259724609E+03  0.10100000352E+00 0.  1.
</event>
<event>
 5   0  0.5790967E-03  0.5980063E+03  0.7818609E-02  0.9909551E-01
       -1   -1    0    0    0  501  0.00000000000E+00  0.00000000000E+00  0.99903528151E+02  0.99903528278E+02  0.50400001928E-02 0.  1.
        1   -1    0    0  501    0  0.00000000000E+00  0.00000000000E+00 -0.89489222786E+03  0.89489222788E+03  0.50400001928E-02 0. -1.
    10030    2    1    2    0    0  0.00000000000E+00  0.00000000000E+00 -0.79498869971E+03  0.99479575616E+03  0.59800632421E+03 0.  0.
        3    1    3    3  502    0  0.14730630140E+02 -0.36839951980E+02  0.95505051743E+02  0.10341856040E+03  0.10100000352E+00 0.  1.
       -3    1    3    3    0  502 -0.14730630140E+02  0.36839951980E+02 -0.89049375146E+03  0.89137719575E+03  0.10100000352E+00 0. -1.
</event>
<event>
 5   0  0.5819446E-03  0.6001114E+03  0.7818609E-02  0.9905175E-01
       -1   -1    0    0    0  501  0.00000000000E+00  0.00000000000E+00  0.61585586393E+02  0.61585586599E+02  0.50400001928E-02 0. -1.
        1   -1    0    0  501    0  0.00000000000E+00  0.00000000000E+00 -0.14619236864E+04  0.14619236864E+04  0.50400001928E-02 0.  1.
    10030    2    1    2    0    0  0.00000000000E+00  0.00000000000E+00 -0.14003381000E+04  0.15235092730E+04  0.60011141517E+03 0.  0.
        5    1    3    3  502    0  0.59806021647E+02  0.26628468753E+03 -0.10165115822E+04  0.10525218201E+04  0.46999998093E+01 0.  1.
       -5    1    3    3    0  502 -0.59806021647E+02 -0.26628468753E+03 -0.38382651785E+03  0.47098745295E+03  0.46999998093E+01 0. -1.
</event>
<event>
 5   0  0.5790967E-03  0.5954297E+03  0.7818609E-02  0.9914934E-01
       -1   -1    0    0    0  501  0.00000000000E+00  0.00000000000E+00  0.50986624206E+03  0.50986624208E+03  0.50400001928E-02 0. -1.
        1   -1    0    0  501    0  0.00000000000E+00  0.00000000000E+00 -0.17383797960E+03  0.17383797968E+03  0.50400001928E-02 0.  1.
    10030    2    1    2    0    0  0.00000000000E+00  0.00000000000E+00  0.33602826245E+03  0.68370422176E+03  0.59542965133E+03 0.  0.
        3    1    3    3  502    0 -0.62271455937E+02 -0.28359006844E+03  0.92429333147E+02  0.30470354933E+03  0.10100000352E+00 0.  1.
       -3    1    3    3    0  502  0.62271455937E+02  0.28359006844E+03  0.24359892931E+03  0.37900067243E+03  0.10100000352E+00 0. -1.
</event>
<event>
 5   0  0.9162342E-03  0.5994591E+03  0.7818609E-02  0.9906529E-01
       -2   -1    0    0    0  501  0.00000000000E+00  0.00000000000E+00  0.17636202256E+03  0.17636202258E+03  0.25500000920E-02 0. -1.
        2   -1    0    0  501    0  0.00000000000E+00  0.00000000000E+00 -0.50939427527E+03  0.50939427528E+03  0.25500000920E-02 0.  1.
    10030    2    1    2    0    0  0.00000000000E+00  0.00000000000E+00 -0.33303225271E+03  0.68575629786E+03  0.59945910512E+03 0.  0.
        5    1    3    3  502    0  0.20883570551E+03 -0.21722817811E+02  0.78118473488E+02  0.22407324385E+03  0.46999998093E+01 0. -1.
       -5    1    3    3    0  502 -0.20883570551E+03  0.21722817811E+02 -0.41115072620E+03  0.46168305401E+03  0.46999998093E+01 0.  1.
</event>
<event>
 5   0  0.9028473E-03  0.6003670E+03  0.7818609E-02  0.9904645E-01
       -2   -1    0    0    0  501  0.00000000000E+00  0.00000000000E+00  0.17807445139E+04  0.17807445139E+04  0.25500000920E-02 0. -1.
        2   -1    0    0  501    0  0.00000000000E+00  0.00000000000E+00 -0.50602511110E+02  0.50602511174E+02  0.25500000920E-02 0.  1.
    10030    2    1    2    0    0  0.00000000000E+00  0.00000000000E+00  0.17301420028E+04  0.18313470251E+04  0.60036703477E+03 0.  0.
        1    1    3    3  502    0  0.28692993894E+03 -0.72165614920E+01  0.11332490351E+04  0.11690313273E+04  0.50400001928E-02 0. -1.
       -1    1    3    3    0  502 -0.28692993894E+03  0.72165614920E+01  0.59689296766E+03  0.66231569775E+03  0.50400001928E-02 0.  1.
</event>
<event>
 5   0  0.9028473E-03  0.5973957E+03  0.7818609E-02  0.9910824E-01
       -2   -1    0    0    0  501  0.00000000000E+00  0.00000000000E+00  0.72267517048E+03  0.72267517048E+03  0.25500000920E-02 0. -1.
        2   -1    0    0  501    0  0.00000000000E+00  0.00000000000E+00 -0.12345852008E+03  0.12345852010E+03  0.25500000920E-02 0.  1.
    10030    2    1    2    0    0  0.00000000000E+00  0.00000000000E+00  0.59921665040E+03  0.84613369059E+03  0.59739570490E+03 0.  0.
        1    1    3    3  502    0 -0.23147611652E+03 -0.58011947744E+02  0.55405813753E+03  0.60326362263E+03  0.50400001928E-02 0. -1.
       -1    1    3    3    0  502  0.23147611652E+03  0.58011947744E+02  0.45158512872E+02  0.24287006796E+03  0.50400001928E-02 0.  1.
</event>
<event>
 5   0  0.6078658E-03  0.6011253E+03  0.7818609E-02  0.9903074E-01
       -1   -1    0    0    0  501  0.00000000000E+00  0.00000000000E+00  0.10936425559E+03  0.10936425570E+03  0.50400001928E-02 0.  1.
        1   -1    0    0  501    0  0.00000000000E+00  0.00000000000E+00 -0.82602778423E+03  0.82602778425E+03  0.50400001928E-02 0. -1.
    10030    2    1    2    0    0  0.00000000000E+00  0.00000000000E+00 -0.71666352865E+03  0.93539203995E+03  0.60112532396E+03 0.  0.
        2    1    3    3  502    0 -0.25973087852E+03  0.15049069509E+03 -0.33471563011E+03  0.44960219262E+03  0.25500000920E-02 0. -1.
       -2    1    3    3    0  502  0.25973087852E+03 -0.15049069509E+03 -0.38194789854E+03  0.48578984733E+03  0.25500000920E-02 0.  1.
</event>
<event>
 5   0  0.9162342E-03  0.5989757E+03  0.7818609E-02  0.9907533E-01
       -2   -1    0    0    0  501  0.00000000000E+00  0.00000000000E+00  0.37618201267E+03  0.37618201268E+03  0.25500000920E-02 0. -1.
        2   -1    0    0  501    0  0.00000000000E+00  0.00000000000E+00 -0.23842973529E+03  0.23842973531E+03  0.25500000920E-02 0.  1.
    10030    2    1    2    0    0  0.00000000000E+00  0.00000000000E+00  0.13775227738E+03  0.61461174799E+03  0.59897571808E+03 0.  0.
        5    1    3    3  502    0  0.31719383310E+02  0.25586716923E+03  0.22515682380E+03  0.34233289773E+03  0.46999998093E+01 0.  1.
       -5    1    3    3    0  502 -0.31719383310E+02 -0.25586716923E+03 -0.87404546420E+02  0.27227885026E+03  0.46999998093E+01 0. -1.
</event>
<event>
 5   0  0.9391405E-03  0.5999743E+03  0.7818609E-02  0.9905459E-01
        2   -1    0    0  501    0  0.00000000000E+00  0.00000000000E+00  0.49561670513E+03  0.49561670514E+03  0.25500000920E-02 0. -1.
       -2   -1    0    0    0  501  0.00000000000E+00  0.00000000000E+00 -0.18157639711E+03  0.18157639712E+03  0.25500000920E-02 0.  1.
    10030    2    1    2    0    0  0.00000000000E+00  0.00000000000E+00  0.31404030802E+03  0.67719310226E+03  0.59997431836E+03 0.  0.
        2    1    3    3  502    0 -0.18137922815E+03  0.19062024714E+03  0.31963884075E+03  0.41400904766E+03  0.25500000920E-02 0. -1.
       -2    1    3    3    0  502  0.18137922815E+03 -0.19062024714E+03 -0.55985327237E+01  0.26318405460E+03  0.25500000920E-02 0.  1.
</event>
<event>
 5   0  0.5819446E-03  0.6015626E+03  0.7818609E-02  0.9902170E-01
        1   -1    0    0  501    0  0.00000000000E+00  0.00000000000E+00  0.34829091275E+03  0.34829091278E+03  0.50400001928E-02 0. -1.
       -1   -1    0    0    0  501  0.00000000000E+00  0.00000000000E+00 -0.25975234433E+03  0.25975234438E+03  0.50400001928E-02 0.  1.
    10030    2    1    2    0    0  0.00000000000E+00  0.00000000000E+00  0.88538568414E+02  0.60804325717E+03  0.60156256906E+03 0.  0.
        5    1    3    3  502    0 -0.17737853019E+03 -0.23155010874E+03 -0.29791456185E+02  0.29323747490E+03  0.46999998093E+01 0.  1.
       -5    1    3    3    0  502  0.17737853019E+03  0.23155010874E+03  0.11833002460E+03  0.31480578227E+03  0.46999998093E+01 0. -1.
</event>
<event>
 5   0  0.5891927E-03  0.6024147E+03  0.7818609E-02  0.9900409E-01
        1   -1    0    0  501    0  0.00000000000E+00  0.00000000000E+00  0.23050432945E+04  0.23050432945E+04  0.50400001928E-02 0.  1.
       -1   -1    0    0    0  501  0.00000000000E+00  0.00000000000E+00 -0.39359718101E+02  0.39359718424E+02  0.50400001928E-02 0. -1.
    10030    2    1    2    0    0  0.00000000000E+00  0.00000000000E+00  0.22656835764E+04  0.23444030129E+04  0.60241465674E+03 0.  0.
        4    1    3    3  502    0 -0.80662798565E+02 -0.17386615192E+03  0.20370878612E+04  0.20460851627E+04  0.12699999809E+01 0.  1.
       -4    1    3    3    0  502  0.80662798565E+02  0.17386615192E+03  0.22859571516E+03  0.29831785019E+03  0.12699999809E+01 0. -1.
</event>
<event>
 5   0  0.5790967E-03  0.5992180E+03  0.7818609E-02  0.9907030E-01
       -1   -1    0    0    0  501  0.00000000000E+00  0.00000000000E+00  0.32277423152E+03  0.32277423155E+03  0.50400001928E-02 0.  1.
        1   -1    0    0  501    0  0.00000000000E+00  0.00000000000E+00 -0.27810629539E+03  0.27810629544E+03  0.50400001928E-02 0. -1.
    10030    2    1    2    0    0  0.00000000000E+00  0.00000000000E+00  0.44667936121E+02  0.60088052699E+03  0.59921797637E+03 0.  0.
        3    1    3    3  502    0  0.19632260252E+03 -0.12501103049E+02 -0.20427242952E+03  0.28359491798E+03  0.10100000352E+00 0. -1.
       -3    1    3    3    0  502 -0.19632260252E+03  0.12501103049E+02  0.24894036564E+03  0.31728560901E+03  0.10100000352E+00 0.  1.
</event>
<event>
 5   0  0.5790967E-03  0.6071815E+03  0.7818609E-02  0.9890618E-01
       -1   -1    0    0    0  501  0.00000000000E+00  0.00000000000E+00  0.66755573726E+02  0.66755573916E+02  0.50400001928E-02 0. -1.
        1   -1    0    0  501    0  0.00000000000E+00  0.00000000000E+00 -0.13806687732E+04  0.13806687732E+04  0.50400001928E-02 0.  1.
    10030    2    1    2    0    0  0.00000000000E+00  0.00000000000E+00 -0.13139131995E+04  0.14474243472E+04  0.60718147609E+03 0.  0.
        3    1    3    3  502    0  0.73303306044E+02  0.58412877994E+02  0.31399586491E+02  0.98850307159E+02  0.10100000352E+00 0. -1.
       -3    1    3    3    0  502 -0.73303306044E+02 -0.58412877994E+02 -0.13453127860E+04  0.13485740400E+04  0.10100000352E+00 0.  1.
</event>
<event>
 5   0  0.9391405E-03  0.6001426E+03  0.7818609E-02  0.9905110E-01
        2   -1    0    0  501    0  0.00000000000E+00  0.00000000000E+00  0.21995478070E+03  0.21995478072E+03  0.25500000920E-02 0. -1.
       -2   -1    0    0    0  501  0.00000000000E+00  0.00000000000E+00 -0.40936957819E+03  0.40936957820E+03  0.25500000920E-02 0.  1.
    10030    2    1    2    0    0  0.00000000000E+00  0.00000000000E+00 -0.18941479749E+03  0.62932435892E+03  0.60014263573E+03 0.  0.
        2    1    3    3  502    0  0.21580369409E+03  0.20849709374E+03 -0.95465982121E+02  0.31489049879E+03  0.25500000920E-02 0. -1.
       -2    1    3    3    0  502 -0.21580369409E+03 -0.20849709374E+03 -0.93948815372E+02  0.31443386013E+03  0.25500000920E-02 0.  1.
</event>
<event>
 5   0  0.9391405E-03  0.5997155E+03  0.7818609E-02  0.9905996E-01
       -2   -1    0    0    0  501  0.00000000000E+00  0.00000000000E+00  0.34923795345E+03  0.34923795346E+03  0.25500000920E-02 0.  1.
        2   -1    0    0  501    0  0.00000000000E+00  0.00000000000E+00 -0.25745962264E+03  0.25745962265E+03  0.25500000920E-02 0. -1.
    10030    2    1    2    0    0  0.00000000000E+00  0.00000000000E+00  0.91778330816E+02  0.60669757611E+03  0.59971550493E+03 0.  0.
        2    1    3    3  502    0 -0.20322864095E+03  0.20333872867E+03 -0.40344975426E+02  0.29030369637E+03  0.25500000920E-02 0. -1.
       -2    1    3    3    0  502  0.20322864095E+03 -0.20333872867E+03  0.13212330624E+03  0.31639387974E+03  0.25500000920E-02 0.  1.
</event>
<event>
 5   0  0.5891927E-03  0.5992417E+03  0.7818609E-02  0.9906981E-01
       -1   -1    0    0    0  501  0.00000000000E+00  0.00000000000E+00  0.50184049743E+03  0.50184049746E+03  0.50400001928E-02 0.  1.
        1   -1    0    0  501    0  0.00000000000E+00  0.00000000000E+00 -0.17888683345E+03  0.17888683352E+03  0.50400001928E-02 0. -1.
    10030    2    1    2    0    0  0.00000000000E+00  0.00000000000E+00  0.32295366399E+03  0.68072733098E+03  0.59924171255E+03 0.  0.
        4    1    3    3  502    0  0.12293615112E+03 -0.12661203046E+03  0.43653244353E+03  0.47085676236E+03  0.12699999809E+01 0.  1.
       -4    1    3    3    0  502 -0.12293615112E+03  0.12661203046E+03 -0.11357877954E+03  0.20987056862E+03  0.12699999809E+01 0. -1.
</event>
<event>
 5   0  0.5765045E-03  0.5991617E+03  0.7818609E-02  0.9907147E-01
        1   -1    0    0  501    0  0.00000000000E+00  0.00000000000E+00  0.27115193505E+03  0.27115193510E+03  0.50400001928E-02 0.  1.
       -1   -1    0    0    0  501  0.00000000000E+00  0.00000000000E+00 -0.33099043348E+03  0.33099043352E+03  0.50400001928E-02 0. -1.
    10030    2    1    2    0    0  0.00000000000E+00  0.00000000000E+00 -0.59838498426E+02  0.60214236862E+03  0.59916173625E+03 0.  0.
        1    1    3    3  502    0 -0.12419095362E+03 -0.26947117030E+02  0.24272198203E+03  0.27397719004E+03  0.50400001928E-02 0.  1.
       -1    1    3    3    0  502  0.12419095362E+03  0.26947117030E+02 -0.30256048045E+03  0.32816517858E+03  0.50400001928E-02 0. -1.
</event>
<event>
 5   0  0.5891927E-03  0.5997259E+03  0.7818609E-02  0.9905975E-01
        1   -1    0    0  501    0  0.00000000000E+00  0.00000000000E+00  0.84182328566E+03  0.84182328568E+03  0.50400001928E-02 0.  1.
       -1   -1    0    0    0  501  0.00000000000E+00  0.00000000000E+00 -0.10681314854E+03  0.10681314866E+03  0.50400001928E-02 0. -1.
    10030    2    1    2    0    0  0.00000000000E+00  0.00000000000E+00  0.73501013712E+03  0.94863643434E+03  0.59972592314E+03 0.  0.
        4    1    3    3  502    0 -0.23995290098E+03 -0.34353758776E+02  0.64671830230E+03  0.69065458144E+03  0.12699999809E+01 0.  1.
       -4    1    3    3    0  502  0.23995290098E+03  0.34353758776E+02  0.88291834821E+02  0.25798185290E+03  0.12699999809E+01 0. -1.
</event>
<event>
 5   0  0.3806250E-03  0.5995295E+03  0.7818609E-02  0.9906383E-01
       -3   -1    0    0    0  501  0.00000000000E+00  0.00000000000E+00  0.27510287249E+03  0.27510289103E+03  0.10100000352E+00 0. -1.
        3   -1    0    0  501    0  0.00000000000E+00  0.00000000000E+00 -0.32663739683E+03  0.32663741244E+03  0.10100000352E+00 0.  1.
    10030    2    1    2    0    0  0.00000000000E+00  0.00000000000E+00 -0.51534524336E+02  0.60174030348E+03  0.59952947019E+03 0.  0.
        3    1    3    3  502    0  0.24912557848E+03 -0.10539307625E+03  0.10388972318E+03  0.28976600760E+03  0.10100000352E+00 0. -1.
       -3    1    3    3    0  502 -0.24912557848E+03  0.10539307625E+03 -0.15542424751E+03  0.31197429588E+03  0.10100000352E+00 0.  1.
</event>
<event>
 5   0  0.3806250E-03  0.5989051E+03  0.7818609E-02  0.9907680E-01
        3   -1    0    0  501    0  0.00000000000E+00  0.00000000000E+00  0.69320479617E+02  0.69320553196E+02  0.10100000352E+00 0.  1.
       -3   -1    0    0    0  501  0.00000000000E+00  0.00000000000E+00 -0.12935828971E+04  0.12935829010E+04  0.10100000352E+00 0. -1.
    10030    2    1    2    0    0  0.00000000000E+00  0.00000000000E+00 -0.12242624175E+04  0.13629034542E+04  0.59890513332E+03 0.  0.
        2    1    3    3  502    0 -0.29943551766E+03 -0.22636019026E+01 -0.60699883246E+03  0.67684144062E+03  0.25500000920E-02 0. -1.
       -2    1    3    3    0  502  0.29943551766E+03  0.22636019026E+01 -0.61726358502E+03  0.68606201362E+03  0.25500000920E-02 0.  1.
</event>
<event>
 5   0  0.5819446E-03  0.6007175E+03  0.7818609E-02  0.9903919E-01
        1   -1    0    0  501    0  0.00000000000E+00  0.00000000000E+00  0.98130766782E+03  0.98130766784E+03  0.50400001928E-02 0. -1.
       -1   -1    0    0    0  501  0.00000000000E+00  0.00000000000E+00 -0.91933836517E+02  0.91933836655E+02  0.50400001928E-02 0.  1.
    10030    2    1    2    0    0  0.00000000000E+00  0.00000000000E+00  0.88937383131E+03  0.10732415045E+04  0.60071750029E+03 0.  0.
        5    1    3    3  502    0 -0.20187926333E+03 -0.11531254049E+03  0.10503999822E+03  0.25516212528E+03  0.46999998093E+01 0.  1.
       -5    1    3    3    0  502  0.20187926333E+03  0.11531254049E+03  0.78433383309E+03  0.81807937921E+03  0.46999998093E+01 0. -1.
</event>
<event>
 5   0  0.9303190E-03  0.5984512E+03  0.7818609E-02  0.9908625E-01
       -2   -1    0    0    0  501  0.00000000000E+00  0.00000000000E+00  0.16892268107E+03  0.16892268109E+03  0.25500000920E-02 0. -1.
        2   -1    0    0  501    0  0.00000000000E+00  0.00000000000E+00 -0.53004109234E+03  0.53004109235E+03  0.25500000920E-02 0.  1.
    10030    2    1    2    0    0  0.00000000000E+00  0.00000000000E+00 -0.36111841127E+03  0.69896377344E+03  0.59845120906E+03 0.  0.
        4    1    3    3  502    0 -0.14247878504E+03  0.40879338102E+02  0.12302590079E+03  0.19263517237E+03  0.12699999809E+01 0. -1.
       -4    1    3    3    0  502  0.14247878504E+03 -0.40879338102E+02 -0.48414431206E+03  0.50632860107E+03  0.12699999809E+01 0.  1.
</event>
<event>
 5   0  0.9822607E-03  0.6024862E+03  0.7818609E-02  0.9900261E-01
       -2   -1    0    0    0  501  0.00000000000E+00  0.00000000000E+00  0.43289619773E+03  0.43289619774E+03  0.25500000920E-02 0.  1.
        2   -1    0    0  501    0  0.00000000000E+00  0.00000000000E+00 -0.20962856725E+03  0.20962856726E+03  0.25500000920E-02 0. -1.
    10030    2    1    2    0    0  0.00000000000E+00  0.00000000000E+00  0.22326763048E+03  0.64252476500E+03  0.60248621463E+03 0.  0.
        3    1    3    3  502    0  0.19468406286E+03 -0.14554818605E+03  0.30139471106E+03  0.38720142154E+03  0.10100000352E+00 0.  1.
       -3    1    3    3    0  502 -0.19468406286E+03  0.14554818605E+03 -0.78127080576E+02  0.25532334346E+03  0.10100000352E+00 0. -1.
</event>
<event>
 5   0  0.9028473E-03  0.5998521E+03  0.7818609E-02  0.9905713E-01
        2   -1    0    0  501    0  0.00000000000E+00  0.00000000000E+00  0.96787109814E+02  0.96787109848E+02  0.25500000920E-02 0. -1.
       -2   -1    0    0    0  501  0.00000000000E+00  0.00000000000E+00 -0.92941759706E+03  0.92941759707E+03  0.25500000920E-02 0.  1.
    10030    2    1    2    0    0  0.00000000000E+00  0.00000000000E+00 -0.83263048725E+03  0.10262047069E+04  0.59985212527E+03 0.  0.
        1    1    3    3  502    0  0.16457631747E+03 -0.77143962685E+02 -0.82446427108E+03  0.84426174233E+03  0.50400001928E-02 0.  1.
       -1    1    3    3    0  502 -0.16457631747E+03  0.77143962685E+02 -0.81662161714E+01  0.18194296459E+03  0.50400001928E-02 0. -1.
</event>
<event>
 5   0  0.3806250E-03  0.6007016E+03  0.7818609E-02  0.9903951E-01
        3   -1    0    0  501    0  0.00000000000E+00  0.00000000000E+00  0.54336658480E+02  0.54336752349E+02  0.10100000352E+00 0.  1.
       -3   -1    0    0    0  501  0.00000000000E+00  0.00000000000E+00 -0.16602148428E+04  0.16602148459E+04  0.10100000352E+00 0. -1.
    10030    2    1    2    0    0  0.00000000000E+00  0.00000000000E+00 -0.16058781843E+04  0.17145515982E+04  0.60070162318E+03 0.  0.
        1    1    3    3  502    0 -0.19470112610E+03 -0.19270212351E+03 -0.11544635351E+04  0.11865195703E+04  0.50400001928E-02 0. -1.
       -1    1    3    3    0  502  0.19470112610E+03  0.19270212351E+03 -0.45141464925E+03  0.52803202791E+03  0.50400001928E-02 0.  1.
</event>
<event>
 5   0  0.9822607E-03  0.6003734E+03  0.7818609E-02  0.9904632E-01
        2   -1    0    0  501    0  0.00000000000E+00  0.00000000000E+00  0.98113670594E+03  0.98113670594E+03  0.25500000920E-02 0.  1.
       -2   -1    0    0    0  501  0.00000000000E+00  0.00000000000E+00 -0.91844533272E+02  0.91844533307E+02  0.25500000920E-02 0. -1.
    10030    2    1    2    0    0  0.00000000000E+00  0.00000000000E+00  0.88929217267E+03  0.10729812392E+04  0.60037336001E+03 0.  0.
        3    1    3    3  502    0  0.12498435546E+03 -0.22099891352E+03  0.15841421665E+03  0.29926022643E+03  0.10100000352E+00 0. -1.
       -3    1    3    3    0  502 -0.12498435546E+03  0.22099891352E+03  0.73087795602E+03  0.77372101282E+03  0.10100000352E+00 0.  1.
</event>
<event>
 5   0  0.9162342E-03  0.5999837E+03  0.7818609E-02  0.9905440E-01
       -2   -1    0    0    0  501  0.00000000000E+00  0.00000000000E+00  0.25962984607E+03  0.25962984608E+03  0.25500000920E-02 0.  1.
        2   -1    0    0  501    0  0.00000000000E+00  0.00000000000E+00 -0.34662850192E+03  0.34662850192E+03  0.25500000920E-02 0. -1.
    10030    2    1    2    0    0  0.00000000000E+00  0.00000000000E+00 -0.86998655847E+02  0.60625834801E+03  0.59998368178E+03 0.  0.
        5    1    3    3  502    0 -0.18741717607E+02  0.10460673789E+03  0.23993225449E+03  0.26245646941E+03  0.46999998093E+01 0.  1.
       -5    1    3    3    0  502  0.18741717607E+02 -0.10460673789E+03 -0.32693091034E+03  0.34380187859E+03  0.46999998093E+01 0. -1.
</event>
<event>
 5   0  0.9162342E-03  0.6120905E+03  0.7818609E-02  0.9880635E-01
       -2   -1    0    0    0  501  0.00000000000E+00  0.00000000000E+00  0.62517785419E+02  0.62517785471E+02  0.25500000920E-02 0.  1.
        2   -1    0    0  501    0  0.00000000000E+00  0.00000000000E+00 -0.14981929367E+04  0.14981929367E+04  0.25500000920E-02 0. -1.
    10030    2    1    2    0    0  0.00000000000E+00  0.00000000000E+00 -0.14356751512E+04  0.15607107221E+04  0.61209053112E+03 0.  0.
        5    1    3    3  502    0 -0.10999996276E+03  0.28536406480E+03 -0.69122010528E+03  0.75587033625E+03  0.46999998093E+01 0. -1.
       -5    1    3    3    0  502  0.10999996276E+03 -0.28536406480E+03 -0.74445504596E+03  0.80484038588E+03  0.46999998093E+01 0.  1.
</event>
<event>
 5   0  0.5765045E-03  0.5995402E+03  0.7818609E-02  0.9906361E-01
       -1   -1    0    0    0  501  0.00000000000E+00  0.00000000000E+00  0.73132518750E+02  0.73132518923E+02  0.50400001928E-02 0. -1.
        1   -1    0    0  501    0  0.00000000000E+00  0.00000000000E+00 -0.12287570672E+04  0.12287570672E+04  0.50400001928E-02 0.  1.
    10030    2    1    2    0    0  0.00000000000E+00  0.00000000000E+00 -0.11556245484E+04  0.13018895861E+04  0.59954015504E+03 0.  0.
        1    1    3    3  502    0  0.46893535685E+02 -0.29456038545E+03 -0.51276656437E+03  0.59320685593E+03  0.50400001928E-02 0.  1.
       -1    1    3    3    0  502 -0.46893535685E+02  0.29456038545E+03 -0.64285798408E+03  0.70868273020E+03  0.50400001928E-02 0. -1.
</event>
<event>
 5   0  0.9028473E-03  0.5999818E+03  0.7818609E-02  0.9905444E-01
       -2   -1    0    0    0  501  0.00000000000E+00  0.00000000000E+00  0.11980511569E+03  0.11980511572E+03  0.25500000920E-02 0. -1.
        2   -1    0    0  501    0  0.00000000000E+00  0.00000000000E+00 -0.75117445343E+03  0.75117445343E+03  0.25500000920E-02 0.  1.
    10030    2    1    2    0    0  0.00000000000E+00  0.00000000000E+00 -0.63136933774E+03  0.87097956915E+03  0.59998180742E+03 0.  0.
        1    1    3    3  502    0 -0.10696140573E+03  0.96669658969E+02  0.66216047656E+02  0.15865160028E+03  0.50400001928E-02 0. -1.
       -1    1    3    3    0  502  0.10696140573E+03 -0.96669658969E+02 -0.69758538540E+03  0.71232796886E+03  0.50400001928E-02 0.  1.
</event>
<event>
 5   0  0.5790967E-03  0.6001396E+03  0.7818609E-02  0.9905116E-01
       -1   -1    0    0    0  501  0.00000000000E+00  0.00000000000E+00  0.15871310587E+03  0.15871310595E+03  0.50400001928E-02 0.  1.
        1   -1    0    0  501    0  0.00000000000E+00  0.00000000000E+00 -0.56732488151E+03  0.56732488153E+03  0.50400001928E-02 0. -1.
    10030    2    1    2    0    0  0.00000000000E+00  0.00000000000E+00 -0.40861177564E+03  0.72603798748E+03  0.60013963047E+03 0.  0.
        3    1    3    3  502    0  0.16770988807E+03 -0.24377312680E+02 -0.50388514294E+03  0.53162120670E+03  0.10100000352E+00 0. -1.
       -3    1    3    3    0  502 -0.16770988807E+03  0.24377312680E+02  0.95273367299E+02  0.19441678078E+03  0.10100000352E+00 0.  1.
</event>
<event>
 5   0  0.6078658E-03  0.6003020E+03  0.7818609E-02  0.9904780E-01
       -1   -1    0    0    0  501  0.00000000000E+00  0.00000000000E+00  0.23851625075E+03  0.23851625081E+03  0.50400001928E-02 0.  1.
        1   -1    0    0  501    0  0.00000000000E+00  0.00000000000E+00 -0.37771274833E+03  0.37771274836E+03  0.50400001928E-02 0. -1.
    10030    2    1    2    0    0  0.00000000000E+00  0.00000000000E+00 -0.13919649757E+03  0.61622899916E+03  0.60030201938E+03 0.  0.
        2    1    3    3  502    0 -0.70971510137E+01 -0.25469207420E+03  0.93268703553E+02  0.27132540110E+03  0.25500000920E-02 0.  1.
       -2    1    3    3    0  502  0.70971510137E+01  0.25469207420E+03 -0.23246520113E+03  0.34490359806E+03  0.25500000920E-02 0. -1.
</event>
<event>
 5   0  0.5891927E-03  0.5984298E+03  0.7818609E-02  0.9908669E-01
        1   -1    0    0  501    0  0.00000000000E+00  0.00000000000E+00  0.35407604744E+03  0.35407604748E+03  0.50400001928E-02 0. -1.
       -1   -1    0    0    0  501  0.00000000000E+00  0.00000000000E+00 -0.25285403937E+03  0.25285403942E+03  0.50400001928E-02 0.  1.
    10030    2    1    2    0    0  0.00000000000E+00  0.00000000000E+00  0.10122200807E+03  0.60693008690E+03  0.59842980830E+03 0.  0.
        4    1    3    3  502    0  0.84185144215E+02 -0.96627630333E+02  0.32482887056E+03  0.34919828966E+03  0.12699999809E+01 0. -1.
       -4    1    3    3    0  502 -0.84185144215E+02  0.96627630333E+02 -0.22360686250E+03  0.25773179723E+03  0.12699999809E+01 0.  1.
</event>
<event>
 5   0  0.9303190E-03  0.5997281E+03  0.7818609E-02  0.9905970E-01
        2   -1    0    0  501    0  0.00000000000E+00  0.00000000000E+00  0.98235576883E+03  0.98235576883E+03  0.25500000920E-02 0. -1.
       -2   -1    0    0    0  501  0.00000000000E+00  0.00000000000E+00 -0.91533499224E+02  0.91533499260E+02  0.25500000920E-02 0.  1.
    10030    2    1    2    0    0  0.00000000000E+00  0.00000000000E+00  0.89082226961E+03  0.10738892681E+04  0.59972814183E+03 0.  0.
        4    1    3    3  502    0  0.12361465249E+03 -0.16643656078E+02 -0.42872970833E+02  0.13189881776E+03  0.12699999809E+01 0.  1.
       -4    1    3    3    0  502 -0.12361465249E+03  0.16643656078E+02  0.93369524044E+03  0.94199045033E+03  0.12699999809E+01 0. -1.
</event>
<event>
 5   0  0.5819446E-03  0.5998203E+03  0.7818609E-02  0.9905779E-01
        1   -1    0    0  501    0  0.00000000000E+00  0.00000000000E+00  0.69973630296E+03  0.69973630298E+03  0.50400001928E-02 0. -1.
       -1   -1    0    0    0  501  0.00000000000E+00  0.00000000000E+00 -0.12854284726E+03  0.12854284736E+03  0.50400001928E-02 0.  1.
    10030    2    1    2    0    0  0.00000000000E+00  0.00000000000E+00  0.57119345570E+03  0.82827915034E+03  0.59982029563E+03 0.  0.
        5    1    3    3  502    0 -0.89792490630E+02 -0.13492396722E+03 -0.62803239389E+02  0.17387784557E+03  0.46999998093E+01 0.  1.
       -5    1    3    3    0  502  0.89792490630E+02  0.13492396722E+03  0.63399669508E+03  0.65440130477E+03  0.46999998093E+01 0. -1.
</event>
<event>
 5   0  0.5790967E-03  0.5999343E+03  0.7818609E-02  0.9905542E-01
        1   -1    0    0  501    0  0.00000000000E+00  0.00000000000E+00  0.35192712787E+03  0.35192712790E+03  0.50400001928E-02 0.  1.
       -1   -1    0    0    0  501  0.00000000000E+00  0.00000000000E+00 -0.25567876662E+03  0.25567876666E+03  0.50400001928E-02 0. -1.
    10030    2    1    2    0    0  0.00000000000E+00  0.00000000000E+00  0.96248361252E+02  0.60760589457E+03  0.59993430980E+03 0.  0.
        3    1    3    3  502    0  0.44309474372E+02  0.16171205267E+03 -0.20378551386E+03  0.26389896430E+03  0.10100000352E+00 0. -1.
       -3    1    3    3    0  502 -0.44309474372E+02 -0.16171205267E+03  0.30003387511E+03  0.34370693027E+03  0.10100000352E+00 0.  1.
</event>
<event>
 5   0  0.5819446E-03  0.6001877E+03  0.7818609E-02  0.9905017E-01
        1   -1    0    0  501    0  0.00000000000E+00  0.00000000000E+00  0.62458189119E+03  0.62458189121E+03  0.50400001928E-02 0. -1.
       -1   -1    0    0    0  501  0.00000000000E+00  0.00000000000E+00 -0.14418657481E+03  0.14418657490E+03  0.50400001928E-02 0.  1.
    10030    2    1    2    0    0  0.00000000000E+00  0.00000000000E+00  0.48039531637E+03  0.76876846611E+03  0.60018771604E+03 0.  0.
        5    1    3    3  502    0  0.50045509777E+02 -0.54440890339E+02  0.61268028294E+03  0.61714470159E+03  0.46999998093E+01 0. -1.
       -5    1    3    3    0  502 -0.50045509777E+02  0.54440890339E+02 -0.13228496657E+03  0.15162376452E+03  0.46999998093E+01 0.  1.
</event>
<event>
 5   0  0.9162342E-03  0.5997489E+03  0.7818609E-02  0.9905927E-01
        2   -1    0    0  501    0  0.00000000000E+00  0.00000000000E+00  0.22350853252E+03  0.22350853253E+03  0.25500000920E-02 0. -1.
       -2   -1    0    0    0  501  0.00000000000E+00  0.00000000000E+00 -0.40233222852E+03  0.40233222853E+03  0.25500000920E-02 0.  1.
    10030    2    1    2    0    0  0.00000000000E+00  0.00000000000E+00 -0.17882369600E+03  0.62584076106E+03  0.59974890075E+03 0.  0.
        5    1    3    3  502    0 -0.25883791389E+03 -0.15111578680E+03 -0.98114282999E+02  0.31540695809E+03  0.46999998093E+01 0.  1.
       -5    1    3    3    0  502  0.25883791389E+03  0.15111578680E+03 -0.80709413005E+02  0.31043380297E+03  0.46999998093E+01 0. -1.
</event>
<event>
 5   0  0.9028473E-03  0.6111333E+03  0.7818609E-02  0.9882573E-01
        2   -1    0    0  501    0  0.00000000000E+00  0.00000000000E+00  0.53938305987E+03  0.53938305987E+03  0.25500000920E-02 0.  1.
       -2   -1    0    0    0  501  0.00000000000E+00  0.00000000000E+00 -0.17310698966E+03  0.17310698968E+03  0.25500000920E-02 0. -1.
    10030    2    1    2    0    0  0.00000000000E+00  0.00000000000E+00  0.36627607021E+03  0.71249004955E+03  0.61113330060E+03 0.  0.
        1    1    3    3  502    0  0.12506746820E+03 -0.22920286053E+03 -0.19171978888E+01  0.26111204214E+03  0.50400001928E-02 0.  1.
       -1    1    3    3    0  502 -0.12506746820E+03  0.22920286053E+03  0.36819326810E+03  0.45137800741E+03  0.50400001928E-02 0. -1.
</event>
<event>
 5   0  0.3806250E-03  0.5976958E+03  0.7818609E-02  0.9910198E-01
        4   -1    0    0  501    0  0.00000000000E+00  0.00000000000E+00  0.39409580803E+03  0.39409785435E+03  0.12699999809E+01 0. -1.
       -4   -1    0    0    0  501  0.00000000000E+00  0.00000000000E+00 -0.22661574847E+03  0.22661930711E+03  0.12699999809E+01 0.  1.
    10030    2    1    2    0    0  0.00000000000E+00  0.00000000000E+00  0.16748005955E+03  0.62071716146E+03  0.59769576223E+03 0.  0.
        3    1    3    3  502    0  0.16349850815E+03  0.13895973066E+03  0.29976272500E+03  0.36864518227E+03  0.10100000352E+00 0. -1.
       -3    1    3    3    0  502 -0.16349850815E+03 -0.13895973066E+03 -0.13228266545E+03  0.25207197919E+03  0.10100000352E+00 0.  1.
</event>
<event>
 5   0  0.9162342E-03  0.5994870E+03  0.7818609E-02  0.9906471E-01
       -2   -1    0    0    0  501  0.00000000000E+00  0.00000000000E+00  0.21106342063E+03  0.21106342064E+03  0.25500000920E-02 0. -1.
        2   -1    0    0  501    0  0.00000000000E+00  0.00000000000E+00 -0.42568330680E+03  0.42568330681E+03  0.25500000920E-02 0.  1.
    10030    2    1    2    0    0  0.00000000000E+00  0.00000000000E+00 -0.21461988618E+03  0.63674672745E+03  0.59948703020E+03 0.  0.
        5    1    3    3  502    0  0.22022782117E+03 -0.84483927879E+02  0.89077045227E+02  0.25217977173E+03  0.46999998093E+01 0. -1.
       -5    1    3    3    0  502 -0.22022782117E+03  0.84483927879E+02 -0.30369693140E+03  0.38456695572E+03  0.46999998093E+01 0.  1.
</event>
<event>
 5   0  0.9028473E-03  0.5928483E+03  0.7818609E-02  0.9920356E-01
       -2   -1    0    0    0  501  0.00000000000E+00  0.00000000000E+00  0.31637707226E+03  0.31637707227E+03  0.25500000920E-02 0. -1.
        2   -1    0    0  501    0  0.00000000000E+00  0.00000000000E+00 -0.27772963852E+03  0.27772963853E+03  0.25500000920E-02 0.  1.
    10030    2    1    2    0    0  0.00000000000E+00  0.00000000000E+00  0.38647433738E+02  0.59410671079E+03  0.59284834458E+03 0.  0.
        1    1    3    3  502    0 -0.13424586275E+03 -0.71630559462E+02  0.27425393345E+03  0.31363690592E+03  0.50400001928E-02 0. -1.
       -1    1    3    3    0  502  0.13424586275E+03  0.71630559462E+02 -0.23560649971E+03  0.28046980488E+03  0.50400001928E-02 0.  1.
</event>
<event>
 5   0  0.5819446E-03  0.5997575E+03  0.7818609E-02  0.9905909E-01
       -1   -1    0    0    0  501  0.00000000000E+00  0.00000000000E+00  0.93152302290E+02  0.93152302427E+02  0.50400001928E-02 0. -1.
        1   -1    0    0  501    0  0.00000000000E+00  0.00000000000E+00 -0.96537873486E+03  0.96537873488E+03  0.50400001928E-02 0.  1.
    10030    2    1    2    0    0  0.00000000000E+00  0.00000000000E+00 -0.87222643257E+03  0.10585310373E+04  0.59975745702E+03 0.  0.
        5    1    3    3  502    0 -0.93947493990E+02 -0.11459646430E+03 -0.89617066054E+03  0.90835148707E+03  0.46999998093E+01 0.  1.
       -5    1    3    3    0  502  0.93947493990E+02  0.11459646430E+03  0.23944227965E+02  0.15017955023E+03  0.46999998093E+01 0. -1.
</event>
<event>
 5   0  0.9028473E-03  0.5979416E+03  0.7818609E-02  0.9909686E-01
       -2   -1    0    0    0  501  0.00000000000E+00  0.00000000000E+00  0.97328616543E+02  0.97328616577E+02  0.25500000920E-02 0. -1.
        2   -1    0    0  501    0  0.00000000000E+00  0.00000000000E+00 -0.91836841563E+03  0.91836841563E+03  0.25500000920E-02 0.  1.
    10030    2    1    2    0    0  0.00000000000E+00  0.00000000000E+00 -0.82103979909E+03  0.10156970322E+04  0.59794156032E+03 0.  0.
        1    1    3    3  502    0  0.93295518783E+01 -0.20671261051E+03 -0.77707705212E+03  0.80415538849E+03  0.50400001928E-02 0.  1.
       -1    1    3    3    0  502 -0.93295518783E+01  0.20671261051E+03 -0.43962746965E+02  0.21154164372E+03  0.50400001928E-02 0. -1.
</event>
<event>
 5   0  0.9822607E-03  0.6002965E+03  0.7818609E-02  0.9904791E-01
       -2   -1    0    0    0  501  0.00000000000E+00  0.00000000000E+00  0.16804018919E+03  0.16804018921E+03  0.25500000920E-02 0. -1.
        2   -1    0    0  501    0  0.00000000000E+00  0.00000000000E+00 -0.53611568786E+03  0.53611568787E+03  0.25500000920E-02 0.  1.
    10030    2    1    2    0    0  0.00000000000E+00  0.00000000000E+00 -0.36807549867E+03  0.70415587708E+03  0.60029653214E+03 0.  0.
        3    1    3    3  502    0  0.64247541593E+02 -0.38589986340E+02 -0.52496322841E+03  0.53028608790E+03  0.10100000352E+00 0.  1.
       -3    1    3    3    0  502 -0.64247541593E+02  0.38589986340E+02  0.15688772973E+03  0.17386978917E+03  0.10100000352E+00 0. -1.
</event>
<event>
 5   0  0.5891927E-03  0.6008759E+03  0.7818609E-02  0.9903591E-01
       -1   -1    0    0    0  501  0.00000000000E+00  0.00000000000E+00  0.39740861862E+03  0.39740861866E+03  0.50400001928E-02 0.  1.
        1   -1    0    0  501    0  0.00000000000E+00  0.00000000000E+00 -0.22712881603E+03  0.22712881608E+03  0.50400001928E-02 0. -1.
    10030    2    1    2    0    0  0.00000000000E+00  0.00000000000E+00  0.17027980260E+03  0.62453743474E+03  0.60087585757E+03 0.  0.
        4    1    3    3  502    0 -0.54205940050E+01 -0.30020496735E+03  0.74291911986E+02  0.30931101880E+03  0.12699999809E+01 0.  1.
       -4    1    3    3    0  502  0.54205940050E+01  0.30020496735E+03  0.95987890613E+02  0.31522641594E+03  0.12699999809E+01 0. -1.
</event>
<event>
 5   0  0.5891927E-03  0.5987951E+03  0.7818609E-02  0.9907909E-01
        1   -1    0    0  501    0  0.00000000000E+00  0.00000000000E+00  0.14327131764E+03  0.14327131773E+03  0.50400001928E-02 0. -1.
       -1   -1    0    0    0  501  0.00000000000E+00  0.00000000000E+00 -0.62565822306E+03  0.62565822308E+03  0.50400001928E-02 0.  1.
    10030    2    1    2    0    0  0.00000000000E+00  0.00000000000E+00 -0.48238690541E+03  0.76892954081E+03  0.59879505026E+03 0.  0.
        4    1    3    3  502    0  0.35840530386E+02 -0.55642069616E+02 -0.61614276099E+03  0.61968871084E+03  0.12699999809E+01 0.  1.
       -4    1    3    3    0  502 -0.35840530386E+02  0.55642069616E+02  0.13375585557E+03  0.14924082997E+03  0.12699999809E+01 0. -1.
</event>
<event>
 5   0  0.5765045E-03  0.6003968E+03  0.7818609E-02  0.9904583E-01
       -1   -1    0    0    0  501  0.00000000000E+00  0.00000000000E+00  0.19265848023E+03  0.19265848029E+03  0.50400001928E-02 0. -1.
        1   -1    0    0  501    0  0.00000000000E+00  0.00000000000E+00 -0.46776588898E+03  0.46776588901E+03  0.50400001928E-02 0.  1.
    10030    2    1    2    0    0  0.00000000000E+00  0.00000000000E+00 -0.27510740875E+03  0.66042436930E+03  0.60039675317E+03 0.  0.
        1    1    3    3  502    0 -0.11678344732E+03  0.11167033286E+03  0.14074431932E+03  0.21428392440E+03  0.50400001928E-02 0. -1.
       -1    1    3    3    0  502  0.11678344732E+03 -0.11167033286E+03 -0.41585172807E+03  0.44614044490E+03  0.50400001928E-02 0.  1.
</event>
<event>
 5   0  0.9162342E-03  0.6021607E+03  0.7818609E-02  0.9900933E-01
       -2   -1    0    0    0  501  0.00000000000E+00  0.00000000000E+00  0.79030311292E+02  0.79030311333E+02  0.25500000920E-02 0. -1.
        2   -1    0    0  501    0  0.00000000000E+00  0.00000000000E+00 -0.11470204214E+04  0.11470204214E+04  0.25500000920E-02 0.  1.
    10030    2    1    2    0    0  0.00000000000E+00  0.00000000000E+00 -0.10679901101E+04  0.12260507328E+04  0.60216071274E+03 0.  0.
        5    1    3    3  502    0 -0.23738916652E+03 -0.14308633923E+03 -0.77318072701E+03  0.82137558003E+03  0.46999998093E+01 0.  1.
       -5    1    3    3    0  502  0.23738916652E+03  0.14308633923E+03 -0.29480938312E+03  0.40467515273E+03  0.46999998093E+01 0. -1.
</event>
<event>
 5   0  0.5765045E-03  0.5990882E+03  0.7818609E-02  0.9907300E-01
        1   -1    0    0  501    0  0.00000000000E+00  0.00000000000E+00  0.55875659367E+03  0.55875659369E+03  0.50400001928E-02 0. -1.
       -1   -1    0    0    0  501  0.00000000000E+00  0.00000000000E+00 -0.16058274338E+03  0.16058274346E+03  0.50400001928E-02 0.  1.
    10030    2    1    2    0    0  0.00000000000E+00  0.00000000000E+00  0.39817385029E+03  0.71933933715E+03  0.59908819628E+03 0.  0.
        1    1    3    3  502    0  0.44156335661E+02 -0.29460402777E+03  0.23677801098E+03  0.38053270775E+03  0.50400001928E-02 0. -1.
       -1    1    3    3    0  502 -0.44156335661E+02  0.29460402777E+03  0.16139583931E+03  0.33880662940E+03  0.50400001928E-02 0.  1.
</event>
<event>
 5   0  0.3806250E-03  0.5994790E+03  0.7818609E-02  0.9906488E-01
       -3   -1    0    0    0  501  0.00000000000E+00  0.00000000000E+00  0.81073488936E+03  0.81073489566E+03  0.10100000352E+00 0. -1.
        3   -1    0    0  501    0  0.00000000000E+00  0.00000000000E+00 -0.11081764490E+03  0.11081769093E+03  0.10100000352E+00 0.  1.
    10030    2    1    2    0    0  0.00000000000E+00  0.00000000000E+00  0.69991724446E+03  0.92155258659E+03  0.59947895772E+03 0.  0.
        2    1    3    3  502    0 -0.29634213893E+03 -0.44921253410E+02  0.35407573390E+03  0.46390323092E+03  0.25500000920E-02 0.  1.
       -2    1    3    3    0  502  0.29634213893E+03  0.44921253410E+02  0.34584151056E+03  0.45764935567E+03  0.25500000920E-02 0. -1.
</event>
<event>
 5   0  0.9162342E-03  0.5996681E+03  0.7818609E-02  0.9906095E-01
        2   -1    0    0  501    0  0.00000000000E+00  0.00000000000E+00  0.11595058624E+04  0.11595058624E+04  0.25500000920E-02 0. -1.
       -2   -1    0    0    0  501  0.00000000000E+00  0.00000000000E+00 -0.77533419333E+02  0.77533419375E+02  0.25500000920E-02 0.  1.
    10030    2    1    2    0    0  0.00000000000E+00  0.00000000000E+00  0.10819724430E+04  0.12370392818E+04  0.59966808911E+03 0.  0.
        5    1    3    3  502    0 -0.12824120882E+03 -0.26783285559E+03  0.62599357547E+03  0.69287105056E+03  0.46999998093E+01 0.  1.
       -5    1    3    3    0  502  0.12824120882E+03  0.26783285559E+03  0.45597886757E+03  0.54416823120E+03  0.46999998093E+01 0. -1.
</event>
<event>
 5   0  0.9028473E-03  0.5995951E+03  0.7818609E-02  0.9906246E-01
       -2   -1    0    0    0  501  0.00000000000E+00  0.00000000000E+00  0.30773211795E+03  0.30773211796E+03  0.25500000920E-02 0.  1.
        2   -1    0    0  501    0  0.00000000000E+00  0.00000000000E+00 -0.29206760876E+03  0.29206760877E+03  0.25500000920E-02 0. -1.
    10030    2    1    2    0    0  0.00000000000E+00  0.00000000000E+00  0.15664509193E+02  0.59979972673E+03  0.59959514286E+03 0.  0.
        1    1    3    3  502    0 -0.16666638599E+03  0.72877013460E+02  0.24621975611E+03  0.30612564681E+03  0.50400001928E-02 0.  1.
       -1    1    3    3    0  502  0.16666638599E+03 -0.72877013460E+02 -0.23055524692E+03  0.29367407992E+03  0.50400001928E-02 0. -1.
</event>
<event>
 5   0  0.9303190E-03  0.6002139E+03  0.7818609E-02  0.9904962E-01
       -2   -1    0    0    0  501  0.00000000000E+00  0.00000000000E+00  0.81803762665E+02  0.81803762704E+02  0.25500000920E-02 0. -1.
        2   -1    0    0  501    0  0.00000000000E+00  0.00000000000E+00 -0.11009785734E+04  0.11009785734E+04  0.25500000920E-02 0.  1.
    10030    2    1    2    0    0  0.00000000000E+00  0.00000000000E+00 -0.10191748107E+04  0.11827823361E+04  0.60021392833E+03 0.  0.
        4    1    3    3  502    0 -0.10574898062E+03 -0.22068327855E+03 -0.16725465117E+03  0.29641134859E+03  0.12699999809E+01 0. -1.
       -4    1    3    3    0  502  0.10574898062E+03  0.22068327855E+03 -0.85192015953E+03  0.88637098748E+03  0.12699999809E+01 0.  1.
</event>
<event>
 5   0  0.9162342E-03  0.6036549E+03  0.7818609E-02  0.9897852E-01
       -2   -1    0    0    0  501  0.00000000000E+00  0.00000000000E+00  0.40989627594E+03  0.40989627595E+03  0.25500000920E-02 0. -1.
        2   -1    0    0  501    0  0.00000000000E+00  0.00000000000E+00 -0.22225088792E+03  0.22225088794E+03  0.25500000920E-02 0.  1.
    10030    2    1    2    0    0  0.00000000000E+00  0.00000000000E+00  0.18764538801E+03  0.63214716388E+03  0.60365490569E+03 0.  0.
        5    1    3    3  502    0 -0.12690701182E+03  0.25948233162E+03  0.18536286062E+03  0.34324619469E+03  0.46999998093E+01 0.  1.
       -5    1    3    3    0  502  0.12690701182E+03 -0.25948233162E+03  0.22825273917E+01  0.28890096919E+03  0.46999998093E+01 0. -1.
</event>
<event>
 5   0  0.5891927E-03  0.6001447E+03  0.7818609E-02  0.9905106E-01
        1   -1    0    0  501    0  0.00000000000E+00  0.00000000000E+00  0.29191984131E+04  0.29191984131E+04  0.50400001928E-02 0. -1.
       -1   -1    0    0    0  501  0.00000000000E+00  0.00000000000E+00 -0.30845256570E+02  0.30845256981E+02  0.50400001928E-02 0.  1.
    10030    2    1    2    0    0  0.00000000000E+00  0.00000000000E+00  0.28883531565E+04  0.29500436701E+04  0.60014473135E+03 0.  0.
        4    1    3    3  502    0  0.11931155375E+03 -0.10838330412E+03  0.26883033648E+04  0.26931317794E+04  0.12699999809E+01 0. -1.
       -4    1    3    3    0  502 -0.11931155375E+03  0.10838330412E+03  0.20004979172E+03  0.25691189061E+03  0.12699999809E+01 0.  1.
</event>
<event>
 5   0  0.9028473E-03  0.5998919E+03  0.7818609E-02  0.9905630E-01
       -2   -1    0    0    0  501  0.00000000000E+00  0.00000000000E+00  0.16589630007E+03  0.16589630009E+03  0.25500000920E-02 0. -1.
        2   -1    0    0  501    0  0.00000000000E+00  0.00000000000E+00 -0.54231211012E+03  0.54231211013E+03  0.25500000920E-02 0.  1.
    10030    2    1    2    0    0  0.00000000000E+00  0.00000000000E+00 -0.37641581005E+03  0.70820841022E+03  0.59989189880E+03 0.  0.
        1    1    3    3  502    0 -0.29423408510E+03 -0.11888120541E+02 -0.12087924681E+03  0.31831873425E+03  0.50400001928E-02 0. -1.
       -1    1    3    3    0  502  0.29423408510E+03  0.11888120541E+02 -0.25553656325E+03  0.38988967597E+03  0.50400001928E-02 0.  1.
</event>
<event>
 5   0  0.5891927E-03  0.5996797E+03  0.7818609E-02  0.9906071E-01
       -1   -1    0    0    0  501  0.00000000000E+00  0.00000000000E+00  0.30919208353E+03  0.30919208357E+03  0.50400001928E-02 0.  1.
        1   -1    0    0  501    0  0.00000000000E+00  0.00000000000E+00 -0.29077052381E+03  0.29077052385E+03  0.50400001928E-02 0. -1.
    10030    2    1    2    0    0  0.00000000000E+00  0.00000000000E+00  0.18421559718E+02  0.59996260743E+03  0.59967972823E+03 0.  0.
        4    1    3    3  502    0 -0.67151834439E+02 -0.17691365463E+03 -0.22348122217E+03  0.29283660910E+03  0.12699999809E+01 0. -1.
       -4    1    3    3    0  502  0.67151834439E+02  0.17691365463E+03  0.24190278189E+03  0.30712599833E+03  0.12699999809E+01 0.  1.
</event>
<event>
 5   0  0.6078658E-03  0.6020689E+03  0.7818609E-02  0.9901123E-01
        1   -1    0    0  501    0  0.00000000000E+00  0.00000000000E+00  0.27229361550E+02  0.27229362016E+02  0.50400001928E-02 0. -1.
       -1   -1    0    0    0  501  0.00000000000E+00  0.00000000000E+00 -0.33280890043E+04  0.33280890043E+04  0.50400001928E-02 0.  1.
    10030    2    1    2    0    0  0.00000000000E+00  0.00000000000E+00 -0.33008596428E+04  0.33553183663E+04  0.60206889824E+03 0.  0.
        2    1    3    3  502    0 -0.15920501049E+03 -0.25820696667E+02 -0.23387507212E+03  0.28409592237E+03  0.25500000920E-02 0. -1.
       -2    1    3    3    0  502  0.15920501049E+03  0.25820696667E+02 -0.30669845706E+04  0.30712224440E+04  0.25500000920E-02 0.  1.
</event>
<event>
 5   0  0.3806250E-03  0.6008775E+03  0.7818609E-02  0.9903587E-01
       -4   -1    0    0    0  501  0.00000000000E+00  0.00000000000E+00  0.43739530539E+03  0.43739714914E+03  0.12699999809E+01 0.  1.
        4   -1    0    0  501    0  0.00000000000E+00  0.00000000000E+00 -0.20636161474E+03  0.20636552264E+03  0.12699999809E+01 0. -1.
    10030    2    1    2    0    0  0.00000000000E+00  0.00000000000E+00  0.23103369066E+03  0.64376267179E+03  0.60087753442E+03 0.  0.
        2    1    3    3  502    0  0.17888773997E+03  0.13902716457E+03 -0.95883048389E+02  0.24601409508E+03  0.25500000920E-02 0. -1.
       -2    1    3    3    0  502 -0.17888773997E+03 -0.13902716457E+03  0.32691673904E+03  0.39774857671E+03  0.25500000920E-02 0.  1.
</event>
<event>
 5   0  0.5891927E-03  0.5991558E+03  0.7818609E-02  0.9907159E-01
       -1   -1    0    0    0  501  0.00000000000E+00  0.00000000000E+00  0.31714136015E+03  0.31714136019E+03  0.50400001928E-02 0.  1.
        1   -1    0    0  501    0  0.00000000000E+00  0.00000000000E+00 -0.28298710075E+03  0.28298710080E+03  0.50400001928E-02 0. -1.
    10030    2    1    2    0    0  0.00000000000E+00  0.00000000000E+00  0.34154259396E+02  0.60012846099E+03  0.59915578630E+03 0.  0.
        4    1    3    3  502    0 -0.20561742604E+03 -0.21633353281E+03 -0.87829528218E+01  0.29859249232E+03  0.12699999809E+01 0. -1.
       -4    1    3    3    0  502  0.20561742604E+03  0.21633353281E+03  0.42937212218E+02  0.30153596867E+03  0.12699999809E+01 0.  1.
</event>
<event>
 5   0  0.5891927E-03  0.6000910E+03  0.7818609E-02  0.9905217E-01
       -1   -1    0    0    0  501  0.00000000000E+00  0.00000000000E+00  0.16294566834E+03  0.16294566842E+03  0.50400001928E-02 0.  1.
        1   -1    0    0  501    0  0.00000000000E+00  0.00000000000E+00 -0.55249881050E+03  0.55249881052E+03  0.50400001928E-02 0. -1.
    10030    2    1    2    0    0  0.00000000000E+00  0.00000000000E+00 -0.38955314216E+03  0.71544447893E+03  0.60009095300E+03 0.  0.
        4    1    3    3  502    0 -0.23356287242E+03  0.18252795189E+03 -0.25015555403E+03  0.38787560210E+03  0.12699999809E+01 0. -1.
       -4    1    3    3    0  502  0.23356287242E+03 -0.18252795189E+03 -0.13939758812E+03  0.32756887683E+03  0.12699999809E+01 0.  1.
</event>
<event>
 5   0  0.9303190E-03  0.5995220E+03  0.7818609E-02  0.9906398E-01
       -2   -1    0    0    0  501  0.00000000000E+00  0.00000000000E+00  0.49339036214E+03  0.49339036214E+03  0.25500000920E-02 0.  1.
        2   -1    0    0  501    0  0.00000000000E+00  0.00000000000E+00 -0.18212080811E+03  0.18212080813E+03  0.25500000920E-02 0. -1.
    10030    2    1    2    0    0  0.00000000000E+00  0.00000000000E+00  0.31126955403E+03  0.67551117027E+03  0.59952198117E+03 0.  0.
        4    1    3    3  502    0  0.26553407527E+03 -0.89196850060E+02  0.27588918866E+03  0.39316775111E+03  0.12699999809E+01 0. -1.
       -4    1    3    3    0  502 -0.26553407527E+03  0.89196850060E+02  0.35380365362E+02  0.28234341916E+03  0.12699999809E+01 0.  1.
</event>
<event>
 5   0  0.9303190E-03  0.6005737E+03  0.7818609E-02  0.9904216E-01
        2   -1    0    0  501    0  0.00000000000E+00  0.00000000000E+00  0.28838604527E+03  0.28838604528E+03  0.25500000920E-02 0.  1.
       -2   -1    0    0    0  501  0.00000000000E+00  0.00000000000E+00 -0.31267880088E+03  0.31267880089E+03  0.25500000920E-02 0. -1.
    10030    2    1    2    0    0  0.00000000000E+00  0.00000000000E+00 -0.24292755613E+02  0.60106484617E+03  0.60057373513E+03 0.  0.
        4    1    3    3  502    0  0.13066064826E+03  0.58968444909E+02  0.25192750849E+03  0.28985956071E+03  0.12699999809E+01 0.  1.
       -4    1    3    3    0  502 -0.13066064826E+03 -0.58968444909E+02 -0.27622026411E+03  0.31120528546E+03  0.12699999809E+01 0. -1.
</event>
<event>
 5   0  0.5790967E-03  0.6000155E+03  0.7818609E-02  0.9905374E-01
       -1   -1    0    0    0  501  0.00000000000E+00  0.00000000000E+00  0.20376148346E+03  0.20376148352E+03  0.50400001928E-02 0.  1.
        1   -1    0    0  501    0  0.00000000000E+00  0.00000000000E+00 -0.44171566557E+03  0.44171566560E+03  0.50400001928E-02 0. -1.
    10030    2    1    2    0    0  0.00000000000E+00  0.00000000000E+00 -0.23795418211E+03  0.64547714912E+03  0.60001546418E+03 0.  0.
        3    1    3    3  502    0 -0.12565965693E+03 -0.27234970112E+03 -0.12577403811E+03  0.32524425889E+03  0.10100000352E+00 0.  1.
       -3    1    3    3    0  502  0.12565965693E+03  0.27234970112E+03 -0.11218014400E+03  0.32023289023E+03  0.10100000352E+00 0. -1.
</event>
<event>
 5   0  0.9391405E-03  0.6007399E+03  0.7818609E-02  0.9903872E-01
       -2   -1    0    0    0  501  0.00000000000E+00  0.00000000000E+00  0.17735724831E+03  0.17735724833E+03  0.25500000920E-02 0.  1.
        2   -1    0    0  501    0  0.00000000000E+00  0.00000000000E+00 -0.50870275126E+03  0.50870275127E+03  0.25500000920E-02 0. -1.
    10030    2    1    2    0    0  0.00000000000E+00  0.00000000000E+00 -0.33134550295E+03  0.68605999960E+03  0.60073994434E+03 0.  0.
        2    1    3    3  502    0 -0.17399819957E+03  0.32275053353E+02  0.11150088409E+03  0.20916381064E+03  0.25500000920E-02 0.  1.
       -2    1    3    3    0  502  0.17399819957E+03 -0.32275053353E+02 -0.44284638704E+03  0.47689618896E+03  0.25500000920E-02 0. -1.
</event>
<event>
 5   0  0.5819446E-03  0.5997529E+03  0.7818609E-02  0.9905919E-01
       -1   -1    0    0    0  501  0.00000000000E+00  0.00000000000E+00  0.60951319360E+02  0.60951319568E+02  0.50400001928E-02 0.  1.
        1   -1    0    0  501    0  0.00000000000E+00  0.00000000000E+00 -0.14753720123E+04  0.14753720123E+04  0.50400001928E-02 0. -1.
    10030    2    1    2    0    0  0.00000000000E+00  0.00000000000E+00 -0.14144206929E+04  0.15363233319E+04  0.59975285197E+03 0.  0.
        5    1    3    3  502    0  0.17251244877E+03  0.55164483231E+02 -0.95101299587E+02  0.20462163222E+03  0.46999998093E+01 0.  1.
       -5    1    3    3    0  502 -0.17251244877E+03 -0.55164483231E+02 -0.13193193933E+04  0.13317016996E+04  0.46999998093E+01 0. -1.
</event>
<event>
 5   0  0.9028473E-03  0.5990836E+03  0.7818609E-02  0.9907309E-01
        2   -1    0    0  501    0  0.00000000000E+00  0.00000000000E+00  0.30353948989E+03  0.30353948990E+03  0.25500000920E-02 0.  1.
       -2   -1    0    0    0  501  0.00000000000E+00  0.00000000000E+00 -0.29559679658E+03  0.29559679659E+03  0.25500000920E-02 0. -1.
    10030    2    1    2    0    0  0.00000000000E+00  0.00000000000E+00  0.79426933124E+01  0.59913628649E+03  0.59908363640E+03 0.  0.
        1    1    3    3  502    0  0.26129876221E+03 -0.14372539857E+02  0.14972943934E+03  0.30150044455E+03  0.50400001928E-02 0.  1.
       -1    1    3    3    0  502 -0.26129876221E+03  0.14372539857E+02 -0.14178674603E+03  0.29763584194E+03  0.50400001928E-02 0. -1.
</event>
<event>
 5   0  0.9303190E-03  0.5992185E+03  0.7818609E-02  0.9907029E-01
       -2   -1    0    0    0  501  0.00000000000E+00  0.00000000000E+00  0.12226066108E+03  0.12226066110E+03  0.25500000920E-02 0. -1.
        2   -1    0    0  501    0  0.00000000000E+00  0.00000000000E+00 -0.73421578224E+03  0.73421578224E+03  0.25500000920E-02 0.  1.
    10030    2    1    2    0    0  0.00000000000E+00  0.00000000000E+00 -0.61195512116E+03  0.85647644334E+03  0.59921851414E+03 0.  0.
        4    1    3    3  502    0 -0.15897859895E+03  0.70312656777E+02  0.42806478703E+02  0.17903092511E+03  0.12699999809E+01 0. -1.
       -4    1    3    3    0  502  0.15897859895E+03 -0.70312656777E+02 -0.65476159986E+03  0.67744551824E+03  0.12699999809E+01 0.  1.
</event>
<event>
 5   0  0.5790967E-03  0.6067122E+03  0.7818609E-02  0.9891577E-01
       -1   -1    0    0    0  501  0.00000000000E+00  0.00000000000E+00  0.88061982217E+03  0.88061982218E+03  0.50400001928E-02 0. -1.
        1   -1    0    0  501    0  0.00000000000E+00  0.00000000000E+00 -0.10450018871E+03  0.10450018883E+03  0.50400001928E-02 0.  1.
    10030    2    1    2    0    0  0.00000000000E+00  0.00000000000E+00  0.77611963346E+03  0.98512001101E+03  0.60671224700E+03 0.  0.
        3    1    3    3  502    0 -0.62307193241E+02  0.29289422460E+03  0.30925229123E+03  0.43047206991E+03  0.10100000352E+00 0. -1.
       -3    1    3    3    0  502  0.62307193241E+02 -0.29289422460E+03  0.46686734222E+03  0.55464794111E+03  0.10100000352E+00 0.  1.
</event>
<event>
 5   0  0.9303190E-03  0.6001218E+03  0.7818609E-02  0.9905153E-01
        2   -1    0    0  501    0  0.00000000000E+00  0.00000000000E+00  0.19122717497E+04  0.19122717497E+04  0.25500000920E-02 0.  1.
       -2   -1    0    0    0  501  0.00000000000E+00  0.00000000000E+00 -0.47083547445E+02  0.47083547514E+02  0.25500000920E-02 0. -1.
    10030    2    1    2    0    0  0.00000000000E+00  0.00000000000E+00  0.18651882023E+04  0.19593552972E+04  0.60012178005E+03 0.  0.
        4    1    3    3  502    0 -0.26957221629E+03  0.10783046494E+03  0.11799184009E+04  0.12151154820E+04  0.12699999809E+01 0. -1.
       -4    1    3    3    0  502  0.26957221629E+03 -0.10783046494E+03  0.68526980133E+03  0.74423981517E+03  0.12699999809E+01 0.  1.
</event>
<event>
 5   0  0.9162342E-03  0.5998945E+03  0.7818609E-02  0.9905625E-01
        2   -1    0    0  501    0  0.00000000000E+00  0.00000000000E+00  0.12902934201E+03  0.12902934203E+03  0.25500000920E-02 0. -1.
       -2   -1    0    0    0  501  0.00000000000E+00  0.00000000000E+00 -0.69727051495E+03  0.69727051495E+03  0.25500000920E-02 0.  1.
    10030    2    1    2    0    0  0.00000000000E+00  0.00000000000E+00 -0.56824117294E+03  0.82629985698E+03  0.59989450991E+03 0.  0.
        5    1    3    3  502    0 -0.17372553532E+03 -0.11987060829E+03  0.93571293578E+01  0.21132716395E+03  0.46999998093E+01 0. -1.
       -5    1    3    3    0  502  0.17372553532E+03  0.11987060829E+03 -0.57759830230E+03  0.61497269303E+03  0.46999998093E+01 0.  1.
</event>
<event>
 5   0  0.9028473E-03  0.6003094E+03  0.7818609E-02  0.9904764E-01
        2   -1    0    0  501    0  0.00000000000E+00  0.00000000000E+00  0.14453327931E+04  0.14453327931E+04  0.25500000920E-02 0.  1.
       -2   -1    0    0    0  501  0.00000000000E+00  0.00000000000E+00 -0.62333627362E+02  0.62333627414E+02  0.25500000920E-02 0. -1.
    10030    2    1    2    0    0  0.00000000000E+00  0.00000000000E+00  0.13829991658E+04  0.15076664205E+04  0.60030937285E+03 0.  0.
        1    1    3    3  502    0  0.24381797367E+03 -0.77821209528E+02  0.29767311010E+03  0.39257180928E+03  0.50400001928E-02 0. -1.
       -1    1    3    3    0  502 -0.24381797367E+03  0.77821209528E+02  0.10853260557E+04  0.11150946113E+04  0.50400001928E-02 0.  1.
</event>
<event>
 5   0  0.5891927E-03  0.5999754E+03  0.7818609E-02  0.9905457E-01
       -1   -1    0    0    0  501  0.00000000000E+00  0.00000000000E+00  0.14648894023E+03  0.14648894032E+03  0.50400001928E-02 0.  1.
        1   -1    0    0  501    0  0.00000000000E+00  0.00000000000E+00 -0.61433042842E+03  0.61433042844E+03  0.50400001928E-02 0. -1.
    10030    2    1    2    0    0  0.00000000000E+00  0.00000000000E+00 -0.46784148819E+03  0.76081936876E+03  0.59997537767E+03 0.  0.
        4    1    3    3  502    0  0.12494424069E+03  0.20725781855E+03 -0.45871219524E+03  0.51863798318E+03  0.12699999809E+01 0.  1.
       -4    1    3    3    0  502 -0.12494424069E+03 -0.20725781855E+03 -0.91292929411E+01  0.24218138558E+03  0.12699999809E+01 0. -1.
</event>
<event>
 5   0  0.9028473E-03  0.6009125E+03  0.7818609E-02  0.9903515E-01
        2   -1    0    0  501    0  0.00000000000E+00  0.00000000000E+00  0.14125919892E+04  0.14125919892E+04  0.25500000920E-02 0. -1.
       -2   -1    0    0    0  501  0.00000000000E+00  0.00000000000E+00 -0.63906599442E+02  0.63906599493E+02  0.25500000920E-02 0.  1.
    10030    2    1    2    0    0  0.00000000000E+00  0.00000000000E+00  0.13486853897E+04  0.14764985887E+04  0.60091247438E+03 0.  0.
        1    1    3    3  502    0  0.21538798047E+03 -0.14018445716E+03  0.29186942460E+03  0.38888484826E+03  0.50400001928E-02 0.  1.
       -1    1    3    3    0  502 -0.21538798047E+03  0.14018445716E+03  0.10568159651E+04  0.10876137404E+04  0.50400001928E-02 0. -1.
</event>
<event>
 5   0  0.6078658E-03  0.6005205E+03  0.7818609E-02  0.9904327E-01
       -1   -1    0    0    0  501  0.00000000000E+00  0.00000000000E+00  0.15099959427E+03  0.15099959436E+03  0.50400001928E-02 0. -1.
        1   -1    0    0  501    0  0.00000000000E+00  0.00000000000E+00 -0.59706263529E+03  0.59706263531E+03  0.50400001928E-02 0.  1.
    10030    2    1    2    0    0  0.00000000000E+00  0.00000000000E+00 -0.44606304102E+03  0.74806222967E+03  0.60052049332E+03 0.  0.
        2    1    3    3  502    0  0.74018977831E+02  0.11212627670E+02 -0.58525035149E+03  0.59001907259E+03  0.25500000920E-02 0.  1.
       -2    1    3    3    0  502 -0.74018977831E+02 -0.11212627670E+02  0.13918731047E+03  0.15804315708E+03  0.25500000920E-02 0. -1.
</event>
<event>
 5   0  0.9822607E-03  0.6008069E+03  0.7818609E-02  0.9903733E-01
       -2   -1    0    0    0  501  0.00000000000E+00  0.00000000000E+00  0.26541961327E+03  0.26541961328E+03  0.25500000920E-02 0.  1.
        2   -1    0    0  501    0  0.00000000000E+00  0.00000000000E+00 -0.33999835430E+03  0.33999835431E+03  0.25500000920E-02 0. -1.
    10030    2    1    2    0    0  0.00000000000E+00  0.00000000000E+00 -0.74578741028E+02  0.60541796759E+03  0.60080689649E+03 0.  0.
        3    1    3    3  502    0  0.29616672127E+02 -0.25248064947E+03 -0.19857588560E+03  0.32257715072E+03  0.10100000352E+00 0.  1.
       -3    1    3    3    0  502 -0.29616672127E+02  0.25248064947E+03  0.12399714457E+03  0.28284081687E+03  0.10100000352E+00 0. -1.
</event>
<event>
 5   0  0.5891927E-03  0.6001484E+03  0.7818609E-02  0.9905098E-01
        1   -1    0    0  501    0  0.00000000000E+00  0.00000000000E+00  0.55760079935E+03  0.55760079937E+03  0.50400001928E-02 0.  1.
       -1   -1    0    0    0  501  0.00000000000E+00  0.00000000000E+00 -0.16148566731E+03  0.16148566739E+03  0.50400001928E-02 0. -1.
    10030    2    1    2    0    0  0.00000000000E+00  0.00000000000E+00  0.39611513204E+03  0.71908646676E+03  0.60014843901E+03 0.  0.
        4    1    3    3  502    0 -0.29989996246E+03  0.75843835636E+01  0.18998303903E+03  0.35509530887E+03  0.12699999809E+01 0.  1.
       -4    1    3    3    0  502  0.29989996246E+03 -0.75843835636E+01  0.20613209301E+03  0.36399115790E+03  0.12699999809E+01 0. -1.
</event>
<event>
 5   0  0.5891927E-03  0.5995539E+03  0.7818609E-02  0.9906332E-01
       -1   -1    0    0    0  501  0.00000000000E+00  0.00000000000E+00  0.16421635165E+03  0.16421635173E+03  0.50400001928E-02 0.  1.
        1   -1    0    0  501    0  0.00000000000E+00  0.00000000000E+00 -0.54724274474E+03  0.54724274476E+03  0.50400001928E-02 0. -1.
    10030    2    1    2    0    0  0.00000000000E+00  0.00000000000E+00 -0.38302639309E+03  0.71145909648E+03  0.59955385761E+03 0.  0.
        4    1    3    3  502    0 -0.24440997252E+03 -0.38558297818E+02 -0.39233945747E+03  0.46384786276E+03  0.12699999809E+01 0. -1.
       -4    1    3    3    0  502  0.24440997252E+03  0.38558297818E+02  0.93130643833E+01  0.24761123373E+03  0.12699999809E+01 0.  1.
</event>
<event>
 5   0  0.9028473E-03  0.6002279E+03  0.7818609E-02  0.9904933E-01
        2   -1    0    0  501    0  0.00000000000E+00  0.00000000000E+00  0.56540011653E+03  0.56540011653E+03  0.25500000920E-02 0. -1.
       -2   -1    0    0    0  501  0.00000000000E+00  0.00000000000E+00 -0.15930025557E+03  0.15930025559E+03  0.25500000920E-02 0.  1.
    10030    2    1    2    0    0  0.00000000000E+00  0.00000000000E+00  0.40609986096E+03  0.72470037212E+03  0.60022790028E+03 0.  0.
        1    1    3    3  502    0  0.26686821887E+03  0.52308117202E+02  0.49786492434E+02  0.27646605618E+03  0.50400001928E-02 0.  1.
       -1    1    3    3    0  502 -0.26686821887E+03 -0.52308117202E+02  0.35631336853E+03  0.44823431594E+03  0.50400001928E-02 0. -1.
</event>
<event>
 5   0  0.9303190E-03  0.6007741E+03  0.7818609E-02  0.9903801E-01
        2   -1    0    0  501    0  0.00000000000E+00  0.00000000000E+00  0.26106612694E+03  0.26106612695E+03  0.25500000920E-02 0. -1.
       -2   -1    0    0    0  501  0.00000000000E+00  0.00000000000E+00 -0.34563031144E+03  0.34563031145E+03  0.25500000920E-02 0.  1.
    10030    2    1    2    0    0  0.00000000000E+00  0.00000000000E+00 -0.84564184507E+02  0.60669643840E+03  0.60077405659E+03 0.  0.
        4    1    3    3  502    0 -0.12168052982E+03 -0.27351262103E+03 -0.67334887753E+02  0.30684019490E+03  0.12699999809E+01 0.  1.
       -4    1    3    3    0  502  0.12168052982E+03  0.27351262103E+03 -0.17229296754E+02  0.29985624350E+03  0.12699999809E+01 0. -1.
</event>
<event>
 5   0  0.5819446E-03  0.5989532E+03  0.7818609E-02  0.9907580E-01
        1   -1    0    0  501    0  0.00000000000E+00  0.00000000000E+00  0.14398840127E+04  0.14398840127E+04  0.50400001928E-02 0.  1.
       -1   -1    0    0    0  501  0.00000000000E+00  0.00000000000E+00 -0.62287128184E+02  0.62287128387E+02  0.50400001928E-02 0. -1.
    10030    2    1    2    0    0  0.00000000000E+00  0.00000000000E+00  0.13775968845E+04  0.15021711411E+04  0.59895322097E+03 0.  0.
        5    1    3    3  502    0  0.11337113486E+03  0.25689817556E+03  0.42798558486E+03  0.51190178518E+03  0.46999998093E+01 0. -1.
       -5    1    3    3    0  502 -0.11337113486E+03 -0.25689817556E+03  0.94961129963E+03  0.99026935588E+03  0.46999998093E+01 0.  1.
</event>
<event>
 5   0  0.9028473E-03  0.6008096E+03  0.7818609E-02  0.9903728E-01
       -2   -1    0    0    0  501  0.00000000000E+00  0.00000000000E+00  0.52054751925E+02  0.52054751988E+02  0.25500000920E-02 0.  1.
        2   -1    0    0  501    0  0.00000000000E+00  0.00000000000E+00 -0.17336176240E+04  0.17336176240E+04  0.25500000920E-02 0. -1.
    10030    2    1    2    0    0  0.00000000000E+00  0.00000000000E+00 -0.16815628721E+04  0.17856723760E+04  0.60080957186E+03 0.  0.
        1    1    3    3  502    0 -0.18816613696E+03  0.14985049997E+03 -0.30595541014E+03  0.38919195837E+03  0.50400001928E-02 0.  1.
       -1    1    3    3    0  502  0.18816613696E+03 -0.14985049997E+03 -0.13756074620E+04  0.13964804177E+04  0.50400001928E-02 0. -1.
</event>
<event>
 5   0  0.9822607E-03  0.6000304E+03  0.7818609E-02  0.9905343E-01
       -2   -1    0    0    0  501  0.00000000000E+00  0.00000000000E+00  0.40218513485E+03  0.40218513485E+03  0.25500000920E-02 0.  1.
        2   -1    0    0  501    0  0.00000000000E+00  0.00000000000E+00 -0.22380022442E+03  0.22380022443E+03  0.25500000920E-02 0. -1.
    10030    2    1    2    0    0  0.00000000000E+00  0.00000000000E+00  0.17838491043E+03  0.62598535929E+03  0.60003041071E+03 0.  0.
        3    1    3    3  502    0  0.16256865998E+03  0.11230792482E+03  0.32471770300E+03  0.38010950531E+03  0.10100000352E+00 0. -1.
       -3    1    3    3    0  502 -0.16256865998E+03 -0.11230792482E+03 -0.14633279258E+03  0.24587585397E+03  0.10100000352E+00 0.  1.
</event>
<event>
 5   0  0.5765045E-03  0.6008282E+03  0.7818609E-02  0.9903689E-01
       -1   -1    0    0    0  501  0.00000000000E+00  0.00000000000E+00  0.18175694281E+03  0.18175694288E+03  0.50400001928E-02 0.  1.
        1   -1    0    0  501    0  0.00000000000E+00  0.00000000000E+00 -0.49653475866E+03  0.49653475869E+03  0.50400001928E-02 0. -1.
    10030    2    1    2    0    0  0.00000000000E+00  0.00000000000E+00 -0.31477781586E+03  0.67829170157E+03  0.60082822758E+03 0.  0.
        1    1    3    3  502    0 -0.10599887616E+02 -0.59105416050E+02 -0.48969055589E+03  0.49335853938E+03  0.50400001928E-02 0. -1.
       -1    1    3    3    0  502  0.10599887616E+02  0.59105416050E+02  0.17491274003E+03  0.18493316218E+03  0.50400001928E-02 0.  1.
</event>
<event>
 5   0  0.5891927E-03  0.5950771E+03  0.7818609E-02  0.9915672E-01
       -1   -1    0    0    0  501  0.00000000000E+00  0.00000000000E+00  0.72272953591E+02  0.72272953767E+02  0.50400001928E-02 0. -1.
        1   -1    0    0  501    0  0.00000000000E+00  0.00000000000E+00 -0.12249283443E+04  0.12249283443E+04  0.50400001928E-02 0.  1.
    10030    2    1    2    0    0  0.00000000000E+00  0.00000000000E+00 -0.11526553907E+04  0.12972012981E+04  0.59507710257E+03 0.  0.
        4    1    3    3  502    0  0.15403906991E+03 -0.25312899405E+03 -0.63503324715E+03  0.70076469701E+03  0.12699999809E+01 0.  1.
       -4    1    3    3    0  502 -0.15403906991E+03  0.25312899405E+03 -0.51762214354E+03  0.59643660105E+03  0.12699999809E+01 0. -1.
</event>
<event>
 5   0  0.5765045E-03  0.6016199E+03  0.7818609E-02  0.9902051E-01
        1   -1    0    0  501    0  0.00000000000E+00  0.00000000000E+00  0.75028373239E+03  0.75028373240E+03  0.50400001928E-02 0. -1.
       -1   -1    0    0    0  501  0.00000000000E+00  0.00000000000E+00 -0.12060321963E+03  0.12060321973E+03  0.50400001928E-02 0.  1.
    10030    2    1    2    0    0  0.00000000000E+00  0.00000000000E+00  0.62968051276E+03  0.87088695214E+03  0.60161992591E+03 0.  0.
        1    1    3    3  502    0  0.14856227033E+03 -0.17910325686E+03  0.38897156627E+02  0.23592734815E+03  0.50400001928E-02 0.  1.
       -1    1    3    3    0  502 -0.14856227033E+03  0.17910325686E+03  0.59078335614E+03  0.63495960399E+03  0.50400001928E-02 0. -1.
</event>
<event>
 5   0  0.5819446E-03  0.6000730E+03  0.7818609E-02  0.9905255E-01
        1   -1    0    0  501    0  0.00000000000E+00  0.00000000000E+00  0.76904517416E+03  0.76904517418E+03  0.50400001928E-02 0. -1.
       -1   -1    0    0    0  501  0.00000000000E+00  0.00000000000E+00 -0.11705672281E+03  0.11705672291E+03  0.50400001928E-02 0.  1.
    10030    2    1    2    0    0  0.00000000000E+00  0.00000000000E+00  0.65198845135E+03  0.88610189709E+03  0.60007302167E+03 0.  0.
        5    1    3    3  502    0  0.42614909685E+02 -0.22690809789E+03  0.60886748918E+03  0.65118739606E+03  0.46999998093E+01 0. -1.
       -5    1    3    3    0  502 -0.42614909685E+02  0.22690809789E+03  0.43120962177E+02  0.23491450103E+03  0.46999998093E+01 0.  1.
</event>
<event>
 5   0  0.3806250E-03  0.6006607E+03  0.7818609E-02  0.9904036E-01
        3   -1    0    0  501    0  0.00000000000E+00  0.00000000000E+00  0.66941468759E+03  0.66941469521E+03  0.10100000352E+00 0.  1.
       -3   -1    0    0    0  501  0.00000000000E+00  0.00000000000E+00 -0.13474201930E+03  0.13474205716E+03  0.10100000352E+00 0. -1.
    10030    2    1    2    0    0  0.00000000000E+00  0.00000000000E+00  0.53467266829E+03  0.80415675237E+03  0.60066065308E+03 0.  0.
        5    1    3    3  502    0 -0.29393285581E+03 -0.57632015904E+02  0.23867746809E+03  0.38302349374E+03  0.46999998093E+01 0. -1.
       -5    1    3    3    0  502  0.29393285581E+03  0.57632015904E+02  0.29599520020E+03  0.42113325863E+03  0.46999998093E+01 0.  1.
</event>
<event>
 5   0  0.3806250E-03  0.6006387E+03  0.7818609E-02  0.9904082E-01
       -3   -1    0    0    0  501  0.00000000000E+00  0.00000000000E+00  0.96459145666E+03  0.96459146195E+03  0.10100000352E+00 0. -1.
        3   -1    0    0  501    0  0.00000000000E+00  0.00000000000E+00 -0.93502470242E+02  0.93502524792E+02  0.10100000352E+00 0.  1.
    10030    2    1    2    0    0  0.00000000000E+00  0.00000000000E+00  0.87108898642E+03  0.10580939867E+04  0.60063871214E+03 0.  0.
        4    1    3    3  502    0  0.70568302749E+02  0.12247797841E+03 -0.31231423297E+02  0.14476793585E+03  0.12699999809E+01 0.  1.
       -4    1    3    3    0  502 -0.70568302749E+02 -0.12247797841E+03  0.90232040971E+03  0.91332605089E+03  0.12699999809E+01 0. -1.
</event>
<event>
 5   0  0.5790967E-03  0.6013160E+03  0.7818609E-02  0.9902680E-01
        1   -1    0    0  501    0  0.00000000000E+00  0.00000000000E+00  0.28146360213E+03  0.28146360217E+03  0.50400001928E-02 0. -1.
       -1   -1    0    0    0  501  0.00000000000E+00  0.00000000000E+00 -0.32116134226E+03  0.32116134230E+03  0.50400001928E-02 0.  1.
    10030    2    1    2    0    0  0.00000000000E+00  0.00000000000E+00 -0.39697740130E+02  0.60262494447E+03  0.60131598442E+03 0.  0.
        3    1    3    3  502    0 -0.10841249045E+03  0.26806849613E+03  0.62678620071E+02  0.29587599821E+03  0.10100000352E+00 0.  1.
       -3    1    3    3    0  502  0.10841249045E+03 -0.26806849613E+03 -0.10237636020E+03  0.30674894626E+03  0.10100000352E+00 0. -1.
</event>
<event>
 5   0  0.9303190E-03  0.5996215E+03  0.7818609E-02  0.9906192E-01
       -2   -1    0    0    0  501  0.00000000000E+00  0.00000000000E+00  0.60681787318E+03  0.60681787318E+03  0.25500000920E-02 0.  1.
        2   -1    0    0  501    0  0.00000000000E+00  0.00000000000E+00 -0.14812762295E+03  0.14812762297E+03  0.25500000920E-02 0. -1.
    10030    2    1    2    0    0  0.00000000000E+00  0.00000000000E+00  0.45869025023E+03  0.75494549616E+03  0.59962151104E+03 0.  0.
        4    1    3    3  502    0 -0.92960387473E+02  0.14850888912E+03 -0.76961591238E+02  0.19136672441E+03  0.12699999809E+01 0. -1.
       -4    1    3    3    0  502  0.92960387473E+02 -0.14850888912E+03  0.53565184147E+03  0.56357877174E+03  0.12699999809E+01 0.  1.
</event>
<event>
 5   0  0.9028473E-03  0.5976244E+03  0.7818609E-02  0.9910347E-01
        2   -1    0    0  501    0  0.00000000000E+00  0.00000000000E+00  0.10750601962E+03  0.10750601965E+03  0.25500000920E-02 0. -1.
       -2   -1    0    0    0  501  0.00000000000E+00  0.00000000000E+00 -0.83054622727E+03  0.83054622728E+03  0.25500000920E-02 0.  1.
    10030    2    1    2    0    0  0.00000000000E+00  0.00000000000E+00 -0.72304020766E+03  0.93805224692E+03  0.59762436034E+03 0.  0.
        1    1    3    3  502    0  0.68564373782E+02  0.28729708688E+03 -0.29048601054E+03  0.41427383676E+03  0.50400001928E-02 0. -1.
       -1    1    3    3    0  502 -0.68564373782E+02 -0.28729708688E+03 -0.43255419712E+03  0.52377841016E+03  0.50400001928E-02 0.  1.
</event>
<event>
 5   0  0.6078658E-03  0.5994708E+03  0.7818609E-02  0.9906505E-01
        1   -1    0    0  501    0  0.00000000000E+00  0.00000000000E+00  0.54900174402E+03  0.54900174404E+03  0.50400001928E-02 0. -1.
       -1   -1    0    0    0  501  0.00000000000E+00  0.00000000000E+00 -0.16364485018E+03  0.16364485025E+03  0.50400001928E-02 0.  1.
    10030    2    1    2    0    0  0.00000000000E+00  0.00000000000E+00  0.38535689384E+03  0.71264659430E+03  0.59947079389E+03 0.  0.
        2    1    3    3  502    0 -0.77088266276E+02 -0.27066872710E+03  0.70070455868E+02  0.29002418765E+03  0.25500000920E-02 0. -1.
       -2    1    3    3    0  502  0.77088266276E+02  0.27066872710E+03  0.31528643797E+03  0.42262240665E+03  0.25500000920E-02 0.  1.
</event>
<event>
 5   0  0.9162342E-03  0.5997711E+03  0.7818609E-02  0.9905881E-01
        2   -1    0    0  501    0  0.00000000000E+00  0.00000000000E+00  0.45301282378E+03  0.45301282379E+03  0.25500000920E-02 0.  1.
       -2   -1    0    0    0  501  0.00000000000E+00  0.00000000000E+00 -0.19851831387E+03  0.19851831388E+03  0.25500000920E-02 0. -1.
    10030    2    1    2    0    0  0.00000000000E+00  0.00000000000E+00  0.25449450991E+03  0.65153113767E+03  0.59977109615E+03 0.  0.
        5    1    3    3  502    0 -0.18699831655E+03  0.21455238520E+03  0.22977550375E+03  0.36581411743E+03  0.46999998093E+01 0.  1.
       -5    1    3    3    0  502  0.18699831655E+03 -0.21455238520E+03  0.24719006161E+02  0.28571702024E+03  0.46999998093E+01 0. -1.
</event>
<event>
 5   0  0.3806250E-03  0.5999589E+03  0.7818609E-02  0.9905491E-01
       -3   -1    0    0    0  501  0.00000000000E+00  0.00000000000E+00  0.35462480285E+03  0.35462481723E+03  0.10100000352E+00 0. -1.
        3   -1    0    0  501    0  0.00000000000E+00  0.00000000000E+00 -0.25375453130E+03  0.25375455140E+03  0.10100000352E+00 0.  1.
    10030    2    1    2    0    0  0.00000000000E+00  0.00000000000E+00  0.10087027155E+03  0.60837936863E+03  0.59995886900E+03 0.  0.
        3    1    3    3  502    0 -0.26936669269E+03  0.53236114517E+02  0.17294112167E+03  0.32450137255E+03  0.10100000352E+00 0. -1.
       -3    1    3    3    0  502  0.26936669269E+03 -0.53236114517E+02 -0.72070850120E+02  0.28387799608E+03  0.10100000352E+00 0.  1.
</event>
<event>
 5   0  0.3806250E-03  0.6012139E+03  0.7818609E-02  0.9902891E-01
       -3   -1    0    0    0  501  0.00000000000E+00  0.00000000000E+00  0.26214186656E+03  0.26214188601E+03  0.10100000352E+00 0. -1.
        3   -1    0    0  501    0  0.00000000000E+00  0.00000000000E+00 -0.34471615587E+03  0.34471617066E+03  0.10100000352E+00 0.  1.
    10030    2    1    2    0    0  0.00000000000E+00  0.00000000000E+00 -0.82574289309E+02  0.60685805667E+03  0.60121392840E+03 0.  0.
        3    1    3    3  502    0  0.69669763650E+02  0.57265882419E+02 -0.33073918315E+03  0.34281434440E+03  0.10100000352E+00 0.  1.
       -3    1    3    3    0  502 -0.69669763650E+02 -0.57265882419E+02  0.24816489384E+03  0.26404371227E+03  0.10100000352E+00 0. -1.
</event>
<event>
 5   0  0.6078658E-03  0.6005733E+03  0.7818609E-02  0.9904217E-01
       -1   -1    0    0    0  501  0.00000000000E+00  0.00000000000E+00  0.19533513834E+03  0.19533513840E+03  0.50400001928E-02 0.  1.
        1   -1    0    0  501    0  0.00000000000E+00  0.00000000000E+00 -0.46162753829E+03  0.46162753832E+03  0.50400001928E-02 0. -1.
    10030    2    1    2    0    0  0.00000000000E+00  0.00000000000E+00 -0.26629239996E+03  0.65696267672E+03  0.60057332303E+03 0.  0.
        2    1    3    3  502    0 -0.11137523342E+03 -0.26742243314E+03 -0.46646487836E+02  0.29341965714E+03  0.25500000920E-02 0.  1.
       -2    1    3    3    0  502  0.11137523342E+03  0.26742243314E+03 -0.21964591212E+03  0.36354301958E+03  0.25500000920E-02 0. -1.
</event>
<event>
 5   0  0.9391405E-03  0.6000219E+03  0.7818609E-02  0.9905361E-01
       -2   -1    0    0    0  501  0.00000000000E+00  0.00000000000E+00  0.85747706362E+02  0.85747706400E+02  0.25500000920E-02 0.  1.
        2   -1    0    0  501    0  0.00000000000E+00  0.00000000000E+00 -0.10496672493E+04  0.10496672493E+04  0.25500000920E-02 0. -1.
    10030    2    1    2    0    0  0.00000000000E+00  0.00000000000E+00 -0.96391954298E+03  0.11354149557E+04  0.60002186326E+03 0.  0.
        2    1    3    3  502    0  0.12630568616E+03 -0.18596105457E+03 -0.10600841580E+03  0.24854058904E+03  0.25500000920E-02 0.  1.
       -2    1    3    3    0  502 -0.12630568616E+03  0.18596105457E+03 -0.85791112718E+03  0.88687436670E+03  0.25500000920E-02 0. -1.
</event>
<event>
 5   0  0.9822607E-03  0.6005458E+03  0.7818609E-02  0.9904274E-01
       -2   -1    0    0    0  501  0.00000000000E+00  0.00000000000E+00  0.79102638505E+03  0.79102638506E+03  0.25500000920E-02 0. -1.
        2   -1    0    0  501    0  0.00000000000E+00  0.00000000000E+00 -0.11398332146E+03  0.11398332149E+03  0.25500000920E-02 0.  1.
    10030    2    1    2    0    0  0.00000000000E+00  0.00000000000E+00  0.67704306359E+03  0.90500970654E+03  0.60054580090E+03 0.  0.
        3    1    3    3  502    0 -0.64892962234E+02  0.25257381354E+03  0.56284975316E+03  0.62032610993E+03  0.10100000352E+00 0. -1.
       -3    1    3    3    0  502  0.64892962234E+02 -0.25257381354E+03  0.11419331043E+03  0.28468359661E+03  0.10100000352E+00 0.  1.
</event>
<event>
 5   0  0.5819446E-03  0.5976576E+03  0.7818609E-02  0.9910278E-01
       -1   -1    0    0    0  501  0.00000000000E+00  0.00000000000E+00  0.62051493494E+03  0.62051493496E+03  0.50400001928E-02 0.  1.
        1   -1    0    0  501    0  0.00000000000E+00  0.00000000000E+00 -0.14391055448E+03  0.14391055457E+03  0.50400001928E-02 0. -1.
    10030    2    1    2    0    0  0.00000000000E+00  0.00000000000E+00  0.47660438046E+03  0.76442548953E+03  0.59765758890E+03 0.  0.
        5    1    3    3  502    0  0.10739508093E+01  0.11778653217E+03 -0.11291308761E+03  0.16323687047E+03  0.46999998093E+01 0. -1.
       -5    1    3    3    0  502 -0.10739508093E+01 -0.11778653217E+03  0.58951746806E+03  0.60118861906E+03  0.46999998093E+01 0.  1.
</event>
<event>
 5   0  0.9028473E-03  0.5995298E+03  0.7818609E-02  0.9906382E-01
        2   -1    0    0  501    0  0.00000000000E+00  0.00000000000E+00  0.15547372097E+03  0.15547372099E+03  0.25500000920E-02 0.  1.
       -2   -1    0    0    0  501  0.00000000000E+00  0.00000000000E+00 -0.57796903124E+03  0.57796903125E+03  0.25500000920E-02 0. -1.
    10030    2    1    2    0    0  0.00000000000E+00  0.00000000000E+00 -0.42249531027E+03  0.73344275224E+03  0.59952980210E+03 0.  0.
        1    1    3    3  502    0 -0.17467376749E+03 -0.25483710554E+02  0.85146412119E+02  0.19598534658E+03  0.50400001928E-02 0.  1.
       -1    1    3    3    0  502  0.17467376749E+03  0.25483710554E+02 -0.50764172239E+03  0.53745740566E+03  0.50400001928E-02 0. -1.
</event>
<event>
 5   0  0.9303190E-03  0.6011012E+03  0.7818609E-02  0.9903124E-01
        2   -1    0    0  501    0  0.00000000000E+00  0.00000000000E+00  0.58610315802E+02  0.58610315858E+02  0.25500000920E-02 0.  1.
       -2   -1    0    0    0  501  0.00000000000E+00  0.00000000000E+00 -0.15412076911E+04  0.15412076911E+04  0.25500000920E-02 0. -1.
    10030    2    1    2    0    0  0.00000000000E+00  0.00000000000E+00 -0.14825973753E+04  0.15998180070E+04  0.60110122123E+03 0.  0.
        4    1    3    3  502    0 -0.53759439720E+01  0.24876823844E+03 -0.11899336630E+04  0.12156719428E+04  0.12699999809E+01 0. -1.
       -4    1    3    3    0  502  0.53759439720E+01 -0.24876823844E+03 -0.29266371232E+03  0.38414606420E+03  0.12699999809E+01 0.  1.
</event>
<event>
 5   0  0.5819446E-03  0.6005158E+03  0.7818609E-02  0.9904337E-01
       -1   -1    0    0    0  501  0.00000000000E+00  0.00000000000E+00  0.56680111850E+03  0.56680111852E+03  0.50400001928E-02 0.  1.
        1   -1    0    0  501    0  0.00000000000E+00  0.00000000000E+00 -0.15905898051E+03  0.15905898059E+03  0.50400001928E-02 0. -1.
    10030    2    1    2    0    0  0.00000000000E+00  0.00000000000E+00  0.40774213798E+03  0.72586009911E+03  0.60051580529E+03 0.  0.
        5    1    3    3  502    0  0.47412220359E+02  0.28848775949E+03  0.28638045644E+03  0.40927858708E+03  0.46999998093E+01 0. -1.
       -5    1    3    3    0  502 -0.47412220359E+02 -0.28848775949E+03  0.12136168154E+03  0.31658151203E+03  0.46999998093E+01 0.  1.
</event>
<event>
 5   0  0.6078658E-03  0.6001430E+03  0.7818609E-02  0.9905109E-01
       -1   -1    0    0    0  501  0.00000000000E+00  0.00000000000E+00  0.11263637739E+03  0.11263637751E+03  0.50400001928E-02 0. -1.
        1   -1    0    0  501    0  0.00000000000E+00  0.00000000000E+00 -0.79941240311E+03  0.79941240313E+03  0.50400001928E-02 0.  1.
    10030    2    1    2    0    0  0.00000000000E+00  0.00000000000E+00 -0.68677602572E+03  0.91204878063E+03  0.60014304024E+03 0.  0.
        2    1    3    3  502    0  0.75991586868E+02 -0.26775878278E+03 -0.17297993423E+03  0.32770649167E+03  0.25500000920E-02 0. -1.
       -2    1    3    3    0  502 -0.75991586868E+02  0.26775878278E+03 -0.51379609149E+03  0.58434228896E+03  0.25500000920E-02 0.  1.
</event>
<event>
 5   0  0.5819446E-03  0.5995396E+03  0.7818609E-02  0.9906362E-01
        1   -1    0    0  501    0  0.00000000000E+00  0.00000000000E+00  0.40196813231E+03  0.40196813234E+03  0.50400001928E-02 0. -1.
       -1   -1    0    0    0  501  0.00000000000E+00  0.00000000000E+00 -0.22355483188E+03  0.22355483194E+03  0.50400001928E-02 0.  1.
    10030    2    1    2    0    0  0.00000000000E+00  0.00000000000E+00  0.17841330043E+03  0.62552296427E+03  0.59953955088E+03 0.  0.
        5    1    3    3  502    0  0.15357389459E+03  0.25369321284E+03  0.43792742041E+02  0.29980840814E+03  0.46999998093E+01 0. -1.
       -5    1    3    3    0  502 -0.15357389459E+03 -0.25369321284E+03  0.13462055839E+03  0.32571455613E+03  0.46999998093E+01 0.  1.
</event>
<event>
 5   0  0.9822607E-03  0.5996770E+03  0.7818609E-02  0.9906076E-01
       -2   -1    0    0    0  501  0.00000000000E+00  0.00000000000E+00  0.20337076243E+03  0.20337076244E+03  0.25500000920E-02 0. -1.
        2   -1    0    0  501    0  0.00000000000E+00  0.00000000000E+00 -0.44206511331E+03  0.44206511331E+03  0.25500000920E-02 0.  1.
    10030    2    1    2    0    0  0.00000000000E+00  0.00000000000E+00 -0.23869435088E+03  0.64543587576E+03  0.59967697686E+03 0.  0.
        3    1    3    3  502    0  0.18764945635E+03 -0.10306105806E+03  0.10659814582E+03  0.23915909986E+03  0.10100000352E+00 0. -1.
       -3    1    3    3    0  502 -0.18764945635E+03  0.10306105806E+03 -0.34529249670E+03  0.40627677589E+03  0.10100000352E+00 0.  1.
</event>
<event>
 5   0  0.9391405E-03  0.6003895E+03  0.7818609E-02  0.9904598E-01
        2   -1    0    0  501    0  0.00000000000E+00  0.00000000000E+00  0.41725528031E+03  0.41725528031E+03  0.25500000920E-02 0. -1.
       -2   -1    0    0    0  501  0.00000000000E+00  0.00000000000E+00 -0.21597545035E+03  0.21597545036E+03  0.25500000920E-02 0.  1.
    10030    2    1    2    0    0  0.00000000000E+00  0.00000000000E+00  0.20127982996E+03  0.63323073068E+03  0.60038953049E+03 0.  0.
        2    1    3    3  502    0  0.25909688945E+03 -0.28797795287E+02  0.25763220818E+03  0.36651721083E+03  0.25500000920E-02 0. -1.
       -2    1    3    3    0  502 -0.25909688945E+03  0.28797795287E+02 -0.56352378218E+02  0.26671351985E+03  0.25500000920E-02 0.  1.
</event>
<event>
 5   0  0.9162342E-03  0.5992266E+03  0.7818609E-02  0.9907012E-01
        2   -1    0    0  501    0  0.00000000000E+00  0.00000000000E+00  0.33845912009E+03  0.33845912010E+03  0.25500000920E-02 0. -1.
       -2   -1    0    0    0  501  0.00000000000E+00  0.00000000000E+00 -0.26522588500E+03  0.26522588501E+03  0.25500000920E-02 0.  1.
    10030    2    1    2    0    0  0.00000000000E+00  0.00000000000E+00  0.73233235088E+02  0.60368500511E+03  0.59922656706E+03 0.  0.
        5    1    3    3  502    0 -0.27380137604E+02  0.26136126411E+03 -0.10828204751E+03  0.28426479578E+03  0.46999998093E+01 0.  1.
       -5    1    3    3    0  502  0.27380137604E+02 -0.26136126411E+03  0.18151528260E+03  0.31942020933E+03  0.46999998093E+01 0. -1.
</event>
<event>
 5   0  0.5891927E-03  0.5947419E+03  0.7818609E-02  0.9916375E-01
       -1   -1    0    0    0  501  0.00000000000E+00  0.00000000000E+00  0.47119477170E+02  0.47119477440E+02  0.50400001928E-02 0.  1.
        1   -1    0    0  501    0  0.00000000000E+00  0.00000000000E+00 -0.18767074970E+04  0.18767074970E+04  0.50400001928E-02 0. -1.
    10030    2    1    2    0    0  0.00000000000E+00  0.00000000000E+00 -0.18295880198E+04  0.19238269744E+04  0.59474188124E+03 0.  0.
        4    1    3    3  502    0  0.16366258246E+03 -0.15292122909E+03 -0.28209683424E+03  0.36020907816E+03  0.12699999809E+01 0.  1.
       -4    1    3    3    0  502 -0.16366258246E+03  0.15292122909E+03 -0.15474911856E+04  0.15636178962E+04  0.12699999809E+01 0. -1.
</event>
<event>
 5   0  0.5765045E-03  0.5997529E+03  0.7818609E-02  0.9905919E-01
       -1   -1    0    0    0  501  0.00000000000E+00  0.00000000000E+00  0.15901170369E+03  0.15901170377E+03  0.50400001928E-02 0.  1.
        1   -1    0    0  501    0  0.00000000000E+00  0.00000000000E+00 -0.56552995376E+03  0.56552995379E+03  0.50400001928E-02 0. -1.
    10030    2    1    2    0    0  0.00000000000E+00  0.00000000000E+00 -0.40651825007E+03  0.72454165756E+03  0.59975288736E+03 0.  0.
        1    1    3    3  502    0 -0.13985994634E+03 -0.26055125140E+03 -0.26339759527E+03  0.39601269224E+03  0.50400001928E-02 0. -1.
       -1    1    3    3    0  502  0.13985994634E+03  0.26055125140E+03 -0.14312065480E+03  0.32852896532E+03  0.50400001928E-02 0.  1.
</event>
<event>
 5   0  0.9391405E-03  0.5997790E+03  0.7818609E-02  0.9905865E-01
        2   -1    0    0  501    0  0.00000000000E+00  0.00000000000E+00  0.18953404298E+03  0.18953404300E+03  0.25500000920E-02 0.  1.
       -2   -1    0    0    0  501  0.00000000000E+00  0.00000000000E+00 -0.47449900654E+03  0.47449900655E+03  0.25500000920E-02 0. -1.
    10030    2    1    2    0    0  0.00000000000E+00  0.00000000000E+00 -0.28496496356E+03  0.66403304955E+03  0.59977900966E+03 0.  0.
        2    1    3    3  502    0 -0.24962188702E+02 -0.85468264961E+02 -0.45952730334E+03  0.46807400879E+03  0.25500000920E-02 0. -1.
       -2    1    3    3    0  502  0.24962188702E+02  0.85468264961E+02  0.17456233978E+03  0.19595904076E+03  0.25500000920E-02 0.  1.
</event>
<event>
 5   0  0.5819446E-03  0.5991345E+03  0.7818609E-02  0.9907203E-01
       -1   -1    0    0    0  501  0.00000000000E+00  0.00000000000E+00  0.20028062097E+03  0.20028062103E+03  0.50400001928E-02 0. -1.
        1   -1    0    0  501    0  0.00000000000E+00  0.00000000000E+00 -0.44807397739E+03  0.44807397742E+03  0.50400001928E-02 0.  1.
    10030    2    1    2    0    0  0.00000000000E+00  0.00000000000E+00 -0.24779335642E+03  0.64835459845E+03  0.59913449062E+03 0.  0.
        5    1    3    3  502    0  0.79886978611E+02  0.24050744515E+03 -0.29667770665E+03  0.39021213736E+03  0.46999998093E+01 0.  1.
       -5    1    3    3    0  502 -0.79886978611E+02 -0.24050744515E+03  0.48884350226E+02  0.25814246109E+03  0.46999998093E+01 0. -1.
</event>
<event>
 5   0  0.5891927E-03  0.5983773E+03  0.7818609E-02  0.9908778E-01
        1   -1    0    0  501    0  0.00000000000E+00  0.00000000000E+00  0.19200860280E+03  0.19200860287E+03  0.50400001928E-02 0.  1.
       -1   -1    0    0    0  501  0.00000000000E+00  0.00000000000E+00 -0.46619705313E+03  0.46619705315E+03  0.50400001928E-02 0. -1.
    10030    2    1    2    0    0  0.00000000000E+00  0.00000000000E+00 -0.27418845032E+03  0.65820565602E+03  0.59837728845E+03 0.  0.
        4    1    3    3  502    0 -0.81204533209E+02  0.23929650700E+03 -0.31328149579E+03  0.40249708444E+03  0.12699999809E+01 0.  1.
       -4    1    3    3    0  502  0.81204533209E+02 -0.23929650700E+03  0.39093045465E+02  0.25570857158E+03  0.12699999809E+01 0. -1.
</event>
<event>
 5   0  0.9303190E-03  0.6003716E+03  0.7818609E-02  0.9904635E-01
       -2   -1    0    0    0  501  0.00000000000E+00  0.00000000000E+00  0.17024775719E+03  0.17024775721E+03  0.25500000920E-02 0. -1.
        2   -1    0    0  501    0  0.00000000000E+00  0.00000000000E+00 -0.52929630064E+03  0.52929630064E+03  0.25500000920E-02 0.  1.
    10030    2    1    2    0    0  0.00000000000E+00  0.00000000000E+00 -0.35904854345E+03  0.69954405785E+03  0.60037157855E+03 0.  0.
        4    1    3    3  502    0 -0.22574654346E+03 -0.19236588037E+03 -0.12557530047E+03  0.32208213673E+03  0.12699999809E+01 0. -1.
       -4    1    3    3    0  502  0.22574654346E+03  0.19236588037E+03 -0.23347324298E+03  0.37746192113E+03  0.12699999809E+01 0.  1.
</event>
<event>
 5   0  0.5819446E-03  0.5928784E+03  0.7818609E-02  0.9920292E-01
        1   -1    0    0  501    0  0.00000000000E+00  0.00000000000E+00  0.84807660984E+03  0.84807660986E+03  0.50400001928E-02 0. -1.
       -1   -1    0    0    0  501  0.00000000000E+00  0.00000000000E+00 -0.10361824504E+03  0.10361824517E+03  0.50400001928E-02 0.  1.
    10030    2    1    2    0    0  0.00000000000E+00  0.00000000000E+00  0.74445836480E+03  0.95169485503E+03  0.59287843624E+03 0.  0.
        5    1    3    3  502    0 -0.12830061416E+02 -0.15716375129E+03 -0.30640556485E+02  0.16070466358E+03  0.46999998093E+01 0.  1.
       -5    1    3    3    0  502  0.12830061416E+02  0.15716375129E+03  0.77509892129E+03  0.79099019145E+03  0.46999998093E+01 0. -1.
</event>
<event>
 5   0  0.9822607E-03  0.6004556E+03  0.7818609E-02  0.9904461E-01
       -2   -1    0    0    0  501  0.00000000000E+00  0.00000000000E+00  0.19658770205E+03  0.19658770206E+03  0.25500000920E-02 0. -1.
        2   -1    0    0  501    0  0.00000000000E+00  0.00000000000E+00 -0.45850653306E+03  0.45850653307E+03  0.25500000920E-02 0.  1.
    10030    2    1    2    0    0  0.00000000000E+00  0.00000000000E+00 -0.26191883101E+03  0.65509423513E+03  0.60045564604E+03 0.  0.
        3    1    3    3  502    0  0.29468746587E+03 -0.54275995051E+02 -0.11054441008E+03  0.31938481958E+03  0.10100000352E+00 0. -1.
       -3    1    3    3    0  502 -0.29468746587E+03  0.54275995051E+02 -0.15137442094E+03  0.33570941555E+03  0.10100000352E+00 0.  1.
</event>
<event>
 5   0  0.9028473E-03  0.5993956E+03  0.7818609E-02  0.9906661E-01
       -2   -1    0    0    0  501  0.00000000000E+00  0.00000000000E+00  0.36078966021E+03  0.36078966022E+03  0.25500000920E-02 0. -1.
        2   -1    0    0  501    0  0.00000000000E+00  0.00000000000E+00 -0.24895047324E+03  0.24895047326E+03  0.25500000920E-02 0.  1.
    10030    2    1    2    0    0  0.00000000000E+00  0.00000000000E+00  0.11183918697E+03  0.60974013347E+03  0.59939555106E+03 0.  0.
        1    1    3    3  502    0 -0.20047375587E+03 -0.19255839728E+03  0.16988110664E+03  0.32577300928E+03  0.50400001928E-02 0. -1.
       -1    1    3    3    0  502  0.20047375587E+03  0.19255839728E+03 -0.58041919675E+02  0.28396712419E+03  0.50400001928E-02 0.  1.
</event>
<event>
 5   0  0.5765045E-03  0.6008390E+03  0.7818609E-02  0.9903667E-01
        1   -1    0    0  501    0  0.00000000000E+00  0.00000000000E+00  0.31978775269E+03  0.31978775273E+03  0.50400001928E-02 0. -1.
       -1   -1    0    0    0  501  0.00000000000E+00  0.00000000000E+00 -0.28222430843E+03  0.28222430847E+03  0.50400001928E-02 0.  1.
    10030    2    1    2    0    0  0.00000000000E+00  0.00000000000E+00  0.37563444267E+02  0.60201206121E+03  0.60083900464E+03 0.  0.
        1    1    3    3  502    0  0.20827124865E+03 -0.49201855757E+01 -0.19809122262E+03  0.28747391838E+03  0.50400001928E-02 0.  1.
       -1    1    3    3    0  502 -0.20827124865E+03  0.49201855757E+01  0.23565466689E+03  0.31453814283E+03  0.50400001928E-02 0. -1.
</event>
<event>
 5   0  0.3806250E-03  0.5992448E+03  0.7818609E-02  0.9906974E-01
        3   -1    0    0  501    0  0.00000000000E+00  0.00000000000E+00  0.13939798194E+03  0.13939801853E+03  0.10100000352E+00 0. -1.
       -3   -1    0    0    0  501  0.00000000000E+00  0.00000000000E+00 -0.64400906423E+03  0.64400907215E+03  0.10100000352E+00 0.  1.
    10030    2    1    2    0    0  0.00000000000E+00  0.00000000000E+00 -0.50461108230E+03  0.78340709068E+03  0.59924479585E+03 0.  0.
        4    1    3    3  502    0 -0.41814136896E+02  0.29519428213E+03 -0.29117248734E+03  0.41673866695E+03  0.12699999809E+01 0. -1.
       -4    1    3    3    0  502  0.41814136896E+02 -0.29519428213E+03 -0.21343859496E+03  0.36666842373E+03  0.12699999809E+01 0.  1.
</event>
<event>
 5   0  0.6078658E-03  0.5981625E+03  0.7818609E-02  0.9909226E-01
        1   -1    0    0  501    0  0.00000000000E+00  0.00000000000E+00  0.11715493193E+03  0.11715493204E+03  0.50400001928E-02 0. -1.
       -1   -1    0    0    0  501  0.00000000000E+00  0.00000000000E+00 -0.76351533408E+03  0.76351533410E+03  0.50400001928E-02 0.  1.
    10030    2    1    2    0    0  0.00000000000E+00  0.00000000000E+00 -0.64636040216E+03  0.88067026613E+03  0.59816247640E+03 0.  0.
        2    1    3    3  502    0 -0.28204979039E+03  0.96834639859E+02 -0.35677156240E+03  0.46498922513E+03  0.25500000920E-02 0. -1.
       -2    1    3    3    0  502  0.28204979039E+03 -0.96834639859E+02 -0.28958883975E+03  0.41568104101E+03  0.25500000920E-02 0.  1.
</event>
<event>
 5   0  0.5891927E-03  0.5994591E+03  0.7818609E-02  0.9906529E-01
       -1   -1    0    0    0  501  0.00000000000E+00  0.00000000000E+00  0.65372046378E+02  0.65372046573E+02  0.50400001928E-02 0. -1.
        1   -1    0    0  501    0  0.00000000000E+00  0.00000000000E+00 -0.13742542373E+04  0.13742542373E+04  0.50400001928E-02 0.  1.
    10030    2    1    2    0    0  0.00000000000E+00  0.00000000000E+00 -0.13088821909E+04  0.14396262839E+04  0.59945912916E+03 0.  0.
        4    1    3    3  502    0  0.10065407153E+03 -0.24991448502E+03 -0.33904531979E+03  0.43306100461E+03  0.12699999809E+01 0. -1.
       -4    1    3    3    0  502 -0.10065407153E+03  0.24991448502E+03 -0.96983687115E+03  0.10065652793E+04  0.12699999809E+01 0.  1.
</event>
<event>
 5   0  0.6078658E-03  0.5995894E+03  0.7818609E-02  0.9906258E-01
       -1   -1    0    0    0  501  0.00000000000E+00  0.00000000000E+00  0.20658470267E+03  0.20658470273E+03  0.50400001928E-02 0. -1.
        1   -1    0    0  501    0  0.00000000000E+00  0.00000000000E+00 -0.43506054535E+03  0.43506054538E+03  0.50400001928E-02 0.  1.
    10030    2    1    2    0    0  0.00000000000E+00  0.00000000000E+00 -0.22847584268E+03  0.64164524810E+03  0.59958937092E+03 0.  0.
        2    1    3    3  502    0  0.39387489010E+01  0.28444260382E+03 -0.12976641244E+02  0.28476569638E+03  0.25500000920E-02 0.  1.
       -2    1    3    3    0  502 -0.39387489010E+01 -0.28444260382E+03 -0.21549920144E+03  0.35687955172E+03  0.25500000920E-02 0. -1.
</event>
<event>
 5   0  0.5765045E-03  0.5992695E+03  0.7818609E-02  0.9906923E-01
       -1   -1    0    0    0  501  0.00000000000E+00  0.00000000000E+00  0.20145584775E+03  0.20145584782E+03  0.50400001928E-02 0.  1.
        1   -1    0    0  501    0  0.00000000000E+00  0.00000000000E+00 -0.44566084570E+03  0.44566084572E+03  0.50400001928E-02 0. -1.
    10030    2    1    2    0    0  0.00000000000E+00  0.00000000000E+00 -0.24420499794E+03  0.64711669354E+03  0.59926950034E+03 0.  0.
        1    1    3    3  502    0  0.65758710160E+02 -0.19580325392E+03  0.11229512930E+03  0.23510278241E+03  0.50400001928E-02 0.  1.
       -1    1    3    3    0  502 -0.65758710160E+02  0.19580325392E+03 -0.35650012725E+03  0.41201391112E+03  0.50400001928E-02 0. -1.
</event>
<event>
 5   0  0.9162342E-03  0.6001299E+03  0.7818609E-02  0.9905137E-01
        2   -1    0    0  501    0  0.00000000000E+00  0.00000000000E+00  0.15097589873E+03  0.15097589875E+03  0.25500000920E-02 0.  1.
       -2   -1    0    0    0  501  0.00000000000E+00  0.00000000000E+00 -0.59637986027E+03  0.59637986027E+03  0.25500000920E-02 0. -1.
    10030    2    1    2    0    0  0.00000000000E+00  0.00000000000E+00 -0.44540396154E+03  0.74735575902E+03  0.60012993726E+03 0.  0.
        5    1    3    3  502    0 -0.17343598715E+01  0.35349504118E+02 -0.59372534558E+03  0.59479784081E+03  0.46999998093E+01 0. -1.
       -5    1    3    3    0  502  0.17343598715E+01 -0.35349504118E+02  0.14832138405E+03  0.15255791821E+03  0.46999998093E+01 0.  1.
</event>
<event>
 5   0  0.9391405E-03  0.5998255E+03  0.7818609E-02  0.9905768E-01
        2   -1    0    0  501    0  0.00000000000E+00  0.00000000000E+00  0.41204398698E+03  0.41204398699E+03  0.25500000920E-02 0. -1.
       -2   -1    0    0    0  501  0.00000000000E+00  0.00000000000E+00 -0.21829628170E+03  0.21829628171E+03  0.25500000920E-02 0.  1.
    10030    2    1    2    0    0  0.00000000000E+00  0.00000000000E+00  0.19374770528E+03  0.63034026870E+03  0.59982554217E+03 0.  0.
        2    1    3    3  502    0  0.14770090565E+02 -0.18566437691E+02 -0.21730860941E+03  0.21859986257E+03  0.25500000920E-02 0.  1.
       -2    1    3    3    0  502 -0.14770090565E+02  0.18566437691E+02  0.41105631469E+03  0.41174040613E+03  0.25500000920E-02 0. -1.
</event>
<event>
 5   0  0.6078658E-03  0.5979112E+03  0.7818609E-02  0.9909749E-01
        1   -1    0    0  501    0  0.00000000000E+00  0.00000000000E+00  0.15851431188E+04  0.15851431188E+04  0.50400001928E-02 0.  1.
       -1   -1    0    0    0  501  0.00000000000E+00  0.00000000000E+00 -0.56382576321E+02  0.56382576546E+02  0.50400001928E-02 0. -1.
    10030    2    1    2    0    0  0.00000000000E+00  0.00000000000E+00  0.15287605424E+04  0.16415256953E+04  0.59791120767E+03 0.  0.
        2    1    3    3  502    0 -0.51732315343E+02 -0.24146244632E+03  0.12270010156E+04  0.12516037064E+04  0.25500000920E-02 0.  1.
       -2    1    3    3    0  502  0.51732315343E+02  0.24146244632E+03  0.30175952680E+03  0.38992198893E+03  0.25500000920E-02 0. -1.
</event>
<event>
 5   0  0.5891927E-03  0.5999738E+03  0.7818609E-02  0.9905461E-01
       -1   -1    0    0    0  501  0.00000000000E+00  0.00000000000E+00  0.15739641855E+04  0.15739641855E+04  0.50400001928E-02 0.  1.
        1   -1    0    0  501    0  0.00000000000E+00  0.00000000000E+00 -0.57175459592E+02  0.57175459814E+02  0.50400001928E-02 0. -1.
    10030    2    1    2    0    0  0.00000000000E+00  0.00000000000E+00  0.15167887259E+04  0.16311396453E+04  0.59997375235E+03 0.  0.
        4    1    3    3  502    0  0.69230409859E+02 -0.19547696590E+03  0.16908265903E+03  0.26757177043E+03  0.12699999809E+01 0. -1.
       -4    1    3    3    0  502 -0.69230409859E+02  0.19547696590E+03  0.13477060669E+04  0.13635678749E+04  0.12699999809E+01 0.  1.
</event>
<event>
 5   0  0.5765045E-03  0.5990849E+03  0.7818609E-02  0.9907306E-01
        1   -1    0    0  501    0  0.00000000000E+00  0.00000000000E+00  0.43984562633E+03  0.43984562636E+03  0.50400001928E-02 0. -1.
       -1   -1    0    0    0  501  0.00000000000E+00  0.00000000000E+00 -0.20399357317E+03  0.20399357324E+03  0.50400001928E-02 0.  1.
    10030    2    1    2    0    0  0.00000000000E+00  0.00000000000E+00  0.23585205316E+03  0.64383919959E+03  0.59908490546E+03 0.  0.
        1    1    3    3  502    0 -0.18910610945E+03  0.21522142630E+03  0.23962817220E+02  0.28749886887E+03  0.50400001928E-02 0.  1.
       -1    1    3    3    0  502  0.18910610945E+03 -0.21522142630E+03  0.21188923594E+03  0.35634033072E+03  0.50400001928E-02 0. -1.
</event>
<event>
 5   0  0.5765045E-03  0.6000989E+03  0.7818609E-02  0.9905201E-01
       -1   -1    0    0    0  501  0.00000000000E+00  0.00000000000E+00  0.12689066567E+03  0.12689066577E+03  0.50400001928E-02 0.  1.
        1   -1    0    0  501    0  0.00000000000E+00  0.00000000000E+00 -0.70950579905E+03  0.70950579906E+03  0.50400001928E-02 0. -1.
    10030    2    1    2    0    0  0.00000000000E+00  0.00000000000E+00 -0.58261513338E+03  0.83639646483E+03  0.60009886914E+03 0.  0.
        1    1    3    3  502    0  0.17763773729E+03 -0.20717805810E+03 -0.11749586601E+03  0.29712487615E+03  0.50400001928E-02 0. -1.
       -1    1    3    3    0  502 -0.17763773729E+03  0.20717805810E+03 -0.46511926736E+03  0.53927158869E+03  0.50400001928E-02 0.  1.
</event>
<event>
 5   0  0.3806250E-03  0.5994177E+03  0.7818609E-02  0.9906615E-01
        3   -1    0    0  501    0  0.00000000000E+00  0.00000000000E+00  0.82876142348E+03  0.82876142964E+03  0.10100000352E+00 0. -1.
       -3   -1    0    0    0  501  0.00000000000E+00  0.00000000000E+00 -0.10838506101E+03  0.10838510807E+03  0.10100000352E+00 0.  1.
    10030    2    1    2    0    0  0.00000000000E+00  0.00000000000E+00  0.72037636247E+03  0.93714653771E+03  0.59941765867E+03 0.  0.
        5    1    3    3  502    0 -0.11515388925E+01  0.52964360229E+02 -0.10094828653E+03  0.11410169169E+03  0.46999998093E+01 0.  1.
       -5    1    3    3    0  502  0.11515388925E+01 -0.52964360229E+02  0.82132464900E+03  0.82304484602E+03  0.46999998093E+01 0. -1.
</event>
<event>
 5   0  0.6078658E-03  0.6002016E+03  0.7818609E-02  0.9904988E-01
       -1   -1    0    0    0  501  0.00000000000E+00  0.00000000000E+00  0.28602384192E+03  0.28602384196E+03  0.50400001928E-02 0. -1.
        1   -1    0    0  501    0  0.00000000000E+00  0.00000000000E+00 -0.31487058207E+03  0.31487058211E+03  0.50400001928E-02 0.  1.
    10030    2    1    2    0    0  0.00000000000E+00  0.00000000000E+00 -0.28846740153E+02  0.60089442407E+03  0.60020161152E+03 0.  0.
        2    1    3    3  502    0  0.15444638700E+03 -0.21118572565E+03 -0.16158759144E+03  0.30751202722E+03  0.25500000920E-02 0.  1.
       -2    1    3    3    0  502 -0.15444638700E+03  0.21118572565E+03  0.13274085128E+03  0.29338239685E+03  0.25500000920E-02 0. -1.
</event>
<event>
 5   0  0.5891927E-03  0.6004128E+03  0.7818609E-02  0.9904550E-01
       -1   -1    0    0    0  501  0.00000000000E+00  0.00000000000E+00  0.97475048576E+02  0.97475048706E+02  0.50400001928E-02 0.  1.
        1   -1    0    0  501    0  0.00000000000E+00  0.00000000000E+00 -0.92458421026E+03  0.92458421028E+03  0.50400001928E-02 0. -1.
    10030    2    1    2    0    0  0.00000000000E+00  0.00000000000E+00 -0.82710916169E+03  0.10220592590E+04  0.60041282758E+03 0.  0.
        4    1    3    3  502    0  0.20462281148E+03  0.99779324389E+02 -0.74667563457E+03  0.78061035396E+03  0.12699999809E+01 0. -1.
       -4    1    3    3    0  502 -0.20462281148E+03 -0.99779324389E+02 -0.80433527118E+02  0.24144890502E+03  0.12699999809E+01 0.  1.
</event>
<event>
 5   0  0.5790967E-03  0.5999721E+03  0.7818609E-02  0.9905464E-01
        1   -1    0    0  501    0  0.00000000000E+00  0.00000000000E+00  0.68375142526E+03  0.68375142528E+03  0.50400001928E-02 0.  1.
       -1   -1    0    0    0  501  0.00000000000E+00  0.00000000000E+00 -0.13161455124E+03  0.13161455134E+03  0.50400001928E-02 0. -1.
    10030    2    1    2    0    0  0.00000000000E+00  0.00000000000E+00  0.55213687402E+03  0.81536597662E+03  0.59997212283E+03 0.  0.
        3    1    3    3  502    0 -0.73227982911E+02  0.18611779931E+03  0.57991946561E+03  0.61344011077E+03  0.10100000352E+00 0.  1.
       -3    1    3    3    0  502  0.73227982911E+02 -0.18611779931E+03 -0.27782591598E+02  0.20192586585E+03  0.10100000352E+00 0. -1.
</event>
<event>
 5   0  0.9391405E-03  0.5998639E+03  0.7818609E-02  0.9905689E-01
        2   -1    0    0  501    0  0.00000000000E+00  0.00000000000E+00  0.73725384291E+03  0.73725384292E+03  0.25500000920E-02 0.  1.
       -2   -1    0    0    0  501  0.00000000000E+00  0.00000000000E+00 -0.12201926023E+03  0.12201926026E+03  0.25500000920E-02 0. -1.
    10030    2    1    2    0    0  0.00000000000E+00  0.00000000000E+00  0.61523458269E+03  0.85927310317E+03  0.59986387965E+03 0.  0.
        2    1    3    3  502    0  0.66838370849E+02 -0.16649135514E+03  0.65191871694E+03  0.67615438522E+03  0.25500000920E-02 0.  1.
       -2    1    3    3    0  502 -0.66838370849E+02  0.16649135514E+03 -0.36684134252E+02  0.18311871795E+03  0.25500000920E-02 0. -1.
</event>
<event>
 5   0  0.5819446E-03  0.6024633E+03  0.7818609E-02  0.9900309E-01
       -1   -1    0    0    0  501  0.00000000000E+00  0.00000000000E+00  0.94059550193E+02  0.94059550328E+02  0.50400001928E-02 0.  1.
        1   -1    0    0  501    0  0.00000000000E+00  0.00000000000E+00 -0.96471325102E+03  0.96471325103E+03  0.50400001928E-02 0. -1.
    10030    2    1    2    0    0  0.00000000000E+00  0.00000000000E+00 -0.87065370083E+03  0.10587728014E+04  0.60246325875E+03 0.  0.
        5    1    3    3  502    0  0.20336314834E+03 -0.21612807092E+03 -0.34485043017E+03  0.45498551881E+03  0.46999998093E+01 0.  1.
       -5    1    3    3    0  502 -0.20336314834E+03  0.21612807092E+03 -0.52580327066E+03  0.60378728255E+03  0.46999998093E+01 0. -1.
</event>
<event>
 5   0  0.9028473E-03  0.6000035E+03  0.7818609E-02  0.9905399E-01
       -2   -1    0    0    0  501  0.00000000000E+00  0.00000000000E+00  0.20289862449E+03  0.20289862450E+03  0.25500000920E-02 0.  1.
        2   -1    0    0  501    0  0.00000000000E+00  0.00000000000E+00 -0.44357640203E+03  0.44357640204E+03  0.25500000920E-02 0. -1.
    10030    2    1    2    0    0  0.00000000000E+00  0.00000000000E+00 -0.24067777754E+03  0.64647502654E+03  0.60000347277E+03 0.  0.
        1    1    3    3  502    0 -0.21040889483E+03  0.22918273149E+02 -0.34941821691E+03  0.40852201973E+03  0.50400001928E-02 0. -1.
       -1    1    3    3    0  502  0.21040889483E+03 -0.22918273149E+02  0.10874043937E+03  0.23795300681E+03  0.50400001928E-02 0.  1.
</event>
<event>
 5   0  0.5790967E-03  0.6001433E+03  0.7818609E-02  0.9905109E-01
        1   -1    0    0  501    0  0.00000000000E+00  0.00000000000E+00  0.14215183971E+03  0.14215183980E+03  0.50400001928E-02 0.  1.
       -1   -1    0    0    0  501  0.00000000000E+00  0.00000000000E+00 -0.63342820308E+03  0.63342820310E+03  0.50400001928E-02 0. -1.
    10030    2    1    2    0    0  0.00000000000E+00  0.00000000000E+00 -0.49127636337E+03  0.77558004290E+03  0.60014326434E+03 0.  0.
        3    1    3    3  502    0 -0.91852735514E+02 -0.23399399871E+03 -0.45740940483E+03  0.52193245758E+03  0.10100000352E+00 0. -1.
       -3    1    3    3    0  502  0.91852735514E+02  0.23399399871E+03 -0.33866958544E+02  0.25364758531E+03  0.10100000352E+00 0.  1.
</event>
<event>
 5   0  0.9028473E-03  0.5993143E+03  0.7818609E-02  0.9906830E-01
       -2   -1    0    0    0  501  0.00000000000E+00  0.00000000000E+00  0.72592673835E+02  0.72592673880E+02  0.25500000920E-02 0. -1.
        2   -1    0    0  501    0  0.00000000000E+00  0.00000000000E+00 -0.12369623027E+04  0.12369623027E+04  0.25500000920E-02 0.  1.
    10030    2    1    2    0    0  0.00000000000E+00  0.00000000000E+00 -0.11643696288E+04  0.13095549766E+04  0.59931427820E+03 0.  0.
        1    1    3    3  502    0  0.20793738545E+03 -0.19611763329E+03 -0.38559579385E+03  0.47998353994E+03  0.50400001928E-02 0. -1.
       -1    1    3    3    0  502 -0.20793738545E+03  0.19611763329E+03 -0.77877383498E+03  0.82957143661E+03  0.50400001928E-02 0.  1.
</event>
<event>
 5   0  0.5765045E-03  0.5997512E+03  0.7818609E-02  0.9905922E-01
        1   -1    0    0  501    0  0.00000000000E+00  0.00000000000E+00  0.37193955165E+03  0.37193955169E+03  0.50400001928E-02 0.  1.
       -1   -1    0    0    0  501  0.00000000000E+00  0.00000000000E+00 -0.24177413463E+03  0.24177413468E+03  0.50400001928E-02 0. -1.
    10030    2    1    2    0    0  0.00000000000E+00  0.00000000000E+00  0.13016541702E+03  0.61371368637E+03  0.59975115927E+03 0.  0.
        1    1    3    3  502    0  0.28872594037E+03  0.25014072472E+02  0.14392838785E+03  0.32357959348E+03  0.50400001928E-02 0.  1.
       -1    1    3    3    0  502 -0.28872594037E+03 -0.25014072472E+02 -0.13762970827E+02  0.29013409289E+03  0.50400001928E-02 0. -1.
</event>
<event>
 5   0  0.9162342E-03  0.6003068E+03  0.7818609E-02  0.9904770E-01
        2   -1    0    0  501    0  0.00000000000E+00  0.00000000000E+00  0.14422597007E+04  0.14422597007E+04  0.25500000920E-02 0. -1.
       -2   -1    0    0    0  501  0.00000000000E+00  0.00000000000E+00 -0.62465904081E+02  0.62465904133E+02  0.25500000920E-02 0.  1.
    10030    2    1    2    0    0  0.00000000000E+00  0.00000000000E+00  0.13797937966E+04  0.15047256048E+04  0.60030677545E+03 0.  0.
        5    1    3    3  502    0 -0.10298203271E+02  0.12964418627E+03  0.13678660392E+04  0.13740426701E+04  0.46999998093E+01 0. -1.
       -5    1    3    3    0  502  0.10298203271E+02 -0.12964418627E+03  0.11927757362E+02  0.13068293469E+03  0.46999998093E+01 0.  1.
</event>
<event>
 5   0  0.6078658E-03  0.5999335E+03  0.7818609E-02  0.9905544E-01
       -1   -1    0    0    0  501  0.00000000000E+00  0.00000000000E+00  0.91213813695E+02  0.91213813834E+02  0.50400001928E-02 0.  1.
        1   -1    0    0  501    0  0.00000000000E+00  0.00000000000E+00 -0.98647400962E+03  0.98647400964E+03  0.50400001928E-02 0. -1.
    10030    2    1    2    0    0  0.00000000000E+00  0.00000000000E+00 -0.89526019593E+03  0.10776878235E+04  0.59993351835E+03 0.  0.
        2    1    3    3  502    0 -0.10052718368E+02 -0.29736617186E+03 -0.51608851979E+03  0.59571390581E+03  0.25500000920E-02 0. -1.
       -2    1    3    3    0  502  0.10052718368E+02  0.29736617186E+03 -0.37917167614E+03  0.48197391766E+03  0.25500000920E-02 0.  1.
</event>
<event>
 5   0  0.9822607E-03  0.5915462E+03  0.7818609E-02  0.9923102E-01
        2   -1    0    0  501    0  0.00000000000E+00  0.00000000000E+00  0.39192840950E+03  0.39192840951E+03  0.25500000920E-02 0. -1.
       -2   -1    0    0    0  501  0.00000000000E+00  0.00000000000E+00 -0.22320840110E+03  0.22320840111E+03  0.25500000920E-02 0.  1.
    10030    2    1    2    0    0  0.00000000000E+00  0.00000000000E+00  0.16872000841E+03  0.61513681063E+03  0.59154615589E+03 0.  0.
        3    1    3    3  502    0 -0.19880843600E+02  0.26165320923E+03 -0.57552344038E+02  0.26864462092E+03  0.10100000352E+00 0.  1.
       -3    1    3    3    0  502  0.19880843600E+02 -0.26165320923E+03  0.22627235244E+03  0.34649218971E+03  0.10100000352E+00 0. -1.
</event>
<event>
 5   0  0.9391405E-03  0.5887427E+03  0.7818609E-02  0.9929041E-01
       -2   -1    0    0    0  501  0.00000000000E+00  0.00000000000E+00  0.66614439460E+02  0.66614439509E+02  0.25500000920E-02 0.  1.
        2   -1    0    0  501    0  0.00000000000E+00  0.00000000000E+00 -0.13008365140E+04  0.13008365140E+04  0.25500000920E-02 0. -1.
    10030    2    1    2    0    0  0.00000000000E+00  0.00000000000E+00 -0.12342220745E+04  0.13674509535E+04  0.58874271204E+03 0.  0.
        2    1    3    3  502    0 -0.52609053888E+02 -0.25793389499E+03 -0.31111052669E+03  0.40753817804E+03  0.25500000920E-02 0.  1.
       -2    1    3    3    0  502  0.52609053888E+02  0.25793389499E+03 -0.92311154786E+03  0.95991277548E+03  0.25500000920E-02 0. -1.
</event>
<event>
 5   0  0.3806250E-03  0.6002278E+03  0.7818609E-02  0.9904934E-01
       -4   -1    0    0    0  501  0.00000000000E+00  0.00000000000E+00  0.11963736702E+03  0.11964410762E+03  0.12699999809E+01 0.  1.
        4   -1    0    0  501    0  0.00000000000E+00  0.00000000000E+00 -0.75281605459E+03  0.75281712583E+03  0.12699999809E+01 0. -1.
    10030    2    1    2    0    0  0.00000000000E+00  0.00000000000E+00 -0.63317868757E+03  0.87246123345E+03  0.60022775134E+03 0.  0.
        4    1    3    3  502    0 -0.13053370708E+03 -0.26761013495E+03 -0.37121832945E+03  0.47587697363E+03  0.12699999809E+01 0. -1.
       -4    1    3    3    0  502  0.13053370708E+03  0.26761013495E+03 -0.26196035812E+03  0.39658425982E+03  0.12699999809E+01 0.  1.
</event>
<event>
 5   0  0.9162342E-03  0.5989445E+03  0.7818609E-02  0.9907598E-01
       -2   -1    0    0    0  501  0.00000000000E+00  0.00000000000E+00  0.21506178881E+03  0.21506178882E+03  0.25500000920E-02 0. -1.
        2   -1    0    0  501    0  0.00000000000E+00  0.00000000000E+00 -0.41701326112E+03  0.41701326112E+03  0.25500000920E-02 0.  1.
    10030    2    1    2    0    0  0.00000000000E+00  0.00000000000E+00 -0.20195147231E+03  0.63207504994E+03  0.59894446453E+03 0.  0.
        5    1    3    3  502    0 -0.26387643660E+03 -0.72731648738E+02 -0.22910358160E+03  0.35697507983E+03  0.46999998093E+01 0.  1.
       -5    1    3    3    0  502  0.26387643660E+03  0.72731648738E+02  0.27152109293E+02  0.27509997011E+03  0.46999998093E+01 0. -1.
</event>
<event>
 5   0  0.9162342E-03  0.5988178E+03  0.7818609E-02  0.9907862E-01
        2   -1    0    0  501    0  0.00000000000E+00  0.00000000000E+00  0.24629905317E+03  0.24629905319E+03  0.25500000920E-02 0. -1.
       -2   -1    0    0    0  501  0.00000000000E+00  0.00000000000E+00 -0.36397087167E+03  0.36397087168E+03  0.25500000920E-02 0.  1.
    10030    2    1    2    0    0  0.00000000000E+00  0.00000000000E+00 -0.11767181849E+03  0.61026992486E+03  0.59881777222E+03 0.  0.
        5    1    3    3  502    0  0.20908123973E+03  0.93914327240E+02 -0.25510334157E+03  0.34297911095E+03  0.46999998093E+01 0.  1.
       -5    1    3    3    0  502 -0.20908123973E+03 -0.93914327240E+02  0.13743152307E+03  0.26729081391E+03  0.46999998093E+01 0. -1.
</event>
<event>
 5   0  0.9822607E-03  0.6007346E+03  0.7818609E-02  0.9903883E-01
        2   -1    0    0  501    0  0.00000000000E+00  0.00000000000E+00  0.50994540736E+03  0.50994540737E+03  0.25500000920E-02 0. -1.
       -2   -1    0    0    0  501  0.00000000000E+00  0.00000000000E+00 -0.17692191070E+03  0.17692191072E+03  0.25500000920E-02 0.  1.
    10030    2    1    2    0    0  0.00000000000E+00  0.00000000000E+00  0.33302349666E+03  0.68686731808E+03  0.60073460307E+03 0.  0.
        3    1    3    3  502    0 -0.49327105415E+02  0.14914570527E+03  0.45923217780E+03  0.48535740239E+03  0.10100000352E+00 0. -1.
       -3    1    3    3    0  502  0.49327105415E+02 -0.14914570527E+03 -0.12620868113E+03  0.20150991569E+03  0.10100000352E+00 0.  1.
</event>
<event>
 5   0  0.9028473E-03  0.6050687E+03  0.7818609E-02  0.9894946E-01
        2   -1    0    0  501    0  0.00000000000E+00  0.00000000000E+00  0.76773940843E+02  0.76773940885E+02  0.25500000920E-02 0. -1.
       -2   -1    0    0    0  501  0.00000000000E+00  0.00000000000E+00 -0.11921628453E+04  0.11921628453E+04  0.25500000920E-02 0.  1.
    10030    2    1    2    0    0  0.00000000000E+00  0.00000000000E+00 -0.11153889045E+04  0.12689367862E+04  0.60506872267E+03 0.  0.
        1    1    3    3  502    0  0.14611750934E+03  0.22691309878E+03 -0.84438074074E+03  0.88646416526E+03  0.50400001928E-02 0.  1.
       -1    1    3    3    0  502 -0.14611750934E+03 -0.22691309878E+03 -0.27100816373E+03  0.38247262094E+03  0.50400001928E-02 0. -1.
</event>
<event>
 5   0  0.5819446E-03  0.6014031E+03  0.7818609E-02  0.9902499E-01
        1   -1    0    0  501    0  0.00000000000E+00  0.00000000000E+00  0.10141555287E+04  0.10141555287E+04  0.50400001928E-02 0. -1.
       -1   -1    0    0    0  501  0.00000000000E+00  0.00000000000E+00 -0.89159332616E+02  0.89159332759E+02  0.50400001928E-02 0.  1.
    10030    2    1    2    0    0  0.00000000000E+00  0.00000000000E+00  0.92499619610E+03  0.11033148615E+04  0.60140312668E+03 0.  0.
        5    1    3    3  502    0  0.12879456256E+03 -0.28238201217E+01  0.96089089393E+03  0.96949956851E+03  0.46999998093E+01 0. -1.
       -5    1    3    3    0  502 -0.12879456256E+03  0.28238201217E+01 -0.35894697828E+02  0.13381529298E+03  0.46999998093E+01 0.  1.
</event>
<event>
 5   0  0.5765045E-03  0.5996039E+03  0.7818609E-02  0.9906228E-01
        1   -1    0    0  501    0  0.00000000000E+00  0.00000000000E+00  0.20316971298E+03  0.20316971304E+03  0.50400001928E-02 0.  1.
       -1   -1    0    0    0  501  0.00000000000E+00  0.00000000000E+00 -0.44239475514E+03  0.44239475517E+03  0.50400001928E-02 0. -1.
    10030    2    1    2    0    0  0.00000000000E+00  0.00000000000E+00 -0.23922504216E+03  0.64556446821E+03  0.59960392078E+03 0.  0.
        1    1    3    3  502    0 -0.13189413680E+03  0.12683434755E+03  0.13607396696E+03  0.22803319835E+03  0.50400001928E-02 0.  1.
       -1    1    3    3    0  502  0.13189413680E+03 -0.12683434755E+03 -0.37529900912E+03  0.41753126986E+03  0.50400001928E-02 0. -1.
</event>
<event>
 5   0  0.3806250E-03  0.5993332E+03  0.7818609E-02  0.9906790E-01
       -3   -1    0    0    0  501  0.00000000000E+00  0.00000000000E+00  0.26824705922E+03  0.26824707823E+03  0.10100000352E+00 0.  1.
        3   -1    0    0  501    0  0.00000000000E+00  0.00000000000E+00 -0.33476629973E+03  0.33476631497E+03  0.10100000352E+00 0. -1.
    10030    2    1    2    0    0  0.00000000000E+00  0.00000000000E+00 -0.66519240516E+02  0.60301339320E+03  0.59933324872E+03 0.  0.
        2    1    3    3  502    0 -0.29564382170E+03 -0.48791514398E+02 -0.37051656848E+02  0.30192500139E+03  0.25500000920E-02 0.  1.
       -2    1    3    3    0  502  0.29564382170E+03  0.48791514398E+02 -0.29467583668E+02  0.30108839180E+03  0.25500000920E-02 0. -1.
</event>
<event>
 5   0  0.9391405E-03  0.6005037E+03  0.7818609E-02  0.9904362E-01
       -2   -1    0    0    0  501  0.00000000000E+00  0.00000000000E+00  0.94340474060E+02  0.94340474094E+02  0.25500000920E-02 0. -1.
        2   -1    0    0  501    0  0.00000000000E+00  0.00000000000E+00 -0.95559392955E+03  0.95559392955E+03  0.25500000920E-02 0.  1.
    10030    2    1    2    0    0  0.00000000000E+00  0.00000000000E+00 -0.86125345549E+03  0.10499344036E+04  0.60050373635E+03 0.  0.
        2    1    3    3  502    0  0.10701006540E+03  0.11272688223E+03 -0.87977976046E+03  0.89340412524E+03  0.25500000920E-02 0.  1.
       -2    1    3    3    0  502 -0.10701006540E+03 -0.11272688223E+03  0.18526304972E+02  0.15653027840E+03  0.25500000920E-02 0. -1.
</event>
<event>
 5   0  0.3806250E-03  0.5997753E+03  0.7818609E-02  0.9905872E-01
        4   -1    0    0  501    0  0.00000000000E+00  0.00000000000E+00  0.15072858710E+03  0.15073393735E+03  0.12699999809E+01 0.  1.
       -4   -1    0    0    0  501  0.00000000000E+00  0.00000000000E+00 -0.59663597964E+03  0.59663733130E+03  0.12699999809E+01 0. -1.
    10030    2    1    2    0    0  0.00000000000E+00  0.00000000000E+00 -0.44590739255E+03  0.74737126865E+03  0.59977529999E+03 0.  0.
        3    1    3    3  502    0  0.18928819239E+03 -0.69526941579E+02 -0.49954137606E+03  0.53870735282E+03  0.10100000352E+00 0. -1.
       -3    1    3    3    0  502 -0.18928819239E+03  0.69526941579E+02  0.53633983514E+02  0.20866391584E+03  0.10100000352E+00 0.  1.
</event>
<event>
 5   0  0.9028473E-03  0.5970030E+03  0.7818609E-02  0.9911643E-01
        2   -1    0    0  501    0  0.00000000000E+00  0.00000000000E+00  0.68829629280E+03  0.68829629281E+03  0.25500000920E-02 0.  1.
       -2   -1    0    0    0  501  0.00000000000E+00  0.00000000000E+00 -0.12945465227E+03  0.12945465230E+03  0.25500000920E-02 0. -1.
    10030    2    1    2    0    0  0.00000000000E+00  0.00000000000E+00  0.55884164053E+03  0.81775094511E+03  0.59700303939E+03 0.  0.
        1    1    3    3  502    0 -0.25391371902E+03  0.14053897169E+03  0.37510597056E+03  0.47426560959E+03  0.50400001928E-02 0.  1.
       -1    1    3    3    0  502  0.25391371902E+03 -0.14053897169E+03  0.18373566997E+03  0.34348533552E+03  0.50400001928E-02 0. -1.
</event>
<event>
 5   0  0.9162342E-03  0.5988823E+03  0.7818609E-02  0.9907728E-01
        2   -1    0    0  501    0  0.00000000000E+00  0.00000000000E+00  0.20993301212E+04  0.20993301212E+04  0.25500000920E-02 0. -1.
       -2   -1    0    0    0  501  0.00000000000E+00  0.00000000000E+00 -0.42711250603E+02  0.42711250679E+02  0.25500000920E-02 0.  1.
    10030    2    1    2    0    0  0.00000000000E+00  0.00000000000E+00  0.20566188706E+04  0.21420413719E+04  0.59888234232E+03 0.  0.
        5    1    3    3  502    0 -0.14122716614E+03  0.20460908727E+03  0.16250229040E+04  0.16439378090E+04  0.46999998093E+01 0. -1.
       -5    1    3    3    0  502  0.14122716614E+03 -0.20460908727E+03  0.43159596653E+03  0.49810356290E+03  0.46999998093E+01 0.  1.
</event>
<event>
 5   0  0.3806250E-03  0.5999116E+03  0.7818609E-02  0.9905590E-01
        3   -1    0    0  501    0  0.00000000000E+00  0.00000000000E+00  0.92441688866E+03  0.92441689417E+03  0.10100000352E+00 0.  1.
       -3   -1    0    0    0  501  0.00000000000E+00  0.00000000000E+00 -0.97329936822E+02  0.97329989226E+02  0.10100000352E+00 0. -1.
    10030    2    1    2    0    0  0.00000000000E+00  0.00000000000E+00  0.82708695183E+03  0.10217468834E+04  0.59991155002E+03 0.  0.
        4    1    3    3  502    0  0.62773155005E+02  0.15273555006E+03  0.84002584142E+03  0.85610375796E+03  0.12699999809E+01 0.  1.
       -4    1    3    3    0  502 -0.62773155005E+02 -0.15273555006E+03 -0.12938889590E+02  0.16564312544E+03  0.12699999809E+01 0. -1.
</event>
<event>
 5   0  0.5790967E-03  0.6023185E+03  0.7818609E-02  0.9900608E-01
        1   -1    0    0  501    0  0.00000000000E+00  0.00000000000E+00  0.96125820224E+03  0.96125820226E+03  0.50400001928E-02 0.  1.
       -1   -1    0    0    0  501  0.00000000000E+00  0.00000000000E+00 -0.94352255535E+02  0.94352255670E+02  0.50400001928E-02 0. -1.
    10030    2    1    2    0    0  0.00000000000E+00  0.00000000000E+00  0.86690594671E+03  0.10556104579E+04  0.60231845269E+03 0.  0.
        3    1    3    3  502    0  0.26573139794E+03  0.75653648857E+02  0.64347171248E+03  0.70028030488E+03  0.10100000352E+00 0.  1.
       -3    1    3    3    0  502 -0.26573139794E+03 -0.75653648857E+02  0.22343423423E+03  0.35533015305E+03  0.10100000352E+00 0. -1.
</event>
<event>
 5   0  0.5819446E-03  0.6007155E+03  0.7818609E-02  0.9903923E-01
        1   -1    0    0  501    0  0.00000000000E+00  0.00000000000E+00  0.14898203931E+03  0.14898203939E+03  0.50400001928E-02 0.  1.
       -1   -1    0    0    0  501  0.00000000000E+00  0.00000000000E+00 -0.60554132650E+03  0.60554132652E+03  0.50400001928E-02 0. -1.
    10030    2    1    2    0    0  0.00000000000E+00  0.00000000000E+00 -0.45655928719E+03  0.75452336591E+03  0.60071551253E+03 0.  0.
        5    1    3    3  502    0 -0.24471548715E+03 -0.14086940646E+03 -0.99801728262E+02  0.29952017342E+03  0.46999998093E+01 0.  1.
       -5    1    3    3    0  502  0.24471548715E+03  0.14086940646E+03 -0.35675755893E+03  0.45500319249E+03  0.46999998093E+01 0. -1.
</event>
<event>
 5   0  0.9028473E-03  0.5996156E+03  0.7818609E-02  0.9906204E-01
        2   -1    0    0  501    0  0.00000000000E+00  0.00000000000E+00  0.67759078325E+03  0.67759078326E+03  0.25500000920E-02 0.  1.
       -2   -1    0    0    0  501  0.00000000000E+00  0.00000000000E+00 -0.13265339458E+03  0.13265339461E+03  0.25500000920E-02 0. -1.
    10030    2    1    2    0    0  0.00000000000E+00  0.00000000000E+00  0.54493738867E+03  0.81024417787E+03  0.59961560203E+03 0.  0.
        1    1    3    3  502    0 -0.27816900212E+03 -0.94286809715E+02  0.19120426011E+03  0.35046692474E+03  0.50400001928E-02 0.  1.
       -1    1    3    3    0  502  0.27816900212E+03  0.94286809715E+02  0.35373312856E+03  0.45977725313E+03  0.50400001928E-02 0. -1.
</event>
<event>
 5   0  0.9303190E-03  0.5973592E+03  0.7818609E-02  0.9910900E-01
        2   -1    0    0  501    0  0.00000000000E+00  0.00000000000E+00  0.12447880892E+04  0.12447880892E+04  0.25500000920E-02 0. -1.
       -2   -1    0    0    0  501  0.00000000000E+00  0.00000000000E+00 -0.71666429129E+02  0.71666429174E+02  0.25500000920E-02 0.  1.
    10030    2    1    2    0    0  0.00000000000E+00  0.00000000000E+00  0.11731216601E+04  0.13164545184E+04  0.59735924671E+03 0.  0.
        4    1    3    3  502    0  0.96370013939E+02 -0.11612565385E+02  0.12090521072E+04  0.12129429674E+04  0.12699999809E+01 0. -1.
       -4    1    3    3    0  502 -0.96370013939E+02  0.11612565385E+02 -0.35930447130E+02  0.10351155101E+03  0.12699999809E+01 0.  1.
</event>
<event>
 5   0  0.3806250E-03  0.5978117E+03  0.7818609E-02  0.9909957E-01
       -4   -1    0    0    0  501  0.00000000000E+00  0.00000000000E+00  0.60747195872E+03  0.60747328627E+03  0.12699999809E+01 0. -1.
        4   -1    0    0  501    0  0.00000000000E+00  0.00000000000E+00 -0.14707203648E+03  0.14707751975E+03  0.12699999809E+01 0.  1.
    10030    2    1    2    0    0  0.00000000000E+00  0.00000000000E+00  0.46039992224E+03  0.75455080602E+03  0.59781170151E+03 0.  0.
        2    1    3    3  502    0 -0.28042450604E+03  0.92658655982E+02  0.17206832035E+03  0.34180555436E+03  0.25500000920E-02 0.  1.
       -2    1    3    3    0  502  0.28042450604E+03 -0.92658655982E+02  0.28833160189E+03  0.41274525166E+03  0.25500000920E-02 0. -1.
</event>
<event>
 5   0  0.6078658E-03  0.6007210E+03  0.7818609E-02  0.9903911E-01
        1   -1    0    0  501    0  0.00000000000E+00  0.00000000000E+00  0.41243159723E+03  0.41243159726E+03  0.50400001928E-02 0.  1.
       -1   -1    0    0    0  501  0.00000000000E+00  0.00000000000E+00 -0.21874274468E+03  0.21874274473E+03  0.50400001928E-02 0. -1.
    10030    2    1    2    0    0  0.00000000000E+00  0.00000000000E+00  0.19368885255E+03  0.63117434199E+03  0.60072096550E+03 0.  0.
        2    1    3    3  502    0  0.21023065171E+03 -0.21177087144E+03  0.13282348236E+03  0.32662808572E+03  0.25500000920E-02 0. -1.
       -2    1    3    3    0  502 -0.21023065171E+03  0.21177087144E+03  0.60865370196E+02  0.30454625627E+03  0.25500000920E-02 0.  1.
</event>
<event>
 5   0  0.9822607E-03  0.6000292E+03  0.7818609E-02  0.9905346E-01
       -2   -1    0    0    0  501  0.00000000000E+00  0.00000000000E+00  0.26875156287E+03  0.26875156288E+03  0.25500000920E-02 0. -1.
        2   -1    0    0  501    0  0.00000000000E+00  0.00000000000E+00 -0.33491432601E+03  0.33491432601E+03  0.25500000920E-02 0.  1.
    10030    2    1    2    0    0  0.00000000000E+00  0.00000000000E+00 -0.66162763133E+02  0.60366588890E+03  0.60002916112E+03 0.  0.
        3    1    3    3  502    0  0.15358474637E+03 -0.12595940007E+03 -0.25928785013E+03  0.32662554127E+03  0.10100000352E+00 0.  1.
       -3    1    3    3    0  502 -0.15358474637E+03  0.12595940007E+03  0.19312508700E+03  0.27704034763E+03  0.10100000352E+00 0. -1.
</event>
<event>
 5   0  0.5891927E-03  0.6000495E+03  0.7818609E-02  0.9905303E-01
        1   -1    0    0  501    0  0.00000000000E+00  0.00000000000E+00  0.16436063473E+04  0.16436063473E+04  0.50400001928E-02 0.  1.
       -1   -1    0    0    0  501  0.00000000000E+00  0.00000000000E+00 -0.54766680140E+02  0.54766680372E+02  0.50400001928E-02 0. -1.
    10030    2    1    2    0    0  0.00000000000E+00  0.00000000000E+00  0.15888396672E+04  0.16983730277E+04  0.60004954230E+03 0.  0.
        4    1    3    3  502    0  0.94714952006E+02  0.28366576658E+03  0.72648691614E+03  0.78563480160E+03  0.12699999809E+01 0.  1.
       -4    1    3    3    0  502 -0.94714952006E+02 -0.28366576658E+03  0.86235275104E+03  0.91273822610E+03  0.12699999809E+01 0. -1.
</event>
<event>
 5   0  0.9822607E-03  0.5985650E+03  0.7818609E-02  0.9908388E-01
        2   -1    0    0  501    0  0.00000000000E+00  0.00000000000E+00  0.57161118799E+03  0.57161118800E+03  0.25500000920E-02 0.  1.
       -2   -1    0    0    0  501  0.00000000000E+00  0.00000000000E+00 -0.15669747384E+03  0.15669747386E+03  0.25500000920E-02 0. -1.
    10030    2    1    2    0    0  0.00000000000E+00  0.00000000000E+00  0.41491371415E+03  0.72830866186E+03  0.59856504806E+03 0.  0.
        3    1    3    3  502    0  0.21951839278E+03  0.15539072506E+03  0.36719734864E+03  0.45515767076E+03  0.10100000352E+00 0.  1.
       -3    1    3    3    0  502 -0.21951839278E+03 -0.15539072506E+03  0.47716365509E+02  0.27315099110E+03  0.10100000352E+00 0. -1.
</event>
<event>
 5   0  0.6078658E-03  0.6005530E+03  0.7818609E-02  0.9904259E-01
        1   -1    0    0  501    0  0.00000000000E+00  0.00000000000E+00  0.22233940990E+04  0.22233940990E+04  0.50400001928E-02 0. -1.
       -1   -1    0    0    0  501  0.00000000000E+00  0.00000000000E+00 -0.40553305586E+02  0.40553305899E+02  0.50400001928E-02 0.  1.
    10030    2    1    2    0    0  0.00000000000E+00  0.00000000000E+00  0.21828407934E+04  0.22639474049E+04  0.60055301413E+03 0.  0.
        2    1    3    3  502    0  0.42365304761E+02 -0.27273853333E+03  0.64561640592E+03  0.70214077663E+03  0.25500000920E-02 0.  1.
       -2    1    3    3    0  502 -0.42365304761E+02  0.27273853333E+03  0.15372243875E+04  0.15618066283E+04  0.25500000920E-02 0. -1.
</event>
<event>
 5   0  0.9028473E-03  0.5993156E+03  0.7818609E-02  0.9906827E-01
        2   -1    0    0  501    0  0.00000000000E+00  0.00000000000E+00  0.42783481535E+03  0.42783481536E+03  0.25500000920E-02 0. -1.
       -2   -1    0    0    0  501  0.00000000000E+00  0.00000000000E+00 -0.20988191265E+03  0.20988191267E+03  0.25500000920E-02 0.  1.
    10030    2    1    2    0    0  0.00000000000E+00  0.00000000000E+00  0.21795290270E+03  0.63771672803E+03  0.59931557414E+03 0.  0.
        1    1    3    3  502    0 -0.19909266046E+03  0.32116737545E+02  0.34482074385E+03  0.39946303671E+03  0.50400001928E-02 0. -1.
       -1    1    3    3    0  502  0.19909266046E+03 -0.32116737545E+02 -0.12686784116E+03  0.23825369132E+03  0.50400001928E-02 0.  1.
</event>
<event>
 5   0  0.9391405E-03  0.6030732E+03  0.7818609E-02  0.9899051E-01
       -2   -1    0    0    0  501  0.00000000000E+00  0.00000000000E+00  0.88643808831E+02  0.88643808868E+02  0.25500000920E-02 0. -1.
        2   -1    0    0  501    0  0.00000000000E+00  0.00000000000E+00 -0.10257267661E+04  0.10257267661E+04  0.25500000920E-02 0.  1.
    10030    2    1    2    0    0  0.00000000000E+00  0.00000000000E+00 -0.93708295723E+03  0.11143705749E+04  0.60307322071E+03 0.  0.
        2    1    3    3  502    0  0.11552421849E+03  0.16021155398E+03 -0.47535558390E+02  0.20315810691E+03  0.25500000920E-02 0. -1.
       -2    1    3    3    0  502 -0.11552421849E+03 -0.16021155398E+03 -0.88954739884E+03  0.91121246802E+03  0.25500000920E-02 0.  1.
</event>
<event>
 5   0  0.5819446E-03  0.5974979E+03  0.7818609E-02  0.9910611E-01
        1   -1    0    0  501    0  0.00000000000E+00  0.00000000000E+00  0.49179340434E+03  0.49179340436E+03  0.50400001928E-02 0. -1.
       -1   -1    0    0    0  501  0.00000000000E+00  0.00000000000E+00 -0.18148053113E+03  0.18148053120E+03  0.50400001928E-02 0.  1.
    10030    2    1    2    0    0  0.00000000000E+00  0.00000000000E+00  0.31031287321E+03  0.67327393556E+03  0.59749787701E+03 0.  0.
        5    1    3    3  502    0  0.11929462426E+03  0.58059205619E+02  0.45672987474E+03  0.47563257585E+03  0.46999998093E+01 0. -1.
       -5    1    3    3    0  502 -0.11929462426E+03 -0.58059205619E+02 -0.14641700153E+03  0.19764135971E+03  0.46999998093E+01 0.  1.
</event>
<event>
 5   0  0.5891927E-03  0.5998962E+03  0.7818609E-02  0.9905622E-01
        1   -1    0    0  501    0  0.00000000000E+00  0.00000000000E+00  0.30196775140E+03  0.30196775144E+03  0.50400001928E-02 0. -1.
       -1   -1    0    0    0  501  0.00000000000E+00  0.00000000000E+00 -0.29794190817E+03  0.29794190822E+03  0.50400001928E-02 0.  1.
    10030    2    1    2    0    0  0.00000000000E+00  0.00000000000E+00  0.40258432242E+01  0.59990965966E+03  0.59989615129E+03 0.  0.
        4    1    3    3  502    0 -0.27897489807E+03  0.10620961454E+03 -0.27309389547E+02  0.29975805515E+03  0.12699999809E+01 0.  1.
       -4    1    3    3    0  502  0.27897489807E+03 -0.10620961454E+03  0.31335232772E+02  0.30015160450E+03  0.12699999809E+01 0. -1.
</event>
<event>
 5   0  0.3806250E-03  0.5973038E+03  0.7818609E-02  0.9911016E-01
        3   -1    0    0  501    0  0.00000000000E+00  0.00000000000E+00  0.49063121573E+03  0.49063122612E+03  0.10100000352E+00 0. -1.
       -3   -1    0    0    0  501  0.00000000000E+00  0.00000000000E+00 -0.18179221126E+03  0.18179223932E+03  0.10100000352E+00 0.  1.
    10030    2    1    2    0    0  0.00000000000E+00  0.00000000000E+00  0.30883900447E+03  0.67242346544E+03  0.59730376376E+03 0.  0.
        2    1    3    3  502    0  0.13579969653E+03  0.80571268462E+02 -0.13095608602E+03  0.20514088659E+03  0.25500000920E-02 0.  1.
       -2    1    3    3    0  502 -0.13579969653E+03 -0.80571268462E+02  0.43979509048E+03  0.46728257885E+03  0.25500000920E-02 0. -1.
</event>
<event>
 5   0  0.9303190E-03  0.5997256E+03  0.7818609E-02  0.9905976E-01
        2   -1    0    0  501    0  0.00000000000E+00  0.00000000000E+00  0.10827928511E+04  0.10827928511E+04  0.25500000920E-02 0.  1.
       -2   -1    0    0    0  501  0.00000000000E+00  0.00000000000E+00 -0.83042371283E+02  0.83042371322E+02  0.25500000920E-02 0. -1.
    10030    2    1    2    0    0  0.00000000000E+00  0.00000000000E+00  0.99975047986E+03  0.11658352225E+04  0.59972555721E+03 0.  0.
        4    1    3    3  502    0 -0.11183706221E+02 -0.77259483637E+02 -0.62937017465E+02  0.10028351891E+03  0.12699999809E+01 0. -1.
       -4    1    3    3    0  502  0.11183706221E+02  0.77259483637E+02  0.10626874973E+04  0.10655517036E+04  0.12699999809E+01 0.  1.
</event>
<event>
 5   0  0.9162342E-03  0.5982932E+03  0.7818609E-02  0.9908954E-01
       -2   -1    0    0    0  501  0.00000000000E+00  0.00000000000E+00  0.14751397795E+03  0.14751397797E+03  0.25500000920E-02 0. -1.
        2   -1    0    0  501    0  0.00000000000E+00  0.00000000000E+00 -0.60664543858E+03  0.60664543859E+03  0.25500000920E-02 0.  1.
    10030    2    1    2    0    0  0.00000000000E+00  0.00000000000E+00 -0.45913146064E+03  0.75415941656E+03  0.59829317850E+03 0.  0.
        5    1    3    3  502    0 -0.21607454542E+03  0.10546478177E+03 -0.52942114388E+01  0.24054344316E+03  0.46999998093E+01 0. -1.
       -5    1    3    3    0  502  0.21607454542E+03 -0.10546478177E+03 -0.45383724920E+03  0.51361597340E+03  0.46999998093E+01 0.  1.
</event>
<event>
 5   0  0.5891927E-03  0.6004158E+03  0.7818609E-02  0.9904544E-01
       -1   -1    0    0    0  501  0.00000000000E+00  0.00000000000E+00  0.88511635268E+02  0.88511635411E+02  0.50400001928E-02 0.  1.
        1   -1    0    0  501    0  0.00000000000E+00  0.00000000000E+00 -0.10182251553E+04  0.10182251553E+04  0.50400001928E-02 0. -1.
    10030    2    1    2    0    0  0.00000000000E+00  0.00000000000E+00 -0.92971352000E+03  0.11067367907E+04  0.60041576811E+03 0.  0.
        4    1    3    3  502    0  0.22698876545E+03  0.10813000540E+03 -0.76721806646E+03  0.80736681386E+03  0.12699999809E+01 0. -1.
       -4    1    3    3    0  502 -0.22698876545E+03 -0.10813000540E+03 -0.16249545354E+03  0.29936997683E+03  0.12699999809E+01 0.  1.
</event>
<event>
 5   0  0.9303190E-03  0.6010853E+03  0.7818609E-02  0.9903157E-01
       -2   -1    0    0    0  501  0.00000000000E+00  0.00000000000E+00  0.23991317842E+03  0.23991317843E+03  0.25500000920E-02 0. -1.
        2   -1    0    0  501    0  0.00000000000E+00  0.00000000000E+00 -0.37649402019E+03  0.37649402019E+03  0.25500000920E-02 0.  1.
    10030    2    1    2    0    0  0.00000000000E+00  0.00000000000E+00 -0.13658084177E+03  0.61640719862E+03  0.60108527530E+03 0.  0.
        4    1    3    3  502    0 -0.13969223203E+03  0.26061426856E+03 -0.13156146094E+02  0.29598718510E+03  0.12699999809E+01 0.  1.
       -4    1    3    3    0  502  0.13969223203E+03 -0.26061426856E+03 -0.12342469567E+03  0.32042001352E+03  0.12699999809E+01 0. -1.
</event>
<event>
 5   0  0.3806250E-03  0.6006731E+03  0.7818609E-02  0.9904011E-01
        3   -1    0    0  501    0  0.00000000000E+00  0.00000000000E+00  0.22917029003E+03  0.22917031229E+03  0.10100000352E+00 0.  1.
       -3   -1    0    0    0  501  0.00000000000E+00  0.00000000000E+00 -0.39360260679E+03  0.39360261974E+03  0.10100000352E+00 0. -1.
    10030    2    1    2    0    0  0.00000000000E+00  0.00000000000E+00 -0.16443231676E+03  0.62277293203E+03  0.60067307088E+03 0.  0.
        2    1    3    3  502    0 -0.17336465091E+03 -0.18792985696E+03  0.81153749899E+02  0.26825149478E+03  0.25500000920E-02 0.  1.
       -2    1    3    3    0  502  0.17336465091E+03  0.18792985696E+03 -0.24558606666E+03  0.35452143725E+03  0.25500000920E-02 0. -1.
</event>
<event>
 5   0  0.5790967E-03  0.5994419E+03  0.7818609E-02  0.9906565E-01
        1   -1    0    0  501    0  0.00000000000E+00  0.00000000000E+00  0.60657856320E+03  0.60657856322E+03  0.50400001928E-02 0.  1.
       -1   -1    0    0    0  501  0.00000000000E+00  0.00000000000E+00 -0.14809732323E+03  0.14809732331E+03  0.50400001928E-02 0. -1.
    10030    2    1    2    0    0  0.00000000000E+00  0.00000000000E+00  0.45848123997E+03  0.75467588653E+03  0.59944194573E+03 0.  0.
        3    1    3    3  502    0  0.27001788421E+03  0.13005339335E+03  0.22544103827E+03  0.37502961863E+03  0.10100000352E+00 0. -1.
       -3    1    3    3    0  502 -0.27001788421E+03 -0.13005339335E+03  0.23304020170E+03  0.37964626790E+03  0.10100000352E+00 0.  1.
</event>
<event>
 5   0  0.6078658E-03  0.6000897E+03  0.7818609E-02  0.9905220E-01
       -1   -1    0    0    0  501  0.00000000000E+00  0.00000000000E+00  0.11048044661E+03  0.11048044673E+03  0.50400001928E-02 0.  1.
        1   -1    0    0  501    0  0.00000000000E+00  0.00000000000E+00 -0.81486733926E+03  0.81486733928E+03  0.50400001928E-02 0. -1.
    10030    2    1    2    0    0  0.00000000000E+00  0.00000000000E+00 -0.70438689265E+03  0.92534778600E+03  0.60008968540E+03 0.  0.
        2    1    3    3  502    0 -0.11331038345E+03  0.23831492514E+03 -0.13198375558E+03  0.29504738312E+03  0.25500000920E-02 0.  1.
       -2    1    3    3    0  502  0.11331038345E+03 -0.23831492514E+03 -0.57240313707E+03  0.63030040288E+03  0.25500000920E-02 0. -1.
</event>
<event>
 5   0  0.6078658E-03  0.6003002E+03  0.7818609E-02  0.9904783E-01
        1   -1    0    0  501    0  0.00000000000E+00  0.00000000000E+00  0.13101684759E+04  0.13101684760E+04  0.50400001928E-02 0. -1.
       -1   -1    0    0    0  501  0.00000000000E+00  0.00000000000E+00 -0.68762214662E+02  0.68762214846E+02  0.50400001928E-02 0.  1.
    10030    2    1    2    0    0  0.00000000000E+00  0.00000000000E+00  0.12414062613E+04  0.13789306908E+04  0.60030021196E+03 0.  0.
        2    1    3    3  502    0  0.24056547046E+03 -0.50105536766E+02  0.22478170068E+03  0.33303021388E+03  0.25500000920E-02 0.  1.
       -2    1    3    3    0  502 -0.24056547046E+03  0.50105536766E+02  0.10166245606E+04  0.10459004769E+04  0.25500000920E-02 0. -1.
</event>
<event>
 5   0  0.5765045E-03  0.6004208E+03  0.7818609E-02  0.9904533E-01
        1   -1    0    0  501    0  0.00000000000E+00  0.00000000000E+00  0.84387844832E+03  0.84387844833E+03  0.50400001928E-02 0. -1.
       -1   -1    0    0    0  501  0.00000000000E+00  0.00000000000E+00 -0.10680006436E+03  0.10680006448E+03  0.50400001928E-02 0.  1.
    10030    2    1    2    0    0  0.00000000000E+00  0.00000000000E+00  0.73707838396E+03  0.95067851281E+03  0.60042076132E+03 0.  0.
        1    1    3    3  502    0  0.94137006122E+02  0.28482325172E+03  0.34979051804E+03  0.46080306767E+03  0.50400001928E-02 0.  1.
       -1    1    3    3    0  502 -0.94137006122E+02 -0.28482325172E+03  0.38728786592E+03  0.48987544514E+03  0.50400001928E-02 0. -1.
</event>
<event>
 5   0  0.5819446E-03  0.5997740E+03  0.7818609E-02  0.9905875E-01
        1   -1    0    0  501    0  0.00000000000E+00  0.00000000000E+00  0.83104733999E+03  0.83104734001E+03  0.50400001928E-02 0. -1.
       -1   -1    0    0    0  501  0.00000000000E+00  0.00000000000E+00 -0.10821552529E+03  0.10821552541E+03  0.50400001928E-02 0.  1.
    10030    2    1    2    0    0  0.00000000000E+00  0.00000000000E+00  0.72283181470E+03  0.93926286541E+03  0.59977403912E+03 0.  0.
        5    1    3    3  502    0  0.28620505279E+01  0.27002072640E+03  0.15728640825E+03  0.31253877877E+03  0.46999998093E+01 0.  1.
       -5    1    3    3    0  502 -0.28620505279E+01 -0.27002072640E+03  0.56554540645E+03  0.62672408664E+03  0.46999998093E+01 0. -1.
</event>
<event>
 5   0  0.6078658E-03  0.6010461E+03  0.7818609E-02  0.9903238E-01
        1   -1    0    0  501    0  0.00000000000E+00  0.00000000000E+00  0.98946658709E+03  0.98946658710E+03  0.50400001928E-02 0.  1.
       -1   -1    0    0    0  501  0.00000000000E+00  0.00000000000E+00 -0.91275551439E+02  0.91275551578E+02  0.50400001928E-02 0. -1.
    10030    2    1    2    0    0  0.00000000000E+00  0.00000000000E+00  0.89819103565E+03  0.10807421387E+04  0.60104611620E+03 0.  0.
        2    1    3    3  502    0  0.20678145485E+03 -0.30006537735E+02  0.83748196498E+03  0.86315410214E+03  0.25500000920E-02 0.  1.
       -2    1    3    3    0  502 -0.20678145485E+03  0.30006537735E+02  0.60709070673E+02  0.21758803654E+03  0.25500000920E-02 0. -1.
</event>
<event>
 5   0  0.9303190E-03  0.5970850E+03  0.7818609E-02  0.9911472E-01
        2   -1    0    0  501    0  0.00000000000E+00  0.00000000000E+00  0.45168562510E+03  0.45168562511E+03  0.25500000920E-02 0. -1.
       -2   -1    0    0    0  501  0.00000000000E+00  0.00000000000E+00 -0.19732225883E+03  0.19732225885E+03  0.25500000920E-02 0.  1.
    10030    2    1    2    0    0  0.00000000000E+00  0.00000000000E+00  0.25436336627E+03  0.64900788396E+03  0.59708501182E+03 0.  0.
        4    1    3    3  502    0  0.46678152833E+01 -0.28786398376E+03  0.21303473690E+03  0.35815202592E+03  0.12699999809E+01 0. -1.
       -4    1    3    3    0  502 -0.46678152833E+01  0.28786398376E+03  0.41328629372E+02  0.29085585803E+03  0.12699999809E+01 0.  1.
</event>
<event>
 5   0  0.9303190E-03  0.6008196E+03  0.7818609E-02  0.9903707E-01
       -2   -1    0    0    0  501  0.00000000000E+00  0.00000000000E+00  0.80890455123E+02  0.80890455163E+02  0.25500000920E-02 0. -1.
        2   -1    0    0  501    0  0.00000000000E+00  0.00000000000E+00 -0.11156577435E+04  0.11156577435E+04  0.25500000920E-02 0.  1.
    10030    2    1    2    0    0  0.00000000000E+00  0.00000000000E+00 -0.10347672884E+04  0.11965481987E+04  0.60081964900E+03 0.  0.
        4    1    3    3  502    0 -0.25560011766E+03  0.62711731488E+02 -0.80584762293E+03  0.84773591743E+03  0.12699999809E+01 0.  1.
       -4    1    3    3    0  502  0.25560011766E+03 -0.62711731488E+02 -0.22891966543E+03  0.34881228123E+03  0.12699999809E+01 0. -1.
</event>
<event>
 5   0  0.9028473E-03  0.5989333E+03  0.7818609E-02  0.9907622E-01
        2   -1    0    0  501    0  0.00000000000E+00  0.00000000000E+00  0.71075116772E+03  0.71075116772E+03  0.25500000920E-02 0.  1.
       -2   -1    0    0    0  501  0.00000000000E+00  0.00000000000E+00 -0.12617676341E+03  0.12617676344E+03  0.25500000920E-02 0. -1.
    10030    2    1    2    0    0  0.00000000000E+00  0.00000000000E+00  0.58457440431E+03  0.83692793116E+03  0.59893332499E+03 0.  0.
        1    1    3    3  502    0 -0.64873211550E+02 -0.28851367127E+03  0.35829856774E+03  0.46457134625E+03  0.50400001928E-02 0.  1.
       -1    1    3    3    0  502  0.64873211550E+02  0.28851367127E+03  0.22627583657E+03  0.37235658491E+03  0.50400001928E-02 0. -1.
</event>
<event>
 5   0  0.5891927E-03  0.6037420E+03  0.7818609E-02  0.9897673E-01
        1   -1    0    0  501    0  0.00000000000E+00  0.00000000000E+00  0.33913842196E+03  0.33913842200E+03  0.50400001928E-02 0. -1.
       -1   -1    0    0    0  501  0.00000000000E+00  0.00000000000E+00 -0.26869886994E+03  0.26869886998E+03  0.50400001928E-02 0.  1.
    10030    2    1    2    0    0  0.00000000000E+00  0.00000000000E+00  0.70439552028E+02  0.60783729198E+03  0.60374203352E+03 0.  0.
        4    1    3    3  502    0 -0.13814962324E+03  0.10363164703E+02 -0.23480048002E+03  0.27262720316E+03  0.12699999809E+01 0.  1.
       -4    1    3    3    0  502  0.13814962324E+03 -0.10363164703E+02  0.30524003205E+03  0.33521008883E+03  0.12699999809E+01 0. -1.
</event>
<event>
 5   0  0.5891927E-03  0.6009982E+03  0.7818609E-02  0.9903337E-01
       -1   -1    0    0    0  501  0.00000000000E+00  0.00000000000E+00  0.16068677976E+03  0.16068677984E+03  0.50400001928E-02 0.  1.
        1   -1    0    0  501    0  0.00000000000E+00  0.00000000000E+00 -0.56196109075E+03  0.56196109077E+03  0.50400001928E-02 0. -1.
    10030    2    1    2    0    0  0.00000000000E+00  0.00000000000E+00 -0.40127431099E+03  0.72264787061E+03  0.60099822982E+03 0.  0.
        4    1    3    3  502    0 -0.29611409668E+03  0.42121801583E+02 -0.23549262261E+03  0.38067859492E+03  0.12699999809E+01 0.  1.
       -4    1    3    3    0  502  0.29611409668E+03 -0.42121801583E+02 -0.16578168837E+03  0.34196927570E+03  0.12699999809E+01 0. -1.
</event>
<event>
 5   0  0.9162342E-03  0.5993196E+03  0.7818609E-02  0.9906819E-01
        2   -1    0    0  501    0  0.00000000000E+00  0.00000000000E+00  0.55104673922E+03  0.55104673922E+03  0.25500000920E-02 0. -1.
       -2   -1    0    0    0  501  0.00000000000E+00  0.00000000000E+00 -0.16295533005E+03  0.16295533007E+03  0.25500000920E-02 0.  1.
    10030    2    1    2    0    0  0.00000000000E+00  0.00000000000E+00  0.38809140917E+03  0.71400206929E+03  0.59931962514E+03 0.  0.
        5    1    3    3  502    0  0.10010323445E+03  0.16709719586E+03 -0.77185120445E+02  0.20957519707E+03  0.46999998093E+01 0.  1.
       -5    1    3    3    0  502 -0.10010323445E+03 -0.16709719586E+03  0.46527652961E+03  0.50442687222E+03  0.46999998093E+01 0. -1.
</event>
<event>
 5   0  0.5819446E-03  0.6001729E+03  0.7818609E-02  0.9905047E-01
        1   -1    0    0  501    0  0.00000000000E+00  0.00000000000E+00  0.10719175943E+04  0.10719175943E+04  0.50400001928E-02 0. -1.
       -1   -1    0    0    0  501  0.00000000000E+00  0.00000000000E+00 -0.84010077573E+02  0.84010077724E+02  0.50400001928E-02 0.  1.
    10030    2    1    2    0    0  0.00000000000E+00  0.00000000000E+00  0.98790751668E+03  0.11559276720E+04  0.60017290955E+03 0.  0.
        5    1    3    3  502    0  0.13282713976E+03  0.23620423553E+03  0.74205774680E+03  0.79000460728E+03  0.46999998093E+01 0. -1.
       -5    1    3    3    0  502 -0.13282713976E+03 -0.23620423553E+03  0.24584976988E+03  0.36592306471E+03  0.46999998093E+01 0.  1.
</event>
<event>
 5   0  0.5819446E-03  0.6065638E+03  0.7818609E-02  0.9891881E-01
        1   -1    0    0  501    0  0.00000000000E+00  0.00000000000E+00  0.48088372834E+03  0.48088372836E+03  0.50400001928E-02 0. -1.
       -1   -1    0    0    0  501  0.00000000000E+00  0.00000000000E+00 -0.19127263385E+03  0.19127263392E+03  0.50400001928E-02 0.  1.
    10030    2    1    2    0    0  0.00000000000E+00  0.00000000000E+00  0.28961109449E+03  0.67215636228E+03  0.60656375535E+03 0.  0.
        5    1    3    3  502    0 -0.97221263606E+01 -0.27762413436E+03  0.27956227375E+03  0.39414062798E+03  0.46999998093E+01 0.  1.
       -5    1    3    3    0  502  0.97221263606E+01  0.27762413436E+03  0.10048820733E+02  0.27801573430E+03  0.46999998093E+01 0. -1.
</event>
<event>
 5   0  0.9391405E-03  0.6004341E+03  0.7818609E-02  0.9904506E-01
        2   -1    0    0  501    0  0.00000000000E+00  0.00000000000E+00  0.11413766999E+04  0.11413766999E+04  0.25500000920E-02 0. -1.
       -2   -1    0    0    0  501  0.00000000000E+00  0.00000000000E+00 -0.78966274602E+02  0.78966274643E+02  0.25500000920E-02 0.  1.
    10030    2    1    2    0    0  0.00000000000E+00  0.00000000000E+00  0.10624104253E+04  0.12203429745E+04  0.60043406277E+03 0.  0.
        2    1    3    3  502    0  0.17669842770E+03 -0.72199911363E+02  0.10021651107E+04  0.10201813911E+04  0.25500000920E-02 0. -1.
       -2    1    3    3    0  502 -0.17669842770E+03  0.72199911363E+02  0.60245314550E+02  0.20016158344E+03  0.25500000920E-02 0.  1.
</event>
<event>
 5   0  0.5790967E-03  0.5996391E+03  0.7818609E-02  0.9906155E-01
        1   -1    0    0  501    0  0.00000000000E+00  0.00000000000E+00  0.14377627006E+04  0.14377627006E+04  0.50400001928E-02 0.  1.
       -1   -1    0    0    0  501  0.00000000000E+00  0.00000000000E+00 -0.62521976590E+02  0.62521976793E+02  0.50400001928E-02 0. -1.
    10030    2    1    2    0    0  0.00000000000E+00  0.00000000000E+00  0.13752407240E+04  0.15002846774E+04  0.59963911169E+03 0.  0.
        3    1    3    3  502    0  0.64867163481E+02 -0.14774728715E+02  0.14190620098E+04  0.14206206529E+04  0.10100000352E+00 0.  1.
       -3    1    3    3    0  502 -0.64867163481E+02  0.14774728715E+02 -0.43821285824E+02  0.79664024496E+02  0.10100000352E+00 0. -1.
</event>
<event>
 5   0  0.9822607E-03  0.5974445E+03  0.7818609E-02  0.9910722E-01
        2   -1    0    0  501    0  0.00000000000E+00  0.00000000000E+00  0.60597419101E+03  0.60597419102E+03  0.25500000920E-02 0.  1.
       -2   -1    0    0    0  501  0.00000000000E+00  0.00000000000E+00 -0.14725870350E+03  0.14725870353E+03  0.25500000920E-02 0. -1.
    10030    2    1    2    0    0  0.00000000000E+00  0.00000000000E+00  0.45871548751E+03  0.75323289454E+03  0.59744447017E+03 0.  0.
        3    1    3    3  502    0 -0.11482527642E+03  0.74828689389E+02  0.56399528117E+03  0.58040922136E+03  0.10100000352E+00 0.  1.
       -3    1    3    3    0  502  0.11482527642E+03 -0.74828689389E+02 -0.10527979366E+03  0.17282367319E+03  0.10100000352E+00 0. -1.
</event>
<event>
 5   0  0.3806250E-03  0.6001768E+03  0.7818609E-02  0.9905039E-01
        3   -1    0    0  501    0  0.00000000000E+00  0.00000000000E+00  0.38447563191E+03  0.38447564517E+03  0.10100000352E+00 0.  1.
       -3   -1    0    0    0  501  0.00000000000E+00  0.00000000000E+00 -0.23422302860E+03  0.23422305038E+03  0.10100000352E+00 0. -1.
    10030    2    1    2    0    0  0.00000000000E+00  0.00000000000E+00  0.15025260331E+03  0.61869869555E+03  0.60017683317E+03 0.  0.
        2    1    3    3  502    0  0.10746291646E+03 -0.25734996465E+03  0.18934164071E+03  0.33708684287E+03  0.25500000920E-02 0.  1.
       -2    1    3    3    0  502 -0.10746291646E+03  0.25734996465E+03 -0.39089037401E+02  0.28161185269E+03  0.25500000920E-02 0. -1.
</event>
<event>
 5   0  0.9303190E-03  0.6000741E+03  0.7818609E-02  0.9905252E-01
       -2   -1    0    0    0  501  0.00000000000E+00  0.00000000000E+00  0.46554917287E+03  0.46554917288E+03  0.25500000920E-02 0.  1.
        2   -1    0    0  501    0  0.00000000000E+00  0.00000000000E+00 -0.19336782804E+03  0.19336782806E+03  0.25500000920E-02 0. -1.
    10030    2    1    2    0    0  0.00000000000E+00  0.00000000000E+00  0.27218134483E+03  0.65891700094E+03  0.60007410347E+03 0.  0.
        4    1    3    3  502    0  0.13876190894E+03 -0.10488657414E+03  0.40453095459E+03  0.44034414601E+03  0.12699999809E+01 0.  1.
       -4    1    3    3    0  502 -0.13876190894E+03  0.10488657414E+03 -0.13234960976E+03  0.21857285493E+03  0.12699999809E+01 0. -1.
</event>
<event>
 5   0  0.9303190E-03  0.6000530E+03  0.7818609E-02  0.9905296E-01
        2   -1    0    0  501    0  0.00000000000E+00  0.00000000000E+00  0.17148162343E+03  0.17148162345E+03  0.25500000920E-02 0. -1.
       -2   -1    0    0    0  501  0.00000000000E+00  0.00000000000E+00 -0.52493024334E+03  0.52493024335E+03  0.25500000920E-02 0.  1.
    10030    2    1    2    0    0  0.00000000000E+00  0.00000000000E+00 -0.35344861991E+03  0.69641186680E+03  0.60005296541E+03 0.  0.
        4    1    3    3  502    0 -0.29549513859E+03  0.35697283717E+02 -0.22049855397E+03  0.37042259407E+03  0.12699999809E+01 0.  1.
       -4    1    3    3    0  502  0.29549513859E+03 -0.35697283717E+02 -0.13295006594E+03  0.32598927273E+03  0.12699999809E+01 0. -1.
</event>
<event>
 5   0  0.6078658E-03  0.5994091E+03  0.7818609E-02  0.9906633E-01
       -1   -1    0    0    0  501  0.00000000000E+00  0.00000000000E+00  0.69430495611E+02  0.69430495794E+02  0.50400001928E-02 0.  1.
        1   -1    0    0  501    0  0.00000000000E+00  0.00000000000E+00 -0.12937082625E+04  0.12937082625E+04  0.50400001928E-02 0. -1.
    10030    2    1    2    0    0  0.00000000000E+00  0.00000000000E+00 -0.12242777669E+04  0.13631387583E+04  0.59940906224E+03 0.  0.
        2    1    3    3  502    0 -0.23848635399E+03 -0.92173079416E+02 -0.96774297344E+03  0.10009485902E+04  0.25500000920E-02 0. -1.
       -2    1    3    3    0  502  0.23848635399E+03  0.92173079416E+02 -0.25653479348E+03  0.36219016811E+03  0.25500000920E-02 0.  1.
</event>
<event>
 5   0  0.9028473E-03  0.5995199E+03  0.7818609E-02  0.9906403E-01
       -2   -1    0    0    0  501  0.00000000000E+00  0.00000000000E+00  0.16602940160E+03  0.16602940162E+03  0.25500000920E-02 0.  1.
        2   -1    0    0  501    0  0.00000000000E+00  0.00000000000E+00 -0.54120544764E+03  0.54120544765E+03  0.25500000920E-02 0. -1.
    10030    2    1    2    0    0  0.00000000000E+00  0.00000000000E+00 -0.37517604604E+03  0.70723484927E+03  0.59951986331E+03 0.  0.
        1    1    3    3  502    0 -0.15125198546E+03  0.22636757918E+03 -0.33557215537E+03  0.43212048725E+03  0.50400001928E-02 0. -1.
       -1    1    3    3    0  502  0.15125198546E+03 -0.22636757918E+03 -0.39603890671E+02  0.27511436203E+03  0.50400001928E-02 0.  1.
</event>
<event>
 5   0  0.5765045E-03  0.6010218E+03  0.7818609E-02  0.9903289E-01
        1   -1    0    0  501    0  0.00000000000E+00  0.00000000000E+00  0.11767909123E+04  0.11767909123E+04  0.50400001928E-02 0.  1.
       -1   -1    0    0    0  501  0.00000000000E+00  0.00000000000E+00 -0.76739873702E+02  0.76739873868E+02  0.50400001928E-02 0. -1.
    10030    2    1    2    0    0  0.00000000000E+00  0.00000000000E+00  0.11000510386E+04  0.12535307862E+04  0.60102175034E+03 0.  0.
        1    1    3    3  502    0 -0.27927214764E+03 -0.39008656369E+02  0.76669581324E+03  0.81690701905E+03  0.50400001928E-02 0.  1.
       -1    1    3    3    0  502  0.27927214764E+03  0.39008656369E+02  0.33335522536E+03  0.43662376713E+03  0.50400001928E-02 0. -1.
</event>
<event>
 5   0  0.5819446E-03  0.5842839E+03  0.7818609E-02  0.9938559E-01
       -1   -1    0    0    0  501  0.00000000000E+00  0.00000000000E+00  0.18488892901E+03  0.18488892908E+03  0.50400001928E-02 0.  1.
        1   -1    0    0  501    0  0.00000000000E+00  0.00000000000E+00 -0.46161185009E+03  0.46161185012E+03  0.50400001928E-02 0. -1.
    10030    2    1    2    0    0  0.00000000000E+00  0.00000000000E+00 -0.27672292108E+03  0.64650077920E+03  0.58428390569E+03 0.  0.
        5    1    3    3  502    0  0.19633020299E+03  0.62534944186E+02  0.90733268512E+02  0.22519055012E+03  0.46999998093E+01 0.  1.
       -5    1    3    3    0  502 -0.19633020299E+03 -0.62534944186E+02 -0.36745618960E+03  0.42131022908E+03  0.46999998093E+01 0. -1.
</event>
<event>
 5   0  0.9028473E-03  0.5993360E+03  0.7818609E-02  0.9906785E-01
        2   -1    0    0  501    0  0.00000000000E+00  0.00000000000E+00  0.55493074566E+03  0.55493074567E+03  0.25500000920E-02 0. -1.
       -2   -1    0    0    0  501  0.00000000000E+00  0.00000000000E+00 -0.16182363690E+03  0.16182363692E+03  0.25500000920E-02 0.  1.
    10030    2    1    2    0    0  0.00000000000E+00  0.00000000000E+00  0.39310710877E+03  0.71675438259E+03  0.59933600425E+03 0.  0.
        1    1    3    3  502    0  0.11598009323E+03  0.95269847910E+02  0.50673869238E+03  0.52849960106E+03  0.50400001928E-02 0. -1.
       -1    1    3    3    0  502 -0.11598009323E+03 -0.95269847910E+02 -0.11363158361E+03  0.18825478152E+03  0.50400001928E-02 0.  1.
</event>
<event>
 5   0  0.5819446E-03  0.5993871E+03  0.7818609E-02  0.9906679E-01
       -1   -1    0    0    0  501  0.00000000000E+00  0.00000000000E+00  0.51946184784E+02  0.51946185029E+02  0.50400001928E-02 0.  1.
        1   -1    0    0  501    0  0.00000000000E+00  0.00000000000E+00 -0.17290242821E+04  0.17290242821E+04  0.50400001928E-02 0. -1.
    10030    2    1    2    0    0  0.00000000000E+00  0.00000000000E+00 -0.16770780974E+04  0.17809704672E+04  0.59938707053E+03 0.  0.
        5    1    3    3  502    0 -0.21449657363E+03 -0.18539146606E+03 -0.11268542663E+04  0.11619816708E+04  0.46999998093E+01 0.  1.
       -5    1    3    3    0  502  0.21449657363E+03  0.18539146606E+03 -0.55022383105E+03  0.61898879638E+03  0.46999998093E+01 0. -1.
</event>
<event>
 5   0  0.5790967E-03  0.6003173E+03  0.7818609E-02  0.9904748E-01
        1   -1    0    0  501    0  0.00000000000E+00  0.00000000000E+00  0.25799682429E+03  0.25799682433E+03  0.50400001928E-02 0. -1.
       -1   -1    0    0    0  501  0.00000000000E+00  0.00000000000E+00 -0.34921057628E+03  0.34921057631E+03  0.50400001928E-02 0.  1.
    10030    2    1    2    0    0  0.00000000000E+00  0.00000000000E+00 -0.91213751992E+02  0.60720740065E+03  0.60031731513E+03 0.  0.
        3    1    3    3  502    0 -0.17964891805E+03 -0.20918776808E+03  0.74337258203E+02  0.28558587890E+03  0.10100000352E+00 0. -1.
       -3    1    3    3    0  502  0.17964891805E+03  0.20918776808E+03 -0.16555101020E+03  0.32162152174E+03  0.10100000352E+00 0.  1.
</event>
<event>
 5   0  0.5891927E-03  0.6010699E+03  0.7818609E-02  0.9903189E-01
       -1   -1    0    0    0  501  0.00000000000E+00  0.00000000000E+00  0.17992111922E+03  0.17992111929E+03  0.50400001928E-02 0. -1.
        1   -1    0    0  501    0  0.00000000000E+00  0.00000000000E+00 -0.50200471009E+03  0.50200471012E+03  0.50400001928E-02 0.  1.
    10030    2    1    2    0    0  0.00000000000E+00  0.00000000000E+00 -0.32208359088E+03  0.68192582941E+03  0.60106987722E+03 0.  0.
        4    1    3    3  502    0  0.97016896420E+02  0.27936928063E+03 -0.22171648875E+03  0.36962046403E+03  0.12699999809E+01 0.  1.
       -4    1    3    3    0  502 -0.97016896420E+02 -0.27936928063E+03 -0.10036710213E+03  0.31230536537E+03  0.12699999809E+01 0. -1.
</event>
<event>
 5   0  0.9162342E-03  0.5992508E+03  0.7818609E-02  0.9906962E-01
       -2   -1    0    0    0  501  0.00000000000E+00  0.00000000000E+00  0.16824764470E+03  0.16824764472E+03  0.25500000920E-02 0.  1.
        2   -1    0    0  501    0  0.00000000000E+00  0.00000000000E+00 -0.53359075069E+03  0.53359075069E+03  0.25500000920E-02 0. -1.
    10030    2    1    2    0    0  0.00000000000E+00  0.00000000000E+00 -0.36534310598E+03  0.70183839542E+03  0.59925082244E+03 0.  0.
        5    1    3    3  502    0  0.29790582206E+03 -0.18979666882E+02 -0.15292254697E+03  0.33543330476E+03  0.46999998093E+01 0.  1.
       -5    1    3    3    0  502 -0.29790582206E+03  0.18979666882E+02 -0.21242055902E+03  0.36640509066E+03  0.46999998093E+01 0. -1.
</event>
<event>
 5   0  0.9028473E-03  0.6017604E+03  0.7818609E-02  0.9901761E-01
        2   -1    0    0  501    0  0.00000000000E+00  0.00000000000E+00  0.30925946551E+03  0.30925946552E+03  0.25500000920E-02 0.  1.
       -2   -1    0    0    0  501  0.00000000000E+00  0.00000000000E+00 -0.29272795252E+03  0.29272795253E+03  0.25500000920E-02 0. -1.
    10030    2    1    2    0    0  0.00000000000E+00  0.00000000000E+00  0.16531512990E+02  0.60198741804E+03  0.60176038467E+03 0.  0.
        1    1    3    3  502    0  0.22513201800E+03 -0.73436403467E+02 -0.17741558356E+03  0.29589460995E+03  0.50400001928E-02 0. -1.
       -1    1    3    3    0  502 -0.22513201800E+03  0.73436403467E+02  0.19394709655E+03  0.30609280809E+03  0.50400001928E-02 0.  1.
</event>
<event>
 5   0  0.6078658E-03  0.5989512E+03  0.7818609E-02  0.9907584E-01
       -1   -1    0    0    0  501  0.00000000000E+00  0.00000000000E+00  0.18280781923E+03  0.18280781930E+03  0.50400001928E-02 0.  1.
        1   -1    0    0  501    0  0.00000000000E+00  0.00000000000E+00 -0.49060061190E+03  0.49060061192E+03  0.50400001928E-02 0. -1.
    10030    2    1    2    0    0  0.00000000000E+00  0.00000000000E+00 -0.30779279266E+03  0.67340843123E+03  0.59895117667E+03 0.  0.
        2    1    3    3  502    0  0.29288573198E+03 -0.57090605905E+02 -0.12535925015E+03  0.32366082692E+03  0.25500000920E-02 0.  1.
       -2    1    3    3    0  502 -0.29288573198E+03  0.57090605905E+02 -0.18243354251E+03  0.34974760431E+03  0.25500000920E-02 0. -1.
</event>
<event>
 5   0  0.5819446E-03  0.5984706E+03  0.7818609E-02  0.9908584E-01
        1   -1    0    0  501    0  0.00000000000E+00  0.00000000000E+00  0.83492777058E+03  0.83492777060E+03  0.50400001928E-02 0. -1.
       -1   -1    0    0    0  501  0.00000000000E+00  0.00000000000E+00 -0.10724493364E+03  0.10724493376E+03  0.50400001928E-02 0.  1.
    10030    2    1    2    0    0  0.00000000000E+00  0.00000000000E+00  0.72768283694E+03  0.94217270436E+03  0.59847062890E+03 0.  0.
        5    1    3    3  502    0  0.23236711712E+03  0.14299003188E+03  0.17052231636E+03  0.32177721596E+03  0.46999998093E+01 0. -1.
       -5    1    3    3    0  502 -0.23236711712E+03 -0.14299003188E+03  0.55716052057E+03  0.62039548840E+03  0.46999998093E+01 0.  1.
</event>
<event>
 5   0  0.9822607E-03  0.5954837E+03  0.7818609E-02  0.9914821E-01
       -2   -1    0    0    0  501  0.00000000000E+00  0.00000000000E+00  0.13389783079E+03  0.13389783081E+03  0.25500000920E-02 0.  1.
        2   -1    0    0  501    0  0.00000000000E+00  0.00000000000E+00 -0.66207348187E+03  0.66207348187E+03  0.25500000920E-02 0. -1.
    10030    2    1    2    0    0  0.00000000000E+00  0.00000000000E+00 -0.52817565108E+03  0.79597131269E+03  0.59548367923E+03 0.  0.
        3    1    3    3  502    0 -0.23979335907E+03  0.16964905820E+03 -0.32914084250E+03  0.44115231203E+03  0.10100000352E+00 0. -1.
       -3    1    3    3    0  502  0.23979335907E+03 -0.16964905820E+03 -0.19903480858E+03  0.35481900066E+03  0.10100000352E+00 0.  1.
</event>
<event>
 5   0  0.9028473E-03  0.5997640E+03  0.7818609E-02  0.9905896E-01
       -2   -1    0    0    0  501  0.00000000000E+00  0.00000000000E+00  0.13083709213E+03  0.13083709215E+03  0.25500000920E-02 0. -1.
        2   -1    0    0  501    0  0.00000000000E+00  0.00000000000E+00 -0.68733720692E+03  0.68733720693E+03  0.25500000920E-02 0.  1.
    10030    2    1    2    0    0  0.00000000000E+00  0.00000000000E+00 -0.55650011479E+03  0.81817429908E+03  0.59976395850E+03 0.  0.
        1    1    3    3  502    0 -0.12026319269E+03 -0.27376785037E+03 -0.24722837468E+03  0.38798703675E+03  0.50400001928E-02 0.  1.
       -1    1    3    3    0  502  0.12026319269E+03  0.27376785037E+03 -0.30927174011E+03  0.43018726233E+03  0.50400001928E-02 0. -1.
</event>
<event>
 5   0  0.3806250E-03  0.5993995E+03  0.7818609E-02  0.9906653E-01
       -3   -1    0    0    0  501  0.00000000000E+00  0.00000000000E+00  0.16063448687E+03  0.16063451862E+03  0.10100000352E+00 0. -1.
        3   -1    0    0  501    0  0.00000000000E+00  0.00000000000E+00 -0.55915720889E+03  0.55915721801E+03  0.10100000352E+00 0.  1.
    10030    2    1    2    0    0  0.00000000000E+00  0.00000000000E+00 -0.39852272203E+03  0.71979173663E+03  0.59939951964E+03 0.  0.
        4    1    3    3  502    0  0.76920184230E+02 -0.22156298141E+03  0.24792074671E+02  0.23584556248E+03  0.12699999809E+01 0. -1.
       -4    1    3    3    0  502 -0.76920184230E+02  0.22156298141E+03 -0.42331479670E+03  0.48394617415E+03  0.12699999809E+01 0.  1.
</event>
<event>
 5   0  0.5819446E-03  0.6043096E+03  0.7818609E-02  0.9896505E-01
       -1   -1    0    0    0  501  0.00000000000E+00  0.00000000000E+00  0.22533578578E+03  0.22533578583E+03  0.50400001928E-02 0. -1.
        1   -1    0    0  501    0  0.00000000000E+00  0.00000000000E+00 -0.40516210571E+03  0.40516210574E+03  0.50400001928E-02 0.  1.
    10030    2    1    2    0    0  0.00000000000E+00  0.00000000000E+00 -0.17982631993E+03  0.63049789157E+03  0.60430959444E+03 0.  0.
        5    1    3    3  502    0 -0.27998869620E+03 -0.34344441560E+02  0.22951582151E+02  0.28305843176E+03  0.46999998093E+01 0. -1.
       -5    1    3    3    0  502  0.27998869620E+03  0.34344441560E+02 -0.20277790208E+03  0.34743945982E+03  0.46999998093E+01 0.  1.
</event>
<event>
 5   0  0.6078658E-03  0.6027098E+03  0.7818609E-02  0.9899800E-01
       -1   -1    0    0    0  501  0.00000000000E+00  0.00000000000E+00  0.14985263172E+03  0.14985263180E+03  0.50400001928E-02 0.  1.
        1   -1    0    0  501    0  0.00000000000E+00  0.00000000000E+00 -0.60602728916E+03  0.60602728918E+03  0.50400001928E-02 0. -1.
    10030    2    1    2    0    0  0.00000000000E+00  0.00000000000E+00 -0.45617465744E+03  0.75587992098E+03  0.60270982807E+03 0.  0.
        2    1    3    3  502    0  0.12828707147E+03 -0.22544395761E+03 -0.42047450038E+03  0.49404590495E+03  0.25500000920E-02 0. -1.
       -2    1    3    3    0  502 -0.12828707147E+03  0.22544395761E+03 -0.35700157064E+02  0.26183401603E+03  0.25500000920E-02 0.  1.
</event>
<event>
 5   0  0.5819446E-03  0.5950244E+03  0.7818609E-02  0.9915783E-01
        1   -1    0    0  501    0  0.00000000000E+00  0.00000000000E+00  0.82473664915E+02  0.82473665069E+02  0.50400001928E-02 0.  1.
       -1   -1    0    0    0  501  0.00000000000E+00  0.00000000000E+00 -0.10732335684E+04  0.10732335684E+04  0.50400001928E-02 0. -1.
    10030    2    1    2    0    0  0.00000000000E+00  0.00000000000E+00 -0.99075990346E+03  0.11557072335E+04  0.59502438871E+03 0.  0.
        5    1    3    3  502    0 -0.13539276555E+03  0.16625529273E+02  0.18073811477E+02  0.13768210431E+03  0.46999998093E+01 0.  1.
       -5    1    3    3    0  502  0.13539276555E+03 -0.16625529273E+02 -0.10088337149E+04  0.10180251291E+04  0.46999998093E+01 0. -1.
</event>
<event>
 5   0  0.6078658E-03  0.5995564E+03  0.7818609E-02  0.9906327E-01
        1   -1    0    0  501    0  0.00000000000E+00  0.00000000000E+00  0.50174520146E+03  0.50174520149E+03  0.50400001928E-02 0.  1.
       -1   -1    0    0    0  501  0.00000000000E+00  0.00000000000E+00 -0.17910874689E+03  0.17910874696E+03  0.50400001928E-02 0. -1.
    10030    2    1    2    0    0  0.00000000000E+00  0.00000000000E+00  0.32263645457E+03  0.68085394845E+03  0.59955635040E+03 0.  0.
        2    1    3    3  502    0  0.26850537826E+03  0.80711655320E+02  0.28180624722E+03  0.39752266657E+03  0.25500000920E-02 0.  1.
       -2    1    3    3    0  502 -0.26850537826E+03 -0.80711655320E+02  0.40830207355E+02  0.28333128189E+03  0.25500000920E-02 0. -1.
</event>
<event>
 5   0  0.5819446E-03  0.5995780E+03  0.7818609E-02  0.9906282E-01
       -1   -1    0    0    0  501  0.00000000000E+00  0.00000000000E+00  0.41430347359E+03  0.41430347362E+03  0.50400001928E-02 0.  1.
        1   -1    0    0  501    0  0.00000000000E+00  0.00000000000E+00 -0.21692657453E+03  0.21692657459E+03  0.50400001928E-02 0. -1.
    10030    2    1    2    0    0  0.00000000000E+00  0.00000000000E+00  0.19737689906E+03  0.63123004820E+03  0.59957796280E+03 0.  0.
        5    1    3    3  502    0 -0.11525492606E+03 -0.27579343127E+03  0.75015201866E+02  0.30821272722E+03  0.46999998093E+01 0. -1.
       -5    1    3    3    0  502  0.11525492606E+03  0.27579343127E+03  0.12236169719E+03  0.32301732098E+03  0.46999998093E+01 0.  1.
</event>
<event>
 5   0  0.3806250E-03  0.6006490E+03  0.7818609E-02  0.9904060E-01
        4   -1    0    0  501    0  0.00000000000E+00  0.00000000000E+00  0.15366556659E+04  0.15366561907E+04  0.12699999809E+01 0. -1.
       -4   -1    0    0    0  501  0.00000000000E+00  0.00000000000E+00 -0.58688126271E+02  0.58701865943E+02  0.12699999809E+01 0.  1.
    10030    2    1    2    0    0  0.00000000000E+00  0.00000000000E+00  0.14779675396E+04  0.15953580566E+04  0.60064904954E+03 0.  0.
        4    1    3    3  502    0 -0.82404598840E+02  0.22991983753E+03  0.27482266304E+03  0.36767208028E+03  0.12699999809E+01 0. -1.
       -4    1    3    3    0  502  0.82404598840E+02 -0.22991983753E+03  0.12031448766E+04  0.12276859763E+04  0.12699999809E+01 0.  1.
</event>
<event>
 5   0  0.9822607E-03  0.6011499E+03  0.7818609E-02  0.9903023E-01
        2   -1    0    0  501    0  0.00000000000E+00  0.00000000000E+00  0.10033897686E+04  0.10033897686E+04  0.25500000920E-02 0. -1.
       -2   -1    0    0    0  501  0.00000000000E+00  0.00000000000E+00 -0.90040082234E+02  0.90040082270E+02  0.25500000920E-02 0.  1.
    10030    2    1    2    0    0  0.00000000000E+00  0.00000000000E+00  0.91334968640E+03  0.10934298509E+04  0.60114988914E+03 0.  0.
        3    1    3    3  502    0  0.76929998642E+02 -0.13953371371E+01 -0.71823933381E+02  0.10525616022E+03  0.10100000352E+00 0.  1.
       -3    1    3    3    0  502 -0.76929998642E+02  0.13953371371E+01  0.98517361978E+03  0.98817369069E+03  0.10100000352E+00 0. -1.
</event>
<event>
 5   0  0.9391405E-03  0.5988881E+03  0.7818609E-02  0.9907715E-01
       -2   -1    0    0    0  501  0.00000000000E+00  0.00000000000E+00  0.77101650543E+02  0.77101650586E+02  0.25500000920E-02 0.  1.
        2   -1    0    0  501    0  0.00000000000E+00  0.00000000000E+00 -0.11629679858E+04  0.11629679859E+04  0.25500000920E-02 0. -1.
    10030    2    1    2    0    0  0.00000000000E+00  0.00000000000E+00 -0.10858663353E+04  0.12400696364E+04  0.59888814069E+03 0.  0.
        2    1    3    3  502    0 -0.12197790644E+03  0.14680805556E+03 -0.10206836980E+04  0.10383768229E+04  0.25500000920E-02 0. -1.
       -2    1    3    3    0  502  0.12197790644E+03 -0.14680805556E+03 -0.65182637275E+02  0.20169281357E+03  0.25500000920E-02 0.  1.
</event>
<event>
 5   0  0.9028473E-03  0.6069051E+03  0.7818609E-02  0.9891183E-01
       -2   -1    0    0    0  501  0.00000000000E+00  0.00000000000E+00  0.13014474922E+03  0.13014474924E+03  0.25500000920E-02 0. -1.
        2   -1    0    0  501    0  0.00000000000E+00  0.00000000000E+00 -0.70754652405E+03  0.70754652405E+03  0.25500000920E-02 0.  1.
    10030    2    1    2    0    0  0.00000000000E+00  0.00000000000E+00 -0.57740177483E+03  0.83769127330E+03  0.60690514892E+03 0.  0.
        1    1    3    3  502    0  0.24559729372E+03  0.62993319216E+02 -0.51882614549E+03  0.57746580697E+03  0.50400001928E-02 0.  1.
       -1    1    3    3    0  502 -0.24559729372E+03 -0.62993319216E+02 -0.58575629338E+02  0.26022546633E+03  0.50400001928E-02 0. -1.
</event>
<event>
 5   0  0.6078658E-03  0.6006897E+03  0.7818609E-02  0.9903976E-01
        1   -1    0    0  501    0  0.00000000000E+00  0.00000000000E+00  0.50264343592E+03  0.50264343594E+03  0.50400001928E-02 0.  1.
       -1   -1    0    0    0  501  0.00000000000E+00  0.00000000000E+00 -0.17946524739E+03  0.17946524746E+03  0.50400001928E-02 0. -1.
    10030    2    1    2    0    0  0.00000000000E+00  0.00000000000E+00  0.32317818853E+03  0.68210868340E+03  0.60068969895E+03 0.  0.
        2    1    3    3  502    0 -0.23765526417E+03 -0.11372219607E+02 -0.46552087830E+02  0.24243854656E+03  0.25500000920E-02 0. -1.
       -2    1    3    3    0  502  0.23765526417E+03  0.11372219607E+02  0.36973027636E+03  0.43967013684E+03  0.25500000920E-02 0.  1.
</event>
<event>
 5   0  0.9303190E-03  0.5998424E+03  0.7818609E-02  0.9905733E-01
        2   -1    0    0  501    0  0.00000000000E+00  0.00000000000E+00  0.37398703812E+03  0.37398703813E+03  0.25500000920E-02 0.  1.
       -2   -1    0    0    0  501  0.00000000000E+00  0.00000000000E+00 -0.24052361672E+03  0.24052361673E+03  0.25500000920E-02 0. -1.
    10030    2    1    2    0    0  0.00000000000E+00  0.00000000000E+00  0.13346342140E+03  0.61451065486E+03  0.59984236270E+03 0.  0.
        4    1    3    3  502    0  0.33697855653E+02  0.20364181026E+03  0.28964294536E+03  0.35566863941E+03  0.12699999809E+01 0.  1.
       -4    1    3    3    0  502 -0.33697855653E+02 -0.20364181026E+03 -0.15617952396E+03  0.25884201546E+03  0.12699999809E+01 0. -1.
</event>
<event>
 5   0  0.5891927E-03  0.5983379E+03  0.7818609E-02  0.9908860E-01
        1   -1    0    0  501    0  0.00000000000E+00  0.00000000000E+00  0.11058021998E+04  0.11058021998E+04  0.50400001928E-02 0.  1.
       -1   -1    0    0    0  501  0.00000000000E+00  0.00000000000E+00 -0.80938577609E+02  0.80938577766E+02  0.50400001928E-02 0. -1.
    10030    2    1    2    0    0  0.00000000000E+00  0.00000000000E+00  0.10248636222E+04  0.11867407775E+04  0.59833788871E+03 0.  0.
        4    1    3    3  502    0  0.16091563888E+03  0.23469961024E+01  0.10126294654E+04  0.10253386750E+04  0.12699999809E+01 0.  1.
       -4    1    3    3    0  502 -0.16091563888E+03 -0.23469961024E+01  0.12234156737E+02  0.16140210259E+03  0.12699999809E+01 0. -1.
</event>
<event>
 5   0  0.6078658E-03  0.5999816E+03  0.7818609E-02  0.9905444E-01
       -1   -1    0    0    0  501  0.00000000000E+00  0.00000000000E+00  0.12182136558E+03  0.12182136568E+03  0.50400001928E-02 0. -1.
        1   -1    0    0  501    0  0.00000000000E+00  0.00000000000E+00 -0.73874133524E+03  0.73874133526E+03  0.50400001928E-02 0.  1.
    10030    2    1    2    0    0  0.00000000000E+00  0.00000000000E+00 -0.61691996966E+03  0.86056270094E+03  0.59998159412E+03 0.  0.
        2    1    3    3  502    0 -0.80338797814E+02 -0.27628325244E+03 -0.18668907420E+03  0.34298625110E+03  0.25500000920E-02 0. -1.
       -2    1    3    3    0  502  0.80338797814E+02  0.27628325244E+03 -0.43023089546E+03  0.51757644984E+03  0.25500000920E-02 0.  1.
</event>
<event>
 5   0  0.9822607E-03  0.6004638E+03  0.7818609E-02  0.9904444E-01
       -2   -1    0    0    0  501  0.00000000000E+00  0.00000000000E+00  0.49236025737E+02  0.49236025803E+02  0.25500000920E-02 0.  1.
        2   -1    0    0  501    0  0.00000000000E+00  0.00000000000E+00 -0.18307568680E+04  0.18307568680E+04  0.25500000920E-02 0. -1.
    10030    2    1    2    0    0  0.00000000000E+00  0.00000000000E+00 -0.17815208423E+04  0.18799928938E+04  0.60046379520E+03 0.  0.
        3    1    3    3  502    0 -0.40603198153E+02 -0.27463911045E+03 -0.12486146559E+04  0.12791066531E+04  0.10100000352E+00 0. -1.
       -3    1    3    3    0  502  0.40603198153E+02  0.27463911045E+03 -0.53290618636E+03  0.60088624078E+03  0.10100000352E+00 0.  1.
</event>
<event>
 5   0  0.5790967E-03  0.6004573E+03  0.7818609E-02  0.9904458E-01
       -1   -1    0    0    0  501  0.00000000000E+00  0.00000000000E+00  0.23542998817E+03  0.23542998822E+03  0.50400001928E-02 0. -1.
        1   -1    0    0  501    0  0.00000000000E+00  0.00000000000E+00 -0.38286218779E+03  0.38286218783E+03  0.50400001928E-02 0.  1.
    10030    2    1    2    0    0  0.00000000000E+00  0.00000000000E+00 -0.14743219963E+03  0.61829217605E+03  0.60045729363E+03 0.  0.
        3    1    3    3  502    0 -0.21805212250E+03 -0.64441464391E+02  0.12816277995E+03  0.26100792866E+03  0.10100000352E+00 0. -1.
       -3    1    3    3    0  502  0.21805212250E+03  0.64441464391E+02 -0.27559497958E+03  0.35728424738E+03  0.10100000352E+00 0.  1.
</event>
<event>
 5   0  0.9822607E-03  0.6012735E+03  0.7818609E-02  0.9902767E-01
        2   -1    0    0  501    0  0.00000000000E+00  0.00000000000E+00  0.69359061449E+03  0.69359061450E+03  0.25500000920E-02 0. -1.
       -2   -1    0    0    0  501  0.00000000000E+00  0.00000000000E+00 -0.13031096994E+03  0.13031096996E+03  0.25500000920E-02 0.  1.
    10030    2    1    2    0    0  0.00000000000E+00  0.00000000000E+00  0.56327964455E+03  0.82390158446E+03  0.60127353418E+03 0.  0.
        3    1    3    3  502    0 -0.17648019495E+03 -0.24017588091E+03  0.22764489307E+03  0.37503589231E+03  0.10100000352E+00 0.  1.
       -3    1    3    3    0  502  0.17648019495E+03  0.24017588091E+03  0.33563475149E+03  0.44886569215E+03  0.10100000352E+00 0. -1.
</event>
<event>
 5   0  0.3806250E-03  0.5998694E+03  0.7818609E-02  0.9905677E-01
        3   -1    0    0  501    0  0.00000000000E+00  0.00000000000E+00  0.16767791872E+03  0.16767794914E+03  0.10100000352E+00 0.  1.
       -3   -1    0    0    0  501  0.00000000000E+00  0.00000000000E+00 -0.53650951128E+03  0.53650952079E+03  0.10100000352E+00 0. -1.
    10030    2    1    2    0    0  0.00000000000E+00  0.00000000000E+00 -0.36883159256E+03  0.70418746992E+03  0.59986936005E+03 0.  0.
        4    1    3    3  502    0 -0.14588263299E+03 -0.16820914878E+03  0.51486218716E+02  0.22853556388E+03  0.12699999809E+01 0.  1.
       -4    1    3    3    0  502  0.14588263299E+03  0.16820914878E+03 -0.42031781128E+03  0.47565190604E+03  0.12699999809E+01 0. -1.
</event>
<event>
 5   0  0.5891927E-03  0.6001257E+03  0.7818609E-02  0.9905145E-01
        1   -1    0    0  501    0  0.00000000000E+00  0.00000000000E+00  0.10647556177E+04  0.10647556177E+04  0.50400001928E-02 0. -1.
       -1   -1    0    0    0  501  0.00000000000E+00  0.00000000000E+00 -0.84561859400E+02  0.84561859550E+02  0.50400001928E-02 0.  1.
    10030    2    1    2    0    0  0.00000000000E+00  0.00000000000E+00  0.98019375831E+03  0.11493174773E+04  0.60012570328E+03 0.  0.
        4    1    3    3  502    0 -0.41231661796E+02 -0.78971541794E+02  0.10388388329E+04  0.10426525251E+04  0.12699999809E+01 0. -1.
       -4    1    3    3    0  502  0.41231661796E+02  0.78971541794E+02 -0.58645074625E+02  0.10666495219E+03  0.12699999809E+01 0.  1.
</event>
<event>
 5   0  0.5819446E-03  0.5934248E+03  0.7818609E-02  0.9919142E-01
       -1   -1    0    0    0  501  0.00000000000E+00  0.00000000000E+00  0.22840287713E+03  0.22840287719E+03  0.50400001928E-02 0. -1.
        1   -1    0    0  501    0  0.00000000000E+00  0.00000000000E+00 -0.38545155918E+03  0.38545155921E+03  0.50400001928E-02 0.  1.
    10030    2    1    2    0    0  0.00000000000E+00  0.00000000000E+00 -0.15704868204E+03  0.61385443640E+03  0.59342478930E+03 0.  0.
        5    1    3    3  502    0 -0.82772915162E+02 -0.12750485107E+03  0.18501565116E+03  0.23950307660E+03  0.46999998093E+01 0. -1.
       -5    1    3    3    0  502  0.82772915162E+02  0.12750485107E+03 -0.34206433320E+03  0.37435135979E+03  0.46999998093E+01 0.  1.
</event>
<event>
 5   0  0.9162342E-03  0.6017114E+03  0.7818609E-02  0.9901862E-01
        2   -1    0    0  501    0  0.00000000000E+00  0.00000000000E+00  0.99075982264E+03  0.99075982264E+03  0.25500000920E-02 0.  1.
       -2   -1    0    0    0  501  0.00000000000E+00  0.00000000000E+00 -0.91358310930E+02  0.91358310966E+02  0.25500000920E-02 0. -1.
    10030    2    1    2    0    0  0.00000000000E+00  0.00000000000E+00  0.89940151171E+03  0.10821181336E+04  0.60171137252E+03 0.  0.
        5    1    3    3  502    0 -0.30994237368E+02  0.31918407085E+02  0.98474422700E+03  0.98575996575E+03  0.46999998093E+01 0.  1.
       -5    1    3    3    0  502  0.30994237368E+02 -0.31918407085E+02 -0.85342715295E+02  0.96358167858E+02  0.46999998093E+01 0. -1.
</event>
<event>
 5   0  0.5765045E-03  0.5973481E+03  0.7818609E-02  0.9910923E-01
        1   -1    0    0  501    0  0.00000000000E+00  0.00000000000E+00  0.28944439955E+03  0.28944439960E+03  0.50400001928E-02 0.  1.
       -1   -1    0    0    0  501  0.00000000000E+00  0.00000000000E+00 -0.30819804825E+03  0.30819804829E+03  0.50400001928E-02 0. -1.
    10030    2    1    2    0    0  0.00000000000E+00  0.00000000000E+00 -0.18753648696E+02  0.59764244789E+03  0.59734813650E+03 0.  0.
        1    1    3    3  502    0 -0.78249477523E+02 -0.27305878588E+02  0.27770985626E+03  0.28981262228E+03  0.50400001928E-02 0.  1.
       -1    1    3    3    0  502  0.78249477523E+02  0.27305878588E+02 -0.29646350496E+03  0.30782982561E+03  0.50400001928E-02 0. -1.
</event>
<event>
 5   0  0.9162342E-03  0.6022445E+03  0.7818609E-02  0.9900760E-01
       -2   -1    0    0    0  501  0.00000000000E+00  0.00000000000E+00  0.63239663312E+02  0.63239663363E+02  0.25500000920E-02 0. -1.
        2   -1    0    0  501    0  0.00000000000E+00  0.00000000000E+00 -0.14338251038E+04  0.14338251038E+04  0.25500000920E-02 0.  1.
    10030    2    1    2    0    0  0.00000000000E+00  0.00000000000E+00 -0.13705854405E+04  0.14970647671E+04  0.60224452459E+03 0.  0.
        5    1    3    3  502    0 -0.24167490705E+03  0.12633392501E+03 -0.36806702948E+03  0.45810746501E+03  0.46999998093E+01 0. -1.
       -5    1    3    3    0  502  0.24167490705E+03 -0.12633392501E+03 -0.10025184110E+04  0.10389573021E+04  0.46999998093E+01 0.  1.
</event>
<event>
 5   0  0.6078658E-03  0.6024410E+03  0.7818609E-02  0.9900355E-01
       -1   -1    0    0    0  501  0.00000000000E+00  0.00000000000E+00  0.31383445415E+03  0.31383445419E+03  0.50400001928E-02 0.  1.
        1   -1    0    0  501    0  0.00000000000E+00  0.00000000000E+00 -0.28911353864E+03  0.28911353869E+03  0.50400001928E-02 0. -1.
    10030    2    1    2    0    0  0.00000000000E+00  0.00000000000E+00  0.24720915502E+02  0.60294799288E+03  0.60244099997E+03 0.  0.
        2    1    3    3  502    0  0.27648727392E+03 -0.33700804078E+02 -0.10242185794E+03  0.29676791240E+03  0.25500000920E-02 0.  1.
       -2    1    3    3    0  502 -0.27648727392E+03  0.33700804078E+02  0.12714277345E+03  0.30618008048E+03  0.25500000920E-02 0. -1.
</event>
<event>
 5   0  0.5765045E-03  0.6020326E+03  0.7818609E-02  0.9901198E-01
       -1   -1    0    0    0  501  0.00000000000E+00  0.00000000000E+00  0.36956487106E+03  0.36956487109E+03  0.50400001928E-02 0. -1.
        1   -1    0    0  501    0  0.00000000000E+00  0.00000000000E+00 -0.24518241600E+03  0.24518241605E+03  0.50400001928E-02 0.  1.
    10030    2    1    2    0    0  0.00000000000E+00  0.00000000000E+00  0.12438245506E+03  0.61474728714E+03  0.60203258377E+03 0.  0.
        1    1    3    3  502    0 -0.53660673299E+02  0.26460229969E+03  0.19810744008E+03  0.33487371157E+03  0.50400001928E-02 0. -1.
       -1    1    3    3    0  502  0.53660673299E+02 -0.26460229969E+03 -0.73724985021E+02  0.27987357557E+03  0.50400001928E-02 0.  1.
</event>
<event>
 5   0  0.3806250E-03  0.6006377E+03  0.7818609E-02  0.9904084E-01
       -3   -1    0    0    0  501  0.00000000000E+00  0.00000000000E+00  0.21810252241E+03  0.21810254580E+03  0.10100000352E+00 0. -1.
        3   -1    0    0  501    0  0.00000000000E+00  0.00000000000E+00 -0.41352753924E+03  0.41352755158E+03  0.10100000352E+00 0.  1.
    10030    2    1    2    0    0  0.00000000000E+00  0.00000000000E+00 -0.19542501683E+03  0.63163009737E+03  0.60063769670E+03 0.  0.
        4    1    3    3  502    0 -0.20740138872E+02  0.88379106810E+02 -0.39875061323E+03  0.40895560191E+03  0.12699999809E+01 0.  1.
       -4    1    3    3    0  502  0.20740138872E+02 -0.88379106810E+02  0.20332559640E+03  0.22267449547E+03  0.12699999809E+01 0. -1.
</event>
<event>
 5   0  0.5819446E-03  0.5993553E+03  0.7818609E-02  0.9906745E-01
       -1   -1    0    0    0  501  0.00000000000E+00  0.00000000000E+00  0.25134724603E+03  0.25134724608E+03  0.50400001928E-02 0.  1.
        1   -1    0    0  501    0  0.00000000000E+00  0.00000000000E+00 -0.35730123941E+03  0.35730123944E+03  0.50400001928E-02 0. -1.
    10030    2    1    2    0    0  0.00000000000E+00  0.00000000000E+00 -0.10595399338E+03  0.60864848552E+03  0.59935526211E+03 0.  0.
        5    1    3    3  502    0  0.15849674621E+03  0.19843138330E+03  0.10851185888E+03  0.27621213940E+03  0.46999998093E+01 0.  1.
       -5    1    3    3    0  502 -0.15849674621E+03 -0.19843138330E+03 -0.21446585226E+03  0.33243634612E+03  0.46999998093E+01 0. -1.
</event>
<event>
 5   0  0.9391405E-03  0.5996043E+03  0.7818609E-02  0.9906227E-01
       -2   -1    0    0    0  501  0.00000000000E+00  0.00000000000E+00  0.19619682574E+03  0.19619682576E+03  0.25500000920E-02 0. -1.
        2   -1    0    0  501    0  0.00000000000E+00  0.00000000000E+00 -0.45811812655E+03  0.45811812656E+03  0.25500000920E-02 0.  1.
    10030    2    1    2    0    0  0.00000000000E+00  0.00000000000E+00 -0.26192130081E+03  0.65431495232E+03  0.59960427701E+03 0.  0.
        2    1    3    3  502    0 -0.13330932271E+03 -0.46768799702E+02  0.15759593370E+03  0.21164870535E+03  0.25500000920E-02 0. -1.
       -2    1    3    3    0  502  0.13330932271E+03  0.46768799702E+02 -0.41951723451E+03  0.44266624697E+03  0.25500000920E-02 0.  1.
</event>
<event>
 5   0  0.9028473E-03  0.6002027E+03  0.7818609E-02  0.9904986E-01
       -2   -1    0    0    0  501  0.00000000000E+00  0.00000000000E+00  0.17317312201E+03  0.17317312203E+03  0.25500000920E-02 0.  1.
        2   -1    0    0  501    0  0.00000000000E+00  0.00000000000E+00 -0.52006229313E+03  0.52006229313E+03  0.25500000920E-02 0. -1.
    10030    2    1    2    0    0  0.00000000000E+00  0.00000000000E+00 -0.34688917111E+03  0.69323541517E+03  0.60020266894E+03 0.  0.
        1    1    3    3  502    0  0.20927676385E+03  0.17165713814E+03 -0.32314051056E+03  0.42152428940E+03  0.50400001928E-02 0. -1.
       -1    1    3    3    0  502 -0.20927676385E+03 -0.17165713814E+03 -0.23748660554E+02  0.27171112577E+03  0.50400001928E-02 0.  1.
</event>
<event>
 5   0  0.5891927E-03  0.6010598E+03  0.7818609E-02  0.9903210E-01
       -1   -1    0    0    0  501  0.00000000000E+00  0.00000000000E+00  0.30615163806E+03  0.30615163810E+03  0.50400001928E-02 0. -1.
        1   -1    0    0  501    0  0.00000000000E+00  0.00000000000E+00 -0.29501135821E+03  0.29501135825E+03  0.50400001928E-02 0.  1.
    10030    2    1    2    0    0  0.00000000000E+00  0.00000000000E+00  0.11140279855E+02  0.60116299635E+03  0.60105976603E+03 0.  0.
        4    1    3    3  502    0 -0.15655183212E+03  0.19551260620E+03  0.17167979577E+03  0.30365971168E+03  0.12699999809E+01 0. -1.
       -4    1    3    3    0  502  0.15655183212E+03 -0.19551260620E+03 -0.16053951591E+03  0.29750328467E+03  0.12699999809E+01 0.  1.
</event>
<event>
 5   0  0.5790967E-03  0.6005544E+03  0.7818609E-02  0.9904257E-01
       -1   -1    0    0    0  501  0.00000000000E+00  0.00000000000E+00  0.43074523222E+03  0.43074523225E+03  0.50400001928E-02 0. -1.
        1   -1    0    0  501    0  0.00000000000E+00  0.00000000000E+00 -0.20932647881E+03  0.20932647887E+03  0.50400001928E-02 0.  1.
    10030    2    1    2    0    0  0.00000000000E+00  0.00000000000E+00  0.22141875341E+03  0.64007171113E+03  0.60055435309E+03 0.  0.
        3    1    3    3  502    0  0.18829849929E+03 -0.15778938806E+03 -0.73315241557E+02  0.25637657979E+03  0.10100000352E+00 0.  1.
       -3    1    3    3    0  502 -0.18829849929E+03  0.15778938806E+03  0.29473399497E+03  0.38369513134E+03  0.10100000352E+00 0. -1.
</event>
<event>
 5   0  0.5765045E-03  0.5996384E+03  0.7818609E-02  0.9906156E-01
        1   -1    0    0  501    0  0.00000000000E+00  0.00000000000E+00  0.39827343459E+03  0.39827343462E+03  0.50400001928E-02 0. -1.
       -1   -1    0    0    0  501  0.00000000000E+00  0.00000000000E+00 -0.22570314276E+03  0.22570314281E+03  0.50400001928E-02 0.  1.
    10030    2    1    2    0    0  0.00000000000E+00  0.00000000000E+00  0.17257029183E+03  0.62397657743E+03  0.59963844403E+03 0.  0.
        1    1    3    3  502    0  0.26545935095E+03 -0.12370085919E+03  0.19484612386E+02  0.29351357671E+03  0.50400001928E-02 0.  1.
       -1    1    3    3    0  502 -0.26545935095E+03  0.12370085919E+03  0.15308567944E+03  0.33046300072E+03  0.50400001928E-02 0. -1.
</event>
<event>
 5   0  0.6078658E-03  0.6001421E+03  0.7818609E-02  0.9905111E-01
       -1   -1    0    0    0  501  0.00000000000E+00  0.00000000000E+00  0.18994592168E+03  0.18994592174E+03  0.50400001928E-02 0.  1.
        1   -1    0    0  501    0  0.00000000000E+00  0.00000000000E+00 -0.47404355739E+03  0.47404355741E+03  0.50400001928E-02 0. -1.
    10030    2    1    2    0    0  0.00000000000E+00  0.00000000000E+00 -0.28409763571E+03  0.66398947916E+03  0.60014211801E+03 0.  0.
        2    1    3    3  502    0  0.25976448602E+03 -0.77204967732E+02 -0.28461590490E+03  0.39299415844E+03  0.25500000920E-02 0. -1.
       -2    1    3    3    0  502 -0.25976448602E+03  0.77204967732E+02  0.51826919421E+00  0.27099532071E+03  0.25500000920E-02 0.  1.
</event>
<event>
 5   0  0.9028473E-03  0.5997305E+03  0.7818609E-02  0.9905965E-01
        2   -1    0    0  501    0  0.00000000000E+00  0.00000000000E+00  0.25176150641E+04  0.25176150641E+04  0.25500000920E-02 0.  1.
       -2   -1    0    0    0  501  0.00000000000E+00  0.00000000000E+00 -0.35716006362E+02  0.35716006453E+02  0.25500000920E-02 0. -1.
    10030    2    1    2    0    0  0.00000000000E+00  0.00000000000E+00  0.24818990578E+04  0.25533310706E+04  0.59973045867E+03 0.  0.
        1    1    3    3  502    0 -0.93814825798E+02 -0.25212246439E+03  0.67690061383E+03  0.72839645772E+03  0.50400001928E-02 0. -1.
       -1    1    3    3    0  502  0.93814825798E+02  0.25212246439E+03  0.18049984439E+04  0.18249346129E+04  0.50400001928E-02 0.  1.
</event>
<event>
 5   0  0.9822607E-03  0.6057604E+03  0.7818609E-02  0.9893527E-01
        2   -1    0    0  501    0  0.00000000000E+00  0.00000000000E+00  0.10223369474E+04  0.10223369474E+04  0.25500000920E-02 0. -1.
       -2   -1    0    0    0  501  0.00000000000E+00  0.00000000000E+00 -0.89732065699E+02  0.89732065735E+02  0.25500000920E-02 0.  1.
    10030    2    1    2    0    0  0.00000000000E+00  0.00000000000E+00  0.93260488172E+03  0.11120690132E+04  0.60576036897E+03 0.  0.
        3    1    3    3  502    0 -0.13339635100E+03 -0.21600052152E+02  0.96392654750E+03  0.97335273559E+03  0.10100000352E+00 0. -1.
       -3    1    3    3    0  502  0.13339635100E+03  0.21600052152E+02 -0.31321665774E+02  0.13871627757E+03  0.10100000352E+00 0.  1.
</event>
<event>
 5   0  0.5790967E-03  0.5990991E+03  0.7818609E-02  0.9907277E-01
        1   -1    0    0  501    0  0.00000000000E+00  0.00000000000E+00  0.47205032383E+03  0.47205032386E+03  0.50400001928E-02 0. -1.
       -1   -1    0    0    0  501  0.00000000000E+00  0.00000000000E+00 -0.19008555314E+03  0.19008555321E+03  0.50400001928E-02 0.  1.
    10030    2    1    2    0    0  0.00000000000E+00  0.00000000000E+00  0.28196477069E+03  0.66213587706E+03  0.59909914687E+03 0.  0.
        3    1    3    3  502    0  0.24824235019E+03 -0.36398084787E+02  0.32184991702E+03  0.40808879461E+03  0.10100000352E+00 0. -1.
       -3    1    3    3    0  502 -0.24824235019E+03  0.36398084787E+02 -0.39885146324E+02  0.25404708245E+03  0.10100000352E+00 0.  1.
</event>
<event>
 5   0  0.9303190E-03  0.5932077E+03  0.7818609E-02  0.9919599E-01
        2   -1    0    0  501    0  0.00000000000E+00  0.00000000000E+00  0.43172204597E+03  0.43172204598E+03  0.25500000920E-02 0. -1.
       -2   -1    0    0    0  501  0.00000000000E+00  0.00000000000E+00 -0.20377425769E+03  0.20377425771E+03  0.25500000920E-02 0.  1.
    10030    2    1    2    0    0  0.00000000000E+00  0.00000000000E+00  0.22794778828E+03  0.63549630369E+03  0.59320768523E+03 0.  0.
        4    1    3    3  502    0 -0.28422943614E+03 -0.80105863673E+02  0.84268005849E+02  0.30709287109E+03  0.12699999809E+01 0.  1.
       -4    1    3    3    0  502  0.28422943614E+03  0.80105863673E+02  0.14367978243E+03  0.32840343260E+03  0.12699999809E+01 0. -1.
</event>
<event>
 5   0  0.5790967E-03  0.6004777E+03  0.7818609E-02  0.9904415E-01
        1   -1    0    0  501    0  0.00000000000E+00  0.00000000000E+00  0.11656384763E+03  0.11656384774E+03  0.50400001928E-02 0.  1.
       -1   -1    0    0    0  501  0.00000000000E+00  0.00000000000E+00 -0.77333907077E+03  0.77333907078E+03  0.50400001928E-02 0. -1.
    10030    2    1    2    0    0  0.00000000000E+00  0.00000000000E+00 -0.65677522314E+03  0.88990291852E+03  0.60047773535E+03 0.  0.
        3    1    3    3  502    0  0.24757313011E+02  0.28444869545E+03 -0.46597663893E+03  0.54649631574E+03  0.10100000352E+00 0.  1.
       -3    1    3    3    0  502 -0.24757313011E+02 -0.28444869545E+03 -0.19079858421E+03  0.34340660277E+03  0.10100000352E+00 0. -1.
</event>
<event>
 5   0  0.5790967E-03  0.6001315E+03  0.7818609E-02  0.9905133E-01
        1   -1    0    0  501    0  0.00000000000E+00  0.00000000000E+00  0.25439758151E+03  0.25439758156E+03  0.50400001928E-02 0. -1.
       -1   -1    0    0    0  501  0.00000000000E+00  0.00000000000E+00 -0.35393208065E+03  0.35393208068E+03  0.50400001928E-02 0.  1.
    10030    2    1    2    0    0  0.00000000000E+00  0.00000000000E+00 -0.99534499137E+02  0.60832966224E+03  0.60013153679E+03 0.  0.
        3    1    3    3  502    0 -0.28908982623E+03  0.15982960956E+02  0.30119700824E+02  0.29109378085E+03  0.10100000352E+00 0. -1.
       -3    1    3    3    0  502  0.28908982623E+03 -0.15982960956E+02 -0.12965419996E+03  0.31723588139E+03  0.10100000352E+00 0.  1.
</event>
<event>
 5   0  0.9822607E-03  0.6007042E+03  0.7818609E-02  0.9903946E-01
        2   -1    0    0  501    0  0.00000000000E+00  0.00000000000E+00  0.82272640314E+02  0.82272640353E+02  0.25500000920E-02 0.  1.
       -2   -1    0    0    0  501  0.00000000000E+00  0.00000000000E+00 -0.10964932299E+04  0.10964932299E+04  0.25500000920E-02 0. -1.
    10030    2    1    2    0    0  0.00000000000E+00  0.00000000000E+00 -0.10142205896E+04  0.11787658702E+04  0.60070423049E+03 0.  0.
        3    1    3    3  502    0 -0.14619467278E+03 -0.25946642823E+03 -0.58350612387E+03  0.65511458275E+03  0.10100000352E+00 0.  1.
       -3    1    3    3    0  502  0.14619467278E+03  0.25946642823E+03 -0.43071446569E+03  0.52365128748E+03  0.10100000352E+00 0. -1.
</event>
<event>
 5   0  0.5891927E-03  0.6010747E+03  0.7818609E-02  0.9903179E-01
        1   -1    0    0  501    0  0.00000000000E+00  0.00000000000E+00  0.59602207386E+03  0.59602207388E+03  0.50400001928E-02 0.  1.
       -1   -1    0    0    0  501  0.00000000000E+00  0.00000000000E+00 -0.15154254804E+03  0.15154254813E+03  0.50400001928E-02 0. -1.
    10030    2    1    2    0    0  0.00000000000E+00  0.00000000000E+00  0.44447952581E+03  0.74756462201E+03  0.60107471683E+03 0.  0.
        4    1    3    3  502    0  0.15916058763E+03  0.25286830077E+03  0.18200374965E+03  0.34985918306E+03  0.12699999809E+01 0.  1.
       -4    1    3    3    0  502 -0.15916058763E+03 -0.25286830077E+03  0.26247577617E+03  0.39770543894E+03  0.12699999809E+01 0. -1.
</event>
<event>
 5   0  0.5790967E-03  0.6000284E+03  0.7818609E-02  0.9905347E-01
        1   -1    0    0  501    0  0.00000000000E+00  0.00000000000E+00  0.59738565297E+03  0.59738565300E+03  0.50400001928E-02 0. -1.
       -1   -1    0    0    0  501  0.00000000000E+00  0.00000000000E+00 -0.15067069884E+03  0.15067069893E+03  0.50400001928E-02 0.  1.
    10030    2    1    2    0    0  0.00000000000E+00  0.00000000000E+00  0.44671495413E+03  0.74805635192E+03  0.60002837884E+03 0.  0.
        3    1    3    3  502    0  0.18480050493E+03 -0.53002473459E+02  0.51049972235E+03  0.54550019756E+03  0.10100000352E+00 0. -1.
       -3    1    3    3    0  502 -0.18480050493E+03  0.53002473459E+02 -0.63784768217E+02  0.20255615437E+03  0.10100000352E+00 0.  1.
</event>
<event>
 5   0  0.9391405E-03  0.5996067E+03  0.7818609E-02  0.9906222E-01
       -2   -1    0    0    0  501  0.00000000000E+00  0.00000000000E+00  0.12856472224E+03  0.12856472226E+03  0.25500000920E-02 0.  1.
        2   -1    0    0  501    0  0.00000000000E+00  0.00000000000E+00 -0.69911915948E+03  0.69911915949E+03  0.25500000920E-02 0. -1.
    10030    2    1    2    0    0  0.00000000000E+00  0.00000000000E+00 -0.57055443725E+03  0.82768388175E+03  0.59960673966E+03 0.  0.
        2    1    3    3  502    0 -0.15423113647E+03  0.23581391579E+03 -0.14392076599E+03  0.31639948361E+03  0.25500000920E-02 0. -1.
       -2    1    3    3    0  502  0.15423113647E+03 -0.23581391579E+03 -0.42663367125E+03  0.51128439814E+03  0.25500000920E-02 0.  1.
</event>
<event>
 5   0  0.5891927E-03  0.5969096E+03  0.7818609E-02  0.9911838E-01
       -1   -1    0    0    0  501  0.00000000000E+00  0.00000000000E+00  0.37024521539E+03  0.37024521542E+03  0.50400001928E-02 0. -1.
        1   -1    0    0  501    0  0.00000000000E+00  0.00000000000E+00 -0.24058450971E+03  0.24058450977E+03  0.50400001928E-02 0.  1.
    10030    2    1    2    0    0  0.00000000000E+00  0.00000000000E+00  0.12966070567E+03  0.61082972519E+03  0.59690958660E+03 0.  0.
        4    1    3    3  502    0  0.55696914532E+02 -0.18233819874E+02 -0.23463562177E+03  0.24184727904E+03  0.12699999809E+01 0.  1.
       -4    1    3    3    0  502 -0.55696914532E+02  0.18233819874E+02  0.36429632744E+03  0.36898244615E+03  0.12699999809E+01 0. -1.
</event>
<event>
 5   0  0.9028473E-03  0.5971209E+03  0.7818609E-02  0.9911397E-01
        2   -1    0    0  501    0  0.00000000000E+00  0.00000000000E+00  0.98084410843E+02  0.98084410876E+02  0.25500000920E-02 0.  1.
       -2   -1    0    0    0  501  0.00000000000E+00  0.00000000000E+00 -0.90879214391E+03  0.90879214391E+03  0.25500000920E-02 0. -1.
    10030    2    1    2    0    0  0.00000000000E+00  0.00000000000E+00 -0.81070773306E+03  0.10068765548E+04  0.59712089909E+03 0.  0.
        1    1    3    3  502    0  0.12126371414E+03 -0.27118500947E+03 -0.35498855744E+03  0.46288559458E+03  0.50400001928E-02 0.  1.
       -1    1    3    3    0  502 -0.12126371414E+03  0.27118500947E+03 -0.45571917562E+03  0.54399096021E+03  0.50400001928E-02 0. -1.
</event>
<event>
 5   0  0.3806250E-03  0.5992786E+03  0.7818609E-02  0.9906904E-01
       -4   -1    0    0    0  501  0.00000000000E+00  0.00000000000E+00  0.25765542318E+03  0.25765855311E+03  0.12699999809E+01 0.  1.
        4   -1    0    0  501    0  0.00000000000E+00  0.00000000000E+00 -0.34845792658E+03  0.34846024091E+03  0.12699999809E+01 0. -1.
    10030    2    1    2    0    0  0.00000000000E+00  0.00000000000E+00 -0.90802503400E+02  0.60611879402E+03  0.59927864791E+03 0.  0.
        4    1    3    3  502    0  0.15632390124E+03  0.86399237279E+02 -0.28873013464E+03  0.33951243549E+03  0.12699999809E+01 0. -1.
       -4    1    3    3    0  502 -0.15632390124E+03 -0.86399237279E+02  0.19792763124E+03  0.26660635853E+03  0.12699999809E+01 0.  1.
</event>
<event>
 5   0  0.5891927E-03  0.6057112E+03  0.7818609E-02  0.9893627E-01
        1   -1    0    0  501    0  0.00000000000E+00  0.00000000000E+00  0.13094778711E+04  0.13094778712E+04  0.50400001928E-02 0. -1.
       -1   -1    0    0    0  501  0.00000000000E+00  0.00000000000E+00 -0.70044346810E+02  0.70044346991E+02  0.50400001928E-02 0.  1.
    10030    2    1    2    0    0  0.00000000000E+00  0.00000000000E+00  0.12394335243E+04  0.13795222181E+04  0.60571122584E+03 0.  0.
        4    1    3    3  502    0 -0.50190931216E+02 -0.28502662266E+03  0.82292255858E+03  0.87233162015E+03  0.12699999809E+01 0.  1.
       -4    1    3    3    0  502  0.50190931216E+02  0.28502662266E+03  0.41651096576E+03  0.50719059800E+03  0.12699999809E+01 0. -1.
</event>
<event>
 5   0  0.9822607E-03  0.5997856E+03  0.7818609E-02  0.9905851E-01
       -2   -1    0    0    0  501  0.00000000000E+00  0.00000000000E+00  0.61228790566E+03  0.61228790566E+03  0.25500000920E-02 0.  1.
        2   -1    0    0  501    0  0.00000000000E+00  0.00000000000E+00 -0.14688463898E+03  0.14688463901E+03  0.25500000920E-02 0. -1.
    10030    2    1    2    0    0  0.00000000000E+00  0.00000000000E+00  0.46540326667E+03  0.75917254467E+03  0.59978558831E+03 0.  0.
        3    1    3    3  502    0 -0.17153594475E+03  0.14650131463E+03 -0.17417223554E+02  0.22625336551E+03  0.10100000352E+00 0. -1.
       -3    1    3    3    0  502  0.17153594475E+03 -0.14650131463E+03  0.48282049023E+03  0.53291917916E+03  0.10100000352E+00 0.  1.
</event>
<event>
 5   0  0.5790967E-03  0.5994881E+03  0.7818609E-02  0.9906469E-01
        1   -1    0    0  501    0  0.00000000000E+00  0.00000000000E+00  0.57820814395E+03  0.57820814397E+03  0.50400001928E-02 0.  1.
       -1   -1    0    0    0  501  0.00000000000E+00  0.00000000000E+00 -0.15538779342E+03  0.15538779351E+03  0.50400001928E-02 0. -1.
    10030    2    1    2    0    0  0.00000000000E+00  0.00000000000E+00  0.42282035053E+03  0.73359593748E+03  0.59948807383E+03 0.  0.
        3    1    3    3  502    0 -0.22928030446E+03 -0.18152259404E+03  0.13091903089E+03  0.32040554460E+03  0.10100000352E+00 0.  1.
       -3    1    3    3    0  502  0.22928030446E+03  0.18152259404E+03  0.29190131963E+03  0.41319039288E+03  0.10100000352E+00 0. -1.
</event>
<event>
 5   0  0.9391405E-03  0.6006147E+03  0.7818609E-02  0.9904132E-01
        2   -1    0    0  501    0  0.00000000000E+00  0.00000000000E+00  0.25081778665E+03  0.25081778666E+03  0.25500000920E-02 0.  1.
       -2   -1    0    0    0  501  0.00000000000E+00  0.00000000000E+00 -0.35956183988E+03  0.35956183989E+03  0.25500000920E-02 0. -1.
    10030    2    1    2    0    0  0.00000000000E+00  0.00000000000E+00 -0.10874405323E+03  0.61037962655E+03  0.60061470128E+03 0.  0.
        2    1    3    3  502    0  0.42827020083E+02 -0.28702331437E+03 -0.13288064255E+03  0.31917675638E+03  0.25500000920E-02 0. -1.
       -2    1    3    3    0  502 -0.42827020083E+02  0.28702331437E+03  0.24136589322E+02  0.29120287016E+03  0.25500000920E-02 0.  1.
</event>
<event>
 5   0  0.9822607E-03  0.6005429E+03  0.7818609E-02  0.9904280E-01
        2   -1    0    0  501    0  0.00000000000E+00  0.00000000000E+00  0.11001438818E+04  0.11001438818E+04  0.25500000920E-02 0. -1.
       -2   -1    0    0    0  501  0.00000000000E+00  0.00000000000E+00 -0.81955587732E+02  0.81955587772E+02  0.25500000920E-02 0.  1.
    10030    2    1    2    0    0  0.00000000000E+00  0.00000000000E+00  0.10181882941E+04  0.11820994696E+04  0.60054288256E+03 0.  0.
        3    1    3    3  502    0 -0.73939943799E+01  0.96811900898E+02  0.10683915987E+04  0.10727944042E+04  0.10100000352E+00 0. -1.
       -3    1    3    3    0  502  0.73939943799E+01 -0.96811900898E+02 -0.50203304668E+02  0.10930506534E+03  0.10100000352E+00 0.  1.
</event>
<event>
 5   0  0.9391405E-03  0.6006271E+03  0.7818609E-02  0.9904106E-01
       -2   -1    0    0    0  501  0.00000000000E+00  0.00000000000E+00  0.14976029958E+03  0.14976029960E+03  0.25500000920E-02 0.  1.
        2   -1    0    0  501    0  0.00000000000E+00  0.00000000000E+00 -0.60221716245E+03  0.60221716246E+03  0.25500000920E-02 0. -1.
    10030    2    1    2    0    0  0.00000000000E+00  0.00000000000E+00 -0.45245686287E+03  0.75197746206E+03  0.60062708122E+03 0.  0.
        2    1    3    3  502    0 -0.95419535302E+02  0.22851553174E+03 -0.13523248534E+02  0.24800627859E+03  0.25500000920E-02 0.  1.
       -2    1    3    3    0  502  0.95419535302E+02 -0.22851553174E+03 -0.43893361433E+03  0.50397118347E+03  0.25500000920E-02 0. -1.
</event>
<event>
 5   0  0.9391405E-03  0.5977928E+03  0.7818609E-02  0.9909996E-01
       -2   -1    0    0    0  501  0.00000000000E+00  0.00000000000E+00  0.13156859288E+03  0.13156859291E+03  0.25500000920E-02 0. -1.
        2   -1    0    0  501    0  0.00000000000E+00  0.00000000000E+00 -0.67903035706E+03  0.67903035706E+03  0.25500000920E-02 0.  1.
    10030    2    1    2    0    0  0.00000000000E+00  0.00000000000E+00 -0.54746176418E+03  0.81059894997E+03  0.59779283574E+03 0.  0.
        2    1    3    3  502    0  0.27937028609E+03 -0.88931001426E+02 -0.19486667575E+03  0.35203622127E+03  0.25500000920E-02 0.  1.
       -2    1    3    3    0  502 -0.27937028609E+03  0.88931001426E+02 -0.35259508843E+03  0.45856272870E+03  0.25500000920E-02 0. -1.
</event>
<event>
 5   0  0.5819446E-03  0.6013841E+03  0.7818609E-02  0.9902539E-01
        1   -1    0    0  501    0  0.00000000000E+00  0.00000000000E+00  0.74622253984E+02  0.74622254154E+02  0.50400001928E-02 0.  1.
       -1   -1    0    0    0  501  0.00000000000E+00  0.00000000000E+00 -0.12116454632E+04  0.12116454632E+04  0.50400001928E-02 0. -1.
    10030    2    1    2    0    0  0.00000000000E+00  0.00000000000E+00 -0.11370232092E+04  0.12862677173E+04  0.60138412219E+03 0.  0.
        5    1    3    3  502    0  0.77453392297E+02 -0.16758180602E+03 -0.60965165587E+02  0.19447758508E+03  0.46999998093E+01 0.  1.
       -5    1    3    3    0  502 -0.77453392297E+02  0.16758180602E+03 -0.10760580436E+04  0.10917901323E+04  0.46999998093E+01 0. -1.
</event>
<event>
 5   0  0.5891927E-03  0.5999132E+03  0.7818609E-02  0.9905586E-01
       -1   -1    0    0    0  501  0.00000000000E+00  0.00000000000E+00  0.36520843791E+03  0.36520843794E+03  0.50400001928E-02 0.  1.
        1   -1    0    0  501    0  0.00000000000E+00  0.00000000000E+00 -0.24636333438E+03  0.24636333443E+03  0.50400001928E-02 0. -1.
    10030    2    1    2    0    0  0.00000000000E+00  0.00000000000E+00  0.11884510353E+03  0.61157177237E+03  0.59991322217E+03 0.  0.
        4    1    3    3  502    0 -0.23751695298E+03 -0.14849958696E+02  0.24555655457E+03  0.34195680812E+03  0.12699999809E+01 0.  1.
       -4    1    3    3    0  502  0.23751695298E+03  0.14849958696E+02 -0.12671145104E+03  0.26961496425E+03  0.12699999809E+01 0. -1.
</event>
<event>
 5   0  0.9391405E-03  0.5955275E+03  0.7818609E-02  0.9914729E-01
       -2   -1    0    0    0  501  0.00000000000E+00  0.00000000000E+00  0.12148065673E+03  0.12148065676E+03  0.25500000920E-02 0.  1.
        2   -1    0    0  501    0  0.00000000000E+00  0.00000000000E+00 -0.72985500108E+03  0.72985500109E+03  0.25500000920E-02 0. -1.
    10030    2    1    2    0    0  0.00000000000E+00  0.00000000000E+00 -0.60837434435E+03  0.85133565785E+03  0.59552754719E+03 0.  0.
        2    1    3    3  502    0 -0.94293231733E+02  0.24209189867E+03 -0.51215366631E+03  0.57428309994E+03  0.25500000920E-02 0. -1.
       -2    1    3    3    0  502  0.94293231733E+02 -0.24209189867E+03 -0.96220678038E+02  0.27705255791E+03  0.25500000920E-02 0.  1.
</event>
<event>
 5   0  0.9391405E-03  0.5999640E+03  0.7818609E-02  0.9905481E-01
        2   -1    0    0  501    0  0.00000000000E+00  0.00000000000E+00  0.25967734868E+03  0.25967734869E+03  0.25500000920E-02 0.  1.
       -2   -1    0    0    0  501  0.00000000000E+00  0.00000000000E+00 -0.34654234182E+03  0.34654234182E+03  0.25500000920E-02 0. -1.
    10030    2    1    2    0    0  0.00000000000E+00  0.00000000000E+00 -0.86864993137E+02  0.60621969052E+03  0.59996398737E+03 0.  0.
        2    1    3    3  502    0 -0.23875633510E+03 -0.62359539763E+02 -0.21578624353E+03  0.32780634932E+03  0.25500000920E-02 0. -1.
       -2    1    3    3    0  502  0.23875633510E+03  0.62359539763E+02  0.12892125039E+03  0.27841334120E+03  0.25500000920E-02 0.  1.
</event>
<event>
 5   0  0.5819446E-03  0.6001035E+03  0.7818609E-02  0.9905191E-01
       -1   -1    0    0    0  501  0.00000000000E+00  0.00000000000E+00  0.68321614367E+02  0.68321614553E+02  0.50400001928E-02 0.  1.
        1   -1    0    0  501    0  0.00000000000E+00  0.00000000000E+00 -0.13177535047E+04  0.13177535047E+04  0.50400001928E-02 0. -1.
    10030    2    1    2    0    0  0.00000000000E+00  0.00000000000E+00 -0.12494318903E+04  0.13860751192E+04  0.60010348078E+03 0.  0.
        5    1    3    3  502    0 -0.10584875671E+03 -0.47636069312E+02  0.14272407716E+02  0.11704249663E+03  0.46999998093E+01 0.  1.
       -5    1    3    3    0  502  0.10584875671E+03  0.47636069312E+02 -0.12637042980E+04  0.12690326226E+04  0.46999998093E+01 0. -1.
</event>
<event>
 5   0  0.9822607E-03  0.6007679E+03  0.7818609E-02  0.9903814E-01
       -2   -1    0    0    0  501  0.00000000000E+00  0.00000000000E+00  0.11615674349E+03  0.11615674352E+03  0.25500000920E-02 0. -1.
        2   -1    0    0  501    0  0.00000000000E+00  0.00000000000E+00 -0.77679956198E+03  0.77679956198E+03  0.25500000920E-02 0.  1.
    10030    2    1    2    0    0  0.00000000000E+00  0.00000000000E+00 -0.66064281849E+03  0.89295630549E+03  0.60076786690E+03 0.  0.
        3    1    3    3  502    0  0.71024462856E+02 -0.44184376577E+02 -0.75913967846E+03  0.76373411281E+03  0.10100000352E+00 0.  1.
       -3    1    3    3    0  502 -0.71024462856E+02  0.44184376577E+02  0.98496859970E+02  0.12922219269E+03  0.10100000352E+00 0. -1.
</event>
<event>
 5   0  0.3806250E-03  0.6001776E+03  0.7818609E-02  0.9905038E-01
       -4   -1    0    0    0  501  0.00000000000E+00  0.00000000000E+00  0.14621466532E+03  0.14622018074E+03  0.12699999809E+01 0.  1.
        4   -1    0    0  501    0  0.00000000000E+00  0.00000000000E+00 -0.61588007272E+03  0.61588138214E+03  0.12699999809E+01 0. -1.
    10030    2    1    2    0    0  0.00000000000E+00  0.00000000000E+00 -0.46966540740E+03  0.76210156288E+03  0.60017763807E+03 0.  0.
        2    1    3    3  502    0 -0.12089808693E+03 -0.31455316644E+02  0.11163132012E+03  0.16753308928E+03  0.25500000920E-02 0.  1.
       -2    1    3    3    0  502  0.12089808693E+03  0.31455316644E+02 -0.58129672752E+03  0.59456847360E+03  0.25500000920E-02 0. -1.
</event>
<event>
 5   0  0.5891927E-03  0.6002148E+03  0.7818609E-02  0.9904961E-01
        1   -1    0    0  501    0  0.00000000000E+00  0.00000000000E+00  0.14415258909E+04  0.14415258909E+04  0.50400001928E-02 0. -1.
       -1   -1    0    0    0  501  0.00000000000E+00  0.00000000000E+00 -0.62478549234E+02  0.62478549437E+02  0.50400001928E-02 0.  1.
    10030    2    1    2    0    0  0.00000000000E+00  0.00000000000E+00  0.13790473417E+04  0.15040044404E+04  0.60021478325E+03 0.  0.
        4    1    3    3  502    0 -0.18056344699E+03 -0.23585956554E+03  0.79671531258E+03  0.85028806604E+03  0.12699999809E+01 0. -1.
       -4    1    3    3    0  502  0.18056344699E+03  0.23585956554E+03  0.58233202909E+03  0.65371637432E+03  0.12699999809E+01 0.  1.
</event>
<event>
 5   0  0.9391405E-03  0.5994523E+03  0.7818609E-02  0.9906543E-01
        2   -1    0    0  501    0  0.00000000000E+00  0.00000000000E+00  0.47671009717E+03  0.47671009717E+03  0.25500000920E-02 0. -1.
       -2   -1    0    0    0  501  0.00000000000E+00  0.00000000000E+00 -0.18844949721E+03  0.18844949723E+03  0.25500000920E-02 0.  1.
    10030    2    1    2    0    0  0.00000000000E+00  0.00000000000E+00  0.28826059996E+03  0.66515959440E+03  0.59945234384E+03 0.  0.
        2    1    3    3  502    0 -0.37336520236E+02 -0.18637674852E+03  0.40127670551E+03  0.44401948440E+03  0.25500000920E-02 0. -1.
       -2    1    3    3    0  502  0.37336520236E+02  0.18637674852E+03 -0.11301610555E+03  0.22114011001E+03  0.25500000920E-02 0.  1.
</event>
<event>
 5   0  0.9162342E-03  0.6002472E+03  0.7818609E-02  0.9904893E-01
        2   -1    0    0  501    0  0.00000000000E+00  0.00000000000E+00  0.89667968477E+03  0.89667968477E+03  0.25500000920E-02 0.  1.
       -2   -1    0    0    0  501  0.00000000000E+00  0.00000000000E+00 -0.10045302868E+03  0.10045302871E+03  0.25500000920E-02 0. -1.
    10030    2    1    2    0    0  0.00000000000E+00  0.00000000000E+00  0.79622665609E+03  0.99713271349E+03  0.60024724942E+03 0.  0.
        5    1    3    3  502    0 -0.19070475120E+03  0.74941081701E+02  0.33905604855E+02  0.20774057835E+03  0.46999998093E+01 0. -1.
       -5    1    3    3    0  502  0.19070475120E+03 -0.74941081701E+02  0.76232105124E+03  0.78939213513E+03  0.46999998093E+01 0.  1.
</event>
<event>
 5   0  0.3806250E-03  0.5999446E+03  0.7818609E-02  0.9905521E-01
        4   -1    0    0  501    0  0.00000000000E+00  0.00000000000E+00  0.19964797535E+03  0.19965201467E+03  0.12699999809E+01 0.  1.
       -4   -1    0    0    0  501  0.00000000000E+00  0.00000000000E+00 -0.45070076249E+03  0.45070255182E+03  0.12699999809E+01 0. -1.
    10030    2    1    2    0    0  0.00000000000E+00  0.00000000000E+00 -0.25105278714E+03  0.65035456648E+03  0.59994463096E+03 0.  0.
        2    1    3    3  502    0 -0.23121897725E+03  0.13303001825E+03 -0.27425590747E+03  0.38259051737E+03  0.25500000920E-02 0. -1.
       -2    1    3    3    0  502  0.23121897725E+03 -0.13303001825E+03  0.23203120325E+02  0.26776404911E+03  0.25500000920E-02 0.  1.
</event>
<event>
 5   0  0.5819446E-03  0.6002627E+03  0.7818609E-02  0.9904861E-01
       -1   -1    0    0    0  501  0.00000000000E+00  0.00000000000E+00  0.78723073256E+02  0.78723073417E+02  0.50400001928E-02 0. -1.
        1   -1    0    0  501    0  0.00000000000E+00  0.00000000000E+00 -0.11442492324E+04  0.11442492324E+04  0.50400001928E-02 0.  1.
    10030    2    1    2    0    0  0.00000000000E+00  0.00000000000E+00 -0.10655261591E+04  0.12229723058E+04  0.60026266334E+03 0.  0.
        5    1    3    3  502    0  0.24420998304E+03  0.15725963335E+03 -0.68641588977E+03  0.74535761338E+03  0.46999998093E+01 0.  1.
       -5    1    3    3    0  502 -0.24420998304E+03 -0.15725963335E+03 -0.37911026935E+03  0.47761469243E+03  0.46999998093E+01 0. -1.
</event>
<event>
 5   0  0.9303190E-03  0.5999296E+03  0.7818609E-02  0.9905552E-01
       -2   -1    0    0    0  501  0.00000000000E+00  0.00000000000E+00  0.73053028265E+02  0.73053028310E+02  0.25500000920E-02 0.  1.
        2   -1    0    0  501    0  0.00000000000E+00  0.00000000000E+00 -0.12316926095E+04  0.12316926095E+04  0.25500000920E-02 0. -1.
    10030    2    1    2    0    0  0.00000000000E+00  0.00000000000E+00 -0.11586395813E+04  0.13047456378E+04  0.59992957936E+03 0.  0.
        4    1    3    3  502    0 -0.54148260851E+02  0.12887399080E+03 -0.11565182298E+04  0.11649362938E+04  0.12699999809E+01 0. -1.
       -4    1    3    3    0  502  0.54148260851E+02 -0.12887399080E+03 -0.21213514140E+01  0.13980934408E+03  0.12699999809E+01 0.  1.
</event>
<event>
 5   0  0.5790967E-03  0.6008281E+03  0.7818609E-02  0.9903689E-01
       -1   -1    0    0    0  501  0.00000000000E+00  0.00000000000E+00  0.66703808577E+03  0.66703808579E+03  0.50400001928E-02 0.  1.
        1   -1    0    0  501    0  0.00000000000E+00  0.00000000000E+00 -0.13529754086E+03  0.13529754095E+03  0.50400001928E-02 0. -1.
    10030    2    1    2    0    0  0.00000000000E+00  0.00000000000E+00  0.53174054491E+03  0.80233562674E+03  0.60082813752E+03 0.  0.
        3    1    3    3  502    0  0.16445014938E+03  0.10391641503E+03  0.57157127081E+03  0.60376833368E+03  0.10100000352E+00 0.  1.
       -3    1    3    3    0  502 -0.16445014938E+03 -0.10391641503E+03 -0.39830725897E+02  0.19856729306E+03  0.10100000352E+00 0. -1.
</event>
<event>
 5   0  0.6078658E-03  0.6002616E+03  0.7818609E-02  0.9904863E-01
       -1   -1    0    0    0  501  0.00000000000E+00  0.00000000000E+00  0.22331819429E+03  0.22331819434E+03  0.50400001928E-02 0. -1.
        1   -1    0    0  501    0  0.00000000000E+00  0.00000000000E+00 -0.40336389101E+03  0.40336389104E+03  0.50400001928E-02 0.  1.
    10030    2    1    2    0    0  0.00000000000E+00  0.00000000000E+00 -0.18004569673E+03  0.62668208539E+03  0.60026159567E+03 0.  0.
        2    1    3    3  502    0  0.19214750751E+03  0.84784742922E+02  0.13381887344E+03  0.24903133974E+03  0.25500000920E-02 0. -1.
       -2    1    3    3    0  502 -0.19214750751E+03 -0.84784742922E+02 -0.31386457017E+03  0.37765074565E+03  0.25500000920E-02 0.  1.
</event>
<event>
 5   0  0.9391405E-03  0.6001042E+03  0.7818609E-02  0.9905190E-01
        2   -1    0    0  501    0  0.00000000000E+00  0.00000000000E+00  0.55117029746E+03  0.55117029747E+03  0.25500000920E-02 0.  1.
       -2   -1    0    0    0  501  0.00000000000E+00  0.00000000000E+00 -0.16334565288E+03  0.16334565290E+03  0.25500000920E-02 0. -1.
    10030    2    1    2    0    0  0.00000000000E+00  0.00000000000E+00  0.38782464458E+03  0.71451595037E+03  0.60010423127E+03 0.  0.
        2    1    3    3  502    0 -0.28659964801E+03  0.62077932149E+02  0.26957496875E+03  0.39832611223E+03  0.25500000920E-02 0.  1.
       -2    1    3    3    0  502  0.28659964801E+03 -0.62077932149E+02  0.11824967583E+03  0.31618983814E+03  0.25500000920E-02 0. -1.
</event>
<event>
 5   0  0.9822607E-03  0.5999654E+03  0.7818609E-02  0.9905478E-01
       -2   -1    0    0    0  501  0.00000000000E+00  0.00000000000E+00  0.28322261797E+03  0.28322261799E+03  0.25500000920E-02 0.  1.
        2   -1    0    0  501    0  0.00000000000E+00  0.00000000000E+00 -0.31773458009E+03  0.31773458010E+03  0.25500000920E-02 0. -1.
    10030    2    1    2    0    0  0.00000000000E+00  0.00000000000E+00 -0.34511962113E+02  0.60095719808E+03  0.59996539767E+03 0.  0.
        3    1    3    3  502    0  0.11194297833E+03 -0.26525790309E+03  0.67124739766E+02  0.29563275603E+03  0.10100000352E+00 0.  1.
       -3    1    3    3    0  502 -0.11194297833E+03  0.26525790309E+03 -0.10163670188E+03  0.30532444206E+03  0.10100000352E+00 0. -1.
</event>
<event>
 5   0  0.5891927E-03  0.5999008E+03  0.7818609E-02  0.9905612E-01
       -1   -1    0    0    0  501  0.00000000000E+00  0.00000000000E+00  0.17262391307E+03  0.17262391314E+03  0.50400001928E-02 0.  1.
        1   -1    0    0  501    0  0.00000000000E+00  0.00000000000E+00 -0.52119230845E+03  0.52119230847E+03  0.50400001928E-02 0. -1.
    10030    2    1    2    0    0  0.00000000000E+00  0.00000000000E+00 -0.34856839538E+03  0.69381622162E+03  0.59990084440E+03 0.  0.
        4    1    3    3  502    0 -0.16240927835E+03 -0.73721973056E+02  0.10462687090E+03  0.20678514942E+03  0.12699999809E+01 0.  1.
       -4    1    3    3    0  502  0.16240927835E+03  0.73721973056E+02 -0.45319526629E+03  0.48703107220E+03  0.12699999809E+01 0. -1.
</event>
<event>
 5   0  0.9822607E-03  0.5995400E+03  0.7818609E-02  0.9906361E-01
        2   -1    0    0  501    0  0.00000000000E+00  0.00000000000E+00  0.21829644421E+03  0.21829644423E+03  0.25500000920E-02 0.  1.
       -2   -1    0    0    0  501  0.00000000000E+00  0.00000000000E+00 -0.41165148239E+03  0.41165148240E+03  0.25500000920E-02 0. -1.
    10030    2    1    2    0    0  0.00000000000E+00  0.00000000000E+00 -0.19335503818E+03  0.62994792663E+03  0.59954000657E+03 0.  0.
        3    1    3    3  502    0 -0.25075328690E+02 -0.28366139494E+03  0.17175968248E+01  0.28477275050E+03  0.10100000352E+00 0.  1.
       -3    1    3    3    0  502  0.25075328690E+02  0.28366139494E+03 -0.19507263501E+03  0.34517517613E+03  0.10100000352E+00 0. -1.
</event>
<event>
 5   0  0.3806250E-03  0.6008834E+03  0.7818609E-02  0.9903575E-01
        3   -1    0    0  501    0  0.00000000000E+00  0.00000000000E+00  0.16049976721E+03  0.16049979899E+03  0.10100000352E+00 0.  1.
       -3   -1    0    0    0  501  0.00000000000E+00  0.00000000000E+00 -0.56240084385E+03  0.56240085292E+03  0.10100000352E+00 0. -1.
    10030    2    1    2    0    0  0.00000000000E+00  0.00000000000E+00 -0.40190107664E+03  0.72290065191E+03  0.60088341392E+03 0.  0.
        1    1    3    3  502    0  0.21647886898E+03  0.12975060927E+03 -0.39704206313E+03  0.47046861876E+03  0.50400001928E-02 0. -1.
       -1    1    3    3    0  502 -0.21647886898E+03 -0.12975060927E+03 -0.48590135122E+01  0.25243203315E+03  0.50400001928E-02 0.  1.
</event>
<event>
 5   0  0.5765045E-03  0.5994475E+03  0.7818609E-02  0.9906553E-01
       -1   -1    0    0    0  501  0.00000000000E+00  0.00000000000E+00  0.17986479775E+03  0.17986479782E+03  0.50400001928E-02 0.  1.
        1   -1    0    0  501    0  0.00000000000E+00  0.00000000000E+00 -0.49945475749E+03  0.49945475751E+03  0.50400001928E-02 0. -1.
    10030    2    1    2    0    0  0.00000000000E+00  0.00000000000E+00 -0.31958995973E+03  0.67931955534E+03  0.59944750888E+03 0.  0.
        1    1    3    3  502    0 -0.28271122631E+03 -0.43829759869E+02 -0.26107698641E+03  0.38730850519E+03  0.50400001928E-02 0. -1.
       -1    1    3    3    0  502  0.28271122631E+03  0.43829759869E+02 -0.58512973320E+02  0.29201105014E+03  0.50400001928E-02 0.  1.
</event>
<event>
 5   0  0.9391405E-03  0.5990064E+03  0.7818609E-02  0.9907470E-01
       -2   -1    0    0    0  501  0.00000000000E+00  0.00000000000E+00  0.81867939843E+03  0.81867939844E+03  0.25500000920E-02 0.  1.
        2   -1    0    0  501    0  0.00000000000E+00  0.00000000000E+00 -0.10956933053E+03  0.10956933056E+03  0.25500000920E-02 0. -1.
    10030    2    1    2    0    0  0.00000000000E+00  0.00000000000E+00  0.70911006790E+03  0.92824872900E+03  0.59900635597E+03 0.  0.
        2    1    3    3  502    0  0.15806216866E+03  0.13748930160E+03  0.22860962725E+02  0.21073580815E+03  0.25500000920E-02 0. -1.
       -2    1    3    3    0  502 -0.15806216866E+03 -0.13748930160E+03  0.68624910518E+03  0.71751292084E+03  0.25500000920E-02 0.  1.
</event>
<event>
 5   0  0.9822607E-03  0.5994473E+03  0.7818609E-02  0.9906553E-01
        2   -1    0    0  501    0  0.00000000000E+00  0.00000000000E+00  0.81709804028E+03  0.81709804028E+03  0.25500000920E-02 0.  1.
       -2   -1    0    0    0  501  0.00000000000E+00  0.00000000000E+00 -0.10994308345E+03  0.10994308348E+03  0.25500000920E-02 0. -1.
    10030    2    1    2    0    0  0.00000000000E+00  0.00000000000E+00  0.70715495682E+03  0.92704112376E+03  0.59944733896E+03 0.  0.
        3    1    3    3  502    0  0.38652542353E+02  0.26619842516E+03  0.14912053108E+03  0.30755904081E+03  0.10100000352E+00 0. -1.
       -3    1    3    3    0  502 -0.38652542353E+02 -0.26619842516E+03  0.55803442574E+03  0.61948208296E+03  0.10100000352E+00 0.  1.
</event>
<event>
 5   0  0.9028473E-03  0.5999609E+03  0.7818609E-02  0.9905487E-01
        2   -1    0    0  501    0  0.00000000000E+00  0.00000000000E+00  0.36593430498E+03  0.36593430499E+03  0.25500000920E-02 0. -1.
       -2   -1    0    0    0  501  0.00000000000E+00  0.00000000000E+00 -0.24591375630E+03  0.24591375631E+03  0.25500000920E-02 0.  1.
    10030    2    1    2    0    0  0.00000000000E+00  0.00000000000E+00  0.12002054869E+03  0.61184806130E+03  0.59996093040E+03 0.  0.
        1    1    3    3  502    0  0.62070329288E+02 -0.13883765131E+03  0.32370576374E+03  0.35765072446E+03  0.50400001928E-02 0. -1.
       -1    1    3    3    0  502 -0.62070329288E+02  0.13883765131E+03 -0.20368521506E+03  0.25419733684E+03  0.50400001928E-02 0.  1.
</event>
<event>
 5   0  0.5891927E-03  0.5903238E+03  0.7818609E-02  0.9925687E-01
       -1   -1    0    0    0  501  0.00000000000E+00  0.00000000000E+00  0.15655723086E+03  0.15655723094E+03  0.50400001928E-02 0.  1.
        1   -1    0    0  501    0  0.00000000000E+00  0.00000000000E+00 -0.55647731673E+03  0.55647731675E+03  0.50400001928E-02 0. -1.
    10030    2    1    2    0    0  0.00000000000E+00  0.00000000000E+00 -0.39992008586E+03  0.71303454769E+03  0.59032380193E+03 0.  0.
        4    1    3    3  502    0  0.71248512569E+02 -0.21376259759E+03  0.30322677686E+02  0.22735847544E+03  0.12699999809E+01 0.  1.
       -4    1    3    3    0  502 -0.71248512569E+02  0.21376259759E+03 -0.43024276355E+03  0.48567607225E+03  0.12699999809E+01 0. -1.
</event>
<event>
 5   0  0.9822607E-03  0.5972887E+03  0.7818609E-02  0.9911047E-01
        2   -1    0    0  501    0  0.00000000000E+00  0.00000000000E+00  0.93110293347E+03  0.93110293347E+03  0.25500000920E-02 0. -1.
       -2   -1    0    0    0  501  0.00000000000E+00  0.00000000000E+00 -0.95787947341E+02  0.95787947375E+02  0.25500000920E-02 0.  1.
    10030    2    1    2    0    0  0.00000000000E+00  0.00000000000E+00  0.83531498613E+03  0.10268908808E+04  0.59728866984E+03 0.  0.
        3    1    3    3  502    0  0.13227164418E+02  0.29741246453E+03  0.45831690812E+03  0.54651946938E+03  0.10100000352E+00 0. -1.
       -3    1    3    3    0  502 -0.13227164418E+02 -0.29741246453E+03  0.37699807800E+03  0.48037141147E+03  0.10100000352E+00 0.  1.
</event>
<event>
 5   0  0.5891927E-03  0.5996289E+03  0.7818609E-02  0.9906176E-01
        1   -1    0    0  501    0  0.00000000000E+00  0.00000000000E+00  0.43857817158E+03  0.43857817161E+03  0.50400001928E-02 0. -1.
       -1   -1    0    0    0  501  0.00000000000E+00  0.00000000000E+00 -0.20495481121E+03  0.20495481127E+03  0.50400001928E-02 0.  1.
    10030    2    1    2    0    0  0.00000000000E+00  0.00000000000E+00  0.23362336037E+03  0.64353298287E+03  0.59962890652E+03 0.  0.
        4    1    3    3  502    0  0.26534913759E+02 -0.77732021323E+02 -0.19264164423E+03  0.20942489054E+03  0.12699999809E+01 0.  1.
       -4    1    3    3    0  502 -0.26534913759E+02  0.77732021323E+02  0.42626500460E+03  0.43410809233E+03  0.12699999809E+01 0. -1.
</event>
<event>
 5   0  0.9162342E-03  0.6034765E+03  0.7818609E-02  0.9898220E-01
        2   -1    0    0  501    0  0.00000000000E+00  0.00000000000E+00  0.14378139477E+04  0.14378139477E+04  0.25500000920E-02 0. -1.
       -2   -1    0    0    0  501  0.00000000000E+00  0.00000000000E+00 -0.63322492620E+02  0.63322492671E+02  0.25500000920E-02 0.  1.
    10030    2    1    2    0    0  0.00000000000E+00  0.00000000000E+00  0.13744914551E+04  0.15011364404E+04  0.60347647223E+03 0.  0.
        5    1    3    3  502    0  0.25882438898E+03 -0.12978668439E+03  0.47633392975E+03  0.55745022235E+03  0.46999998093E+01 0.  1.
       -5    1    3    3    0  502 -0.25882438898E+03  0.12978668439E+03  0.89815752538E+03  0.94368621807E+03  0.46999998093E+01 0. -1.
</event>
<event>
 5   0  0.5891927E-03  0.5968591E+03  0.7818609E-02  0.9911944E-01
       -1   -1    0    0    0  501  0.00000000000E+00  0.00000000000E+00  0.13358955704E+04  0.13358955705E+04  0.50400001928E-02 0. -1.
        1   -1    0    0  501    0  0.00000000000E+00  0.00000000000E+00 -0.66667042778E+02  0.66667042969E+02  0.50400001928E-02 0.  1.
    10030    2    1    2    0    0  0.00000000000E+00  0.00000000000E+00  0.12692285277E+04  0.14025626134E+04  0.59685913676E+03 0.  0.
        4    1    3    3  502    0  0.26004589401E+03  0.13672773548E+03  0.75762578853E+03  0.81259878721E+03  0.12699999809E+01 0. -1.
       -4    1    3    3    0  502 -0.26004589401E+03 -0.13672773548E+03  0.51160273914E+03  0.58996382621E+03  0.12699999809E+01 0.  1.
</event>
<event>
 5   0  0.5790967E-03  0.5988318E+03  0.7818609E-02  0.9907833E-01
        1   -1    0    0  501    0  0.00000000000E+00  0.00000000000E+00  0.70464239538E+03  0.70464239540E+03  0.50400001928E-02 0.  1.
       -1   -1    0    0    0  501  0.00000000000E+00  0.00000000000E+00 -0.12722750386E+03  0.12722750396E+03  0.50400001928E-02 0. -1.
    10030    2    1    2    0    0  0.00000000000E+00  0.00000000000E+00  0.57741489152E+03  0.83186989936E+03  0.59883183992E+03 0.  0.
        3    1    3    3  502    0 -0.10497930503E+03 -0.77359471044E+02  0.66312190758E+03  0.67582232633E+03  0.10100000352E+00 0.  1.
       -3    1    3    3    0  502  0.10497930503E+03  0.77359471044E+02 -0.85707016061E+02  0.15604757303E+03  0.10100000352E+00 0. -1.
</event>
<event>
 5   0  0.9028473E-03  0.6007910E+03  0.7818609E-02  0.9903766E-01
       -2   -1    0    0    0  501  0.00000000000E+00  0.00000000000E+00  0.64366938064E+02  0.64366938114E+02  0.25500000920E-02 0. -1.
        2   -1    0    0  501    0  0.00000000000E+00  0.00000000000E+00 -0.14019225401E+04  0.14019225401E+04  0.25500000920E-02 0.  1.
    10030    2    1    2    0    0  0.00000000000E+00  0.00000000000E+00 -0.13375556020E+04  0.14662894782E+04  0.60079101640E+03 0.  0.
        1    1    3    3  502    0 -0.11091249249E+03  0.37839815990E+00  0.12563337464E+02  0.11162240657E+03  0.50400001928E-02 0. -1.
       -1    1    3    3    0  502  0.11091249249E+03 -0.37839815990E+00 -0.13501189395E+04  0.13546670716E+04  0.50400001928E-02 0.  1.
</event>
<event>
 5   0  0.9303190E-03  0.6014583E+03  0.7818609E-02  0.9902385E-01
       -2   -1    0    0    0  501  0.00000000000E+00  0.00000000000E+00  0.18763362945E+03  0.18763362947E+03  0.25500000920E-02 0. -1.
        2   -1    0    0  501    0  0.00000000000E+00  0.00000000000E+00 -0.48199261791E+03  0.48199261792E+03  0.25500000920E-02 0.  1.
    10030    2    1    2    0    0  0.00000000000E+00  0.00000000000E+00 -0.29435898846E+03  0.66962624738E+03  0.60145830869E+03 0.  0.
        4    1    3    3  502    0  0.52041118978E+02  0.26726597455E+03 -0.28930800351E+03  0.39729096769E+03  0.12699999809E+01 0.  1.
       -4    1    3    3    0  502 -0.52041118978E+02 -0.26726597455E+03 -0.50509849529E+01  0.27233527969E+03  0.12699999809E+01 0. -1.
</event>
<event>
 5   0  0.9822607E-03  0.5999952E+03  0.7818609E-02  0.9905416E-01
       -2   -1    0    0    0  501  0.00000000000E+00  0.00000000000E+00  0.10289654873E+03  0.10289654876E+03  0.25500000920E-02 0. -1.
        2   -1    0    0  501    0  0.00000000000E+00  0.00000000000E+00 -0.87465102540E+03  0.87465102541E+03  0.25500000920E-02 0.  1.
    10030    2    1    2    0    0  0.00000000000E+00  0.00000000000E+00 -0.77175447667E+03  0.97754757417E+03  0.59999523957E+03 0.  0.
        3    1    3    3  502    0  0.12046822867E+03 -0.12711049267E+03  0.10969860729E+02  0.17547085089E+03  0.10100000352E+00 0. -1.
       -3    1    3    3    0  502 -0.12046822867E+03  0.12711049267E+03 -0.78272433740E+03  0.80207672328E+03  0.10100000352E+00 0.  1.
</event>
<event>
 5   0  0.6078658E-03  0.6027786E+03  0.7818609E-02  0.9899658E-01
        1   -1    0    0  501    0  0.00000000000E+00  0.00000000000E+00  0.53668293388E+03  0.53668293391E+03  0.50400001928E-02 0. -1.
       -1   -1    0    0    0  501  0.00000000000E+00  0.00000000000E+00 -0.16925357312E+03  0.16925357319E+03  0.50400001928E-02 0.  1.
    10030    2    1    2    0    0  0.00000000000E+00  0.00000000000E+00  0.36742936077E+03  0.70593650710E+03  0.60277858033E+03 0.  0.
        2    1    3    3  502    0  0.15427005953E+03 -0.20544556498E+03 -0.82168357259E+00  0.25691984471E+03  0.25500000920E-02 0.  1.
       -2    1    3    3    0  502 -0.15427005953E+03  0.20544556498E+03  0.36825104434E+03  0.44901666239E+03  0.25500000920E-02 0. -1.
</event>
<event>
 5   0  0.6078658E-03  0.5993284E+03  0.7818609E-02  0.9906800E-01
        1   -1    0    0  501    0  0.00000000000E+00  0.00000000000E+00  0.58382706493E+03  0.58382706495E+03  0.50400001928E-02 0. -1.
       -1   -1    0    0    0  501  0.00000000000E+00  0.00000000000E+00 -0.15381034161E+03  0.15381034169E+03  0.50400001928E-02 0.  1.
    10030    2    1    2    0    0  0.00000000000E+00  0.00000000000E+00  0.43001672333E+03  0.73763740664E+03  0.59932842527E+03 0.  0.
        2    1    3    3  502    0  0.29154467597E+03  0.43488117234E+02  0.28139173451E+03  0.40751788020E+03  0.25500000920E-02 0. -1.
       -2    1    3    3    0  502 -0.29154467597E+03 -0.43488117234E+02  0.14862498882E+03  0.33011952644E+03  0.25500000920E-02 0.  1.
</event>
<event>
 5   0  0.9162342E-03  0.6004858E+03  0.7818609E-02  0.9904399E-01
       -2   -1    0    0    0  501  0.00000000000E+00  0.00000000000E+00  0.10237134479E+03  0.10237134482E+03  0.25500000920E-02 0.  1.
        2   -1    0    0  501    0  0.00000000000E+00  0.00000000000E+00 -0.88057650951E+03  0.88057650951E+03  0.25500000920E-02 0. -1.
    10030    2    1    2    0    0  0.00000000000E+00  0.00000000000E+00 -0.77820516473E+03  0.98294785433E+03  0.60048580827E+03 0.  0.
        5    1    3    3  502    0 -0.27768778429E+03  0.52582508307E+02 -0.22339081679E+03  0.36027902068E+03  0.46999998093E+01 0.  1.
       -5    1    3    3    0  502  0.27768778429E+03 -0.52582508307E+02 -0.55481434794E+03  0.62266883365E+03  0.46999998093E+01 0. -1.
</event>
<event>
 5   0  0.5765045E-03  0.6001005E+03  0.7818609E-02  0.9905198E-01
        1   -1    0    0  501    0  0.00000000000E+00  0.00000000000E+00  0.64286942557E+03  0.64286942559E+03  0.50400001928E-02 0.  1.
       -1   -1    0    0    0  501  0.00000000000E+00  0.00000000000E+00 -0.14004421374E+03  0.14004421383E+03  0.50400001928E-02 0. -1.
    10030    2    1    2    0    0  0.00000000000E+00  0.00000000000E+00  0.50282521183E+03  0.78291363943E+03  0.60010046921E+03 0.  0.
        1    1    3    3  502    0  0.59055501700E+01  0.19437544654E+03  0.54952573463E+03  0.58291956802E+03  0.50400001928E-02 0.  1.
       -1    1    3    3    0  502 -0.59055501700E+01 -0.19437544654E+03 -0.46700522796E+02  0.19999407140E+03  0.50400001928E-02 0. -1.
</event>
<event>
 5   0  0.9028473E-03  0.6000516E+03  0.7818609E-02  0.9905299E-01
        2   -1    0    0  501    0  0.00000000000E+00  0.00000000000E+00  0.38033127825E+03  0.38033127826E+03  0.25500000920E-02 0. -1.
       -2   -1    0    0    0  501  0.00000000000E+00  0.00000000000E+00 -0.23667648657E+03  0.23667648658E+03  0.25500000920E-02 0.  1.
    10030    2    1    2    0    0  0.00000000000E+00  0.00000000000E+00  0.14365479168E+03  0.61700776484E+03  0.60005156670E+03 0.  0.
        1    1    3    3  502    0  0.47495586635E+02  0.24015186158E+03 -0.10652933415E+03  0.26697798866E+03  0.50400001928E-02 0.  1.
       -1    1    3    3    0  502 -0.47495586635E+02 -0.24015186158E+03  0.25018412584E+03  0.35002977618E+03  0.50400001928E-02 0. -1.
</event>
<event>
 5   0  0.3806250E-03  0.5996654E+03  0.7818609E-02  0.9906100E-01
       -4   -1    0    0    0  501  0.00000000000E+00  0.00000000000E+00  0.26115851930E+03  0.26116160725E+03  0.12699999809E+01 0. -1.
        4   -1    0    0  501    0  0.00000000000E+00  0.00000000000E+00 -0.34422775419E+03  0.34423009696E+03  0.12699999809E+01 0.  1.
    10030    2    1    2    0    0  0.00000000000E+00  0.00000000000E+00 -0.83069234890E+02  0.60539170421E+03  0.59966542150E+03 0.  0.
        4    1    3    3  502    0 -0.87880392096E+01 -0.27706302111E+03  0.73823298552E+02  0.28686693712E+03  0.12699999809E+01 0. -1.
       -4    1    3    3    0  502  0.87880392096E+01  0.27706302111E+03 -0.15689253344E+03  0.31852476709E+03  0.12699999809E+01 0.  1.
</event>
<event>
 5   0  0.5891927E-03  0.6001824E+03  0.7818609E-02  0.9905028E-01
        1   -1    0    0  501    0  0.00000000000E+00  0.00000000000E+00  0.46015977726E+03  0.46015977729E+03  0.50400001928E-02 0.  1.
       -1   -1    0    0    0  501  0.00000000000E+00  0.00000000000E+00 -0.19570314696E+03  0.19570314702E+03  0.50400001928E-02 0. -1.
    10030    2    1    2    0    0  0.00000000000E+00  0.00000000000E+00  0.26445663031E+03  0.65586292431E+03  0.60018236076E+03 0.  0.
        4    1    3    3  502    0 -0.46849868665E+02 -0.17772315521E+03  0.39145435679E+03  0.43245642144E+03  0.12699999809E+01 0.  1.
       -4    1    3    3    0  502  0.46849868665E+02  0.17772315521E+03 -0.12699772649E+03  0.22340650287E+03  0.12699999809E+01 0. -1.
</event>
<event>
 5   0  0.5819446E-03  0.6004293E+03  0.7818609E-02  0.9904516E-01
        1   -1    0    0  501    0  0.00000000000E+00  0.00000000000E+00  0.46174685832E+03  0.46174685835E+03  0.50400001928E-02 0. -1.
       -1   -1    0    0    0  501  0.00000000000E+00  0.00000000000E+00 -0.19519100029E+03  0.19519100035E+03  0.50400001928E-02 0.  1.
    10030    2    1    2    0    0  0.00000000000E+00  0.00000000000E+00  0.26655585803E+03  0.65693785870E+03  0.60042928372E+03 0.  0.
        5    1    3    3  502    0  0.22576913500E+03  0.17508776697E+03  0.23402739473E+03  0.36934853451E+03  0.46999998093E+01 0.  1.
       -5    1    3    3    0  502 -0.22576913500E+03 -0.17508776697E+03  0.32528463302E+02  0.28758932419E+03  0.46999998093E+01 0. -1.
</event>
<event>
 5   0  0.9303190E-03  0.6002683E+03  0.7818609E-02  0.9904850E-01
        2   -1    0    0  501    0  0.00000000000E+00  0.00000000000E+00  0.92084430415E+03  0.92084430415E+03  0.25500000920E-02 0. -1.
       -2   -1    0    0    0  501  0.00000000000E+00  0.00000000000E+00 -0.97823804505E+02  0.97823804539E+02  0.25500000920E-02 0.  1.
    10030    2    1    2    0    0  0.00000000000E+00  0.00000000000E+00  0.82302049965E+03  0.10186681087E+04  0.60026825073E+03 0.  0.
        4    1    3    3  502    0 -0.10195772955E+03 -0.27957020169E+03  0.34526108731E+03  0.45580884985E+03  0.12699999809E+01 0.  1.
       -4    1    3    3    0  502  0.10195772955E+03  0.27957020169E+03  0.47775941234E+03  0.56285925885E+03  0.12699999809E+01 0. -1.
</event>
<event>
 5   0  0.5819446E-03  0.5928740E+03  0.7818609E-02  0.9920302E-01
        1   -1    0    0  501    0  0.00000000000E+00  0.00000000000E+00  0.43003630191E+03  0.43003630194E+03  0.50400001928E-02 0. -1.
       -1   -1    0    0    0  501  0.00000000000E+00  0.00000000000E+00 -0.20434295073E+03  0.20434295079E+03  0.50400001928E-02 0.  1.
    10030    2    1    2    0    0  0.00000000000E+00  0.00000000000E+00  0.22569335118E+03  0.63437925273E+03  0.59287397272E+03 0.  0.
        5    1    3    3  502    0  0.18981543093E+03  0.84245008711E+02  0.33913651288E+03  0.39769684897E+03  0.46999998093E+01 0. -1.
       -5    1    3    3    0  502 -0.18981543093E+03 -0.84245008711E+02 -0.11344316171E+03  0.23668240376E+03  0.46999998093E+01 0.  1.
</event>
<event>
 5   0  0.9391405E-03  0.5992471E+03  0.7818609E-02  0.9906969E-01
       -2   -1    0    0    0  501  0.00000000000E+00  0.00000000000E+00  0.68545009038E+03  0.68545009038E+03  0.25500000920E-02 0. -1.
        2   -1    0    0  501    0  0.00000000000E+00  0.00000000000E+00 -0.13097126846E+03  0.13097126849E+03  0.25500000920E-02 0.  1.
    10030    2    1    2    0    0  0.00000000000E+00  0.00000000000E+00  0.55447882192E+03  0.81642135887E+03  0.59924708699E+03 0.  0.
        2    1    3    3  502    0  0.38540793557E+02 -0.20097383643E+02 -0.12665303575E+03  0.13390402932E+03  0.25500000920E-02 0.  1.
       -2    1    3    3    0  502 -0.38540793557E+02  0.20097383643E+02  0.68113185767E+03  0.68251732955E+03  0.25500000920E-02 0. -1.
</event>
<event>
 5   0  0.6078658E-03  0.5989507E+03  0.7818609E-02  0.9907585E-01
       -1   -1    0    0    0  501  0.00000000000E+00  0.00000000000E+00  0.30611019397E+03  0.30611019401E+03  0.50400001928E-02 0.  1.
        1   -1    0    0  501    0  0.00000000000E+00  0.00000000000E+00 -0.29298434882E+03  0.29298434886E+03  0.50400001928E-02 0. -1.
    10030    2    1    2    0    0  0.00000000000E+00  0.00000000000E+00  0.13125845148E+02  0.59909454287E+03  0.59895073545E+03 0.  0.
        2    1    3    3  502    0 -0.11771991884E+03  0.27255745663E+03  0.45814533729E+02  0.30040725352E+03  0.25500000920E-02 0.  1.
       -2    1    3    3    0  502  0.11771991884E+03 -0.27255745663E+03 -0.32688688582E+02  0.29868728936E+03  0.25500000920E-02 0. -1.
</event>
<event>
 5   0  0.5891927E-03  0.6004018E+03  0.7818609E-02  0.9904573E-01
        1   -1    0    0  501    0  0.00000000000E+00  0.00000000000E+00  0.77073196242E+03  0.77073196244E+03  0.50400001928E-02 0. -1.
       -1   -1    0    0    0  501  0.00000000000E+00  0.00000000000E+00 -0.11692857256E+03  0.11692857267E+03  0.50400001928E-02 0.  1.
    10030    2    1    2    0    0  0.00000000000E+00  0.00000000000E+00  0.65380338986E+03  0.88766053511E+03  0.60040182628E+03 0.  0.
        4    1    3    3  502    0  0.93432411164E+02 -0.24566043882E+03  0.11244927027E+03  0.28587605346E+03  0.12699999809E+01 0.  1.
       -4    1    3    3    0  502 -0.93432411164E+02  0.24566043882E+03  0.54135411959E+03  0.60178448165E+03  0.12699999809E+01 0. -1.
</event>
<event>
 5   0  0.9391405E-03  0.6004647E+03  0.7818609E-02  0.9904442E-01
       -2   -1    0    0    0  501  0.00000000000E+00  0.00000000000E+00  0.57743144454E+02  0.57743144511E+02  0.25500000920E-02 0. -1.
        2   -1    0    0  501    0  0.00000000000E+00  0.00000000000E+00 -0.15610417837E+04  0.15610417837E+04  0.25500000920E-02 0.  1.
    10030    2    1    2    0    0  0.00000000000E+00  0.00000000000E+00 -0.15032986392E+04  0.16187849282E+04  0.60046469092E+03 0.  0.
        2    1    3    3  502    0 -0.11522060791E+03 -0.16828114280E+03 -0.13456329967E+04  0.13610005486E+04  0.25500000920E-02 0.  1.
       -2    1    3    3    0  502  0.11522060791E+03  0.16828114280E+03 -0.15766564251E+03  0.25778437956E+03  0.25500000920E-02 0. -1.
</event>
<event>
 5   0  0.9303190E-03  0.6044649E+03  0.7818609E-02  0.9896186E-01
       -2   -1    0    0    0  501  0.00000000000E+00  0.00000000000E+00  0.14476450211E+03  0.14476450213E+03  0.25500000920E-02 0.  1.
        2   -1    0    0  501    0  0.00000000000E+00  0.00000000000E+00 -0.63098661120E+03  0.63098661120E+03  0.25500000920E-02 0. -1.
    10030    2    1    2    0    0  0.00000000000E+00  0.00000000000E+00 -0.48622210909E+03  0.77575111333E+03  0.60446492907E+03 0.  0.
        4    1    3    3  502    0  0.15979293007E+03  0.36912550066E+02  0.82688944145E+02  0.18367196639E+03  0.12699999809E+01 0.  1.
       -4    1    3    3    0  502 -0.15979293007E+03 -0.36912550066E+02 -0.56891105323E+03  0.59207914694E+03  0.12699999809E+01 0. -1.
</event>
<event>
 5   0  0.3806250E-03  0.5993464E+03  0.7818609E-02  0.9906763E-01
        3   -1    0    0  501    0  0.00000000000E+00  0.00000000000E+00  0.19838541842E+03  0.19838544413E+03  0.10100000352E+00 0. -1.
       -3   -1    0    0    0  501  0.00000000000E+00  0.00000000000E+00 -0.45267445601E+03  0.45267446728E+03  0.10100000352E+00 0.  1.
    10030    2    1    2    0    0  0.00000000000E+00  0.00000000000E+00 -0.25428903759E+03  0.65105991141E+03  0.59934638867E+03 0.  0.
        5    1    3    3  502    0  0.24157656280E+03 -0.25045741953E+02 -0.31777223581E+03  0.39998476063E+03  0.46999998093E+01 0. -1.
       -5    1    3    3    0  502 -0.24157656280E+03  0.25045741953E+02  0.63483198223E+02  0.25107515078E+03  0.46999998093E+01 0.  1.
</event>
<event>
 5   0  0.6078658E-03  0.6013152E+03  0.7818609E-02  0.9902681E-01
       -1   -1    0    0    0  501  0.00000000000E+00  0.00000000000E+00  0.25387925498E+03  0.25387925503E+03  0.50400001928E-02 0.  1.
        1   -1    0    0  501    0  0.00000000000E+00  0.00000000000E+00 -0.35605500014E+03  0.35605500018E+03  0.50400001928E-02 0. -1.
    10030    2    1    2    0    0  0.00000000000E+00  0.00000000000E+00 -0.10217574516E+03  0.60993425521E+03  0.60131515263E+03 0.  0.
        2    1    3    3  502    0 -0.24867337858E+03  0.94737679052E+02 -0.19302684290E+03  0.32874464122E+03  0.25500000920E-02 0. -1.
       -2    1    3    3    0  502  0.24867337858E+03 -0.94737679052E+02  0.90851097740E+02  0.28118961399E+03  0.25500000920E-02 0.  1.
</event>
<event>
 5   0  0.5765045E-03  0.6006137E+03  0.7818609E-02  0.9904134E-01
        1   -1    0    0  501    0  0.00000000000E+00  0.00000000000E+00  0.10038218048E+04  0.10038218048E+04  0.50400001928E-02 0. -1.
       -1   -1    0    0    0  501  0.00000000000E+00  0.00000000000E+00 -0.89840835958E+02  0.89840836099E+02  0.50400001928E-02 0.  1.
    10030    2    1    2    0    0  0.00000000000E+00  0.00000000000E+00  0.91398096880E+03  0.10936626409E+04  0.60061365345E+03 0.  0.
        1    1    3    3  502    0  0.14990269711E+02  0.17462224763E+03  0.90103300328E+03  0.91792053609E+03  0.50400001928E-02 0. -1.
       -1    1    3    3    0  502 -0.14990269711E+02 -0.17462224763E+03  0.12947965519E+02  0.17574210478E+03  0.50400001928E-02 0.  1.
</event>
<event>
 5   0  0.5891927E-03  0.5996855E+03  0.7818609E-02  0.9906059E-01
        1   -1    0    0  501    0  0.00000000000E+00  0.00000000000E+00  0.12144804405E+04  0.12144804405E+04  0.50400001928E-02 0. -1.
       -1   -1    0    0    0  501  0.00000000000E+00  0.00000000000E+00 -0.74028106097E+02  0.74028106269E+02  0.50400001928E-02 0.  1.
    10030    2    1    2    0    0  0.00000000000E+00  0.00000000000E+00  0.11404523344E+04  0.12885085468E+04  0.59968554100E+03 0.  0.
        4    1    3    3  502    0 -0.20631659923E+03  0.18375070464E+03  0.82055165257E+03  0.86581608209E+03  0.12699999809E+01 0. -1.
       -4    1    3    3    0  502  0.20631659923E+03 -0.18375070464E+03  0.31990068187E+03  0.42269246472E+03  0.12699999809E+01 0.  1.
</event>
<event>
 5   0  0.9303190E-03  0.6000667E+03  0.7818609E-02  0.9905268E-01
       -2   -1    0    0    0  501  0.00000000000E+00  0.00000000000E+00  0.26708098718E+03  0.26708098719E+03  0.25500000920E-02 0.  1.
        2   -1    0    0  501    0  0.00000000000E+00  0.00000000000E+00 -0.33705136506E+03  0.33705136507E+03  0.25500000920E-02 0. -1.
    10030    2    1    2    0    0  0.00000000000E+00  0.00000000000E+00 -0.69970377878E+02  0.60413235226E+03  0.60006670068E+03 0.  0.
        4    1    3    3  502    0 -0.29030493030E+03 -0.73208227450E+02 -0.15307912606E+02  0.29978716152E+03  0.12699999809E+01 0.  1.
       -4    1    3    3    0  502  0.29030493030E+03  0.73208227450E+02 -0.54662465273E+02  0.30434519075E+03  0.12699999809E+01 0. -1.
</event>
<event>
 5   0  0.5790967E-03  0.6000622E+03  0.7818609E-02  0.9905277E-01
       -1   -1    0    0    0  501  0.00000000000E+00  0.00000000000E+00  0.19939130208E+03  0.19939130215E+03  0.50400001928E-02 0. -1.
        1   -1    0    0  501    0  0.00000000000E+00  0.00000000000E+00 -0.45146731466E+03  0.45146731469E+03  0.50400001928E-02 0.  1.
    10030    2    1    2    0    0  0.00000000000E+00  0.00000000000E+00 -0.25207601258E+03  0.65085861684E+03  0.60006218261E+03 0.  0.
        3    1    3    3  502    0 -0.29302523867E+03 -0.58592084826E+02 -0.15517908696E+03  0.33671558047E+03  0.10100000352E+00 0.  1.
       -3    1    3    3    0  502  0.29302523867E+03  0.58592084826E+02 -0.96896925622E+02  0.31414303637E+03  0.10100000352E+00 0. -1.
</event>
<event>
 5   0  0.5765045E-03  0.5999984E+03  0.7818609E-02  0.9905409E-01
       -1   -1    0    0    0  501  0.00000000000E+00  0.00000000000E+00  0.87834425058E+02  0.87834425203E+02  0.50400001928E-02 0.  1.
        1   -1    0    0  501    0  0.00000000000E+00  0.00000000000E+00 -0.10246498778E+04  0.10246498778E+04  0.50400001928E-02 0. -1.
    10030    2    1    2    0    0  0.00000000000E+00  0.00000000000E+00 -0.93681545276E+03  0.11124843030E+04  0.59999844330E+03 0.  0.
        1    1    3    3  502    0  0.21915556942E+03  0.20243295264E+03 -0.52678442634E+03  0.60540077286E+03  0.50400001928E-02 0. -1.
       -1    1    3    3    0  502 -0.21915556942E+03 -0.20243295264E+03 -0.41003102643E+03  0.50708353018E+03  0.50400001928E-02 0.  1.
</event>
<event>
 5   0  0.5765045E-03  0.5995046E+03  0.7818609E-02  0.9906434E-01
       -1   -1    0    0    0  501  0.00000000000E+00  0.00000000000E+00  0.10421491049E+03  0.10421491062E+03  0.50400001928E-02 0. -1.
        1   -1    0    0  501    0  0.00000000000E+00  0.00000000000E+00 -0.86217452616E+03  0.86217452617E+03  0.50400001928E-02 0.  1.
    10030    2    1    2    0    0  0.00000000000E+00  0.00000000000E+00 -0.75795961566E+03  0.96638943679E+03  0.59950459928E+03 0.  0.
        1    1    3    3  502    0 -0.13697121107E+03 -0.85180058510E+02 -0.78625505737E+03  0.80262928572E+03  0.50400001928E-02 0.  1.
       -1    1    3    3    0  502  0.13697121107E+03  0.85180058510E+02  0.28295441708E+02  0.16376015107E+03  0.50400001928E-02 0. -1.
</event>
<event>
 5   0  0.9303190E-03  0.5999371E+03  0.7818609E-02  0.9905537E-01
       -2   -1    0    0    0  501  0.00000000000E+00  0.00000000000E+00  0.22649049292E+03  0.22649049293E+03  0.25500000920E-02 0.  1.
        2   -1    0    0  501    0  0.00000000000E+00  0.00000000000E+00 -0.39728439846E+03  0.39728439847E+03  0.25500000920E-02 0. -1.
    10030    2    1    2    0    0  0.00000000000E+00  0.00000000000E+00 -0.17079390554E+03  0.62377489141E+03  0.59993712752E+03 0.  0.
        4    1    3    3  502    0  0.27632260497E+03 -0.21865099763E+02 -0.20461439623E+03  0.34453001125E+03  0.12699999809E+01 0. -1.
       -4    1    3    3    0  502 -0.27632260497E+03  0.21865099763E+02  0.33820490681E+02  0.27924488016E+03  0.12699999809E+01 0.  1.
</event>
<event>
 5   0  0.9822607E-03  0.6051762E+03  0.7818609E-02  0.9894725E-01
        2   -1    0    0  501    0  0.00000000000E+00  0.00000000000E+00  0.10984939030E+04  0.10984939030E+04  0.25500000920E-02 0.  1.
       -2   -1    0    0    0  501  0.00000000000E+00  0.00000000000E+00 -0.83350082868E+02  0.83350082907E+02  0.25500000920E-02 0. -1.
    10030    2    1    2    0    0  0.00000000000E+00  0.00000000000E+00  0.10151438201E+04  0.11818439859E+04  0.60517619871E+03 0.  0.
        3    1    3    3  502    0  0.19399537533E+02  0.17252121415E+03  0.23586878103E+02  0.17520348857E+03  0.10100000352E+00 0. -1.
       -3    1    3    3    0  502 -0.19399537533E+02 -0.17252121415E+03  0.99155694204E+03  0.10066404973E+04  0.10100000352E+00 0.  1.
</event>
<event>
 5   0  0.3806250E-03  0.5998335E+03  0.7818609E-02  0.9905752E-01
       -3   -1    0    0    0  501  0.00000000000E+00  0.00000000000E+00  0.99864472508E+02  0.99864523582E+02  0.10100000352E+00 0.  1.
        3   -1    0    0  501    0  0.00000000000E+00  0.00000000000E+00 -0.90072087038E+03  0.90072087605E+03  0.10100000352E+00 0. -1.
    10030    2    1    2    0    0  0.00000000000E+00  0.00000000000E+00 -0.80085639788E+03  0.10005853996E+04  0.59983345349E+03 0.  0.
        1    1    3    3  502    0 -0.26988349898E+03  0.16556145289E+02 -0.61688911190E+03  0.67354538479E+03  0.50400001928E-02 0. -1.
       -1    1    3    3    0  502  0.26988349898E+03 -0.16556145289E+02 -0.18396728598E+03  0.32704001484E+03  0.50400001928E-02 0.  1.
</event>
<event>
 5   0  0.9162342E-03  0.5987472E+03  0.7818609E-02  0.9908009E-01
       -2   -1    0    0    0  501  0.00000000000E+00  0.00000000000E+00  0.20191763843E+03  0.20191763844E+03  0.25500000920E-02 0.  1.
        2   -1    0    0  501    0  0.00000000000E+00  0.00000000000E+00 -0.44386681809E+03  0.44386681810E+03  0.25500000920E-02 0. -1.
    10030    2    1    2    0    0  0.00000000000E+00  0.00000000000E+00 -0.24194917967E+03  0.64578445654E+03  0.59874715763E+03 0.  0.
        5    1    3    3  502    0 -0.72189294071E+02  0.14675044549E+03  0.14943098146E+03  0.22158225481E+03  0.46999998093E+01 0.  1.
       -5    1    3    3    0  502  0.72189294071E+02 -0.14675044549E+03 -0.39138016113E+03  0.42420220173E+03  0.46999998093E+01 0. -1.
</event>
<event>
 5   0  0.9822607E-03  0.6008585E+03  0.7818609E-02  0.9903627E-01
        2   -1    0    0  501    0  0.00000000000E+00  0.00000000000E+00  0.98356079832E+03  0.98356079833E+03  0.25500000920E-02 0.  1.
       -2   -1    0    0    0  501  0.00000000000E+00  0.00000000000E+00 -0.91766300928E+02  0.91766300963E+02  0.25500000920E-02 0. -1.
    10030    2    1    2    0    0  0.00000000000E+00  0.00000000000E+00  0.89179449739E+03  0.10753270993E+04  0.60085850654E+03 0.  0.
        3    1    3    3  502    0 -0.38870048240E+02  0.66885231347E+02  0.96543026004E+03  0.96852470904E+03  0.10100000352E+00 0.  1.
       -3    1    3    3    0  502  0.38870048240E+02 -0.66885231347E+02 -0.73635762642E+02  0.10680239025E+03  0.10100000352E+00 0. -1.
</event>
<event>
 5   0  0.5790967E-03  0.5993155E+03  0.7818609E-02  0.9906827E-01
        1   -1    0    0  501    0  0.00000000000E+00  0.00000000000E+00  0.12031167910E+04  0.12031167910E+04  0.50400001928E-02 0. -1.
       -1   -1    0    0    0  501  0.00000000000E+00  0.00000000000E+00 -0.74635114831E+02  0.74635115001E+02  0.50400001928E-02 0.  1.
    10030    2    1    2    0    0  0.00000000000E+00  0.00000000000E+00  0.11284816762E+04  0.12777519060E+04  0.59931547608E+03 0.  0.
        3    1    3    3  502    0 -0.19016543810E+03 -0.19254153248E+03  0.83859790543E+03  0.88118192944E+03  0.10100000352E+00 0. -1.
       -3    1    3    3    0  502  0.19016543810E+03  0.19254153248E+03  0.28988377073E+03  0.39656997656E+03  0.10100000352E+00 0.  1.
</event>
<event>
 5   0  0.9162342E-03  0.5920108E+03  0.7818609E-02  0.9922121E-01
       -2   -1    0    0    0  501  0.00000000000E+00  0.00000000000E+00  0.89307798580E+02  0.89307798616E+02  0.25500000920E-02 0.  1.
        2   -1    0    0  501    0  0.00000000000E+00  0.00000000000E+00 -0.98109223016E+03  0.98109223016E+03  0.25500000920E-02 0. -1.
    10030    2    1    2    0    0  0.00000000000E+00  0.00000000000E+00 -0.89178443158E+03  0.10704000288E+04  0.59201076781E+03 0.  0.
        5    1    3    3  502    0 -0.17396191393E+03 -0.14738824110E+03 -0.78709214583E+03  0.81946456734E+03  0.46999998093E+01 0. -1.
       -5    1    3    3    0  502  0.17396191393E+03  0.14738824110E+03 -0.10469228575E+03  0.25093546144E+03  0.46999998093E+01 0.  1.
</event>
<event>
 5   0  0.9391405E-03  0.6007139E+03  0.7818609E-02  0.9903926E-01
       -2   -1    0    0    0  501  0.00000000000E+00  0.00000000000E+00  0.52721778133E+02  0.52721778195E+02  0.25500000920E-02 0.  1.
        2   -1    0    0  501    0  0.00000000000E+00  0.00000000000E+00 -0.17111389434E+04  0.17111389434E+04  0.25500000920E-02 0. -1.
    10030    2    1    2    0    0  0.00000000000E+00  0.00000000000E+00 -0.16584171653E+04  0.17638607216E+04  0.60071386795E+03 0.  0.
        2    1    3    3  502    0 -0.17915397765E+03  0.81475588090E+02 -0.16299214157E+03  0.25554032438E+03  0.25500000920E-02 0.  1.
       -2    1    3    3    0  502  0.17915397765E+03 -0.81475588090E+02 -0.14954250237E+04  0.15083203972E+04  0.25500000920E-02 0. -1.
</event>
<event>
 5   0  0.9162342E-03  0.6156332E+03  0.7818609E-02  0.9873493E-01
        2   -1    0    0  501    0  0.00000000000E+00  0.00000000000E+00  0.43057196064E+03  0.43057196065E+03  0.25500000920E-02 0.  1.
       -2   -1    0    0    0  501  0.00000000000E+00  0.00000000000E+00 -0.22005860032E+03  0.22005860033E+03  0.25500000920E-02 0. -1.
    10030    2    1    2    0    0  0.00000000000E+00  0.00000000000E+00  0.21051336033E+03  0.65063056098E+03  0.61563321223E+03 0.  0.
        5    1    3    3  502    0  0.72433650983E+02 -0.49326602182E+02  0.41707015098E+03  0.42620341190E+03  0.46999998093E+01 0.  1.
       -5    1    3    3    0  502 -0.72433650983E+02  0.49326602182E+02 -0.20655679066E+03  0.22442714908E+03  0.46999998093E+01 0. -1.
</event>
<event>
 5   0  0.5765045E-03  0.6004463E+03  0.7818609E-02  0.9904481E-01
        1   -1    0    0  501    0  0.00000000000E+00  0.00000000000E+00  0.84786728593E+03  0.84786728595E+03  0.50400001928E-02 0.  1.
       -1   -1    0    0    0  501  0.00000000000E+00  0.00000000000E+00 -0.10630665020E+03  0.10630665032E+03  0.50400001928E-02 0. -1.
    10030    2    1    2    0    0  0.00000000000E+00  0.00000000000E+00  0.74156063573E+03  0.95417393627E+03  0.60044627087E+03 0.  0.
        1    1    3    3  502    0 -0.19902709873E+03 -0.56340259282E+02  0.24997148295E+02  0.20835274966E+03  0.50400001928E-02 0. -1.
       -1    1    3    3    0  502  0.19902709873E+03  0.56340259282E+02  0.71656348743E+03  0.74582118661E+03  0.50400001928E-02 0.  1.
</event>
<event>
 5   0  0.3806250E-03  0.6004068E+03  0.7818609E-02  0.9904563E-01
       -3   -1    0    0    0  501  0.00000000000E+00  0.00000000000E+00  0.46694013740E+03  0.46694014833E+03  0.10100000352E+00 0. -1.
        3   -1    0    0  501    0  0.00000000000E+00  0.00000000000E+00 -0.19300559638E+03  0.19300562281E+03  0.10100000352E+00 0.  1.
    10030    2    1    2    0    0  0.00000000000E+00  0.00000000000E+00  0.27393454102E+03  0.65994577113E+03  0.60040676884E+03 0.  0.
        3    1    3    3  502    0 -0.21157476363E+03  0.11293022442E+03 -0.61507089713E+02  0.24758886986E+03  0.10100000352E+00 0.  1.
       -3    1    3    3    0  502  0.21157476363E+03 -0.11293022442E+03  0.33544163074E+03  0.41235690127E+03  0.10100000352E+00 0. -1.
</event>
<event>
 5   0  0.9391405E-03  0.5954686E+03  0.7818609E-02  0.9914852E-01
       -2   -1    0    0    0  501  0.00000000000E+00  0.00000000000E+00  0.19967513926E+03  0.19967513927E+03  0.25500000920E-02 0. -1.
        2   -1    0    0  501    0  0.00000000000E+00  0.00000000000E+00 -0.44394969441E+03  0.44394969442E+03  0.25500000920E-02 0.  1.
    10030    2    1    2    0    0  0.00000000000E+00  0.00000000000E+00 -0.24427455516E+03  0.64362483369E+03  0.59546861231E+03 0.  0.
        2    1    3    3  502    0  0.13862817987E+03  0.25221705449E+03 -0.39717737083E+02  0.29053177704E+03  0.25500000920E-02 0. -1.
       -2    1    3    3    0  502 -0.13862817987E+03 -0.25221705449E+03 -0.20455681807E+03  0.35309305665E+03  0.25500000920E-02 0.  1.
</event>
<event>
 5   0  0.5819446E-03  0.5959959E+03  0.7818609E-02  0.9913748E-01
       -1   -1    0    0    0  501  0.00000000000E+00  0.00000000000E+00  0.10943691241E+03  0.10943691253E+03  0.50400001928E-02 0. -1.
        1   -1    0    0  501    0  0.00000000000E+00  0.00000000000E+00 -0.81145185832E+03  0.81145185833E+03  0.50400001928E-02 0.  1.
    10030    2    1    2    0    0  0.00000000000E+00  0.00000000000E+00 -0.70201494591E+03  0.92088877086E+03  0.59599592618E+03 0.  0.
        5    1    3    3  502    0 -0.20504781857E+03 -0.19655901891E+03 -0.21194064226E+03  0.35443050328E+03  0.46999998093E+01 0. -1.
       -5    1    3    3    0  502  0.20504781857E+03  0.19655901891E+03 -0.49007430365E+03  0.56645826758E+03  0.46999998093E+01 0.  1.
</event>
<event>
 5   0  0.5790967E-03  0.5984043E+03  0.7818609E-02  0.9908722E-01
        1   -1    0    0  501    0  0.00000000000E+00  0.00000000000E+00  0.44399481746E+03  0.44399481749E+03  0.50400001928E-02 0. -1.
       -1   -1    0    0    0  501  0.00000000000E+00  0.00000000000E+00 -0.20162830468E+03  0.20162830474E+03  0.50400001928E-02 0.  1.
    10030    2    1    2    0    0  0.00000000000E+00  0.00000000000E+00  0.24236651278E+03  0.64562312224E+03  0.59840428595E+03 0.  0.
        3    1    3    3  502    0  0.13905286066E+03  0.16563338343E+03 -0.10189722058E+03  0.23906729080E+03  0.10100000352E+00 0.  1.
       -3    1    3    3    0  502 -0.13905286066E+03 -0.16563338343E+03  0.34426373337E+03  0.40655583144E+03  0.10100000352E+00 0. -1.
</event>
<event>
 5   0  0.9303190E-03  0.5997790E+03  0.7818609E-02  0.9905865E-01
       -2   -1    0    0    0  501  0.00000000000E+00  0.00000000000E+00  0.21183100160E+03  0.21183100162E+03  0.25500000920E-02 0.  1.
        2   -1    0    0  501    0  0.00000000000E+00  0.00000000000E+00 -0.42455409420E+03  0.42455409421E+03  0.25500000920E-02 0. -1.
    10030    2    1    2    0    0  0.00000000000E+00  0.00000000000E+00 -0.21272309259E+03  0.63638509582E+03  0.59977902270E+03 0.  0.
        4    1    3    3  502    0  0.20674702159E+03  0.25797704173E+02  0.12249276589E+03  0.24169390368E+03  0.12699999809E+01 0.  1.
       -4    1    3    3    0  502 -0.20674702159E+03 -0.25797704173E+02 -0.33521585849E+03  0.39469119215E+03  0.12699999809E+01 0. -1.
</event>
<event>
 5   0  0.5790967E-03  0.5988928E+03  0.7818609E-02  0.9907706E-01
       -1   -1    0    0    0  501  0.00000000000E+00  0.00000000000E+00  0.22036119491E+03  0.22036119497E+03  0.50400001928E-02 0.  1.
        1   -1    0    0  501    0  0.00000000000E+00  0.00000000000E+00 -0.40691436721E+03  0.40691436724E+03  0.50400001928E-02 0. -1.
    10030    2    1    2    0    0  0.00000000000E+00  0.00000000000E+00 -0.18655317230E+03  0.62727556221E+03  0.59889276573E+03 0.  0.
        3    1    3    3  502    0 -0.12831307501E+03 -0.48872335947E+02  0.18544659023E+03  0.23074487744E+03  0.10100000352E+00 0.  1.
       -3    1    3    3    0  502  0.12831307501E+03  0.48872335947E+02 -0.37199976252E+03  0.39653068476E+03  0.10100000352E+00 0. -1.
</event>
<event>
 5   0  0.5891927E-03  0.6004721E+03  0.7818609E-02  0.9904427E-01
       -1   -1    0    0    0  501  0.00000000000E+00  0.00000000000E+00  0.18320167687E+03  0.18320167694E+03  0.50400001928E-02 0.  1.
        1   -1    0    0  501    0  0.00000000000E+00  0.00000000000E+00 -0.49203525044E+03  0.49203525047E+03  0.50400001928E-02 0. -1.
    10030    2    1    2    0    0  0.00000000000E+00  0.00000000000E+00 -0.30883357357E+03  0.67523692740E+03  0.60047209091E+03 0.  0.
        4    1    3    3  502    0 -0.12764981720E+03 -0.10185426494E+03  0.12888679486E+03  0.20804371153E+03  0.12699999809E+01 0.  1.
       -4    1    3    3    0  502  0.12764981720E+03  0.10185426494E+03 -0.43772036844E+03  0.46719321588E+03  0.12699999809E+01 0. -1.
</event>
<event>
 5   0  0.5790967E-03  0.6000053E+03  0.7818609E-02  0.9905395E-01
       -1   -1    0    0    0  501  0.00000000000E+00  0.00000000000E+00  0.71625412722E+02  0.71625412900E+02  0.50400001928E-02 0. -1.
        1   -1    0    0  501    0  0.00000000000E+00  0.00000000000E+00 -0.12565592700E+04  0.12565592700E+04  0.50400001928E-02 0.  1.
    10030    2    1    2    0    0  0.00000000000E+00  0.00000000000E+00 -0.11849338573E+04  0.13281846829E+04  0.60000525481E+03 0.  0.
        3    1    3    3  502    0  0.99575112177E+02 -0.46472417677E+02 -0.12104071926E+04  0.12153849064E+04  0.10100000352E+00 0.  1.
       -3    1    3    3    0  502 -0.99575112177E+02  0.46472417677E+02  0.25473335325E+02  0.11279977652E+03  0.10100000352E+00 0. -1.
</event>
<event>
 5   0  0.9822607E-03  0.5970149E+03  0.7818609E-02  0.9911619E-01
        2   -1    0    0  501    0  0.00000000000E+00  0.00000000000E+00  0.62775325940E+03  0.62775325941E+03  0.25500000920E-02 0. -1.
       -2   -1    0    0    0  501  0.00000000000E+00  0.00000000000E+00 -0.14194542456E+03  0.14194542458E+03  0.25500000920E-02 0.  1.
    10030    2    1    2    0    0  0.00000000000E+00  0.00000000000E+00  0.48580783484E+03  0.76969868399E+03  0.59701491753E+03 0.  0.
        3    1    3    3  502    0 -0.12375020672E+02  0.28030505815E+03  0.11153604519E+03  0.30193437423E+03  0.10100000352E+00 0.  1.
       -3    1    3    3    0  502  0.12375020672E+02 -0.28030505815E+03  0.37427178965E+03  0.46776430977E+03  0.10100000352E+00 0. -1.
</event>
<event>
 5   0  0.5891927E-03  0.5986182E+03  0.7818609E-02  0.9908277E-01
       -1   -1    0    0    0  501  0.00000000000E+00  0.00000000000E+00  0.28687658356E+03  0.28687658360E+03  0.50400001928E-02 0. -1.
        1   -1    0    0  501    0  0.00000000000E+00  0.00000000000E+00 -0.31228036405E+03  0.31228036409E+03  0.50400001928E-02 0.  1.
    10030    2    1    2    0    0  0.00000000000E+00  0.00000000000E+00 -0.25403780486E+02  0.59915694769E+03  0.59861815534E+03 0.  0.
        4    1    3    3  502    0 -0.13640169154E+03  0.19529572091E+03  0.16867509511E+03  0.29188823318E+03  0.12699999809E+01 0. -1.
       -4    1    3    3    0  502  0.13640169154E+03 -0.19529572091E+03 -0.19407887559E+03  0.30726871451E+03  0.12699999809E+01 0.  1.
</event>
<event>
 5   0  0.5819446E-03  0.5847818E+03  0.7818609E-02  0.9937492E-01
        1   -1    0    0  501    0  0.00000000000E+00  0.00000000000E+00  0.55036954421E+03  0.55036954423E+03  0.50400001928E-02 0.  1.
       -1   -1    0    0    0  501  0.00000000000E+00  0.00000000000E+00 -0.15533640603E+03  0.15533640611E+03  0.50400001928E-02 0. -1.
    10030    2    1    2    0    0  0.00000000000E+00  0.00000000000E+00  0.39503313817E+03  0.70570595034E+03  0.58478176108E+03 0.  0.
        5    1    3    3  502    0 -0.21603899060E+03  0.45111368504E+02 -0.33866842055E+02  0.22333144431E+03  0.46999998093E+01 0. -1.
       -5    1    3    3    0  502  0.21603899060E+03 -0.45111368504E+02  0.42889998023E+03  0.48237450603E+03  0.46999998093E+01 0.  1.
</event>
<event>
 5   0  0.9162342E-03  0.5992052E+03  0.7818609E-02  0.9907056E-01
       -2   -1    0    0    0  501  0.00000000000E+00  0.00000000000E+00  0.97065292567E+02  0.97065292600E+02  0.25500000920E-02 0.  1.
        2   -1    0    0  501    0  0.00000000000E+00  0.00000000000E+00 -0.92475608920E+03  0.92475608920E+03  0.25500000920E-02 0. -1.
    10030    2    1    2    0    0  0.00000000000E+00  0.00000000000E+00 -0.82769079663E+03  0.10218213818E+04  0.59920520815E+03 0.  0.
        5    1    3    3  502    0  0.63970951516E+02  0.92465631178E+02 -0.88734479187E+03  0.89445237171E+03  0.46999998093E+01 0. -1.
       -5    1    3    3    0  502 -0.63970951516E+02 -0.92465631178E+02  0.59653995240E+02  0.12736901010E+03  0.46999998093E+01 0.  1.
</event>
<event>
 5   0  0.5819446E-03  0.5987595E+03  0.7818609E-02  0.9907983E-01
        1   -1    0    0  501    0  0.00000000000E+00  0.00000000000E+00  0.36485358575E+03  0.36485358579E+03  0.50400001928E-02 0. -1.
       -1   -1    0    0    0  501  0.00000000000E+00  0.00000000000E+00 -0.24565533256E+03  0.24565533261E+03  0.50400001928E-02 0.  1.
    10030    2    1    2    0    0  0.00000000000E+00  0.00000000000E+00  0.11919825319E+03  0.61050891840E+03  0.59875948083E+03 0.  0.
        5    1    3    3  502    0  0.29519967937E+03  0.28483857556E+02  0.18157277279E+02  0.29716318338E+03  0.46999998093E+01 0.  1.
       -5    1    3    3    0  502 -0.29519967937E+03 -0.28483857556E+02  0.10104097591E+03  0.31334573502E+03  0.46999998093E+01 0. -1.
</event>
<event>
 5   0  0.9303190E-03  0.6011912E+03  0.7818609E-02  0.9902938E-01
        2   -1    0    0  501    0  0.00000000000E+00  0.00000000000E+00  0.21786047398E+04  0.21786047398E+04  0.25500000920E-02 0.  1.
       -2   -1    0    0    0  501  0.00000000000E+00  0.00000000000E+00 -0.41475040221E+02  0.41475040300E+02  0.25500000920E-02 0. -1.
    10030    2    1    2    0    0  0.00000000000E+00  0.00000000000E+00  0.21371296996E+04  0.22200797801E+04  0.60119121517E+03 0.  0.
        4    1    3    3  502    0 -0.72038333052E+02  0.55688960784E+02  0.21264433757E+04  0.21283923099E+04  0.12699999809E+01 0.  1.
       -4    1    3    3    0  502  0.72038333052E+02 -0.55688960784E+02  0.10686323903E+02  0.91687470249E+02  0.12699999809E+01 0. -1.
</event>
<event>
 5   0  0.6078658E-03  0.6011298E+03  0.7818609E-02  0.9903065E-01
       -1   -1    0    0    0  501  0.00000000000E+00  0.00000000000E+00  0.10398427646E+03  0.10398427658E+03  0.50400001928E-02 0.  1.
        1   -1    0    0  501    0  0.00000000000E+00  0.00000000000E+00 -0.86877804002E+03  0.86877804003E+03  0.50400001928E-02 0. -1.
    10030    2    1    2    0    0  0.00000000000E+00  0.00000000000E+00 -0.76479376356E+03  0.97276231661E+03  0.60112978952E+03 0.  0.
        2    1    3    3  502    0 -0.20835640691E+03  0.21370653486E+03 -0.43975555554E+03  0.53147702112E+03  0.25500000920E-02 0. -1.
       -2    1    3    3    0  502  0.20835640691E+03 -0.21370653486E+03 -0.32503820802E+03  0.44128529550E+03  0.25500000920E-02 0.  1.
</event>
<event>
 5   0  0.3806250E-03  0.6004962E+03  0.7818609E-02  0.9904377E-01
        4   -1    0    0  501    0  0.00000000000E+00  0.00000000000E+00  0.26523813963E+03  0.26524118009E+03  0.12699999809E+01 0. -1.
       -4   -1    0    0    0  501  0.00000000000E+00  0.00000000000E+00 -0.33987306156E+03  0.33987543435E+03  0.12699999809E+01 0.  1.
    10030    2    1    2    0    0  0.00000000000E+00  0.00000000000E+00 -0.74634921922E+02  0.60511661444E+03  0.60049624936E+03 0.  0.
        5    1    3    3  502    0  0.28720489786E+03 -0.53930728026E+02 -0.10663385849E+03  0.31110777321E+03  0.46999998093E+01 0.  1.
       -5    1    3    3    0  502 -0.28720489786E+03  0.53930728026E+02  0.31998936568E+02  0.29400884122E+03  0.46999998093E+01 0. -1.
</event>
<event>
 5   0  0.5765045E-03  0.5968558E+03  0.7818609E-02  0.9911951E-01
       -1   -1    0    0    0  501  0.00000000000E+00  0.00000000000E+00  0.13508907778E+03  0.13508907788E+03  0.50400001928E-02 0.  1.
        1   -1    0    0  501    0  0.00000000000E+00  0.00000000000E+00 -0.65926294220E+03  0.65926294222E+03  0.50400001928E-02 0. -1.
    10030    2    1    2    0    0  0.00000000000E+00  0.00000000000E+00 -0.52417386441E+03  0.79435202010E+03  0.59685583829E+03 0.  0.
        1    1    3    3  502    0  0.35224154482E+02  0.28249510501E+03 -0.38123726319E+03  0.47580045848E+03  0.50400001928E-02 0. -1.
       -1    1    3    3    0  502 -0.35224154482E+02 -0.28249510501E+03 -0.14293660122E+03  0.31855156162E+03  0.50400001928E-02 0.  1.
</event>
<event>
 5   0  0.9028473E-03  0.6011329E+03  0.7818609E-02  0.9903058E-01
        2   -1    0    0  501    0  0.00000000000E+00  0.00000000000E+00  0.37199203470E+03  0.37199203471E+03  0.25500000920E-02 0.  1.
       -2   -1    0    0    0  501  0.00000000000E+00  0.00000000000E+00 -0.24285521583E+03  0.24285521585E+03  0.25500000920E-02 0. -1.
    10030    2    1    2    0    0  0.00000000000E+00  0.00000000000E+00  0.12913681887E+03  0.61484725055E+03  0.60113294996E+03 0.  0.
        1    1    3    3  502    0 -0.21004929934E+03 -0.24128685800E+02  0.28307105172E+03  0.35331589545E+03  0.50400001928E-02 0.  1.
       -1    1    3    3    0  502  0.21004929934E+03  0.24128685800E+02 -0.15393423286E+03  0.26153135510E+03  0.50400001928E-02 0. -1.
</event>
<event>
 5   0  0.6078658E-03  0.5831671E+03  0.7818609E-02  0.9940958E-01
        1   -1    0    0  501    0  0.00000000000E+00  0.00000000000E+00  0.21928725781E+03  0.21928725786E+03  0.50400001928E-02 0. -1.
       -1   -1    0    0    0  501  0.00000000000E+00  0.00000000000E+00 -0.38771507714E+03  0.38771507717E+03  0.50400001928E-02 0.  1.
    10030    2    1    2    0    0  0.00000000000E+00  0.00000000000E+00 -0.16842781933E+03  0.60700233503E+03  0.58316713249E+03 0.  0.
        2    1    3    3  502    0 -0.28185058827E+03  0.62208355349E+01 -0.16170487701E+03  0.32500295408E+03  0.25500000920E-02 0.  1.
       -2    1    3    3    0  502  0.28185058827E+03 -0.62208355349E+01 -0.67229423193E+01  0.28199938096E+03  0.25500000920E-02 0. -1.
</event>
<event>
 5   0  0.3806250E-03  0.6006439E+03  0.7818609E-02  0.9904071E-01
        3   -1    0    0  501    0  0.00000000000E+00  0.00000000000E+00  0.16803464218E+03  0.16803467253E+03  0.10100000352E+00 0.  1.
       -3   -1    0    0    0  501  0.00000000000E+00  0.00000000000E+00 -0.53675398247E+03  0.53675399197E+03  0.10100000352E+00 0. -1.
    10030    2    1    2    0    0  0.00000000000E+00  0.00000000000E+00 -0.36871934029E+03  0.70478866450E+03  0.60064391257E+03 0.  0.
        4    1    3    3  502    0  0.14037394410E+03 -0.16857292381E+03 -0.42503303695E+03  0.47830572882E+03  0.12699999809E+01 0. -1.
       -4    1    3    3    0  502 -0.14037394410E+03  0.16857292381E+03  0.56313696657E+02  0.22648293568E+03  0.12699999809E+01 0.  1.
</event>
<event>
 5   0  0.6078658E-03  0.5997478E+03  0.7818609E-02  0.9905929E-01
       -1   -1    0    0    0  501  0.00000000000E+00  0.00000000000E+00  0.68953190539E+03  0.68953190541E+03  0.50400001928E-02 0. -1.
        1   -1    0    0  501    0  0.00000000000E+00  0.00000000000E+00 -0.13041362003E+03  0.13041362013E+03  0.50400001928E-02 0.  1.
    10030    2    1    2    0    0  0.00000000000E+00  0.00000000000E+00  0.55911828536E+03  0.81994552554E+03  0.59974778685E+03 0.  0.
        2    1    3    3  502    0 -0.20633260977E+03  0.17642031637E+03  0.10540391756E+03  0.29121686031E+03  0.25500000920E-02 0.  1.
       -2    1    3    3    0  502  0.20633260977E+03 -0.17642031637E+03  0.45371436780E+03  0.52872866523E+03  0.25500000920E-02 0. -1.
</event>
<event>
 5   0  0.9162342E-03  0.5975694E+03  0.7818609E-02  0.9910462E-01
       -2   -1    0    0    0  501  0.00000000000E+00  0.00000000000E+00  0.72255195876E+02  0.72255195921E+02  0.25500000920E-02 0.  1.
        2   -1    0    0  501    0  0.00000000000E+00  0.00000000000E+00 -0.12355140684E+04  0.12355140684E+04  0.25500000920E-02 0. -1.
    10030    2    1    2    0    0  0.00000000000E+00  0.00000000000E+00 -0.11632588725E+04  0.13077692643E+04  0.59756944719E+03 0.  0.
        5    1    3    3  502    0  0.29387654256E+02  0.70877869471E+02  0.50242673489E+02  0.91835302803E+02  0.46999998093E+01 0.  1.
       -5    1    3    3    0  502 -0.29387654256E+02 -0.70877869471E+02 -0.12135015460E+04  0.12159339615E+04  0.46999998093E+01 0. -1.
</event>
<event>
 5   0  0.9303190E-03  0.6105046E+03  0.7818609E-02  0.9883849E-01
        2   -1    0    0  501    0  0.00000000000E+00  0.00000000000E+00  0.94816148645E+02  0.94816148680E+02  0.25500000920E-02 0.  1.
       -2   -1    0    0    0  501  0.00000000000E+00  0.00000000000E+00 -0.98273294799E+03  0.98273294799E+03  0.25500000920E-02 0. -1.
    10030    2    1    2    0    0  0.00000000000E+00  0.00000000000E+00 -0.88791679934E+03  0.10775490967E+04  0.61050455623E+03 0.  0.
        4    1    3    3  502    0  0.13756281966E+03  0.85633607813E+02  0.12633689906E+02  0.16253574118E+03  0.12699999809E+01 0.  1.
       -4    1    3    3    0  502 -0.13756281966E+03 -0.85633607813E+02 -0.90055048925E+03  0.91501335549E+03  0.12699999809E+01 0. -1.
</event>
<event>
 5   0  0.6078658E-03  0.6011385E+03  0.7818609E-02  0.9903047E-01
       -1   -1    0    0    0  501  0.00000000000E+00  0.00000000000E+00  0.23225619815E+03  0.23225619820E+03  0.50400001928E-02 0.  1.
        1   -1    0    0  501    0  0.00000000000E+00  0.00000000000E+00 -0.38897511103E+03  0.38897511106E+03  0.50400001928E-02 0. -1.
    10030    2    1    2    0    0  0.00000000000E+00  0.00000000000E+00 -0.15671891289E+03  0.62123130926E+03  0.60113852144E+03 0.  0.
        2    1    3    3  502    0  0.25594011281E+03 -0.15697434272E+03 -0.63906473241E+02  0.30696957984E+03  0.25500000920E-02 0.  1.
       -2    1    3    3    0  502 -0.25594011281E+03  0.15697434272E+03 -0.92812439645E+02  0.31426172942E+03  0.25500000920E-02 0. -1.
</event>
<event>
 5   0  0.5765045E-03  0.6014422E+03  0.7818609E-02  0.9902418E-01
       -1   -1    0    0    0  501  0.00000000000E+00  0.00000000000E+00  0.54602897936E+03  0.54602897938E+03  0.50400001928E-02 0.  1.
        1   -1    0    0  501    0  0.00000000000E+00  0.00000000000E+00 -0.16561974968E+03  0.16561974976E+03  0.50400001928E-02 0. -1.
    10030    2    1    2    0    0  0.00000000000E+00  0.00000000000E+00  0.38040922967E+03  0.71164872914E+03  0.60144220974E+03 0.  0.
        1    1    3    3  502    0  0.17076662548E+03  0.18238201283E+03  0.38822896213E+03  0.46167755635E+03  0.50400001928E-02 0.  1.
       -1    1    3    3    0  502 -0.17076662548E+03 -0.18238201283E+03 -0.78197324549E+01  0.24997117278E+03  0.50400001928E-02 0. -1.
</event>
<event>
 5   0  0.5790967E-03  0.5984745E+03  0.7818609E-02  0.9908576E-01
        1   -1    0    0  501    0  0.00000000000E+00  0.00000000000E+00  0.33300685200E+03  0.33300685204E+03  0.50400001928E-02 0. -1.
       -1   -1    0    0    0  501  0.00000000000E+00  0.00000000000E+00 -0.26889217324E+03  0.26889217329E+03  0.50400001928E-02 0.  1.
    10030    2    1    2    0    0  0.00000000000E+00  0.00000000000E+00  0.64114678753E+02  0.60189902533E+03  0.59847451463E+03 0.  0.
        3    1    3    3  502    0  0.28096933411E+03  0.79068224079E+02 -0.34254571100E+02  0.29388592449E+03  0.10100000352E+00 0. -1.
       -3    1    3    3    0  502 -0.28096933411E+03 -0.79068224079E+02  0.98369249853E+02  0.30801310084E+03  0.10100000352E+00 0.  1.
</event>
<event>
 5   0  0.9391405E-03  0.5999225E+03  0.7818609E-02  0.9905567E-01
       -2   -1    0    0    0  501  0.00000000000E+00  0.00000000000E+00  0.81136762372E+02  0.81136762412E+02  0.25500000920E-02 0.  1.
        2   -1    0    0  501    0  0.00000000000E+00  0.00000000000E+00 -0.11089515475E+04  0.11089515475E+04  0.25500000920E-02 0. -1.
    10030    2    1    2    0    0  0.00000000000E+00  0.00000000000E+00 -0.10278147851E+04  0.11900883099E+04  0.59992245572E+03 0.  0.
        2    1    3    3  502    0  0.81079805669E+02  0.51189978670E+02  0.49915127318E+02  0.10810119678E+03  0.25500000920E-02 0.  1.
       -2    1    3    3    0  502 -0.81079805669E+02 -0.51189978670E+02 -0.10777299125E+04  0.10819871132E+04  0.25500000920E-02 0. -1.
</event>
<event>
 5   0  0.5765045E-03  0.6010006E+03  0.7818609E-02  0.9903332E-01
       -1   -1    0    0    0  501  0.00000000000E+00  0.00000000000E+00  0.18996237800E+03  0.18996237806E+03  0.50400001928E-02 0. -1.
        1   -1    0    0  501    0  0.00000000000E+00  0.00000000000E+00 -0.47535957192E+03  0.47535957195E+03  0.50400001928E-02 0.  1.
    10030    2    1    2    0    0  0.00000000000E+00  0.00000000000E+00 -0.28539719392E+03  0.66532195001E+03  0.60100061470E+03 0.  0.
        1    1    3    3  502    0  0.18638778439E+03  0.16608700506E+02 -0.40298852905E+03  0.44431521431E+03  0.50400001928E-02 0.  1.
       -1    1    3    3    0  502 -0.18638778439E+03 -0.16608700506E+02  0.11759133512E+03  0.22100673570E+03  0.50400001928E-02 0. -1.
</event>
<event>
 5   0  0.9162342E-03  0.6000905E+03  0.7818609E-02  0.9905218E-01
       -2   -1    0    0    0  501  0.00000000000E+00  0.00000000000E+00  0.18360954733E+03  0.18360954735E+03  0.25500000920E-02 0.  1.
        2   -1    0    0  501    0  0.00000000000E+00  0.00000000000E+00 -0.49031846018E+03  0.49031846019E+03  0.25500000920E-02 0. -1.
    10030    2    1    2    0    0  0.00000000000E+00  0.00000000000E+00 -0.30670891285E+03  0.67392800753E+03  0.60009049494E+03 0.  0.
        5    1    3    3  502    0  0.24322609643E+03  0.17268718197E+03 -0.11739488111E+03  0.32059857285E+03  0.46999998093E+01 0. -1.
       -5    1    3    3    0  502 -0.24322609643E+03 -0.17268718197E+03 -0.18931403174E+03  0.35332943469E+03  0.46999998093E+01 0.  1.
</event>
<event>
 5   0  0.5765045E-03  0.6010011E+03  0.7818609E-02  0.9903331E-01
        1   -1    0    0  501    0  0.00000000000E+00  0.00000000000E+00  0.55925022354E+03  0.55925022356E+03  0.50400001928E-02 0. -1.
       -1   -1    0    0    0  501  0.00000000000E+00  0.00000000000E+00 -0.16146722106E+03  0.16146722114E+03  0.50400001928E-02 0.  1.
    10030    2    1    2    0    0  0.00000000000E+00  0.00000000000E+00  0.39778300248E+03  0.72071744470E+03  0.60100109653E+03 0.  0.
        1    1    3    3  502    0  0.26985681265E+03  0.99022607758E+02  0.30393168711E+03  0.41833317659E+03  0.50400001928E-02 0. -1.
       -1    1    3    3    0  502 -0.26985681265E+03 -0.99022607758E+02  0.93851315372E+02  0.30238426811E+03  0.50400001928E-02 0.  1.
</event>
<event>
 5   0  0.9391405E-03  0.6171235E+03  0.7818609E-02  0.9870504E-01
       -2   -1    0    0    0  501  0.00000000000E+00  0.00000000000E+00  0.83766235288E+02  0.83766235327E+02  0.25500000920E-02 0. -1.
        2   -1    0    0  501    0  0.00000000000E+00  0.00000000000E+00 -0.11366196958E+04  0.11366196958E+04  0.25500000920E-02 0.  1.
    10030    2    1    2    0    0  0.00000000000E+00  0.00000000000E+00 -0.10528534605E+04  0.12203859311E+04  0.61712349783E+03 0.  0.
        2    1    3    3  502    0  0.83789499764E+02 -0.25295070274E+03 -0.83409532386E+03  0.87562534658E+03  0.25500000920E-02 0.  1.
       -2    1    3    3    0  502 -0.83789499764E+02  0.25295070274E+03 -0.21875813661E+03  0.34476058451E+03  0.25500000920E-02 0. -1.
</event>
<event>
 5   0  0.5819446E-03  0.5993393E+03  0.7818609E-02  0.9906778E-01
        1   -1    0    0  501    0  0.00000000000E+00  0.00000000000E+00  0.41289161766E+03  0.41289161769E+03  0.50400001928E-02 0.  1.
       -1   -1    0    0    0  501  0.00000000000E+00  0.00000000000E+00 -0.21749509715E+03  0.21749509721E+03  0.50400001928E-02 0. -1.
    10030    2    1    2    0    0  0.00000000000E+00  0.00000000000E+00  0.19539652050E+03  0.63038671490E+03  0.59933931132E+03 0.  0.
        5    1    3    3  502    0 -0.13387317604E+03 -0.11871929100E+03 -0.15509244107E+03  0.23683760806E+03  0.46999998093E+01 0. -1.
       -5    1    3    3    0  502  0.13387317604E+03  0.11871929100E+03  0.35048896157E+03  0.39354910684E+03  0.46999998093E+01 0.  1.
</event>
<event>
 5   0  0.9162342E-03  0.5998741E+03  0.7818609E-02  0.9905667E-01
        2   -1    0    0  501    0  0.00000000000E+00  0.00000000000E+00  0.54838915577E+03  0.54838915578E+03  0.25500000920E-02 0. -1.
       -2   -1    0    0    0  501  0.00000000000E+00  0.00000000000E+00 -0.16404817558E+03  0.16404817560E+03  0.25500000920E-02 0.  1.
    10030    2    1    2    0    0  0.00000000000E+00  0.00000000000E+00  0.38434098020E+03  0.71243733138E+03  0.59987412186E+03 0.  0.
        5    1    3    3  502    0  0.23988305771E+02 -0.29889000994E+03  0.18572280760E+03  0.35274031257E+03  0.46999998093E+01 0.  1.
       -5    1    3    3    0  502 -0.23988305771E+02  0.29889000994E+03  0.19861817259E+03  0.35969701880E+03  0.46999998093E+01 0. -1.
</event>
<event>
 5   0  0.5765045E-03  0.6003656E+03  0.7818609E-02  0.9904648E-01
        1   -1    0    0  501    0  0.00000000000E+00  0.00000000000E+00  0.24065405441E+04  0.24065405441E+04  0.50400001928E-02 0. -1.
       -1   -1    0    0    0  501  0.00000000000E+00  0.00000000000E+00 -0.37443670298E+02  0.37443670637E+02  0.50400001928E-02 0.  1.
    10030    2    1    2    0    0  0.00000000000E+00  0.00000000000E+00  0.23690968738E+04  0.24439842147E+04  0.60036559233E+03 0.  0.
        1    1    3    3  502    0  0.54036633808E+02 -0.98007510181E+02  0.23184346448E+04  0.23211343416E+04  0.50400001928E-02 0. -1.
       -1    1    3    3    0  502 -0.54036633808E+02  0.98007510181E+02  0.50662229030E+02  0.12284987310E+03  0.50400001928E-02 0.  1.
</event>
<event>
 5   0  0.6078658E-03  0.5992106E+03  0.7818609E-02  0.9907045E-01
       -1   -1    0    0    0  501  0.00000000000E+00  0.00000000000E+00  0.77345706006E+02  0.77345706170E+02  0.50400001928E-02 0. -1.
        1   -1    0    0  501    0  0.00000000000E+00  0.00000000000E+00 -0.11605470681E+04  0.11605470681E+04  0.50400001928E-02 0.  1.
    10030    2    1    2    0    0  0.00000000000E+00  0.00000000000E+00 -0.10832013621E+04  0.12378927742E+04  0.59921058883E+03 0.  0.
        2    1    3    3  502    0 -0.18993337964E+03  0.43467547431E+02 -0.71419608704E+02  0.20752078666E+03  0.25500000920E-02 0. -1.
       -2    1    3    3    0  502  0.18993337964E+03 -0.43467547431E+02 -0.10117817533E+04  0.10303719876E+04  0.25500000920E-02 0.  1.
</event>
<event>
 5   0  0.9822607E-03  0.6001660E+03  0.7818609E-02  0.9905062E-01
       -2   -1    0    0    0  501  0.00000000000E+00  0.00000000000E+00  0.17219443358E+03  0.17219443360E+03  0.25500000920E-02 0. -1.
        2   -1    0    0  501    0  0.00000000000E+00  0.00000000000E+00 -0.52295424226E+03  0.52295424227E+03  0.25500000920E-02 0.  1.
    10030    2    1    2    0    0  0.00000000000E+00  0.00000000000E+00 -0.35075980869E+03  0.69514867587E+03  0.60016600884E+03 0.  0.
        3    1    3    3  502    0 -0.29056331827E+03 -0.48139859084E+02 -0.24197043789E+03  0.38117475123E+03  0.10100000352E+00 0. -1.
       -3    1    3    3    0  502  0.29056331827E+03  0.48139859084E+02 -0.10878937079E+03  0.31397392464E+03  0.10100000352E+00 0.  1.
</event>
<event>
 5   0  0.5790967E-03  0.6000405E+03  0.7818609E-02  0.9905322E-01
       -1   -1    0    0    0  501  0.00000000000E+00  0.00000000000E+00  0.91920873411E+02  0.91920873549E+02  0.50400001928E-02 0.  1.
        1   -1    0    0  501    0  0.00000000000E+00  0.00000000000E+00 -0.97923509686E+03  0.97923509687E+03  0.50400001928E-02 0. -1.
    10030    2    1    2    0    0  0.00000000000E+00  0.00000000000E+00 -0.88731422344E+03  0.10711559704E+04  0.60004048350E+03 0.  0.
        3    1    3    3  502    0  0.14187814118E+03  0.11781411107E+02 -0.91509595010E+03  0.92610410683E+03  0.10100000352E+00 0. -1.
       -3    1    3    3    0  502 -0.14187814118E+03 -0.11781411107E+02  0.27781726660E+02  0.14505186359E+03  0.10100000352E+00 0.  1.
</event>
<event>
 5   0  0.9028473E-03  0.5992897E+03  0.7818609E-02  0.9906881E-01
        2   -1    0    0  501    0  0.00000000000E+00  0.00000000000E+00  0.94739902235E+03  0.94739902235E+03  0.25500000920E-02 0.  1.
       -2   -1    0    0    0  501  0.00000000000E+00  0.00000000000E+00 -0.94772152119E+02  0.94772152153E+02  0.25500000920E-02 0. -1.
    10030    2    1    2    0    0  0.00000000000E+00  0.00000000000E+00  0.85262687023E+03  0.10421711745E+04  0.59928972720E+03 0.  0.
        1    1    3    3  502    0 -0.46634824269E+02  0.29356072521E+03  0.36045248656E+03  0.46720306218E+03  0.50400001928E-02 0. -1.
       -1    1    3    3    0  502  0.46634824269E+02 -0.29356072521E+03  0.49217438367E+03  0.57496811232E+03  0.50400001928E-02 0.  1.
</event>
<event>
 5   0  0.5765045E-03  0.6015501E+03  0.7818609E-02  0.9902195E-01
        1   -1    0    0  501    0  0.00000000000E+00  0.00000000000E+00  0.10946532476E+03  0.10946532487E+03  0.50400001928E-02 0.  1.
       -1   -1    0    0    0  501  0.00000000000E+00  0.00000000000E+00 -0.82643185868E+03  0.82643185869E+03  0.50400001928E-02 0. -1.
    10030    2    1    2    0    0  0.00000000000E+00  0.00000000000E+00 -0.71696653392E+03  0.93589718357E+03  0.60155010385E+03 0.  0.
        1    1    3    3  502    0  0.22318677297E+03  0.11236828822E+03 -0.61894386763E+03  0.66748069570E+03  0.50400001928E-02 0. -1.
       -1    1    3    3    0  502 -0.22318677297E+03 -0.11236828822E+03 -0.98022666286E+02  0.26841648787E+03  0.50400001928E-02 0.  1.
</event>
<event>
 5   0  0.9391405E-03  0.6003780E+03  0.7818609E-02  0.9904622E-01
        2   -1    0    0  501    0  0.00000000000E+00  0.00000000000E+00  0.19464782424E+04  0.19464782424E+04  0.25500000920E-02 0.  1.
       -2   -1    0    0    0  501  0.00000000000E+00  0.00000000000E+00 -0.46295623589E+02  0.46295623659E+02  0.25500000920E-02 0. -1.
    10030    2    1    2    0    0  0.00000000000E+00  0.00000000000E+00  0.19001826188E+04  0.19927738661E+04  0.60037796131E+03 0.  0.
        2    1    3    3  502    0  0.71136651509E+02 -0.27141473373E+03  0.13042833210E+04  0.13341219444E+04  0.25500000920E-02 0.  1.
       -2    1    3    3    0  502 -0.71136651509E+02  0.27141473373E+03  0.59589929778E+03  0.65865192171E+03  0.25500000920E-02 0. -1.
</event>
<event>
 5   0  0.5790967E-03  0.5991574E+03  0.7818609E-02  0.9907156E-01
       -1   -1    0    0    0  501  0.00000000000E+00  0.00000000000E+00  0.11571476978E+03  0.11571476989E+03  0.50400001928E-02 0. -1.
        1   -1    0    0  501    0  0.00000000000E+00  0.00000000000E+00 -0.77559153684E+03  0.77559153685E+03  0.50400001928E-02 0.  1.
    10030    2    1    2    0    0  0.00000000000E+00  0.00000000000E+00 -0.65987676706E+03  0.89130630675E+03  0.59915739564E+03 0.  0.
        3    1    3    3  502    0  0.23140753873E+03  0.69628117306E+01 -0.47100916138E+02  0.23625502372E+03  0.10100000352E+00 0. -1.
       -3    1    3    3    0  502 -0.23140753873E+03 -0.69628117306E+01 -0.61277585092E+03  0.65505128303E+03  0.10100000352E+00 0.  1.
</event>
<event>
 5   0  0.9303190E-03  0.5995420E+03  0.7818609E-02  0.9906357E-01
        2   -1    0    0  501    0  0.00000000000E+00  0.00000000000E+00  0.44755590476E+03  0.44755590477E+03  0.25500000920E-02 0. -1.
       -2   -1    0    0    0  501  0.00000000000E+00  0.00000000000E+00 -0.20078529019E+03  0.20078529021E+03  0.25500000920E-02 0.  1.
    10030    2    1    2    0    0  0.00000000000E+00  0.00000000000E+00  0.24677061457E+03  0.64834119498E+03  0.59954196592E+03 0.  0.
        4    1    3    3  502    0  0.13047958674E+03 -0.26364694582E+03  0.61015999865E+02  0.30043168896E+03  0.12699999809E+01 0.  1.
       -4    1    3    3    0  502 -0.13047958674E+03  0.26364694582E+03  0.18575461471E+03  0.34790950602E+03  0.12699999809E+01 0. -1.
</event>
<event>
 5   0  0.9028473E-03  0.6005819E+03  0.7818609E-02  0.9904200E-01
        2   -1    0    0  501    0  0.00000000000E+00  0.00000000000E+00  0.13259355846E+03  0.13259355848E+03  0.25500000920E-02 0. -1.
       -2   -1    0    0    0  501  0.00000000000E+00  0.00000000000E+00 -0.68008319014E+03  0.68008319014E+03  0.25500000920E-02 0.  1.
    10030    2    1    2    0    0  0.00000000000E+00  0.00000000000E+00 -0.54748963168E+03  0.81267674863E+03  0.60058188531E+03 0.  0.
        1    1    3    3  502    0  0.17282900022E+03 -0.10810354884E+03  0.24618881061E+02  0.20533467783E+03  0.50400001928E-02 0. -1.
       -1    1    3    3    0  502 -0.17282900022E+03  0.10810354884E+03 -0.57210851274E+03  0.60734207080E+03  0.50400001928E-02 0.  1.
</event>
<event>
 5   0  0.5790967E-03  0.5950651E+03  0.7818609E-02  0.9915698E-01
       -1   -1    0    0    0  501  0.00000000000E+00  0.00000000000E+00  0.18598668492E+03  0.18598668499E+03  0.50400001928E-02 0.  1.
        1   -1    0    0  501    0  0.00000000000E+00  0.00000000000E+00 -0.47597830253E+03  0.47597830256E+03  0.50400001928E-02 0. -1.
    10030    2    1    2    0    0  0.00000000000E+00  0.00000000000E+00 -0.28999161761E+03  0.66196498754E+03  0.59506512790E+03 0.  0.
        3    1    3    3  502    0 -0.13287753142E+03  0.62006557346E+02  0.14300046767E+03  0.20481795689E+03  0.10100000352E+00 0.  1.
       -3    1    3    3    0  502  0.13287753142E+03 -0.62006557346E+02 -0.43299208529E+03  0.45714703065E+03  0.10100000352E+00 0. -1.
</event>
<event>
 5   0  0.5819446E-03  0.5997853E+03  0.7818609E-02  0.9905852E-01
       -1   -1    0    0    0  501  0.00000000000E+00  0.00000000000E+00  0.94081396892E+02  0.94081397027E+02  0.50400001928E-02 0.  1.
        1   -1    0    0  501    0  0.00000000000E+00  0.00000000000E+00 -0.95593383657E+03  0.95593383659E+03  0.50400001928E-02 0. -1.
    10030    2    1    2    0    0  0.00000000000E+00  0.00000000000E+00 -0.86185243968E+03  0.10500152336E+04  0.59978526410E+03 0.  0.
        5    1    3    3  502    0  0.17503484937E+03 -0.22963777858E+03 -0.57253213521E+03  0.64123774351E+03  0.46999998093E+01 0. -1.
       -5    1    3    3    0  502 -0.17503484937E+03  0.22963777858E+03 -0.28932030447E+03  0.40877749011E+03  0.46999998093E+01 0.  1.
</event>
<event>
 5   0  0.5790967E-03  0.6001303E+03  0.7818609E-02  0.9905136E-01
        1   -1    0    0  501    0  0.00000000000E+00  0.00000000000E+00  0.67695389148E+03  0.67695389150E+03  0.50400001928E-02 0.  1.
       -1   -1    0    0    0  501  0.00000000000E+00  0.00000000000E+00 -0.13300625947E+03  0.13300625956E+03  0.50400001928E-02 0. -1.
    10030    2    1    2    0    0  0.00000000000E+00  0.00000000000E+00  0.54394763201E+03  0.80996015106E+03  0.60013033579E+03 0.  0.
        3    1    3    3  502    0 -0.12984812821E+03 -0.26125437489E+03  0.36668655635E+03  0.46858662551E+03  0.10100000352E+00 0.  1.
       -3    1    3    3    0  502  0.12984812821E+03  0.26125437489E+03  0.17726107566E+03  0.34137352555E+03  0.10100000352E+00 0. -1.
</event>
<event>
 5   0  0.5819446E-03  0.6012962E+03  0.7818609E-02  0.9902720E-01
       -1   -1    0    0    0  501  0.00000000000E+00  0.00000000000E+00  0.37636396614E+03  0.37636396618E+03  0.50400001928E-02 0.  1.
        1   -1    0    0  501    0  0.00000000000E+00  0.00000000000E+00 -0.24016454337E+03  0.24016454342E+03  0.50400001928E-02 0. -1.
    10030    2    1    2    0    0  0.00000000000E+00  0.00000000000E+00  0.13619942277E+03  0.61652850960E+03  0.60129620021E+03 0.  0.
        5    1    3    3  502    0  0.24353172230E+03 -0.45606941294E+02  0.24264580275E+03  0.34682382913E+03  0.46999998093E+01 0.  1.
       -5    1    3    3    0  502 -0.24353172230E+03  0.45606941294E+02 -0.10644637998E+03  0.26970468047E+03  0.46999998093E+01 0. -1.
</event>
<event>
 5   0  0.9391405E-03  0.5982309E+03  0.7818609E-02  0.9909083E-01
        2   -1    0    0  501    0  0.00000000000E+00  0.00000000000E+00  0.36998174519E+03  0.36998174520E+03  0.25500000920E-02 0.  1.
       -2   -1    0    0    0  501  0.00000000000E+00  0.00000000000E+00 -0.24182289989E+03  0.24182289990E+03  0.25500000920E-02 0. -1.
    10030    2    1    2    0    0  0.00000000000E+00  0.00000000000E+00  0.12815884530E+03  0.61180464510E+03  0.59823092041E+03 0.  0.
        2    1    3    3  502    0 -0.41428757664E+02 -0.25303118663E+03  0.22161659224E+03  0.33890269596E+03  0.25500000920E-02 0.  1.
       -2    1    3    3    0  502  0.41428757664E+02  0.25303118663E+03 -0.93457746938E+02  0.27290194913E+03  0.25500000920E-02 0. -1.
</event>
<event>
 5   0  0.5765045E-03  0.5994939E+03  0.7818609E-02  0.9906457E-01
       -1   -1    0    0    0  501  0.00000000000E+00  0.00000000000E+00  0.47808459208E+03  0.47808459210E+03  0.50400001928E-02 0. -1.
        1   -1    0    0  501    0  0.00000000000E+00  0.00000000000E+00 -0.18793373159E+03  0.18793373166E+03  0.50400001928E-02 0.  1.
    10030    2    1    2    0    0  0.00000000000E+00  0.00000000000E+00  0.29015086049E+03  0.66601832376E+03  0.59949385797E+03 0.  0.
        1    1    3    3  502    0 -0.53593370907E+02 -0.21981951441E+03 -0.73351540180E+02  0.23785145951E+03  0.50400001928E-02 0.  1.
       -1    1    3    3    0  502  0.53593370907E+02  0.21981951441E+03  0.36350240067E+03  0.42816686424E+03  0.50400001928E-02 0. -1.
</event>
<event>
 5   0  0.9028473E-03  0.6005908E+03  0.7818609E-02  0.9904181E-01
       -2   -1    0    0    0  501  0.00000000000E+00  0.00000000000E+00  0.10580751101E+03  0.10580751104E+03  0.25500000920E-02 0. -1.
        2   -1    0    0  501    0  0.00000000000E+00  0.00000000000E+00 -0.85227720430E+03  0.85227720430E+03  0.25500000920E-02 0.  1.
    10030    2    1    2    0    0  0.00000000000E+00  0.00000000000E+00 -0.74646969329E+03  0.95808471534E+03  0.60059080809E+03 0.  0.
        1    1    3    3  502    0 -0.16269381952E+03 -0.28212770430E+02  0.26887021989E+02  0.16729659680E+03  0.50400001928E-02 0. -1.
       -1    1    3    3    0  502  0.16269381952E+03  0.28212770430E+02 -0.77335671528E+03  0.79078811854E+03  0.50400001928E-02 0.  1.
</event>
<event>
 5   0  0.9303190E-03  0.6002014E+03  0.7818609E-02  0.9904988E-01
       -2   -1    0    0    0  501  0.00000000000E+00  0.00000000000E+00  0.22745123462E+03  0.22745123464E+03  0.25500000920E-02 0. -1.
        2   -1    0    0  501    0  0.00000000000E+00  0.00000000000E+00 -0.39595485754E+03  0.39595485755E+03  0.25500000920E-02 0.  1.
    10030    2    1    2    0    0  0.00000000000E+00  0.00000000000E+00 -0.16850362292E+03  0.62340609219E+03  0.60020137024E+03 0.  0.
        4    1    3    3  502    0  0.27085052590E+03  0.20123256151E+02  0.48330623144E+02  0.27586666136E+03  0.12699999809E+01 0. -1.
       -4    1    3    3    0  502 -0.27085052590E+03 -0.20123256151E+02 -0.21683424606E+03  0.34753943083E+03  0.12699999809E+01 0.  1.
</event>
<event>
 5   0  0.5790967E-03  0.5995926E+03  0.7818609E-02  0.9906252E-01
        1   -1    0    0  501    0  0.00000000000E+00  0.00000000000E+00  0.37180144364E+03  0.37180144367E+03  0.50400001928E-02 0.  1.
       -1   -1    0    0    0  501  0.00000000000E+00  0.00000000000E+00 -0.24173606528E+03  0.24173606533E+03  0.50400001928E-02 0. -1.
    10030    2    1    2    0    0  0.00000000000E+00  0.00000000000E+00  0.13006537836E+03  0.61353750901E+03  0.59959258861E+03 0.  0.
        3    1    3    3  502    0 -0.14968816408E+03 -0.14964990294E+03 -0.15221659641E+03  0.26071352542E+03  0.10100000352E+00 0. -1.
       -3    1    3    3    0  502  0.14968816408E+03  0.14964990294E+03  0.28228197477E+03  0.35282398359E+03  0.10100000352E+00 0.  1.
</event>
<event>
 5   0  0.9822607E-03  0.6001091E+03  0.7818609E-02  0.9905180E-01
       -2   -1    0    0    0  501  0.00000000000E+00  0.00000000000E+00  0.12964265446E+03  0.12964265449E+03  0.25500000920E-02 0. -1.
        2   -1    0    0  501    0  0.00000000000E+00  0.00000000000E+00 -0.69446851839E+03  0.69446851839E+03  0.25500000920E-02 0.  1.
    10030    2    1    2    0    0  0.00000000000E+00  0.00000000000E+00 -0.56482586393E+03  0.82411117288E+03  0.60010913066E+03 0.  0.
        3    1    3    3  502    0 -0.23909110401E+03  0.94153177502E+02 -0.49517369675E+03  0.55787666827E+03  0.10100000352E+00 0.  1.
       -3    1    3    3    0  502  0.23909110401E+03 -0.94153177502E+02 -0.69652167180E+02  0.26623450461E+03  0.10100000352E+00 0. -1.
</event>
<event>
 5   0  0.9028473E-03  0.6011356E+03  0.7818609E-02  0.9903053E-01
       -2   -1    0    0    0  501  0.00000000000E+00  0.00000000000E+00  0.55848965404E+02  0.55848965462E+02  0.25500000920E-02 0. -1.
        2   -1    0    0  501    0  0.00000000000E+00  0.00000000000E+00 -0.16175948132E+04  0.16175948132E+04  0.25500000920E-02 0.  1.
    10030    2    1    2    0    0  0.00000000000E+00  0.00000000000E+00 -0.15617458478E+04  0.16734437787E+04  0.60113558142E+03 0.  0.
        1    1    3    3  502    0 -0.53577939988E+02 -0.19972728596E+03 -0.13880959455E+04  0.14034143858E+04  0.50400001928E-02 0.  1.
       -1    1    3    3    0  502  0.53577939988E+02  0.19972728596E+03 -0.17364990235E+03  0.27002939289E+03  0.50400001928E-02 0. -1.
</event>
<event>
 5   0  0.6078658E-03  0.5963030E+03  0.7818609E-02  0.9913106E-01
       -1   -1    0    0    0  501  0.00000000000E+00  0.00000000000E+00  0.60918516704E+03  0.60918516706E+03  0.50400001928E-02 0. -1.
        1   -1    0    0  501    0  0.00000000000E+00  0.00000000000E+00 -0.14592332562E+03  0.14592332571E+03  0.50400001928E-02 0.  1.
    10030    2    1    2    0    0  0.00000000000E+00  0.00000000000E+00  0.46326184142E+03  0.75510849277E+03  0.59630302879E+03 0.  0.
        2    1    3    3  502    0 -0.13181708993E+03 -0.95503864577E+01 -0.10680361209E+03  0.16992341404E+03  0.25500000920E-02 0.  1.
       -2    1    3    3    0  502  0.13181708993E+03  0.95503864577E+01  0.57006545351E+03  0.58518507873E+03  0.25500000920E-02 0. -1.
</event>
<event>
 5   0  0.5790967E-03  0.6001532E+03  0.7818609E-02  0.9905088E-01
        1   -1    0    0  501    0  0.00000000000E+00  0.00000000000E+00  0.70006415940E+03  0.70006415942E+03  0.50400001928E-02 0. -1.
       -1   -1    0    0    0  501  0.00000000000E+00  0.00000000000E+00 -0.12862531934E+03  0.12862531944E+03  0.50400001928E-02 0.  1.
    10030    2    1    2    0    0  0.00000000000E+00  0.00000000000E+00  0.57143884006E+03  0.82868947886E+03  0.60015323413E+03 0.  0.
        3    1    3    3  502    0  0.20176887833E+03  0.67658643633E+02  0.57784059478E+03  0.61578253913E+03  0.10100000352E+00 0. -1.
       -3    1    3    3    0  502 -0.20176887833E+03 -0.67658643633E+02 -0.64017547194E+01  0.21290693973E+03  0.10100000352E+00 0.  1.
</event>
<event>
 5   0  0.5765045E-03  0.5997145E+03  0.7818609E-02  0.9905999E-01
        1   -1    0    0  501    0  0.00000000000E+00  0.00000000000E+00  0.70589918863E+03  0.70589918865E+03  0.50400001928E-02 0. -1.
       -1   -1    0    0    0  501  0.00000000000E+00  0.00000000000E+00 -0.12737564300E+03  0.12737564310E+03  0.50400001928E-02 0.  1.
    10030    2    1    2    0    0  0.00000000000E+00  0.00000000000E+00  0.57852354563E+03  0.83327483175E+03  0.59971447571E+03 0.  0.
        1    1    3    3  502    0 -0.38178615733E+02  0.12110222935E+02  0.70216560942E+03  0.70330705050E+03  0.50400001928E-02 0. -1.
       -1    1    3    3    0  502  0.38178615733E+02 -0.12110222935E+02 -0.12364206379E+03  0.12996778125E+03  0.50400001928E-02 0.  1.
</event>
<event>
 5   0  0.9162342E-03  0.5988107E+03  0.7818609E-02  0.9907877E-01
       -2   -1    0    0    0  501  0.00000000000E+00  0.00000000000E+00  0.64393289169E+02  0.64393289220E+02  0.25500000920E-02 0.  1.
        2   -1    0    0  501    0  0.00000000000E+00  0.00000000000E+00 -0.13921256537E+04  0.13921256537E+04  0.25500000920E-02 0. -1.
    10030    2    1    2    0    0  0.00000000000E+00  0.00000000000E+00 -0.13277323645E+04  0.14565189429E+04  0.59881065394E+03 0.  0.
        5    1    3    3  502    0  0.29017956780E+03  0.42265096816E+01 -0.84259721619E+03  0.89118696337E+03  0.46999998093E+01 0. -1.
       -5    1    3    3    0  502 -0.29017956780E+03 -0.42265096816E+01 -0.48513514835E+03  0.56533197956E+03  0.46999998093E+01 0.  1.
</event>
<event>
 5   0  0.9822607E-03  0.6001621E+03  0.7818609E-02  0.9905070E-01
       -2   -1    0    0    0  501  0.00000000000E+00  0.00000000000E+00  0.12886907623E+03  0.12886907625E+03  0.25500000920E-02 0. -1.
        2   -1    0    0  501    0  0.00000000000E+00  0.00000000000E+00 -0.69876058238E+03  0.69876058239E+03  0.25500000920E-02 0.  1.
    10030    2    1    2    0    0  0.00000000000E+00  0.00000000000E+00 -0.56989150616E+03  0.82762965864E+03  0.60016208067E+03 0.  0.
        3    1    3    3  502    0 -0.75694315932E+02 -0.10762726104E+03 -0.65685784668E+03  0.66990708141E+03  0.10100000352E+00 0.  1.
       -3    1    3    3    0  502  0.75694315932E+02  0.10762726104E+03  0.86966340520E+02  0.15772257723E+03  0.10100000352E+00 0. -1.
</event>
<event>
 5   0  0.9303190E-03  0.5973259E+03  0.7818609E-02  0.9910970E-01
       -2   -1    0    0    0  501  0.00000000000E+00  0.00000000000E+00  0.11600514673E+03  0.11600514676E+03  0.25500000920E-02 0. -1.
        2   -1    0    0  501    0  0.00000000000E+00  0.00000000000E+00 -0.76892756184E+03  0.76892756184E+03  0.25500000920E-02 0.  1.
    10030    2    1    2    0    0  0.00000000000E+00  0.00000000000E+00 -0.65292241511E+03  0.88493270860E+03  0.59732588978E+03 0.  0.
        4    1    3    3  502    0 -0.23477326925E+03 -0.12812081800E+03 -0.52336301552E+03  0.58774474976E+03  0.12699999809E+01 0.  1.
       -4    1    3    3    0  502  0.23477326925E+03  0.12812081800E+03 -0.12955939959E+03  0.29718795884E+03  0.12699999809E+01 0. -1.
</event>
<event>
 5   0  0.9822607E-03  0.6000640E+03  0.7818609E-02  0.9905273E-01
       -2   -1    0    0    0  501  0.00000000000E+00  0.00000000000E+00  0.21644933339E+03  0.21644933341E+03  0.25500000920E-02 0. -1.
        2   -1    0    0  501    0  0.00000000000E+00  0.00000000000E+00 -0.41589037094E+03  0.41589037094E+03  0.25500000920E-02 0.  1.
    10030    2    1    2    0    0  0.00000000000E+00  0.00000000000E+00 -0.19944103754E+03  0.63233970435E+03  0.60006397513E+03 0.  0.
        3    1    3    3  502    0 -0.21359121891E+03 -0.20747530571E+03 -0.13846740071E+03  0.32839068582E+03  0.10100000352E+00 0.  1.
       -3    1    3    3    0  502  0.21359121891E+03  0.20747530571E+03 -0.60973636828E+02  0.30394901853E+03  0.10100000352E+00 0. -1.
</event>
<event>
 5   0  0.5819446E-03  0.5925773E+03  0.7818609E-02  0.9920927E-01
       -1   -1    0    0    0  501  0.00000000000E+00  0.00000000000E+00  0.54425798900E+03  0.54425798902E+03  0.50400001928E-02 0. -1.
        1   -1    0    0  501    0  0.00000000000E+00  0.00000000000E+00 -0.16129661568E+03  0.16129661576E+03  0.50400001928E-02 0.  1.
    10030    2    1    2    0    0  0.00000000000E+00  0.00000000000E+00  0.38296137332E+03  0.70555460478E+03  0.59257732565E+03 0.  0.
        5    1    3    3  502    0 -0.24615116689E+03  0.75844189601E+02  0.17212920300E+02  0.25818813427E+03  0.46999998093E+01 0.  1.
       -5    1    3    3    0  502  0.24615116689E+03 -0.75844189601E+02  0.36574845302E+03  0.44736647051E+03  0.46999998093E+01 0. -1.
</event>
<event>
 5   0  0.5891927E-03  0.6001390E+03  0.7818609E-02  0.9905118E-01
        1   -1    0    0  501    0  0.00000000000E+00  0.00000000000E+00  0.67828457347E+03  0.67828457349E+03  0.50400001928E-02 0. -1.
       -1   -1    0    0    0  501  0.00000000000E+00  0.00000000000E+00 -0.13274914680E+03  0.13274914690E+03  0.50400001928E-02 0.  1.
    10030    2    1    2    0    0  0.00000000000E+00  0.00000000000E+00  0.54553542667E+03  0.81103372039E+03  0.60013897878E+03 0.  0.
        4    1    3    3  502    0 -0.26692290057E+03 -0.43400379131E+02  0.97039439149E+02  0.28731462442E+03  0.12699999809E+01 0.  1.
       -4    1    3    3    0  502  0.26692290057E+03  0.43400379131E+02  0.44849598752E+03  0.52371909596E+03  0.12699999809E+01 0. -1.
</event>
<event>
 5   0  0.5819446E-03  0.6010930E+03  0.7818609E-02  0.9903141E-01
       -1   -1    0    0    0  501  0.00000000000E+00  0.00000000000E+00  0.14738761583E+03  0.14738761592E+03  0.50400001928E-02 0.  1.
        1   -1    0    0  501    0  0.00000000000E+00  0.00000000000E+00 -0.61286157837E+03  0.61286157839E+03  0.50400001928E-02 0. -1.
    10030    2    1    2    0    0  0.00000000000E+00  0.00000000000E+00 -0.46547396254E+03  0.76024919431E+03  0.60109302744E+03 0.  0.
        5    1    3    3  502    0  0.95565203199E+01  0.15540543523E+03 -0.55782167045E+03  0.57916256992E+03  0.46999998093E+01 0. -1.
       -5    1    3    3    0  502 -0.95565203199E+01 -0.15540543523E+03  0.92347707906E+02  0.18108662439E+03  0.46999998093E+01 0.  1.
</event>
<event>
 5   0  0.5891927E-03  0.6024122E+03  0.7818609E-02  0.9900414E-01
       -1   -1    0    0    0  501  0.00000000000E+00  0.00000000000E+00  0.49086129710E+02  0.49086129969E+02  0.50400001928E-02 0. -1.
        1   -1    0    0  501    0  0.00000000000E+00  0.00000000000E+00 -0.18482842422E+04  0.18482842422E+04  0.50400001928E-02 0.  1.
    10030    2    1    2    0    0  0.00000000000E+00  0.00000000000E+00 -0.17991981125E+04  0.18973703721E+04  0.60241221868E+03 0.  0.
        4    1    3    3  502    0  0.13993046586E+03  0.10777886366E+03 -0.16680465613E+04  0.16773722789E+04  0.12699999809E+01 0.  1.
       -4    1    3    3    0  502 -0.13993046586E+03 -0.10777886366E+03 -0.13115155119E+03  0.21999809319E+03  0.12699999809E+01 0. -1.
</event>
<event>
 5   0  0.9822607E-03  0.6005637E+03  0.7818609E-02  0.9904237E-01
       -2   -1    0    0    0  501  0.00000000000E+00  0.00000000000E+00  0.94865380549E+02  0.94865380584E+02  0.25500000920E-02 0. -1.
        2   -1    0    0  501    0  0.00000000000E+00  0.00000000000E+00 -0.95049638673E+03  0.95049638673E+03  0.25500000920E-02 0.  1.
    10030    2    1    2    0    0  0.00000000000E+00  0.00000000000E+00 -0.85563100618E+03  0.10453617673E+04  0.60056374002E+03 0.  0.
        3    1    3    3  502    0 -0.12279653383E+03 -0.25711900760E+03 -0.59276314822E+03  0.65769090984E+03  0.10100000352E+00 0.  1.
       -3    1    3    3    0  502  0.12279653383E+03  0.25711900760E+03 -0.26286785795E+03  0.38767085748E+03  0.10100000352E+00 0. -1.
</event>
<event>
 5   0  0.5790967E-03  0.6004435E+03  0.7818609E-02  0.9904486E-01
       -1   -1    0    0    0  501  0.00000000000E+00  0.00000000000E+00  0.10089584718E+03  0.10089584731E+03  0.50400001928E-02 0.  1.
        1   -1    0    0  501    0  0.00000000000E+00  0.00000000000E+00 -0.89332810973E+03  0.89332810974E+03  0.50400001928E-02 0. -1.
    10030    2    1    2    0    0  0.00000000000E+00  0.00000000000E+00 -0.79243226255E+03  0.99422395705E+03  0.60044349114E+03 0.  0.
        3    1    3    3  502    0  0.23856371341E+03  0.49947474707E+02 -0.10597235908E+03  0.26577725011E+03  0.10100000352E+00 0.  1.
       -3    1    3    3    0  502 -0.23856371341E+03 -0.49947474707E+02 -0.68645990346E+03  0.72844670694E+03  0.10100000352E+00 0. -1.
</event>
<event>
 5   0  0.9162342E-03  0.5999390E+03  0.7818609E-02  0.9905533E-01
        2   -1    0    0  501    0  0.00000000000E+00  0.00000000000E+00  0.72247533374E+03  0.72247533374E+03  0.25500000920E-02 0. -1.
       -2   -1    0    0    0  501  0.00000000000E+00  0.00000000000E+00 -0.12454638745E+03  0.12454638747E+03  0.25500000920E-02 0.  1.
    10030    2    1    2    0    0  0.00000000000E+00  0.00000000000E+00  0.59792894629E+03  0.84702172121E+03  0.59993897306E+03 0.  0.
        5    1    3    3  502    0 -0.17737010078E+02  0.90131751460E+01  0.72149067009E+03  0.72178024071E+03  0.46999998093E+01 0. -1.
       -5    1    3    3    0  502  0.17737010078E+02 -0.90131751460E+01 -0.12356172380E+03  0.12524148051E+03  0.46999998093E+01 0.  1.
</event>
<event>
 5   0  0.9822607E-03  0.6002663E+03  0.7818609E-02  0.9904854E-01
        2   -1    0    0  501    0  0.00000000000E+00  0.00000000000E+00  0.21042097315E+03  0.21042097316E+03  0.25500000920E-02 0. -1.
       -2   -1    0    0    0  501  0.00000000000E+00  0.00000000000E+00 -0.42809382853E+03  0.42809382854E+03  0.25500000920E-02 0.  1.
    10030    2    1    2    0    0  0.00000000000E+00  0.00000000000E+00 -0.21767285538E+03  0.63851480170E+03  0.60026634090E+03 0.  0.
        3    1    3    3  502    0 -0.28130198420E+03  0.16109451186E+01  0.24557867556E+01  0.28131733425E+03  0.10100000352E+00 0. -1.
       -3    1    3    3    0  502  0.28130198420E+03 -0.16109451186E+01 -0.22012864213E+03  0.35719746745E+03  0.10100000352E+00 0.  1.
</event>
<event>
 5   0  0.5790967E-03  0.6016963E+03  0.7818609E-02  0.9901893E-01
        1   -1    0    0  501    0  0.00000000000E+00  0.00000000000E+00  0.24421205149E+03  0.24421205154E+03  0.50400001928E-02 0.  1.
       -1   -1    0    0    0  501  0.00000000000E+00  0.00000000000E+00 -0.37061891517E+03  0.37061891520E+03  0.50400001928E-02 0. -1.
    10030    2    1    2    0    0  0.00000000000E+00  0.00000000000E+00 -0.12640686368E+03  0.61483096674E+03  0.60169628757E+03 0.  0.
        3    1    3    3  502    0  0.12308479622E+03  0.96178126098E+02 -0.32593383106E+03  0.36143183511E+03  0.10100000352E+00 0. -1.
       -3    1    3    3    0  502 -0.12308479622E+03 -0.96178126098E+02  0.19952696738E+03  0.25339913163E+03  0.10100000352E+00 0.  1.
</event>
<event>
 5   0  0.9303190E-03  0.5986281E+03  0.7818609E-02  0.9908256E-01
        2   -1    0    0  501    0  0.00000000000E+00  0.00000000000E+00  0.56828885277E+03  0.56828885278E+03  0.25500000920E-02 0. -1.
       -2   -1    0    0    0  501  0.00000000000E+00  0.00000000000E+00 -0.15764676537E+03  0.15764676539E+03  0.25500000920E-02 0.  1.
    10030    2    1    2    0    0  0.00000000000E+00  0.00000000000E+00  0.41064208740E+03  0.72593561817E+03  0.59862809639E+03 0.  0.
        4    1    3    3  502    0 -0.16424083680E+03 -0.19692100331E+03  0.18105161570E+02  0.25706486300E+03  0.12699999809E+01 0.  1.
       -4    1    3    3    0  502  0.16424083680E+03  0.19692100331E+03  0.39253692583E+03  0.46887075517E+03  0.12699999809E+01 0. -1.
</event>
<event>
 5   0  0.9162342E-03  0.6001442E+03  0.7818609E-02  0.9905107E-01
        2   -1    0    0  501    0  0.00000000000E+00  0.00000000000E+00  0.15962926239E+04  0.15962926239E+04  0.25500000920E-02 0. -1.
       -2   -1    0    0    0  501  0.00000000000E+00  0.00000000000E+00 -0.56407744006E+02  0.56407744063E+02  0.25500000920E-02 0.  1.
    10030    2    1    2    0    0  0.00000000000E+00  0.00000000000E+00  0.15398848799E+04  0.16527003680E+04  0.60014420180E+03 0.  0.
        5    1    3    3  502    0 -0.23064777504E+03 -0.53455570600E+02  0.12774658962E+04  0.12992294255E+04  0.46999998093E+01 0. -1.
       -5    1    3    3    0  502  0.23064777504E+03  0.53455570600E+02  0.26241898369E+03  0.35347094246E+03  0.46999998093E+01 0.  1.
</event>
<event>
 5   0  0.6078658E-03  0.5990413E+03  0.7818609E-02  0.9907397E-01
        1   -1    0    0  501    0  0.00000000000E+00  0.00000000000E+00  0.94048632440E+03  0.94048632442E+03  0.50400001928E-02 0.  1.
       -1   -1    0    0    0  501  0.00000000000E+00  0.00000000000E+00 -0.95389595188E+02  0.95389595321E+02  0.50400001928E-02 0. -1.
    10030    2    1    2    0    0  0.00000000000E+00  0.00000000000E+00  0.84509672922E+03  0.10358759197E+04  0.59904126683E+03 0.  0.
        2    1    3    3  502    0  0.11022054849E+03  0.59526345868E+02  0.89301351344E+03  0.90175666915E+03  0.25500000920E-02 0.  1.
       -2    1    3    3    0  502 -0.11022054849E+03 -0.59526345868E+02 -0.47916784221E+02  0.13411925059E+03  0.25500000920E-02 0. -1.
</event>
<event>
 5   0  0.5891927E-03  0.5832677E+03  0.7818609E-02  0.9940742E-01
       -1   -1    0    0    0  501  0.00000000000E+00  0.00000000000E+00  0.11483589961E+03  0.11483589972E+03  0.50400001928E-02 0.  1.
        1   -1    0    0  501    0  0.00000000000E+00  0.00000000000E+00 -0.74062459647E+03  0.74062459649E+03  0.50400001928E-02 0. -1.
    10030    2    1    2    0    0  0.00000000000E+00  0.00000000000E+00 -0.62578869686E+03  0.85546049621E+03  0.58326766365E+03 0.  0.
        4    1    3    3  502    0  0.19649659809E+03  0.13663948540E+03 -0.55729355981E+03  0.60651379764E+03  0.12699999809E+01 0. -1.
       -4    1    3    3    0  502 -0.19649659809E+03 -0.13663948540E+03 -0.68495137058E+02  0.24894669857E+03  0.12699999809E+01 0.  1.
</event>
<event>
 5   0  0.5790967E-03  0.5996628E+03  0.7818609E-02  0.9906106E-01
       -1   -1    0    0    0  501  0.00000000000E+00  0.00000000000E+00  0.45694715984E+03  0.45694715986E+03  0.50400001928E-02 0.  1.
        1   -1    0    0  501    0  0.00000000000E+00  0.00000000000E+00 -0.19673799543E+03  0.19673799549E+03  0.50400001928E-02 0. -1.
    10030    2    1    2    0    0  0.00000000000E+00  0.00000000000E+00  0.26020916441E+03  0.65368515536E+03  0.59966279949E+03 0.  0.
        3    1    3    3  502    0  0.11007343234E+03  0.22123346261E+03 -0.55012924114E+02  0.25315378233E+03  0.10100000352E+00 0. -1.
       -3    1    3    3    0  502 -0.11007343234E+03 -0.22123346261E+03  0.31522208852E+03  0.40053137303E+03  0.10100000352E+00 0.  1.
</event>
<event>
 5   0  0.5819446E-03  0.6011868E+03  0.7818609E-02  0.9902947E-01
        1   -1    0    0  501    0  0.00000000000E+00  0.00000000000E+00  0.20855372498E+03  0.20855372504E+03  0.50400001928E-02 0.  1.
       -1   -1    0    0    0  501  0.00000000000E+00  0.00000000000E+00 -0.43325232315E+03  0.43325232318E+03  0.50400001928E-02 0. -1.
    10030    2    1    2    0    0  0.00000000000E+00  0.00000000000E+00 -0.22469859817E+03  0.64180604821E+03  0.60118677921E+03 0.  0.
        5    1    3    3  502    0  0.32873297870E+02 -0.29201723469E+03 -0.45003140353E+02  0.29732489252E+03  0.46999998093E+01 0.  1.
       -5    1    3    3    0  502 -0.32873297870E+02  0.29201723469E+03 -0.17969545782E+03  0.34448115570E+03  0.46999998093E+01 0. -1.
</event>
<event>
 5   0  0.9028473E-03  0.5981333E+03  0.7818609E-02  0.9909286E-01
        2   -1    0    0  501    0  0.00000000000E+00  0.00000000000E+00  0.10135881038E+04  0.10135881038E+04  0.25500000920E-02 0. -1.
       -2   -1    0    0    0  501  0.00000000000E+00  0.00000000000E+00 -0.88241820833E+02  0.88241820870E+02  0.25500000920E-02 0.  1.
    10030    2    1    2    0    0  0.00000000000E+00  0.00000000000E+00  0.92534628293E+03  0.11018299246E+04  0.59813329576E+03 0.  0.
        1    1    3    3  502    0 -0.23745590645E+03 -0.17500930025E+03  0.55342970831E+03  0.62713475805E+03  0.50400001928E-02 0. -1.
       -1    1    3    3    0  502  0.23745590645E+03  0.17500930025E+03  0.37191657462E+03  0.47469516659E+03  0.50400001928E-02 0.  1.
</event>
<event>
 5   0  0.5765045E-03  0.5993572E+03  0.7818609E-02  0.9906740E-01
       -1   -1    0    0    0  501  0.00000000000E+00  0.00000000000E+00  0.21843771304E+03  0.21843771309E+03  0.50400001928E-02 0. -1.
        1   -1    0    0  501    0  0.00000000000E+00  0.00000000000E+00 -0.41113447415E+03  0.41113447418E+03  0.50400001928E-02 0.  1.
    10030    2    1    2    0    0  0.00000000000E+00  0.00000000000E+00 -0.19269676111E+03  0.62957218727E+03  0.59935723675E+03 0.  0.
        1    1    3    3  502    0  0.11921597214E+03 -0.39230538097E+02 -0.38219910250E+03  0.40227805944E+03  0.50400001928E-02 0.  1.
       -1    1    3    3    0  502 -0.11921597214E+03  0.39230538097E+02  0.18950234138E+03  0.22729412783E+03  0.50400001928E-02 0. -1.
</event>
<event>
 5   0  0.9028473E-03  0.6015314E+03  0.7818609E-02  0.9902234E-01
        2   -1    0    0  501    0  0.00000000000E+00  0.00000000000E+00  0.35250247121E+03  0.35250247122E+03  0.25500000920E-02 0. -1.
       -2   -1    0    0    0  501  0.00000000000E+00  0.00000000000E+00 -0.25662234884E+03  0.25662234885E+03  0.25500000920E-02 0.  1.
    10030    2    1    2    0    0  0.00000000000E+00  0.00000000000E+00  0.95880122372E+02  0.60912482008E+03  0.60153141943E+03 0.  0.
        1    1    3    3  502    0 -0.15088191384E+03 -0.18375020783E+03 -0.13858760040E+03  0.27520176928E+03  0.50400001928E-02 0.  1.
       -1    1    3    3    0  502  0.15088191384E+03  0.18375020783E+03  0.23446772278E+03  0.33392305080E+03  0.50400001928E-02 0. -1.
</event>
<event>
 5   0  0.5790967E-03  0.6019528E+03  0.7818609E-02  0.9901363E-01
        1   -1    0    0  501    0  0.00000000000E+00  0.00000000000E+00  0.27995778475E+03  0.27995778480E+03  0.50400001928E-02 0.  1.
       -1   -1    0    0    0  501  0.00000000000E+00  0.00000000000E+00 -0.32357304622E+03  0.32357304626E+03  0.50400001928E-02 0. -1.
    10030    2    1    2    0    0  0.00000000000E+00  0.00000000000E+00 -0.43615261467E+02  0.60353083106E+03  0.60195279965E+03 0.  0.
        3    1    3    3  502    0 -0.18285853688E+03 -0.72006241855E+02 -0.25036276521E+03  0.31828237115E+03  0.10100000352E+00 0. -1.
       -3    1    3    3    0  502  0.18285853688E+03  0.72006241855E+02  0.20674750374E+03  0.28524845991E+03  0.10100000352E+00 0.  1.
</event>
<event>
 5   0  0.6078658E-03  0.6003055E+03  0.7818609E-02  0.9904772E-01
       -1   -1    0    0    0  501  0.00000000000E+00  0.00000000000E+00  0.32104765524E+03  0.32104765528E+03  0.50400001928E-02 0. -1.
        1   -1    0    0  501    0  0.00000000000E+00  0.00000000000E+00 -0.28061777545E+03  0.28061777549E+03  0.50400001928E-02 0.  1.
    10030    2    1    2    0    0  0.00000000000E+00  0.00000000000E+00  0.40429879789E+02  0.60166543077E+03  0.60030551838E+03 0.  0.
        2    1    3    3  502    0  0.25145394612E+03 -0.15179044115E+03  0.82179373495E+02  0.30499651552E+03  0.25500000920E-02 0.  1.
       -2    1    3    3    0  502 -0.25145394612E+03  0.15179044115E+03 -0.41749493706E+02  0.29666891525E+03  0.25500000920E-02 0. -1.
</event>
<event>
 5   0  0.5819446E-03  0.6009518E+03  0.7818609E-02  0.9903433E-01
        1   -1    0    0  501    0  0.00000000000E+00  0.00000000000E+00  0.43246664361E+03  0.43246664364E+03  0.50400001928E-02 0. -1.
       -1   -1    0    0    0  501  0.00000000000E+00  0.00000000000E+00 -0.20876931282E+03  0.20876931288E+03  0.50400001928E-02 0.  1.
    10030    2    1    2    0    0  0.00000000000E+00  0.00000000000E+00  0.22369733079E+03  0.64123595652E+03  0.60095179186E+03 0.  0.
        5    1    3    3  502    0  0.91635621050E+02  0.25364876023E+03 -0.29423135910E+02  0.27133483288E+03  0.46999998093E+01 0. -1.
       -5    1    3    3    0  502 -0.91635621050E+02 -0.25364876023E+03  0.25312046670E+03  0.36990112364E+03  0.46999998093E+01 0.  1.
</event>
<event>
 5   0  0.9162342E-03  0.5996804E+03  0.7818609E-02  0.9906069E-01
       -2   -1    0    0    0  501  0.00000000000E+00  0.00000000000E+00  0.81344695812E+02  0.81344695852E+02  0.25500000920E-02 0. -1.
        2   -1    0    0  501    0  0.00000000000E+00  0.00000000000E+00 -0.11052244330E+04  0.11052244330E+04  0.25500000920E-02 0.  1.
    10030    2    1    2    0    0  0.00000000000E+00  0.00000000000E+00 -0.10238797372E+04  0.11865691289E+04  0.59968039933E+03 0.  0.
        5    1    3    3  502    0  0.16114470174E+03 -0.25278985671E+03 -0.50516345884E+03  0.58743726192E+03  0.46999998093E+01 0. -1.
       -5    1    3    3    0  502 -0.16114470174E+03  0.25278985671E+03 -0.51871627838E+03  0.59913186696E+03  0.46999998093E+01 0.  1.
</event>
<event>
 5   0  0.9162342E-03  0.6018223E+03  0.7818609E-02  0.9901632E-01
        2   -1    0    0  501    0  0.00000000000E+00  0.00000000000E+00  0.34280605200E+03  0.34280605201E+03  0.25500000920E-02 0. -1.
       -2   -1    0    0    0  501  0.00000000000E+00  0.00000000000E+00 -0.26413632924E+03  0.26413632925E+03  0.25500000920E-02 0.  1.
    10030    2    1    2    0    0  0.00000000000E+00  0.00000000000E+00  0.78669722763E+02  0.60694238126E+03  0.60182233998E+03 0.  0.
        5    1    3    3  502    0  0.15744953317E+03  0.20883747778E+03 -0.11066515287E+03  0.28402871981E+03  0.46999998093E+01 0.  1.
       -5    1    3    3    0  502 -0.15744953317E+03 -0.20883747778E+03  0.18933487563E+03  0.32291366145E+03  0.46999998093E+01 0. -1.
</event>
<event>
 5   0  0.9162342E-03  0.5998291E+03  0.7818609E-02  0.9905761E-01
       -2   -1    0    0    0  501  0.00000000000E+00  0.00000000000E+00  0.12308351228E+03  0.12308351231E+03  0.25500000920E-02 0.  1.
        2   -1    0    0  501    0  0.00000000000E+00  0.00000000000E+00 -0.73079441888E+03  0.73079441889E+03  0.25500000920E-02 0. -1.
    10030    2    1    2    0    0  0.00000000000E+00  0.00000000000E+00 -0.60771090660E+03  0.85387793120E+03  0.59982912182E+03 0.  0.
        5    1    3    3  502    0  0.55035638949E+02 -0.30449472219E+02 -0.72124649612E+03  0.72399909536E+03  0.46999998093E+01 0. -1.
       -5    1    3    3    0  502 -0.55035638949E+02  0.30449472219E+02  0.11353558952E+03  0.12987883584E+03  0.46999998093E+01 0.  1.
</event>
<event>
 5   0  0.5891927E-03  0.6009658E+03  0.7818609E-02  0.9903404E-01
        1   -1    0    0  501    0  0.00000000000E+00  0.00000000000E+00  0.87066007769E+03  0.87066007771E+03  0.50400001928E-02 0.  1.
       -1   -1    0    0    0  501  0.00000000000E+00  0.00000000000E+00 -0.10370289542E+03  0.10370289555E+03  0.50400001928E-02 0. -1.
    10030    2    1    2    0    0  0.00000000000E+00  0.00000000000E+00  0.76695718227E+03  0.97436297325E+03  0.60096579288E+03 0.  0.
        4    1    3    3  502    0  0.28343166152E+03  0.86706393942E+02  0.46351464252E+03  0.55018082685E+03  0.12699999809E+01 0. -1.
       -4    1    3    3    0  502 -0.28343166152E+03 -0.86706393942E+02  0.30344253975E+03  0.42418214640E+03  0.12699999809E+01 0.  1.
</event>
<event>
 5   0  0.9391405E-03  0.6010683E+03  0.7818609E-02  0.9903192E-01
       -2   -1    0    0    0  501  0.00000000000E+00  0.00000000000E+00  0.82429002086E+03  0.82429002087E+03  0.25500000920E-02 0.  1.
        2   -1    0    0  501    0  0.00000000000E+00  0.00000000000E+00 -0.10957402940E+03  0.10957402943E+03  0.25500000920E-02 0. -1.
    10030    2    1    2    0    0  0.00000000000E+00  0.00000000000E+00  0.71471599146E+03  0.93386405030E+03  0.60106831225E+03 0.  0.
        2    1    3    3  502    0  0.14391962314E+03 -0.25702467066E+03  0.44987975247E+03  0.53774188134E+03  0.25500000920E-02 0.  1.
       -2    1    3    3    0  502 -0.14391962314E+03  0.25702467066E+03  0.26483623899E+03  0.39612216896E+03  0.25500000920E-02 0. -1.
</event>
<event>
 5   0  0.9822607E-03  0.6001022E+03  0.7818609E-02  0.9905194E-01
       -2   -1    0    0    0  501  0.00000000000E+00  0.00000000000E+00  0.73059009692E+02  0.73059009737E+02  0.25500000920E-02 0. -1.
        2   -1    0    0  501    0  0.00000000000E+00  0.00000000000E+00 -0.12323004767E+04  0.12323004767E+04  0.25500000920E-02 0.  1.
    10030    2    1    2    0    0  0.00000000000E+00  0.00000000000E+00 -0.11592414670E+04  0.13053594864E+04  0.60010216630E+03 0.  0.
        3    1    3    3  502    0  0.21559307616E+02 -0.27666634969E+03 -0.82784063663E+03  0.87311465608E+03  0.10100000352E+00 0.  1.
       -3    1    3    3    0  502 -0.21559307616E+02  0.27666634969E+03 -0.33140083036E+03  0.43224483035E+03  0.10100000352E+00 0. -1.
</event>
<event>
 5   0  0.5765045E-03  0.6008359E+03  0.7818609E-02  0.9903673E-01
        1   -1    0    0  501    0  0.00000000000E+00  0.00000000000E+00  0.20565196106E+03  0.20565196113E+03  0.50400001928E-02 0. -1.
       -1   -1    0    0    0  501  0.00000000000E+00  0.00000000000E+00 -0.43885287244E+03  0.43885287246E+03  0.50400001928E-02 0.  1.
    10030    2    1    2    0    0  0.00000000000E+00  0.00000000000E+00 -0.23320091137E+03  0.64450483359E+03  0.60083593056E+03 0.  0.
        1    1    3    3  502    0  0.25966564522E+03 -0.91150099617E+02  0.12640224673E+02  0.27548931608E+03  0.50400001928E-02 0. -1.
       -1    1    3    3    0  502 -0.25966564522E+03  0.91150099617E+02 -0.24584113604E+03  0.36901551751E+03  0.50400001928E-02 0.  1.
</event>
<event>
 5   0  0.9822607E-03  0.6006098E+03  0.7818609E-02  0.9904142E-01
       -2   -1    0    0    0  501  0.00000000000E+00  0.00000000000E+00  0.64828617055E+02  0.64828617105E+02  0.25500000920E-02 0. -1.
        2   -1    0    0  501    0  0.00000000000E+00  0.00000000000E+00 -0.13910990068E+04  0.13910990068E+04  0.25500000920E-02 0.  1.
    10030    2    1    2    0    0  0.00000000000E+00  0.00000000000E+00 -0.13262703898E+04  0.14559276239E+04  0.60060977294E+03 0.  0.
        3    1    3    3  502    0  0.14603894128E+03  0.22150520619E+03 -0.32211334697E+03  0.41731157093E+03  0.10100000352E+00 0. -1.
       -3    1    3    3    0  502 -0.14603894128E+03 -0.22150520619E+03 -0.10041570428E+04  0.10386160530E+04  0.10100000352E+00 0.  1.
</event>
<event>
 5   0  0.5891927E-03  0.6002172E+03  0.7818609E-02  0.9904956E-01
       -1   -1    0    0    0  501  0.00000000000E+00  0.00000000000E+00  0.98266205652E+02  0.98266205782E+02  0.50400001928E-02 0.  1.
        1   -1    0    0  501    0  0.00000000000E+00  0.00000000000E+00 -0.91654258719E+03  0.91654258721E+03  0.50400001928E-02 0. -1.
    10030    2    1    2    0    0  0.00000000000E+00  0.00000000000E+00 -0.81827638154E+03  0.10148087930E+04  0.60021716881E+03 0.  0.
        4    1    3    3  502    0  0.23097272763E+03  0.12990137530E+03 -0.64729071708E+03  0.69943523898E+03  0.12699999809E+01 0. -1.
       -4    1    3    3    0  502 -0.23097272763E+03 -0.12990137530E+03 -0.17098566446E+03  0.31537355401E+03  0.12699999809E+01 0.  1.
</event>
<event>
 5   0  0.9162342E-03  0.6020761E+03  0.7818609E-02  0.9901108E-01
        2   -1    0    0  501    0  0.00000000000E+00  0.00000000000E+00  0.55038550113E+03  0.55038550113E+03  0.25500000920E-02 0. -1.
       -2   -1    0    0    0  501  0.00000000000E+00  0.00000000000E+00 -0.16465531249E+03  0.16465531251E+03  0.25500000920E-02 0.  1.
    10030    2    1    2    0    0  0.00000000000E+00  0.00000000000E+00  0.38573018864E+03  0.71504081365E+03  0.60207606393E+03 0.  0.
        5    1    3    3  502    0  0.14143502377E+03  0.23783865059E+02 -0.12142346118E+03  0.18797682066E+03  0.46999998093E+01 0.  1.
       -5    1    3    3    0  502 -0.14143502377E+03 -0.23783865059E+02  0.50715364981E+03  0.52706399298E+03  0.46999998093E+01 0. -1.
</event>
<event>
 5   0  0.5790967E-03  0.6019027E+03  0.7818609E-02  0.9901466E-01
        1   -1    0    0  501    0  0.00000000000E+00  0.00000000000E+00  0.15319979378E+03  0.15319979387E+03  0.50400001928E-02 0.  1.
       -1   -1    0    0    0  501  0.00000000000E+00  0.00000000000E+00 -0.59120004714E+03  0.59120004716E+03  0.50400001928E-02 0. -1.
    10030    2    1    2    0    0  0.00000000000E+00  0.00000000000E+00 -0.43800025335E+03  0.74439984103E+03  0.60190273416E+03 0.  0.
        3    1    3    3  502    0  0.30091812613E+03 -0.15864123455E+01 -0.22417081399E+03  0.37524232089E+03  0.10100000352E+00 0. -1.
       -3    1    3    3    0  502 -0.30091812613E+03  0.15864123455E+01 -0.21382943936E+03  0.36915752014E+03  0.10100000352E+00 0.  1.
</event>
<event>
 5   0  0.9391405E-03  0.5978900E+03  0.7818609E-02  0.9909793E-01
       -2   -1    0    0    0  501  0.00000000000E+00  0.00000000000E+00  0.14393749764E+03  0.14393749766E+03  0.25500000920E-02 0. -1.
        2   -1    0    0  501    0  0.00000000000E+00  0.00000000000E+00 -0.62088146421E+03  0.62088146422E+03  0.25500000920E-02 0.  1.
    10030    2    1    2    0    0  0.00000000000E+00  0.00000000000E+00 -0.47694396658E+03  0.76481896188E+03  0.59789003771E+03 0.  0.
        2    1    3    3  502    0 -0.16325338395E+03 -0.25038304339E+03 -0.24484085496E+03  0.38638113315E+03  0.25500000920E-02 0.  1.
       -2    1    3    3    0  502  0.16325338395E+03  0.25038304339E+03 -0.23210311161E+03  0.37843782873E+03  0.25500000920E-02 0. -1.
</event>
<event>
 5   0  0.5819446E-03  0.6018236E+03  0.7818609E-02  0.9901630E-01
       -1   -1    0    0    0  501  0.00000000000E+00  0.00000000000E+00  0.46558804020E+03  0.46558804023E+03  0.50400001928E-02 0.  1.
        1   -1    0    0  501    0  0.00000000000E+00  0.00000000000E+00 -0.19448076385E+03  0.19448076392E+03  0.50400001928E-02 0. -1.
    10030    2    1    2    0    0  0.00000000000E+00  0.00000000000E+00  0.27110727635E+03  0.66006880415E+03  0.60182362111E+03 0.  0.
        5    1    3    3  502    0 -0.28138474514E+03  0.65342262701E+02  0.43275021209E+02  0.29213319488E+03  0.46999998093E+01 0. -1.
       -5    1    3    3    0  502  0.28138474514E+03 -0.65342262701E+02  0.22783225514E+03  0.36793560927E+03  0.46999998093E+01 0.  1.
</event>
<event>
 5   0  0.6078658E-03  0.5997246E+03  0.7818609E-02  0.9905978E-01
       -1   -1    0    0    0  501  0.00000000000E+00  0.00000000000E+00  0.70078828186E+03  0.70078828188E+03  0.50400001928E-02 0. -1.
        1   -1    0    0  501    0  0.00000000000E+00  0.00000000000E+00 -0.12830892581E+03  0.12830892591E+03  0.50400001928E-02 0.  1.
    10030    2    1    2    0    0  0.00000000000E+00  0.00000000000E+00  0.57247935605E+03  0.82909720779E+03  0.59972457584E+03 0.  0.
        2    1    3    3  502    0  0.46694477168E+02 -0.27793723363E+03  0.42781844221E+03  0.51230664601E+03  0.25500000920E-02 0. -1.
       -2    1    3    3    0  502 -0.46694477168E+02  0.27793723363E+03  0.14466091383E+03  0.31679056178E+03  0.25500000920E-02 0.  1.
</event>
<event>
 5   0  0.5819446E-03  0.6004693E+03  0.7818609E-02  0.9904433E-01
       -1   -1    0    0    0  501  0.00000000000E+00  0.00000000000E+00  0.25941275421E+03  0.25941275426E+03  0.50400001928E-02 0.  1.
        1   -1    0    0  501    0  0.00000000000E+00  0.00000000000E+00 -0.34748033790E+03  0.34748033793E+03  0.50400001928E-02 0. -1.
    10030    2    1    2    0    0  0.00000000000E+00  0.00000000000E+00 -0.88067583682E+02  0.60689309220E+03  0.60046925488E+03 0.  0.
        5    1    3    3  502    0  0.37123214865E+02 -0.23132505844E+03  0.14566893974E+03  0.27591836790E+03  0.46999998093E+01 0.  1.
       -5    1    3    3    0  502 -0.37123214865E+02  0.23132505844E+03 -0.23373652342E+03  0.33097472430E+03  0.46999998093E+01 0. -1.
</event>
<event>
 5   0  0.9162342E-03  0.6011043E+03  0.7818609E-02  0.9903118E-01
        2   -1    0    0  501    0  0.00000000000E+00  0.00000000000E+00  0.50961110939E+03  0.50961110940E+03  0.25500000920E-02 0.  1.
       -2   -1    0    0    0  501  0.00000000000E+00  0.00000000000E+00 -0.17725592097E+03  0.17725592099E+03  0.25500000920E-02 0. -1.
    10030    2    1    2    0    0  0.00000000000E+00  0.00000000000E+00  0.33235518842E+03  0.68686703039E+03  0.60110427229E+03 0.  0.
        5    1    3    3  502    0  0.82894418252E+01  0.18728863797E+03  0.43455734059E+03  0.47329475067E+03  0.46999998093E+01 0.  1.
       -5    1    3    3    0  502 -0.82894418252E+01 -0.18728863797E+03 -0.10220215216E+03  0.21357227971E+03  0.46999998093E+01 0. -1.
</event>
<event>
 5   0  0.5819446E-03  0.6002897E+03  0.7818609E-02  0.9904805E-01
        1   -1    0    0  501    0  0.00000000000E+00  0.00000000000E+00  0.89434554205E+03  0.89434554206E+03  0.50400001928E-02 0.  1.
       -1   -1    0    0    0  501  0.00000000000E+00  0.00000000000E+00 -0.10072944818E+03  0.10072944831E+03  0.50400001928E-02 0. -1.
    10030    2    1    2    0    0  0.00000000000E+00  0.00000000000E+00  0.79361609386E+03  0.99507499037E+03  0.60028970674E+03 0.  0.
        5    1    3    3  502    0  0.28279076155E+03 -0.10010614778E+03  0.38264623701E+03  0.48624282857E+03  0.46999998093E+01 0.  1.
       -5    1    3    3    0  502 -0.28279076155E+03  0.10010614778E+03  0.41096985685E+03  0.50883216180E+03  0.46999998093E+01 0. -1.
</event>
<event>
 5   0  0.9028473E-03  0.6007381E+03  0.7818609E-02  0.9903876E-01
        2   -1    0    0  501    0  0.00000000000E+00  0.00000000000E+00  0.19115571540E+04  0.19115571540E+04  0.25500000920E-02 0.  1.
       -2   -1    0    0    0  501  0.00000000000E+00  0.00000000000E+00 -0.47197949150E+02  0.47197949219E+02  0.25500000920E-02 0. -1.
    10030    2    1    2    0    0  0.00000000000E+00  0.00000000000E+00  0.18643592048E+04  0.19587551032E+04  0.60073813736E+03 0.  0.
        1    1    3    3  502    0  0.11491909130E+03 -0.17743151134E+03  0.23642000141E+03  0.31714784541E+03  0.50400001928E-02 0. -1.
       -1    1    3    3    0  502 -0.11491909130E+03  0.17743151134E+03  0.16279392034E+04  0.16416072578E+04  0.50400001928E-02 0.  1.
</event>
<event>
 5   0  0.9162342E-03  0.5998928E+03  0.7818609E-02  0.9905628E-01
        2   -1    0    0  501    0  0.00000000000E+00  0.00000000000E+00  0.74622322204E+03  0.74622322205E+03  0.25500000920E-02 0. -1.
       -2   -1    0    0    0  501  0.00000000000E+00  0.00000000000E+00 -0.12056425714E+03  0.12056425717E+03  0.25500000920E-02 0.  1.
    10030    2    1    2    0    0  0.00000000000E+00  0.00000000000E+00  0.62565896490E+03  0.86678747922E+03  0.59989281857E+03 0.  0.
        5    1    3    3  502    0  0.15668691136E+03 -0.19009331758E+03  0.55998620239E+03  0.61179481400E+03  0.46999998093E+01 0. -1.
       -5    1    3    3    0  502 -0.15668691136E+03  0.19009331758E+03  0.65672762516E+02  0.25499266522E+03  0.46999998093E+01 0.  1.
</event>
<event>
 5   0  0.9162342E-03  0.6040319E+03  0.7818609E-02  0.9897076E-01
        2   -1    0    0  501    0  0.00000000000E+00  0.00000000000E+00  0.43118562867E+03  0.43118562868E+03  0.25500000920E-02 0.  1.
       -2   -1    0    0    0  501  0.00000000000E+00  0.00000000000E+00 -0.21154148192E+03  0.21154148193E+03  0.25500000920E-02 0. -1.
    10030    2    1    2    0    0  0.00000000000E+00  0.00000000000E+00  0.21964414675E+03  0.64272711061E+03  0.60403194246E+03 0.  0.
        5    1    3    3  502    0  0.14371451921E+03 -0.26322017834E+03  0.14748491259E+03  0.33423437100E+03  0.46999998093E+01 0. -1.
       -5    1    3    3    0  502 -0.14371451921E+03  0.26322017834E+03  0.72159234160E+02  0.30849273961E+03  0.46999998093E+01 0.  1.
</event>
<event>
 5   0  0.5790967E-03  0.6008615E+03  0.7818609E-02  0.9903620E-01
        1   -1    0    0  501    0  0.00000000000E+00  0.00000000000E+00  0.15891949650E+03  0.15891949658E+03  0.50400001928E-02 0. -1.
       -1   -1    0    0    0  501  0.00000000000E+00  0.00000000000E+00 -0.56795202606E+03  0.56795202608E+03  0.50400001928E-02 0.  1.
    10030    2    1    2    0    0  0.00000000000E+00  0.00000000000E+00 -0.40903252956E+03  0.72687152265E+03  0.60086154828E+03 0.  0.
        3    1    3    3  502    0  0.86094745519E+02 -0.19368558996E+03  0.53048688656E+02  0.21849619340E+03  0.10100000352E+00 0. -1.
       -3    1    3    3    0  502 -0.86094745519E+02  0.19368558996E+03 -0.46208121822E+03  0.50837532925E+03  0.10100000352E+00 0.  1.
</event>
<event>
 5   0  0.5819446E-03  0.6006092E+03  0.7818609E-02  0.9904143E-01
       -1   -1    0    0    0  501  0.00000000000E+00  0.00000000000E+00  0.31766154457E+03  0.31766154461E+03  0.50400001928E-02 0. -1.
        1   -1    0    0  501    0  0.00000000000E+00  0.00000000000E+00 -0.28389599559E+03  0.28389599563E+03  0.50400001928E-02 0.  1.
    10030    2    1    2    0    0  0.00000000000E+00  0.00000000000E+00  0.33765548987E+02  0.60155754025E+03  0.60060915905E+03 0.  0.
        5    1    3    3  502    0  0.68556724836E+02  0.64003435817E+02 -0.26881189240E+03  0.28474266946E+03  0.46999998093E+01 0.  1.
       -5    1    3    3    0  502 -0.68556724836E+02 -0.64003435817E+02  0.30257744139E+03  0.31681487079E+03  0.46999998093E+01 0. -1.
</event>
<event>
 5   0  0.9162342E-03  0.5999062E+03  0.7818609E-02  0.9905601E-01
       -2   -1    0    0    0  501  0.00000000000E+00  0.00000000000E+00  0.29925097247E+03  0.29925097248E+03  0.25500000920E-02 0.  1.
        2   -1    0    0  501    0  0.00000000000E+00  0.00000000000E+00 -0.30065685311E+03  0.30065685312E+03  0.25500000920E-02 0. -1.
    10030    2    1    2    0    0  0.00000000000E+00  0.00000000000E+00 -0.14058806445E+01  0.59990782560E+03  0.59990617826E+03 0.  0.
        5    1    3    3  502    0 -0.67833057436E+02 -0.88581087083E+02 -0.27909521509E+03  0.30060632354E+03  0.46999998093E+01 0. -1.
       -5    1    3    3    0  502  0.67833057436E+02  0.88581087083E+02  0.27768933445E+03  0.29930150206E+03  0.46999998093E+01 0.  1.
</event>
<event>
 5   0  0.6078658E-03  0.6005191E+03  0.7818609E-02  0.9904330E-01
       -1   -1    0    0    0  501  0.00000000000E+00  0.00000000000E+00  0.15204335501E+03  0.15204335509E+03  0.50400001928E-02 0. -1.
        1   -1    0    0  501    0  0.00000000000E+00  0.00000000000E+00 -0.59296111703E+03  0.59296111705E+03  0.50400001928E-02 0.  1.
    10030    2    1    2    0    0  0.00000000000E+00  0.00000000000E+00 -0.44091776202E+03  0.74500447214E+03  0.60051910098E+03 0.  0.
        2    1    3    3  502    0  0.22445269042E+03  0.19143649441E+03 -0.15106441412E+03  0.33143234430E+03  0.25500000920E-02 0.  1.
       -2    1    3    3    0  502 -0.22445269042E+03 -0.19143649441E+03 -0.28985334790E+03  0.41357212784E+03  0.25500000920E-02 0. -1.
</event>
<event>
 5   0  0.9028473E-03  0.6014467E+03  0.7818609E-02  0.9902409E-01
       -2   -1    0    0    0  501  0.00000000000E+00  0.00000000000E+00  0.20753282349E+03  0.20753282351E+03  0.25500000920E-02 0. -1.
        2   -1    0    0  501    0  0.00000000000E+00  0.00000000000E+00 -0.43576017088E+03  0.43576017089E+03  0.25500000920E-02 0.  1.
    10030    2    1    2    0    0  0.00000000000E+00  0.00000000000E+00 -0.22822734739E+03  0.64329299439E+03  0.60144671795E+03 0.  0.
        1    1    3    3  502    0  0.29456744325E+03 -0.52063168899E+01 -0.17862120659E+03  0.34453246556E+03  0.50400001928E-02 0. -1.
       -1    1    3    3    0  502 -0.29456744325E+03  0.52063168899E+01 -0.49606140794E+02  0.29876052883E+03  0.50400001928E-02 0.  1.
</event>
<event>
 5   0  0.5819446E-03  0.5999123E+03  0.7818609E-02  0.9905588E-01
        1   -1    0    0  501    0  0.00000000000E+00  0.00000000000E+00  0.75383853962E+02  0.75383854130E+02  0.50400001928E-02 0. -1.
       -1   -1    0    0    0  501  0.00000000000E+00  0.00000000000E+00 -0.11935406230E+04  0.11935406230E+04  0.50400001928E-02 0.  1.
    10030    2    1    2    0    0  0.00000000000E+00  0.00000000000E+00 -0.11181567690E+04  0.12689244771E+04  0.59991230070E+03 0.  0.
        5    1    3    3  502    0  0.21233132700E+03 -0.73185482146E+02 -0.97952072130E+03  0.10049495712E+04  0.46999998093E+01 0.  1.
       -5    1    3    3    0  502 -0.21233132700E+03  0.73185482146E+02 -0.13863604770E+03  0.26397490589E+03  0.46999998093E+01 0. -1.
</event>
<event>
 5   0  0.5765045E-03  0.5990808E+03  0.7818609E-02  0.9907315E-01
        1   -1    0    0  501    0  0.00000000000E+00  0.00000000000E+00  0.25618829828E+03  0.25618829833E+03  0.50400001928E-02 0. -1.
       -1   -1    0    0    0  501  0.00000000000E+00  0.00000000000E+00 -0.35022855538E+03  0.35022855542E+03  0.50400001928E-02 0.  1.
    10030    2    1    2    0    0  0.00000000000E+00  0.00000000000E+00 -0.94040257101E+02  0.60641685374E+03  0.59908082138E+03 0.  0.
        1    1    3    3  502    0 -0.19658654387E+03  0.18730469522E+03 -0.17504072985E+03  0.32306125614E+03  0.50400001928E-02 0.  1.
       -1    1    3    3    0  502  0.19658654387E+03 -0.18730469522E+03  0.81000472745E+02  0.28335559761E+03  0.50400001928E-02 0. -1.
</event>
<event>
 5   0  0.5765045E-03  0.6002287E+03  0.7818609E-02  0.9904932E-01
        1   -1    0    0  501    0  0.00000000000E+00  0.00000000000E+00  0.46256318775E+03  0.46256318778E+03  0.50400001928E-02 0. -1.
       -1   -1    0    0    0  501  0.00000000000E+00  0.00000000000E+00 -0.19471634099E+03  0.19471634106E+03  0.50400001928E-02 0.  1.
    10030    2    1    2    0    0  0.00000000000E+00  0.00000000000E+00  0.26784684676E+03  0.65727952883E+03  0.60022866118E+03 0.  0.
        1    1    3    3  502    0  0.26334750782E+03  0.74539544378E+02  0.26875479977E+03  0.38358466598E+03  0.50400001928E-02 0. -1.
       -1    1    3    3    0  502 -0.26334750782E+03 -0.74539544378E+02 -0.90795300993E+00  0.27369486286E+03  0.50400001928E-02 0.  1.
</event>
<event>
 5   0  0.6078658E-03  0.5986967E+03  0.7818609E-02  0.9908114E-01
       -1   -1    0    0    0  501  0.00000000000E+00  0.00000000000E+00  0.37337850236E+03  0.37337850240E+03  0.50400001928E-02 0. -1.
        1   -1    0    0  501    0  0.00000000000E+00  0.00000000000E+00 -0.23999620186E+03  0.23999620192E+03  0.50400001928E-02 0.  1.
    10030    2    1    2    0    0  0.00000000000E+00  0.00000000000E+00  0.13338230050E+03  0.61337470431E+03  0.59869665926E+03 0.  0.
        2    1    3    3  502    0 -0.42975983910E+02  0.25583110730E+03  0.21972846816E+03  0.33996630772E+03  0.25500000920E-02 0. -1.
       -2    1    3    3    0  502  0.42975983910E+02 -0.25583110730E+03 -0.86346167665E+02  0.27340839660E+03  0.25500000920E-02 0.  1.
</event>
<event>
 5   0  0.9303190E-03  0.5974596E+03  0.7818609E-02  0.9910691E-01
        2   -1    0    0  501    0  0.00000000000E+00  0.00000000000E+00  0.43212888842E+03  0.43212888843E+03  0.25500000920E-02 0. -1.
       -2   -1    0    0    0  501  0.00000000000E+00  0.00000000000E+00 -0.20651131415E+03  0.20651131416E+03  0.25500000920E-02 0.  1.
    10030    2    1    2    0    0  0.00000000000E+00  0.00000000000E+00  0.22561757427E+03  0.63864020259E+03  0.59745963759E+03 0.  0.
        4    1    3    3  502    0  0.17045940232E+03 -0.23341443905E+03  0.32112416108E+02  0.29081184358E+03  0.12699999809E+01 0.  1.
       -4    1    3    3    0  502 -0.17045940232E+03  0.23341443905E+03  0.19350515816E+03  0.34782835901E+03  0.12699999809E+01 0. -1.
</event>
<event>
 5   0  0.9028473E-03  0.6080936E+03  0.7818609E-02  0.9888755E-01
       -2   -1    0    0    0  501  0.00000000000E+00  0.00000000000E+00  0.48058016276E+03  0.48058016277E+03  0.25500000920E-02 0.  1.
        2   -1    0    0  501    0  0.00000000000E+00  0.00000000000E+00 -0.19236012630E+03  0.19236012632E+03  0.25500000920E-02 0. -1.
    10030    2    1    2    0    0  0.00000000000E+00  0.00000000000E+00  0.28822003646E+03  0.67294028908E+03  0.60809361389E+03 0.  0.
        1    1    3    3  502    0 -0.17734978936E+03  0.61502936667E+02  0.40880023724E+03  0.44983685153E+03  0.50400001928E-02 0.  1.
       -1    1    3    3    0  502  0.17734978936E+03 -0.61502936667E+02 -0.12058020078E+03  0.22310343755E+03  0.50400001928E-02 0. -1.
</event>
<event>
 5   0  0.5891927E-03  0.5997815E+03  0.7818609E-02  0.9905859E-01
        1   -1    0    0  501    0  0.00000000000E+00  0.00000000000E+00  0.33858424862E+03  0.33858424866E+03  0.50400001928E-02 0. -1.
       -1   -1    0    0    0  501  0.00000000000E+00  0.00000000000E+00 -0.26561919220E+03  0.26561919225E+03  0.50400001928E-02 0.  1.
    10030    2    1    2    0    0  0.00000000000E+00  0.00000000000E+00  0.72965056417E+02  0.60420344091E+03  0.59978154235E+03 0.  0.
        4    1    3    3  502    0  0.29391962722E+03 -0.68426431917E+01 -0.23091379553E+02  0.29490743249E+03  0.12699999809E+01 0. -1.
       -4    1    3    3    0  502 -0.29391962722E+03  0.68426431917E+01  0.96056435970E+02  0.30929600841E+03  0.12699999809E+01 0.  1.
</event>
<event>
 5   0  0.9162342E-03  0.5996992E+03  0.7818609E-02  0.9906030E-01
        2   -1    0    0  501    0  0.00000000000E+00  0.00000000000E+00  0.20463160217E+04  0.20463160217E+04  0.25500000920E-02 0. -1.
       -2   -1    0    0    0  501  0.00000000000E+00  0.00000000000E+00 -0.43937392856E+02  0.43937392930E+02  0.25500000920E-02 0.  1.
    10030    2    1    2    0    0  0.00000000000E+00  0.00000000000E+00  0.20023786288E+04  0.20902534146E+04  0.59969922805E+03 0.  0.
        5    1    3    3  502    0 -0.76724965954E+02  0.20394737425E+03  0.17189528750E+04  0.17327153050E+04  0.46999998093E+01 0. -1.
       -5    1    3    3    0  502  0.76724965954E+02 -0.20394737425E+03  0.28342575383E+03  0.35753810957E+03  0.46999998093E+01 0.  1.
</event>
<event>
 5   0  0.9822607E-03  0.6021369E+03  0.7818609E-02  0.9900983E-01
       -2   -1    0    0    0  501  0.00000000000E+00  0.00000000000E+00  0.15131529318E+03  0.15131529321E+03  0.25500000920E-02 0. -1.
        2   -1    0    0  501    0  0.00000000000E+00  0.00000000000E+00 -0.59902865920E+03  0.59902865921E+03  0.25500000920E-02 0.  1.
    10030    2    1    2    0    0  0.00000000000E+00  0.00000000000E+00 -0.44771336602E+03  0.75034395242E+03  0.60213685223E+03 0.  0.
        3    1    3    3  502    0  0.56923334729E+02  0.58400926996E+02 -0.58500218320E+03  0.59065937634E+03  0.10100000352E+00 0.  1.
       -3    1    3    3    0  502 -0.56923334729E+02 -0.58400926996E+02  0.13728881718E+03  0.15968457607E+03  0.10100000352E+00 0. -1.
</event>
<event>
 5   0  0.9303190E-03  0.5998047E+03  0.7818609E-02  0.9905811E-01
        2   -1    0    0  501    0  0.00000000000E+00  0.00000000000E+00  0.65208398004E+03  0.65208398005E+03  0.25500000920E-02 0.  1.
       -2   -1    0    0    0  501  0.00000000000E+00  0.00000000000E+00 -0.13792919249E+03  0.13792919252E+03  0.25500000920E-02 0. -1.
    10030    2    1    2    0    0  0.00000000000E+00  0.00000000000E+00  0.51415478755E+03  0.79001317256E+03  0.59980469093E+03 0.  0.
        4    1    3    3  502    0  0.19008840589E+03 -0.82069631969E+02 -0.28681765916E+02  0.20902938344E+03  0.12699999809E+01 0. -1.
       -4    1    3    3    0  502 -0.19008840589E+03  0.82069631969E+02  0.54283655347E+03  0.58098378912E+03  0.12699999809E+01 0.  1.
</event>
<event>
 5   0  0.9391405E-03  0.5989418E+03  0.7818609E-02  0.9907604E-01
        2   -1    0    0  501    0  0.00000000000E+00  0.00000000000E+00  0.54049168482E+03  0.54049168482E+03  0.25500000920E-02 0. -1.
       -2   -1    0    0    0  501  0.00000000000E+00  0.00000000000E+00 -0.16592822852E+03  0.16592822854E+03  0.25500000920E-02 0.  1.
    10030    2    1    2    0    0  0.00000000000E+00  0.00000000000E+00  0.37456345630E+03  0.70641991336E+03  0.59894182622E+03 0.  0.
        2    1    3    3  502    0 -0.29225198575E+03  0.42184868579E+02  0.12840333836E+03  0.32199099928E+03  0.25500000920E-02 0. -1.
       -2    1    3    3    0  502  0.29225198575E+03 -0.42184868579E+02  0.24616011794E+03  0.38442891408E+03  0.25500000920E-02 0.  1.
</event>
<event>
 5   0  0.9391405E-03  0.6002176E+03  0.7818609E-02  0.9904955E-01
       -2   -1    0    0    0  501  0.00000000000E+00  0.00000000000E+00  0.28780089515E+03  0.28780089516E+03  0.25500000920E-02 0. -1.
        2   -1    0    0  501    0  0.00000000000E+00  0.00000000000E+00 -0.31294306140E+03  0.31294306141E+03  0.25500000920E-02 0.  1.
    10030    2    1    2    0    0  0.00000000000E+00  0.00000000000E+00 -0.25142166251E+02  0.60074395658E+03  0.60021760457E+03 0.  0.
        2    1    3    3  502    0 -0.84465424981E+01 -0.27435459373E+03 -0.13401794586E+03  0.30545473806E+03  0.25500000920E-02 0.  1.
       -2    1    3    3    0  502  0.84465424981E+01  0.27435459373E+03  0.10887577961E+03  0.29528921852E+03  0.25500000920E-02 0. -1.
</event>
<event>
 5   0  0.9391405E-03  0.5967819E+03  0.7818609E-02  0.9912105E-01
        2   -1    0    0  501    0  0.00000000000E+00  0.00000000000E+00  0.15790021600E+04  0.15790021600E+04  0.25500000920E-02 0.  1.
       -2   -1    0    0    0  501  0.00000000000E+00  0.00000000000E+00 -0.56388245616E+02  0.56388245673E+02  0.25500000920E-02 0. -1.
    10030    2    1    2    0    0  0.00000000000E+00  0.00000000000E+00  0.15226139144E+04  0.16353904057E+04  0.59678190882E+03 0.  0.
        2    1    3    3  502    0 -0.23248731909E+03  0.17396036011E+03  0.94966682465E+03  0.99306577742E+03  0.25500000920E-02 0. -1.
       -2    1    3    3    0  502  0.23248731909E+03 -0.17396036011E+03  0.57294708971E+03  0.64232462824E+03  0.25500000920E-02 0.  1.
</event>
<event>
 5   0  0.9822607E-03  0.6000341E+03  0.7818609E-02  0.9905335E-01
        2   -1    0    0  501    0  0.00000000000E+00  0.00000000000E+00  0.79913179550E+03  0.79913179550E+03  0.25500000920E-02 0.  1.
       -2   -1    0    0    0  501  0.00000000000E+00  0.00000000000E+00 -0.11263501546E+03  0.11263501549E+03  0.25500000920E-02 0. -1.
    10030    2    1    2    0    0  0.00000000000E+00  0.00000000000E+00  0.68649678004E+03  0.91176681100E+03  0.60003407290E+03 0.  0.
        3    1    3    3  502    0 -0.39637172016E+02  0.10890534991E+03  0.76374446911E+03  0.77248760827E+03  0.10100000352E+00 0.  1.
       -3    1    3    3    0  502  0.39637172016E+02 -0.10890534991E+03 -0.77247689072E+02  0.13927920272E+03  0.10100000352E+00 0. -1.
</event>
<event>
 5   0  0.9303190E-03  0.5997045E+03  0.7818609E-02  0.9906019E-01
       -2   -1    0    0    0  501  0.00000000000E+00  0.00000000000E+00  0.36570503854E+03  0.36570503855E+03  0.25500000920E-02 0.  1.
        2   -1    0    0  501    0  0.00000000000E+00  0.00000000000E+00 -0.24585761627E+03  0.24585761628E+03  0.25500000920E-02 0. -1.
    10030    2    1    2    0    0  0.00000000000E+00  0.00000000000E+00  0.11984742228E+03  0.61156265483E+03  0.59970449069E+03 0.  0.
        4    1    3    3  502    0  0.14857772144E+03  0.18872439362E+03  0.24296527192E+03  0.34165182908E+03  0.12699999809E+01 0. -1.
       -4    1    3    3    0  502 -0.14857772144E+03 -0.18872439362E+03 -0.12311784964E+03  0.26991082575E+03  0.12699999809E+01 0.  1.
</event>
<event>
 5   0  0.9028473E-03  0.6003382E+03  0.7818609E-02  0.9904705E-01
       -2   -1    0    0    0  501  0.00000000000E+00  0.00000000000E+00  0.10807362384E+03  0.10807362387E+03  0.25500000920E-02 0.  1.
        2   -1    0    0  501    0  0.00000000000E+00  0.00000000000E+00 -0.83370468411E+03  0.83370468412E+03  0.25500000920E-02 0. -1.
    10030    2    1    2    0    0  0.00000000000E+00  0.00000000000E+00 -0.72563106028E+03  0.94177830799E+03  0.60033819282E+03 0.  0.
        1    1    3    3  502    0 -0.15905889156E+03 -0.20364754662E+03 -0.60242544999E+03  0.65550627537E+03  0.50400001928E-02 0. -1.
       -1    1    3    3    0  502  0.15905889156E+03  0.20364754662E+03 -0.12320561028E+03  0.28627203261E+03  0.50400001928E-02 0.  1.
</event>
<event>
 5   0  0.5891927E-03  0.5940522E+03  0.7818609E-02  0.9917823E-01
        1   -1    0    0  501    0  0.00000000000E+00  0.00000000000E+00  0.94655505755E+03  0.94655505757E+03  0.50400001928E-02 0. -1.
       -1   -1    0    0    0  501  0.00000000000E+00  0.00000000000E+00 -0.93205901335E+02  0.93205901471E+02  0.50400001928E-02 0.  1.
    10030    2    1    2    0    0  0.00000000000E+00  0.00000000000E+00  0.85334915622E+03  0.10397609590E+04  0.59405224477E+03 0.  0.
        4    1    3    3  502    0  0.18014199432E+03 -0.21634397369E+03  0.26093215074E+03  0.38385290576E+03  0.12699999809E+01 0.  1.
       -4    1    3    3    0  502 -0.18014199432E+03  0.21634397369E+03  0.59241700548E+03  0.65590805328E+03  0.12699999809E+01 0. -1.
</event>
<event>
 5   0  0.5790967E-03  0.5997898E+03  0.7818609E-02  0.9905842E-01
       -1   -1    0    0    0  501  0.00000000000E+00  0.00000000000E+00  0.24336320314E+03  0.24336320319E+03  0.50400001928E-02 0.  1.
        1   -1    0    0  501    0  0.00000000000E+00  0.00000000000E+00 -0.36955858477E+03  0.36955858480E+03  0.50400001928E-02 0. -1.
    10030    2    1    2    0    0  0.00000000000E+00  0.00000000000E+00 -0.12619538163E+03  0.61292178799E+03  0.59978983307E+03 0.  0.
        3    1    3    3  502    0 -0.15227850378E+03  0.19945965517E+03  0.10470485837E+03  0.27191177672E+03  0.10100000352E+00 0.  1.
       -3    1    3    3    0  502  0.15227850378E+03 -0.19945965517E+03 -0.23090023999E+03  0.34101001127E+03  0.10100000352E+00 0. -1.
</event>
<event>
 5   0  0.5891927E-03  0.6004906E+03  0.7818609E-02  0.9904389E-01
        1   -1    0    0  501    0  0.00000000000E+00  0.00000000000E+00  0.50352943887E+03  0.50352943889E+03  0.50400001928E-02 0.  1.
       -1   -1    0    0    0  501  0.00000000000E+00  0.00000000000E+00 -0.17903074089E+03  0.17903074096E+03  0.50400001928E-02 0. -1.
    10030    2    1    2    0    0  0.00000000000E+00  0.00000000000E+00  0.32449869798E+03  0.68256017985E+03  0.60049062784E+03 0.  0.
        4    1    3    3  502    0 -0.69508620308E+02  0.90429236315E+02  0.47794264286E+03  0.49136511663E+03  0.12699999809E+01 0.  1.
       -4    1    3    3    0  502  0.69508620308E+02 -0.90429236315E+02 -0.15344394488E+03  0.19119506322E+03  0.12699999809E+01 0. -1.
</event>
<event>
 5   0  0.9303190E-03  0.5996541E+03  0.7818609E-02  0.9906124E-01
       -2   -1    0    0    0  501  0.00000000000E+00  0.00000000000E+00  0.14421603265E+03  0.14421603267E+03  0.25500000920E-02 0. -1.
        2   -1    0    0  501    0  0.00000000000E+00  0.00000000000E+00 -0.62334449556E+03  0.62334449556E+03  0.25500000920E-02 0.  1.
    10030    2    1    2    0    0  0.00000000000E+00  0.00000000000E+00 -0.47912846291E+03  0.76756052823E+03  0.59965413409E+03 0.  0.
        4    1    3    3  502    0  0.14450922722E+03 -0.71887970451E+02  0.83859117563E+02  0.18189217011E+03  0.12699999809E+01 0. -1.
       -4    1    3    3    0  502 -0.14450922722E+03  0.71887970451E+02 -0.56298758047E+03  0.58566835813E+03  0.12699999809E+01 0.  1.
</event>
<event>
 5   0  0.9391405E-03  0.6001120E+03  0.7818609E-02  0.9905174E-01
        2   -1    0    0  501    0  0.00000000000E+00  0.00000000000E+00  0.57590816995E+03  0.57590816995E+03  0.25500000920E-02 0. -1.
       -2   -1    0    0    0  501  0.00000000000E+00  0.00000000000E+00 -0.15633325575E+03  0.15633325577E+03  0.25500000920E-02 0.  1.
    10030    2    1    2    0    0  0.00000000000E+00  0.00000000000E+00  0.41957491420E+03  0.73224142572E+03  0.60011198699E+03 0.  0.
        2    1    3    3  502    0  0.21308493282E+03 -0.16266362147E+03  0.45317344269E+02  0.27187920855E+03  0.25500000920E-02 0.  1.
       -2    1    3    3    0  502 -0.21308493282E+03  0.16266362147E+03  0.37425756993E+03  0.46036221717E+03  0.25500000920E-02 0. -1.
</event>
<event>
 5   0  0.9391405E-03  0.6010551E+03  0.7818609E-02  0.9903219E-01
       -2   -1    0    0    0  501  0.00000000000E+00  0.00000000000E+00  0.35922971780E+03  0.35922971780E+03  0.25500000920E-02 0. -1.
        2   -1    0    0  501    0  0.00000000000E+00  0.00000000000E+00 -0.25141801548E+03  0.25141801549E+03  0.25500000920E-02 0.  1.
    10030    2    1    2    0    0  0.00000000000E+00  0.00000000000E+00  0.10781170232E+03  0.61064773329E+03  0.60105514807E+03 0.  0.
        2    1    3    3  502    0 -0.21568730215E+02  0.85279835382E+02  0.34585763871E+03  0.35686883684E+03  0.25500000920E-02 0. -1.
       -2    1    3    3    0  502  0.21568730215E+02 -0.85279835382E+02 -0.23804593639E+03  0.25377889645E+03  0.25500000920E-02 0.  1.
</event>
<event>
 5   0  0.9028473E-03  0.5996544E+03  0.7818609E-02  0.9906123E-01
       -2   -1    0    0    0  501  0.00000000000E+00  0.00000000000E+00  0.10588661578E+03  0.10588661581E+03  0.25500000920E-02 0.  1.
        2   -1    0    0  501    0  0.00000000000E+00  0.00000000000E+00 -0.84898676807E+03  0.84898676808E+03  0.25500000920E-02 0. -1.
    10030    2    1    2    0    0  0.00000000000E+00  0.00000000000E+00 -0.74310015230E+03  0.95487338389E+03  0.59965435287E+03 0.  0.
        1    1    3    3  502    0  0.24212920809E+03  0.36727010132E+02 -0.96106791145E+02  0.26308162614E+03  0.50400001928E-02 0.  1.
       -1    1    3    3    0  502 -0.24212920809E+03 -0.36727010132E+02 -0.64699336115E+03  0.69179175774E+03  0.50400001928E-02 0. -1.
</event>
<event>
 5   0  0.9162342E-03  0.5998546E+03  0.7818609E-02  0.9905708E-01
       -2   -1    0    0    0  501  0.00000000000E+00  0.00000000000E+00  0.86393503786E+02  0.86393503823E+02  0.25500000920E-02 0. -1.
        2   -1    0    0  501    0  0.00000000000E+00  0.00000000000E+00 -0.10412402808E+04  0.10412402809E+04  0.25500000920E-02 0.  1.
    10030    2    1    2    0    0  0.00000000000E+00  0.00000000000E+00 -0.95484677706E+03  0.11276337847E+04  0.59985463629E+03 0.  0.
        5    1    3    3  502    0 -0.74969668679E+02 -0.34635543536E+02 -0.10193740651E+04  0.10227246192E+04  0.46999998093E+01 0.  1.
       -5    1    3    3    0  502  0.74969668679E+02  0.34635543536E+02  0.64527288054E+02  0.10490916547E+03  0.46999998093E+01 0. -1.
</event>
<event>
 5   0  0.6078658E-03  0.6020056E+03  0.7818609E-02  0.9901254E-01
        1   -1    0    0  501    0  0.00000000000E+00  0.00000000000E+00  0.77751616191E+03  0.77751616192E+03  0.50400001928E-02 0. -1.
       -1   -1    0    0    0  501  0.00000000000E+00  0.00000000000E+00 -0.11652837444E+03  0.11652837455E+03  0.50400001928E-02 0.  1.
    10030    2    1    2    0    0  0.00000000000E+00  0.00000000000E+00  0.66098778746E+03  0.89404453647E+03  0.60200562956E+03 0.  0.
        2    1    3    3  502    0  0.29561054641E+03 -0.35594331709E+02  0.26491081220E+03  0.39853518042E+03  0.25500000920E-02 0.  1.
       -2    1    3    3    0  502 -0.29561054641E+03  0.35594331709E+02  0.39607697526E+03  0.49550935606E+03  0.25500000920E-02 0. -1.
</event>
<event>
 5   0  0.5790967E-03  0.5962660E+03  0.7818609E-02  0.9913183E-01
       -1   -1    0    0    0  501  0.00000000000E+00  0.00000000000E+00  0.14173708556E+03  0.14173708565E+03  0.50400001928E-02 0.  1.
        1   -1    0    0  501    0  0.00000000000E+00  0.00000000000E+00 -0.62709967105E+03  0.62709967107E+03  0.50400001928E-02 0. -1.
    10030    2    1    2    0    0  0.00000000000E+00  0.00000000000E+00 -0.48536258548E+03  0.76883675672E+03  0.59626598016E+03 0.  0.
        3    1    3    3  502    0 -0.24882614710E+03 -0.16295478888E+03 -0.26893466638E+03  0.40099199454E+03  0.10100000352E+00 0. -1.
       -3    1    3    3    0  502  0.24882614710E+03  0.16295478888E+03 -0.21642791910E+03  0.36784476218E+03  0.10100000352E+00 0.  1.
</event>
<event>
 5   0  0.5765045E-03  0.6001882E+03  0.7818609E-02  0.9905016E-01
        1   -1    0    0  501    0  0.00000000000E+00  0.00000000000E+00  0.33207086325E+03  0.33207086329E+03  0.50400001928E-02 0.  1.
       -1   -1    0    0    0  501  0.00000000000E+00  0.00000000000E+00 -0.27119651915E+03  0.27119651920E+03  0.50400001928E-02 0. -1.
    10030    2    1    2    0    0  0.00000000000E+00  0.00000000000E+00  0.60874344101E+02  0.60326738249E+03  0.60018817800E+03 0.  0.
        1    1    3    3  502    0 -0.13693454538E+03 -0.18235197772E+03  0.22651013284E+03  0.32141896927E+03  0.50400001928E-02 0.  1.
       -1    1    3    3    0  502  0.13693454538E+03  0.18235197772E+03 -0.16563578874E+03  0.28184841322E+03  0.50400001928E-02 0. -1.
</event>
<event>
 5   0  0.6078658E-03  0.5989554E+03  0.7818609E-02  0.9907576E-01
        1   -1    0    0  501    0  0.00000000000E+00  0.00000000000E+00  0.89237108304E+03  0.89237108305E+03  0.50400001928E-02 0.  1.
       -1   -1    0    0    0  501  0.00000000000E+00  0.00000000000E+00 -0.10050403253E+03  0.10050403266E+03  0.50400001928E-02 0. -1.
    10030    2    1    2    0    0  0.00000000000E+00  0.00000000000E+00  0.79186705051E+03  0.99287511571E+03  0.59895539877E+03 0.  0.
        2    1    3    3  502    0  0.13398806756E+03 -0.77999170229E+01  0.83972473487E+03  0.85038301448E+03  0.25500000920E-02 0.  1.
       -2    1    3    3    0  502 -0.13398806756E+03  0.77999170229E+01 -0.47857684359E+02  0.14249210123E+03  0.25500000920E-02 0. -1.
</event>
<event>
 5   0  0.9822607E-03  0.5998098E+03  0.7818609E-02  0.9905801E-01
        2   -1    0    0  501    0  0.00000000000E+00  0.00000000000E+00  0.96327738766E+03  0.96327738766E+03  0.25500000920E-02 0.  1.
       -2   -1    0    0    0  501  0.00000000000E+00  0.00000000000E+00 -0.93371801830E+02  0.93371801864E+02  0.25500000920E-02 0. -1.
    10030    2    1    2    0    0  0.00000000000E+00  0.00000000000E+00  0.86990558583E+03  0.10566491895E+04  0.59980978774E+03 0.  0.
        3    1    3    3  502    0  0.90380874949E+02  0.11139845150E+03  0.89891891907E+03  0.91029311258E+03  0.10100000352E+00 0.  1.
       -3    1    3    3    0  502 -0.90380874949E+02 -0.11139845150E+03 -0.29013333240E+02  0.14635607694E+03  0.10100000352E+00 0. -1.
</event>
<event>
 5   0  0.6078658E-03  0.6097331E+03  0.7818609E-02  0.9885416E-01
        1   -1    0    0  501    0  0.00000000000E+00  0.00000000000E+00  0.75874481598E+03  0.75874481600E+03  0.50400001928E-02 0. -1.
       -1   -1    0    0    0  501  0.00000000000E+00  0.00000000000E+00 -0.12249651848E+03  0.12249651858E+03  0.50400001928E-02 0.  1.
    10030    2    1    2    0    0  0.00000000000E+00  0.00000000000E+00  0.63624829750E+03  0.88124133458E+03  0.60973305118E+03 0.  0.
        2    1    3    3  502    0 -0.18376091031E+03 -0.23151894151E+03  0.42603330962E+03  0.51853010843E+03  0.25500000920E-02 0. -1.
       -2    1    3    3    0  502  0.18376091031E+03  0.23151894151E+03  0.21021498787E+03  0.36271122614E+03  0.25500000920E-02 0.  1.
</event>
<event>
 5   0  0.9162342E-03  0.5996781E+03  0.7818609E-02  0.9906074E-01
       -2   -1    0    0    0  501  0.00000000000E+00  0.00000000000E+00  0.15316483742E+03  0.15316483744E+03  0.25500000920E-02 0.  1.
        2   -1    0    0  501    0  0.00000000000E+00  0.00000000000E+00 -0.58697191380E+03  0.58697191380E+03  0.25500000920E-02 0. -1.
    10030    2    1    2    0    0  0.00000000000E+00  0.00000000000E+00 -0.43380707637E+03  0.74013675124E+03  0.59967810618E+03 0.  0.
        5    1    3    3  502    0 -0.18291437075E+02 -0.23873450509E+03  0.57793257962E+01  0.23955005989E+03  0.46999998093E+01 0.  1.
       -5    1    3    3    0  502  0.18291437075E+02  0.23873450509E+03 -0.43958640217E+03  0.50058669135E+03  0.46999998093E+01 0. -1.
</event>
<event>
 5   0  0.9303190E-03  0.6005226E+03  0.7818609E-02  0.9904322E-01
        2   -1    0    0  501    0  0.00000000000E+00  0.00000000000E+00  0.45978563296E+03  0.45978563297E+03  0.25500000920E-02 0.  1.
       -2   -1    0    0    0  501  0.00000000000E+00  0.00000000000E+00 -0.19608452168E+03  0.19608452170E+03  0.25500000920E-02 0. -1.
    10030    2    1    2    0    0  0.00000000000E+00  0.00000000000E+00  0.26370111128E+03  0.65587015466E+03  0.60052259215E+03 0.  0.
        4    1    3    3  502    0  0.10991438162E+03 -0.21844405824E+03  0.32213908756E+03  0.40444305223E+03  0.12699999809E+01 0.  1.
       -4    1    3    3    0  502 -0.10991438162E+03  0.21844405824E+03 -0.58437976279E+02  0.25142710243E+03  0.12699999809E+01 0. -1.
</event>
<event>
 5   0  0.5819446E-03  0.6005250E+03  0.7818609E-02  0.9904317E-01
       -1   -1    0    0    0  501  0.00000000000E+00  0.00000000000E+00  0.15584504875E+03  0.15584504883E+03  0.50400001928E-02 0. -1.
        1   -1    0    0  501    0  0.00000000000E+00  0.00000000000E+00 -0.57850773310E+03  0.57850773312E+03  0.50400001928E-02 0.  1.
    10030    2    1    2    0    0  0.00000000000E+00  0.00000000000E+00 -0.42266268435E+03  0.73435278196E+03  0.60052499001E+03 0.  0.
        5    1    3    3  502    0  0.76590264533E+02 -0.98762093944E+02 -0.54513941985E+03  0.55930233049E+03  0.46999998093E+01 0.  1.
       -5    1    3    3    0  502 -0.76590264533E+02  0.98762093944E+02  0.12247673550E+03  0.17505045147E+03  0.46999998093E+01 0. -1.
</event>
<event>
 5   0  0.5790967E-03  0.5997414E+03  0.7818609E-02  0.9905943E-01
       -1   -1    0    0    0  501  0.00000000000E+00  0.00000000000E+00  0.11647051408E+03  0.11647051419E+03  0.50400001928E-02 0. -1.
        1   -1    0    0  501    0  0.00000000000E+00  0.00000000000E+00 -0.77206185699E+03  0.77206185701E+03  0.50400001928E-02 0.  1.
    10030    2    1    2    0    0  0.00000000000E+00  0.00000000000E+00 -0.65559134291E+03  0.88853237120E+03  0.59974141575E+03 0.  0.
        3    1    3    3  502    0 -0.13539843069E+03  0.79516545974E+02 -0.70628655597E+03  0.72353045925E+03  0.10100000352E+00 0.  1.
       -3    1    3    3    0  502  0.13539843069E+03 -0.79516545974E+02  0.50695213064E+02  0.16500191195E+03  0.10100000352E+00 0. -1.
</event>
<event>
 5   0  0.5891927E-03  0.6017985E+03  0.7818609E-02  0.9901682E-01
       -1   -1    0    0    0  501  0.00000000000E+00  0.00000000000E+00  0.60616588058E+02  0.60616588268E+02  0.50400001928E-02 0. -1.
        1   -1    0    0  501    0  0.00000000000E+00  0.00000000000E+00 -0.14936564696E+04  0.14936564696E+04  0.50400001928E-02 0.  1.
    10030    2    1    2    0    0  0.00000000000E+00  0.00000000000E+00 -0.14330398815E+04  0.15542730579E+04  0.60179850145E+03 0.  0.
        4    1    3    3  502    0  0.29602386329E+02  0.70816780900E+01 -0.14896632757E+04  0.14899747445E+04  0.12699999809E+01 0.  1.
       -4    1    3    3    0  502 -0.29602386329E+02 -0.70816780900E+01  0.56623394131E+02  0.64298313382E+02  0.12699999809E+01 0. -1.
</event>
<event>
 5   0  0.5819446E-03  0.5982641E+03  0.7818609E-02  0.9909014E-01
       -1   -1    0    0    0  501  0.00000000000E+00  0.00000000000E+00  0.26826656669E+03  0.26826656674E+03  0.50400001928E-02 0.  1.
        1   -1    0    0  501    0  0.00000000000E+00  0.00000000000E+00 -0.33354877882E+03  0.33354877886E+03  0.50400001928E-02 0. -1.
    10030    2    1    2    0    0  0.00000000000E+00  0.00000000000E+00 -0.65282212130E+02  0.60181534559E+03  0.59826410804E+03 0.  0.
        5    1    3    3  502    0  0.51754063741E+02 -0.19600105583E+02  0.26303432444E+03  0.26883413676E+03  0.46999998093E+01 0.  1.
       -5    1    3    3    0  502 -0.51754063741E+02  0.19600105583E+02 -0.32831653657E+03  0.33298120884E+03  0.46999998093E+01 0. -1.
</event>
<event>
 5   0  0.9391405E-03  0.6004353E+03  0.7818609E-02  0.9904503E-01
       -2   -1    0    0    0  501  0.00000000000E+00  0.00000000000E+00  0.11642897928E+03  0.11642897931E+03  0.25500000920E-02 0.  1.
        2   -1    0    0  501    0  0.00000000000E+00  0.00000000000E+00 -0.77412538831E+03  0.77412538831E+03  0.25500000920E-02 0. -1.
    10030    2    1    2    0    0  0.00000000000E+00  0.00000000000E+00 -0.65769640903E+03  0.89055436762E+03  0.60043527148E+03 0.  0.
        2    1    3    3  502    0 -0.71534220643E+02 -0.29136396921E+03 -0.34513090928E+03  0.45730236368E+03  0.25500000920E-02 0. -1.
       -2    1    3    3    0  502  0.71534220643E+02  0.29136396921E+03 -0.31256549975E+03  0.43325200394E+03  0.25500000920E-02 0.  1.
</event>
<event>
 5   0  0.6078658E-03  0.6004770E+03  0.7818609E-02  0.9904417E-01
       -1   -1    0    0    0  501  0.00000000000E+00  0.00000000000E+00  0.89198072281E+02  0.89198072423E+02  0.50400001928E-02 0.  1.
        1   -1    0    0  501    0  0.00000000000E+00  0.00000000000E+00 -0.10105953956E+04  0.10105953956E+04  0.50400001928E-02 0. -1.
    10030    2    1    2    0    0  0.00000000000E+00  0.00000000000E+00 -0.92139732333E+03  0.10997934680E+04  0.60047701448E+03 0.  0.
        2    1    3    3  502    0  0.14204912718E+03  0.24688190115E+03 -0.28680394852E+03  0.40420926825E+03  0.25500000920E-02 0.  1.
       -2    1    3    3    0  502 -0.14204912718E+03 -0.24688190115E+03 -0.63459337481E+03  0.69558419980E+03  0.25500000920E-02 0. -1.
</event>
<event>
 5   0  0.9162342E-03  0.5989474E+03  0.7818609E-02  0.9907592E-01
        2   -1    0    0  501    0  0.00000000000E+00  0.00000000000E+00  0.21005865141E+04  0.21005865141E+04  0.25500000920E-02 0. -1.
       -2   -1    0    0    0  501  0.00000000000E+00  0.00000000000E+00 -0.42694981972E+02  0.42694982048E+02  0.25500000920E-02 0.  1.
    10030    2    1    2    0    0  0.00000000000E+00  0.00000000000E+00  0.20578915321E+04  0.21432814962E+04  0.59894742151E+03 0.  0.
        5    1    3    3  502    0  0.29131795925E+03  0.13998627216E+02  0.78623808507E+03  0.83860272558E+03  0.46999998093E+01 0.  1.
       -5    1    3    3    0  502 -0.29131795925E+03 -0.13998627216E+02  0.12716534471E+04  0.13046787706E+04  0.46999998093E+01 0. -1.
</event>
<event>
 5   0  0.5765045E-03  0.6004610E+03  0.7818609E-02  0.9904450E-01
        1   -1    0    0  501    0  0.00000000000E+00  0.00000000000E+00  0.77050965135E+03  0.77050965136E+03  0.50400001928E-02 0. -1.
       -1   -1    0    0    0  501  0.00000000000E+00  0.00000000000E+00 -0.11698534746E+03  0.11698534757E+03  0.50400001928E-02 0.  1.
    10030    2    1    2    0    0  0.00000000000E+00  0.00000000000E+00  0.65352430389E+03  0.88749499893E+03  0.60046095406E+03 0.  0.
        1    1    3    3  502    0  0.28965601310E+03 -0.15700351170E+02  0.21235867487E+03  0.35950426113E+03  0.50400001928E-02 0.  1.
       -1    1    3    3    0  502 -0.28965601310E+03  0.15700351170E+02  0.44116562901E+03  0.52799073780E+03  0.50400001928E-02 0. -1.
</event>
<event>
 5   0  0.9822607E-03  0.6009549E+03  0.7818609E-02  0.9903427E-01
        2   -1    0    0  501    0  0.00000000000E+00  0.00000000000E+00  0.20837119413E+03  0.20837119415E+03  0.25500000920E-02 0. -1.
       -2   -1    0    0    0  501  0.00000000000E+00  0.00000000000E+00 -0.43329747351E+03  0.43329747352E+03  0.25500000920E-02 0.  1.
    10030    2    1    2    0    0  0.00000000000E+00  0.00000000000E+00 -0.22492627938E+03  0.64166866767E+03  0.60095494666E+03 0.  0.
        3    1    3    3  502    0 -0.27749032474E+03 -0.86398401674E+02 -0.19392847575E+03  0.34939065248E+03  0.10100000352E+00 0.  1.
       -3    1    3    3    0  502  0.27749032474E+03  0.86398401674E+02 -0.30997803632E+02  0.29227801519E+03  0.10100000352E+00 0. -1.
</event>
<event>
 5   0  0.9162342E-03  0.5998685E+03  0.7818609E-02  0.9905679E-01
        2   -1    0    0  501    0  0.00000000000E+00  0.00000000000E+00  0.79159038199E+03  0.79159038199E+03  0.25500000920E-02 0. -1.
       -2   -1    0    0    0  501  0.00000000000E+00  0.00000000000E+00 -0.11364534007E+03  0.11364534010E+03  0.25500000920E-02 0.  1.
    10030    2    1    2    0    0  0.00000000000E+00  0.00000000000E+00  0.67794504192E+03  0.90523572209E+03  0.59986851283E+03 0.  0.
        5    1    3    3  502    0 -0.22839287800E+03  0.81117646122E+02  0.60550413625E+03  0.65222751265E+03  0.46999998093E+01 0. -1.
       -5    1    3    3    0  502  0.22839287800E+03 -0.81117646122E+02  0.72440905665E+02  0.25300820944E+03  0.46999998093E+01 0.  1.
</event>
<event>
 5   0  0.9162342E-03  0.5999612E+03  0.7818609E-02  0.9905487E-01
       -2   -1    0    0    0  501  0.00000000000E+00  0.00000000000E+00  0.16131113578E+03  0.16131113580E+03  0.25500000920E-02 0. -1.
        2   -1    0    0  501    0  0.00000000000E+00  0.00000000000E+00 -0.55785575914E+03  0.55785575915E+03  0.25500000920E-02 0.  1.
    10030    2    1    2    0    0  0.00000000000E+00  0.00000000000E+00 -0.39654462337E+03  0.71916689495E+03  0.59996115246E+03 0.  0.
        5    1    3    3  502    0 -0.20129789715E+03 -0.94248191610E+02  0.43145849074E+02  0.22646681724E+03  0.46999998093E+01 0. -1.
       -5    1    3    3    0  502  0.20129789715E+03  0.94248191610E+02 -0.43969047244E+03  0.49270007771E+03  0.46999998093E+01 0.  1.
</event>
<event>
 5   0  0.9822607E-03  0.6010975E+03  0.7818609E-02  0.9903132E-01
        2   -1    0    0  501    0  0.00000000000E+00  0.00000000000E+00  0.86461413631E+03  0.86461413632E+03  0.25500000920E-02 0.  1.
       -2   -1    0    0    0  501  0.00000000000E+00  0.00000000000E+00 -0.10447383825E+03  0.10447383828E+03  0.25500000920E-02 0. -1.
    10030    2    1    2    0    0  0.00000000000E+00  0.00000000000E+00  0.76014029806E+03  0.96908797460E+03  0.60109752101E+03 0.  0.
        3    1    3    3  502    0  0.27672071614E+03 -0.76762577543E+02  0.52302671192E+03  0.59667729942E+03  0.10100000352E+00 0.  1.
       -3    1    3    3    0  502 -0.27672071614E+03  0.76762577543E+02  0.23711358614E+03  0.37241067518E+03  0.10100000352E+00 0. -1.
</event>
<event>
 5   0  0.5765045E-03  0.5977077E+03  0.7818609E-02  0.9910173E-01
       -1   -1    0    0    0  501  0.00000000000E+00  0.00000000000E+00  0.10155915334E+03  0.10155915347E+03  0.50400001928E-02 0.  1.
        1   -1    0    0  501    0  0.00000000000E+00  0.00000000000E+00 -0.87942468952E+03  0.87942468954E+03  0.50400001928E-02 0. -1.
    10030    2    1    2    0    0  0.00000000000E+00  0.00000000000E+00 -0.77786553618E+03  0.98098384301E+03  0.59770771106E+03 0.  0.
        1    1    3    3  502    0 -0.26833896881E+03 -0.74826598127E+01 -0.17336161828E+03  0.31955600933E+03  0.50400001928E-02 0.  1.
       -1    1    3    3    0  502  0.26833896881E+03  0.74826598127E+01 -0.60450391790E+03  0.66142783368E+03  0.50400001928E-02 0. -1.
</event>
<event>
 5   0  0.6078658E-03  0.5995834E+03  0.7818609E-02  0.9906271E-01
       -1   -1    0    0    0  501  0.00000000000E+00  0.00000000000E+00  0.15345814845E+03  0.15345814854E+03  0.50400001928E-02 0. -1.
        1   -1    0    0  501    0  0.00000000000E+00  0.00000000000E+00 -0.58566495420E+03  0.58566495422E+03  0.50400001928E-02 0.  1.
    10030    2    1    2    0    0  0.00000000000E+00  0.00000000000E+00 -0.43220680574E+03  0.73912310275E+03  0.59958338711E+03 0.  0.
        2    1    3    3  502    0  0.53710320181E+02 -0.24541536528E+03 -0.41776485728E+03  0.48748433410E+03  0.25500000920E-02 0.  1.
       -2    1    3    3    0  502 -0.53710320181E+02  0.24541536528E+03 -0.14441948465E+02  0.25163876865E+03  0.25500000920E-02 0. -1.
</event>
<event>
 5   0  0.5819446E-03  0.5992384E+03  0.7818609E-02  0.9906987E-01
        1   -1    0    0  501    0  0.00000000000E+00  0.00000000000E+00  0.21707724711E+03  0.21707724717E+03  0.50400001928E-02 0.  1.
       -1   -1    0    0    0  501  0.00000000000E+00  0.00000000000E+00 -0.41354716167E+03  0.41354716170E+03  0.50400001928E-02 0. -1.
    10030    2    1    2    0    0  0.00000000000E+00  0.00000000000E+00 -0.19646991456E+03  0.63062440887E+03  0.59923844814E+03 0.  0.
        5    1    3    3  502    0  0.28562703648E+03  0.20660057213E+02 -0.19081984696E+03  0.34415686238E+03  0.46999998093E+01 0. -1.
       -5    1    3    3    0  502 -0.28562703648E+03 -0.20660057213E+02 -0.56500676042E+01  0.28646754649E+03  0.46999998093E+01 0.  1.
</event>
<event>
 5   0  0.9391405E-03  0.5999918E+03  0.7818609E-02  0.9905423E-01
        2   -1    0    0  501    0  0.00000000000E+00  0.00000000000E+00  0.58918203390E+03  0.58918203390E+03  0.25500000920E-02 0.  1.
       -2   -1    0    0    0  501  0.00000000000E+00  0.00000000000E+00 -0.15274996455E+03  0.15274996457E+03  0.25500000920E-02 0. -1.
    10030    2    1    2    0    0  0.00000000000E+00  0.00000000000E+00  0.43643206934E+03  0.74193199847E+03  0.59999178261E+03 0.  0.
        2    1    3    3  502    0 -0.13660824648E+03  0.10764498163E+03  0.52047660840E+03  0.54876694049E+03  0.25500000920E-02 0.  1.
       -2    1    3    3    0  502  0.13660824648E+03 -0.10764498163E+03 -0.84044539055E+02  0.19316505799E+03  0.25500000920E-02 0. -1.
</event>
<event>
 5   0  0.5790967E-03  0.5989219E+03  0.7818609E-02  0.9907645E-01
        1   -1    0    0  501    0  0.00000000000E+00  0.00000000000E+00  0.33196174971E+03  0.33196174975E+03  0.50400001928E-02 0.  1.
       -1   -1    0    0    0  501  0.00000000000E+00  0.00000000000E+00 -0.27014212738E+03  0.27014212743E+03  0.50400001928E-02 0. -1.
    10030    2    1    2    0    0  0.00000000000E+00  0.00000000000E+00  0.61819622334E+02  0.60210387718E+03  0.59892187571E+03 0.  0.
        3    1    3    3  502    0 -0.11263791068E+03  0.10475229728E+03  0.28921164938E+03  0.32757248212E+03  0.10100000352E+00 0.  1.
       -3    1    3    3    0  502  0.11263791068E+03 -0.10475229728E+03 -0.22739202704E+03  0.27453139506E+03  0.10100000352E+00 0. -1.
</event>
<event>
 5   0  0.5891927E-03  0.5969176E+03  0.7818609E-02  0.9911822E-01
       -1   -1    0    0    0  501  0.00000000000E+00  0.00000000000E+00  0.24989738288E+03  0.24989738293E+03  0.50400001928E-02 0. -1.
        1   -1    0    0  501    0  0.00000000000E+00  0.00000000000E+00 -0.35645692091E+03  0.35645692095E+03  0.50400001928E-02 0.  1.
    10030    2    1    2    0    0  0.00000000000E+00  0.00000000000E+00 -0.10655953803E+03  0.60635430387E+03  0.59691758785E+03 0.  0.
        4    1    3    3  502    0  0.98910058840E+02 -0.14876417589E+03  0.18958584013E+03  0.26049641734E+03  0.12699999809E+01 0. -1.
       -4    1    3    3    0  502 -0.98910058840E+02  0.14876417589E+03 -0.29614537817E+03  0.34585788653E+03  0.12699999809E+01 0.  1.
</event>
<event>
 5   0  0.9303190E-03  0.5978044E+03  0.7818609E-02  0.9909972E-01
       -2   -1    0    0    0  501  0.00000000000E+00  0.00000000000E+00  0.10219383540E+03  0.10219383543E+03  0.25500000920E-02 0. -1.
        2   -1    0    0  501    0  0.00000000000E+00  0.00000000000E+00 -0.87424570564E+03  0.87424570565E+03  0.25500000920E-02 0.  1.
    10030    2    1    2    0    0  0.00000000000E+00  0.00000000000E+00 -0.77205187025E+03  0.97643954108E+03  0.59780438859E+03 0.  0.
        4    1    3    3  502    0  0.23148359286E+03  0.18467217749E+03 -0.31962879630E+03  0.43572083634E+03  0.12699999809E+01 0. -1.
       -4    1    3    3    0  502 -0.23148359286E+03 -0.18467217749E+03 -0.45242307395E+03  0.54071870473E+03  0.12699999809E+01 0.  1.
</event>
<event>
 5   0  0.3806250E-03  0.6002573E+03  0.7818609E-02  0.9904872E-01
       -3   -1    0    0    0  501  0.00000000000E+00  0.00000000000E+00  0.21783060437E+03  0.21783062779E+03  0.10100000352E+00 0.  1.
        3   -1    0    0  501    0  0.00000000000E+00  0.00000000000E+00 -0.41351945156E+03  0.41351946389E+03  0.10100000352E+00 0. -1.
    10030    2    1    2    0    0  0.00000000000E+00  0.00000000000E+00 -0.19568884719E+03  0.63135009168E+03  0.60025728929E+03 0.  0.
        4    1    3    3  502    0  0.20502936941E+03 -0.21916244780E+03 -0.10049895923E+03  0.31649782709E+03  0.12699999809E+01 0.  1.
       -4    1    3    3    0  502 -0.20502936941E+03  0.21916244780E+03 -0.95189887957E+02  0.31485226459E+03  0.12699999809E+01 0. -1.
</event>
<event>
 5   0  0.5891927E-03  0.6024930E+03  0.7818609E-02  0.9900247E-01
       -1   -1    0    0    0  501  0.00000000000E+00  0.00000000000E+00  0.82910457338E+02  0.82910457491E+02  0.50400001928E-02 0. -1.
        1   -1    0    0  501    0  0.00000000000E+00  0.00000000000E+00 -0.10945478674E+04  0.10945478674E+04  0.50400001928E-02 0.  1.
    10030    2    1    2    0    0  0.00000000000E+00  0.00000000000E+00 -0.10116374101E+04  0.11774583249E+04  0.60249303518E+03 0.  0.
        4    1    3    3  502    0  0.16177788873E+03  0.24070256692E+03 -0.34659289711E+03  0.45192705189E+03  0.12699999809E+01 0. -1.
       -4    1    3    3    0  502 -0.16177788873E+03 -0.24070256692E+03 -0.66504451295E+03  0.72553127301E+03  0.12699999809E+01 0.  1.
</event>
<event>
 5   0  0.3806250E-03  0.6003706E+03  0.7818609E-02  0.9904637E-01
       -3   -1    0    0    0  501  0.00000000000E+00  0.00000000000E+00  0.13585751026E+04  0.13585751064E+04  0.10100000352E+00 0. -1.
        3   -1    0    0  501    0  0.00000000000E+00  0.00000000000E+00 -0.66327705949E+02  0.66327782848E+02  0.10100000352E+00 0.  1.
    10030    2    1    2    0    0  0.00000000000E+00  0.00000000000E+00  0.12922473967E+04  0.14249028892E+04  0.60037064344E+03 0.  0.
        3    1    3    3  502    0  0.26959699169E+03  0.76403973735E+02  0.90164574110E+03  0.94418491715E+03  0.10100000352E+00 0. -1.
       -3    1    3    3    0  502 -0.26959699169E+03 -0.76403973735E+02  0.39060165556E+03  0.48071797205E+03  0.10100000352E+00 0.  1.
</event>
<event>
 5   0  0.5891927E-03  0.6006955E+03  0.7818609E-02  0.9903964E-01
        1   -1    0    0  501    0  0.00000000000E+00  0.00000000000E+00  0.38676509162E+03  0.38676509165E+03  0.50400001928E-02 0. -1.
       -1   -1    0    0    0  501  0.00000000000E+00  0.00000000000E+00 -0.23323919742E+03  0.23323919748E+03  0.50400001928E-02 0.  1.
    10030    2    1    2    0    0  0.00000000000E+00  0.00000000000E+00  0.15352589419E+03  0.62000428913E+03  0.60069552882E+03 0.  0.
        4    1    3    3  502    0  0.31963499181E+02 -0.26407636144E+03  0.22070606512E+03  0.34564543977E+03  0.12699999809E+01 0. -1.
       -4    1    3    3    0  502 -0.31963499181E+02  0.26407636144E+03 -0.67180170930E+02  0.27435884936E+03  0.12699999809E+01 0.  1.
</event>
<event>
 5   0  0.5765045E-03  0.5998387E+03  0.7818609E-02  0.9905741E-01
        1   -1    0    0  501    0  0.00000000000E+00  0.00000000000E+00  0.40114031249E+03  0.40114031252E+03  0.50400001928E-02 0.  1.
       -1   -1    0    0    0  501  0.00000000000E+00  0.00000000000E+00 -0.22423979997E+03  0.22423980002E+03  0.50400001928E-02 0. -1.
    10030    2    1    2    0    0  0.00000000000E+00  0.00000000000E+00  0.17690051253E+03  0.62538011254E+03  0.59983872319E+03 0.  0.
        1    1    3    3  502    0  0.55072658590E+02 -0.28988002477E+03  0.32419953391E+02  0.29684083258E+03  0.50400001928E-02 0.  1.
       -1    1    3    3    0  502 -0.55072658590E+02  0.28988002477E+03  0.14448055913E+03  0.32853927996E+03  0.50400001928E-02 0. -1.
</event>
<event>
 5   0  0.9028473E-03  0.5996778E+03  0.7818609E-02  0.9906075E-01
       -2   -1    0    0    0  501  0.00000000000E+00  0.00000000000E+00  0.17786630382E+03  0.17786630384E+03  0.25500000920E-02 0.  1.
        2   -1    0    0  501    0  0.00000000000E+00  0.00000000000E+00 -0.50545467870E+03  0.50545467871E+03  0.25500000920E-02 0. -1.
    10030    2    1    2    0    0  0.00000000000E+00  0.00000000000E+00 -0.32758837488E+03  0.68332098255E+03  0.59967776501E+03 0.  0.
        1    1    3    3  502    0 -0.44062384220E+02 -0.15788284199E+03 -0.44988060601E+03  0.47881211888E+03  0.50400001928E-02 0. -1.
       -1    1    3    3    0  502  0.44062384220E+02  0.15788284199E+03  0.12229223113E+03  0.20450886367E+03  0.50400001928E-02 0.  1.
</event>
<event>
 5   0  0.5790967E-03  0.5979020E+03  0.7818609E-02  0.9909768E-01
        1   -1    0    0  501    0  0.00000000000E+00  0.00000000000E+00  0.14046725080E+04  0.14046725080E+04  0.50400001928E-02 0.  1.
       -1   -1    0    0    0  501  0.00000000000E+00  0.00000000000E+00 -0.63624581156E+02  0.63624581355E+02  0.50400001928E-02 0. -1.
    10030    2    1    2    0    0  0.00000000000E+00  0.00000000000E+00  0.13410479268E+04  0.14682970893E+04  0.59790199910E+03 0.  0.
        3    1    3    3  502    0 -0.21667818478E+03 -0.17903168895E+03  0.42044831990E+03  0.50574556974E+03  0.10100000352E+00 0.  1.
       -3    1    3    3    0  502  0.21667818478E+03  0.17903168895E+03  0.92059960690E+03  0.96255151958E+03  0.10100000352E+00 0. -1.
</event>
<event>
 5   0  0.9391405E-03  0.6001903E+03  0.7818609E-02  0.9905011E-01
        2   -1    0    0  501    0  0.00000000000E+00  0.00000000000E+00  0.81410939543E+02  0.81410939583E+02  0.25500000920E-02 0.  1.
       -2   -1    0    0    0  501  0.00000000000E+00  0.00000000000E+00 -0.11062037739E+04  0.11062037739E+04  0.25500000920E-02 0. -1.
    10030    2    1    2    0    0  0.00000000000E+00  0.00000000000E+00 -0.10247928344E+04  0.11876147135E+04  0.60019026512E+03 0.  0.
        2    1    3    3  502    0  0.94633757094E+02  0.61366677812E+01  0.50982149981E+02  0.10766794461E+03  0.25500000920E-02 0.  1.
       -2    1    3    3    0  502 -0.94633757094E+02 -0.61366677812E+01 -0.10757749844E+04  0.10799467689E+04  0.25500000920E-02 0. -1.
</event>
<event>
 5   0  0.9822607E-03  0.6034184E+03  0.7818609E-02  0.9898339E-01
        2   -1    0    0  501    0  0.00000000000E+00  0.00000000000E+00  0.79988307605E+03  0.79988307605E+03  0.25500000920E-02 0. -1.
       -2   -1    0    0    0  501  0.00000000000E+00  0.00000000000E+00 -0.11380219010E+03  0.11380219013E+03  0.25500000920E-02 0.  1.
    10030    2    1    2    0    0  0.00000000000E+00  0.00000000000E+00  0.68608088595E+03  0.91368526618E+03  0.60341841500E+03 0.  0.
        3    1    3    3  502    0 -0.15500583122E+03 -0.22679855469E+03  0.53194362817E+03  0.59868892246E+03  0.10100000352E+00 0. -1.
       -3    1    3    3    0  502  0.15500583122E+03  0.22679855469E+03  0.15413725778E+03  0.31499634372E+03  0.10100000352E+00 0.  1.
</event>
<event>
 5   0  0.5819446E-03  0.5992281E+03  0.7818609E-02  0.9907009E-01
        1   -1    0    0  501    0  0.00000000000E+00  0.00000000000E+00  0.11278781320E+04  0.11278781320E+04  0.50400001928E-02 0. -1.
       -1   -1    0    0    0  501  0.00000000000E+00  0.00000000000E+00 -0.79590665928E+02  0.79590666087E+02  0.50400001928E-02 0.  1.
    10030    2    1    2    0    0  0.00000000000E+00  0.00000000000E+00  0.10482874661E+04  0.12074687981E+04  0.59922807583E+03 0.  0.
        5    1    3    3  502    0 -0.16323162917E+03 -0.10019416304E+03  0.98831671141E+03  0.10067151768E+04  0.46999998093E+01 0. -1.
       -5    1    3    3    0  502  0.16323162917E+03  0.10019416304E+03  0.59970754676E+02  0.20075362135E+03  0.46999998093E+01 0.  1.
</event>
<event>
 5   0  0.5819446E-03  0.5983521E+03  0.7818609E-02  0.9908831E-01
        1   -1    0    0  501    0  0.00000000000E+00  0.00000000000E+00  0.10859044695E+04  0.10859044695E+04  0.50400001928E-02 0.  1.
       -1   -1    0    0    0  501  0.00000000000E+00  0.00000000000E+00 -0.82425582460E+02  0.82425582614E+02  0.50400001928E-02 0. -1.
    10030    2    1    2    0    0  0.00000000000E+00  0.00000000000E+00  0.10034788871E+04  0.11683300521E+04  0.59835209866E+03 0.  0.
        5    1    3    3  502    0  0.91377736413E+01 -0.21177196242E+03  0.89595484628E+02  0.23017450736E+03  0.46999998093E+01 0. -1.
       -5    1    3    3    0  502 -0.91377736413E+01  0.21177196242E+03  0.91388340243E+03  0.93815554478E+03  0.46999998093E+01 0.  1.
</event>
<event>
 5   0  0.9303190E-03  0.6048345E+03  0.7818609E-02  0.9895426E-01
        2   -1    0    0  501    0  0.00000000000E+00  0.00000000000E+00  0.33866658948E+03  0.33866658949E+03  0.25500000920E-02 0. -1.
       -2   -1    0    0    0  501  0.00000000000E+00  0.00000000000E+00 -0.27004788582E+03  0.27004788583E+03  0.25500000920E-02 0.  1.
    10030    2    1    2    0    0  0.00000000000E+00  0.00000000000E+00  0.68618703657E+02  0.60871447532E+03  0.60483451123E+03 0.  0.
        4    1    3    3  502    0 -0.21158992532E+03  0.21276842234E+03  0.72152232975E+02  0.30862316126E+03  0.12699999809E+01 0. -1.
       -4    1    3    3    0  502  0.21158992532E+03 -0.21276842234E+03 -0.35335293183E+01  0.30009131406E+03  0.12699999809E+01 0.  1.
</event>
<event>
 5   0  0.9303190E-03  0.5996151E+03  0.7818609E-02  0.9906205E-01
       -2   -1    0    0    0  501  0.00000000000E+00  0.00000000000E+00  0.43279948901E+02  0.43279948976E+02  0.25500000920E-02 0.  1.
        2   -1    0    0  501    0  0.00000000000E+00  0.00000000000E+00 -0.20768175546E+04  0.20768175546E+04  0.25500000920E-02 0. -1.
    10030    2    1    2    0    0  0.00000000000E+00  0.00000000000E+00 -0.20335376057E+04  0.21200975036E+04  0.59961506893E+03 0.  0.
        4    1    3    3  502    0 -0.50652046189E+02 -0.14034587343E+03 -0.97331740783E+02  0.17815070765E+03  0.12699999809E+01 0.  1.
       -4    1    3    3    0  502  0.50652046189E+02  0.14034587343E+03 -0.19362058649E+04  0.19419467959E+04  0.12699999809E+01 0. -1.
</event>
<event>
 5   0  0.9391405E-03  0.5997707E+03  0.7818609E-02  0.9905882E-01
        2   -1    0    0  501    0  0.00000000000E+00  0.00000000000E+00  0.17067299487E+04  0.17067299487E+04  0.25500000920E-02 0. -1.
       -2   -1    0    0    0  501  0.00000000000E+00  0.00000000000E+00 -0.52692119392E+02  0.52692119453E+02  0.25500000920E-02 0.  1.
    10030    2    1    2    0    0  0.00000000000E+00  0.00000000000E+00  0.16540378293E+04  0.17594220682E+04  0.59977068379E+03 0.  0.
        2    1    3    3  502    0  0.22786663174E+03 -0.13363211033E+03  0.41060287412E+03  0.48823709713E+03  0.25500000920E-02 0.  1.
       -2    1    3    3    0  502 -0.22786663174E+03  0.13363211033E+03  0.12434349552E+04  0.12711849711E+04  0.25500000920E-02 0. -1.
</event>
<event>
 5   0  0.5790967E-03  0.6001086E+03  0.7818609E-02  0.9905181E-01
       -1   -1    0    0    0  501  0.00000000000E+00  0.00000000000E+00  0.22711909840E+03  0.22711909846E+03  0.50400001928E-02 0. -1.
        1   -1    0    0  501    0  0.00000000000E+00  0.00000000000E+00 -0.39641130388E+03  0.39641130391E+03  0.50400001928E-02 0.  1.
    10030    2    1    2    0    0  0.00000000000E+00  0.00000000000E+00 -0.16929220548E+03  0.62353040237E+03  0.60010858338E+03 0.  0.
        3    1    3    3  502    0  0.38800330680E+02 -0.13974742735E+03  0.18828013397E+03  0.23766410785E+03  0.10100000352E+00 0. -1.
       -3    1    3    3    0  502 -0.38800330680E+02  0.13974742735E+03 -0.35757233945E+03  0.38586629452E+03  0.10100000352E+00 0.  1.
</event>
<event>
 5   0  0.9822607E-03  0.5994394E+03  0.7818609E-02  0.9906570E-01
       -2   -1    0    0    0  501  0.00000000000E+00  0.00000000000E+00  0.42696068142E+02  0.42696068218E+02  0.25500000920E-02 0.  1.
        2   -1    0    0  501    0  0.00000000000E+00  0.00000000000E+00 -0.21039849800E+04  0.21039849800E+04  0.25500000920E-02 0. -1.
    10030    2    1    2    0    0  0.00000000000E+00  0.00000000000E+00 -0.20612889119E+04  0.21466810482E+04  0.59943935860E+03 0.  0.
        3    1    3    3  502    0  0.22209614587E+03 -0.20076467395E+03 -0.10811276745E+04  0.11218155869E+04  0.10100000352E+00 0. -1.
       -3    1    3    3    0  502 -0.22209614587E+03  0.20076467395E+03 -0.98016123738E+03  0.10248654613E+04  0.10100000352E+00 0.  1.
</event>
<event>
 5   0  0.5819446E-03  0.6009406E+03  0.7818609E-02  0.9903456E-01
        1   -1    0    0  501    0  0.00000000000E+00  0.00000000000E+00  0.65528835174E+03  0.65528835176E+03  0.50400001928E-02 0.  1.
       -1   -1    0    0    0  501  0.00000000000E+00  0.00000000000E+00 -0.13777508528E+03  0.13777508538E+03  0.50400001928E-02 0. -1.
    10030    2    1    2    0    0  0.00000000000E+00  0.00000000000E+00  0.51751326646E+03  0.79306343714E+03  0.60094062466E+03 0.  0.
        5    1    3    3  502    0 -0.20397218478E+03 -0.11275711553E+03  0.85640340819E+01  0.23326862615E+03  0.46999998093E+01 0. -1.
       -5    1    3    3    0  502  0.20397218478E+03  0.11275711553E+03  0.50894923238E+03  0.55979481098E+03  0.46999998093E+01 0.  1.
</event>
<event>
 5   0  0.5790967E-03  0.6079981E+03  0.7818609E-02  0.9888950E-01
        1   -1    0    0  501    0  0.00000000000E+00  0.00000000000E+00  0.98599868224E+03  0.98599868225E+03  0.50400001928E-02 0.  1.
       -1   -1    0    0    0  501  0.00000000000E+00  0.00000000000E+00 -0.93727746176E+02  0.93727746312E+02  0.50400001928E-02 0. -1.
    10030    2    1    2    0    0  0.00000000000E+00  0.00000000000E+00  0.89227093606E+03  0.10797264286E+04  0.60799813914E+03 0.  0.
        3    1    3    3  502    0  0.11213805584E+02  0.20137724578E+03  0.85007057212E+03  0.87366957847E+03  0.10100000352E+00 0.  1.
       -3    1    3    3    0  502 -0.11213805584E+02 -0.20137724578E+03  0.42200363940E+02  0.20605685009E+03  0.10100000352E+00 0. -1.
</event>
<event>
 5   0  0.5819446E-03  0.5996193E+03  0.7818609E-02  0.9906196E-01
        1   -1    0    0  501    0  0.00000000000E+00  0.00000000000E+00  0.40319030664E+03  0.40319030667E+03  0.50400001928E-02 0. -1.
       -1   -1    0    0    0  501  0.00000000000E+00  0.00000000000E+00 -0.22293645153E+03  0.22293645159E+03  0.50400001928E-02 0.  1.
    10030    2    1    2    0    0  0.00000000000E+00  0.00000000000E+00  0.18025385510E+03  0.62612675826E+03  0.59961926681E+03 0.  0.
        5    1    3    3  502    0 -0.28406757828E+03  0.13128628640E+02 -0.89186240635E+01  0.28454943643E+03  0.46999998093E+01 0.  1.
       -5    1    3    3    0  502  0.28406757828E+03 -0.13128628640E+02  0.18917247917E+03  0.34157732183E+03  0.46999998093E+01 0. -1.
</event>
<event>
 5   0  0.9303190E-03  0.5991414E+03  0.7818609E-02  0.9907189E-01
       -2   -1    0    0    0  501  0.00000000000E+00  0.00000000000E+00  0.64798548356E+02  0.64798548406E+02  0.25500000920E-02 0.  1.
        2   -1    0    0  501    0  0.00000000000E+00  0.00000000000E+00 -0.13849478687E+04  0.13849478687E+04  0.25500000920E-02 0. -1.
    10030    2    1    2    0    0  0.00000000000E+00  0.00000000000E+00 -0.13201493203E+04  0.14497464171E+04  0.59914142396E+03 0.  0.
        4    1    3    3  502    0  0.14293757683E+03 -0.26089790498E+03 -0.74535450008E+03  0.80252963272E+03  0.12699999809E+01 0. -1.
       -4    1    3    3    0  502 -0.14293757683E+03  0.26089790498E+03 -0.57479482023E+03  0.64721678436E+03  0.12699999809E+01 0.  1.
</event>
<event>
 5   0  0.6078658E-03  0.6000777E+03  0.7818609E-02  0.9905245E-01
        1   -1    0    0  501    0  0.00000000000E+00  0.00000000000E+00  0.95390172293E+03  0.95390172295E+03  0.50400001928E-02 0. -1.
       -1   -1    0    0    0  501  0.00000000000E+00  0.00000000000E+00 -0.94373764560E+02  0.94373764695E+02  0.50400001928E-02 0.  1.
    10030    2    1    2    0    0  0.00000000000E+00  0.00000000000E+00  0.85952795837E+03  0.10482754876E+04  0.60007765061E+03 0.  0.
        2    1    3    3  502    0  0.14887999572E+03 -0.10863513728E+03  0.84336421323E+03  0.86326707474E+03  0.25500000920E-02 0. -1.
       -2    1    3    3    0  502 -0.14887999572E+03  0.10863513728E+03  0.16163745147E+02  0.18500841290E+03  0.25500000920E-02 0.  1.
</event>
<event>
 5   0  0.5790967E-03  0.5993560E+03  0.7818609E-02  0.9906743E-01
       -1   -1    0    0    0  501  0.00000000000E+00  0.00000000000E+00  0.45601627389E+03  0.45601627392E+03  0.50400001928E-02 0. -1.
        1   -1    0    0  501    0  0.00000000000E+00  0.00000000000E+00 -0.19693792368E+03  0.19693792375E+03  0.50400001928E-02 0.  1.
    10030    2    1    2    0    0  0.00000000000E+00  0.00000000000E+00  0.25907835021E+03  0.65295419767E+03  0.59935598162E+03 0.  0.
        3    1    3    3  502    0 -0.63453876080E+02  0.80895800501E+02  0.43620130012E+03  0.44815411340E+03  0.10100000352E+00 0. -1.
       -3    1    3    3    0  502  0.63453876080E+02 -0.80895800501E+02 -0.17712294991E+03  0.20480008427E+03  0.10100000352E+00 0.  1.
</event>
<event>
 5   0  0.9391405E-03  0.5995782E+03  0.7818609E-02  0.9906281E-01
        2   -1    0    0  501    0  0.00000000000E+00  0.00000000000E+00  0.13275502846E+04  0.13275502846E+04  0.25500000920E-02 0. -1.
       -2   -1    0    0    0  501  0.00000000000E+00  0.00000000000E+00 -0.67698765380E+02  0.67698765428E+02  0.25500000920E-02 0.  1.
    10030    2    1    2    0    0  0.00000000000E+00  0.00000000000E+00  0.12598515192E+04  0.13952490500E+04  0.59957823604E+03 0.  0.
        2    1    3    3  502    0 -0.28238506609E+03 -0.95527474522E+02  0.70375935914E+03  0.76429317642E+03  0.25500000920E-02 0.  1.
       -2    1    3    3    0  502  0.28238506609E+03  0.95527474522E+02  0.55609216009E+03  0.63095587362E+03  0.25500000920E-02 0. -1.
</event>
<event>
 5   0  0.5790967E-03  0.6000289E+03  0.7818609E-02  0.9905346E-01
       -1   -1    0    0    0  501  0.00000000000E+00  0.00000000000E+00  0.24265636714E+03  0.24265636720E+03  0.50400001928E-02 0.  1.
        1   -1    0    0  501    0  0.00000000000E+00  0.00000000000E+00 -0.37093061500E+03  0.37093061504E+03  0.50400001928E-02 0. -1.
    10030    2    1    2    0    0  0.00000000000E+00  0.00000000000E+00 -0.12827424786E+03  0.61358698223E+03  0.60002891772E+03 0.  0.
        3    1    3    3  502    0 -0.18694731910E+03  0.22229873257E+03 -0.14095195459E+03  0.32285211836E+03  0.10100000352E+00 0.  1.
       -3    1    3    3    0  502  0.18694731910E+03 -0.22229873257E+03  0.12677706730E+02  0.29073486388E+03  0.10100000352E+00 0. -1.
</event>
<event>
 5   0  0.9303190E-03  0.6007177E+03  0.7818609E-02  0.9903918E-01
        2   -1    0    0  501    0  0.00000000000E+00  0.00000000000E+00  0.34180045700E+03  0.34180045701E+03  0.25500000920E-02 0.  1.
       -2   -1    0    0    0  501  0.00000000000E+00  0.00000000000E+00 -0.26394182804E+03  0.26394182805E+03  0.25500000920E-02 0. -1.
    10030    2    1    2    0    0  0.00000000000E+00  0.00000000000E+00  0.77858628961E+02  0.60574228506E+03  0.60071769560E+03 0.  0.
        4    1    3    3  502    0 -0.85507166374E+02 -0.23582585659E+03  0.20550339047E+03  0.32428161609E+03  0.12699999809E+01 0.  1.
       -4    1    3    3    0  502  0.85507166374E+02  0.23582585659E+03 -0.12764476150E+03  0.28146066897E+03  0.12699999809E+01 0. -1.
</event>
<event>
 5   0  0.9028473E-03  0.6002098E+03  0.7818609E-02  0.9904971E-01
       -2   -1    0    0    0  501  0.00000000000E+00  0.00000000000E+00  0.54955553961E+02  0.54955554020E+02  0.25500000920E-02 0.  1.
        2   -1    0    0  501    0  0.00000000000E+00  0.00000000000E+00 -0.16388324116E+04  0.16388324116E+04  0.25500000920E-02 0. -1.
    10030    2    1    2    0    0  0.00000000000E+00  0.00000000000E+00 -0.15838768576E+04  0.16937879656E+04  0.60020977359E+03 0.  0.
        1    1    3    3  502    0  0.27886033346E+03 -0.57728959786E+02 -0.10591683019E+04  0.10967831191E+04  0.50400001928E-02 0. -1.
       -1    1    3    3    0  502 -0.27886033346E+03  0.57728959786E+02 -0.52470855568E+03  0.59700484655E+03  0.50400001928E-02 0.  1.
</event>
<event>
 5   0  0.9028473E-03  0.5997933E+03  0.7818609E-02  0.9905835E-01
       -2   -1    0    0    0  501  0.00000000000E+00  0.00000000000E+00  0.96986974862E+02  0.96986974896E+02  0.25500000920E-02 0.  1.
        2   -1    0    0  501    0  0.00000000000E+00  0.00000000000E+00 -0.92732052094E+03  0.92732052095E+03  0.25500000920E-02 0. -1.
    10030    2    1    2    0    0  0.00000000000E+00  0.00000000000E+00 -0.83033354608E+03  0.10243074958E+04  0.59979333798E+03 0.  0.
        1    1    3    3  502    0 -0.16875912651E+03  0.12257521052E+03 -0.47168908799E+02  0.21384394075E+03  0.50400001928E-02 0.  1.
       -1    1    3    3    0  502  0.16875912651E+03 -0.12257521052E+03 -0.78316463728E+03  0.81046355509E+03  0.50400001928E-02 0. -1.
</event>
<event>
 5   0  0.9822607E-03  0.6003778E+03  0.7818609E-02  0.9904623E-01
        2   -1    0    0  501    0  0.00000000000E+00  0.00000000000E+00  0.11858062559E+04  0.11858062559E+04  0.25500000920E-02 0. -1.
       -2   -1    0    0    0  501  0.00000000000E+00  0.00000000000E+00 -0.75993326508E+02  0.75993326551E+02  0.25500000920E-02 0.  1.
    10030    2    1    2    0    0  0.00000000000E+00  0.00000000000E+00  0.11098129294E+04  0.12617995825E+04  0.60037775445E+03 0.  0.
        3    1    3    3  502    0  0.11250314409E+03  0.16231342271E+03  0.79766126811E+02  0.21299119656E+03  0.10100000352E+00 0.  1.
       -3    1    3    3    0  502 -0.11250314409E+03 -0.16231342271E+03  0.10300468026E+04  0.10488083859E+04  0.10100000352E+00 0. -1.
</event>
<event>
 5   0  0.9162342E-03  0.5949296E+03  0.7818609E-02  0.9915982E-01
        2   -1    0    0  501    0  0.00000000000E+00  0.00000000000E+00  0.23897928835E+03  0.23897928836E+03  0.25500000920E-02 0.  1.
       -2   -1    0    0    0  501  0.00000000000E+00  0.00000000000E+00 -0.37026355360E+03  0.37026355361E+03  0.25500000920E-02 0. -1.
    10030    2    1    2    0    0  0.00000000000E+00  0.00000000000E+00 -0.13128426525E+03  0.60924284197E+03  0.59492964474E+03 0.  0.
        5    1    3    3  502    0 -0.14347078889E+03 -0.16754164264E+03  0.13868043579E+03  0.26059244531E+03  0.46999998093E+01 0. -1.
       -5    1    3    3    0  502  0.14347078889E+03  0.16754164264E+03 -0.26996470104E+03  0.34865039666E+03  0.46999998093E+01 0.  1.
</event>
<event>
 5   0  0.5790967E-03  0.5997744E+03  0.7818609E-02  0.9905874E-01
        1   -1    0    0  501    0  0.00000000000E+00  0.00000000000E+00  0.36646269024E+03  0.36646269028E+03  0.50400001928E-02 0. -1.
       -1   -1    0    0    0  501  0.00000000000E+00  0.00000000000E+00 -0.24540651550E+03  0.24540651555E+03  0.50400001928E-02 0.  1.
    10030    2    1    2    0    0  0.00000000000E+00  0.00000000000E+00  0.12105617474E+03  0.61186920583E+03  0.59977439726E+03 0.  0.
        3    1    3    3  502    0 -0.16303668130E+03  0.23613977013E+03  0.14940185088E+03  0.32351796508E+03  0.10100000352E+00 0. -1.
       -3    1    3    3    0  502  0.16303668130E+03 -0.23613977013E+03 -0.28345676134E+02  0.28835124075E+03  0.10100000352E+00 0.  1.
</event>
<event>
 5   0  0.5891927E-03  0.5996969E+03  0.7818609E-02  0.9906035E-01
       -1   -1    0    0    0  501  0.00000000000E+00  0.00000000000E+00  0.17826748563E+03  0.17826748570E+03  0.50400001928E-02 0. -1.
        1   -1    0    0  501    0  0.00000000000E+00  0.00000000000E+00 -0.50434934228E+03  0.50434934230E+03  0.50400001928E-02 0.  1.
    10030    2    1    2    0    0  0.00000000000E+00  0.00000000000E+00 -0.32608185665E+03  0.68261682800E+03  0.59969688730E+03 0.  0.
        4    1    3    3  502    0  0.11210417315E+03 -0.19312159622E+03 -0.39082056533E+03  0.45011734442E+03  0.12699999809E+01 0.  1.
       -4    1    3    3    0  502 -0.11210417315E+03  0.19312159622E+03  0.64738708675E+02  0.23249948358E+03  0.12699999809E+01 0. -1.
</event>
<event>
 5   0  0.9303190E-03  0.6014971E+03  0.7818609E-02  0.9902305E-01
        2   -1    0    0  501    0  0.00000000000E+00  0.00000000000E+00  0.23760802632E+03  0.23760802634E+03  0.25500000920E-02 0. -1.
       -2   -1    0    0    0  501  0.00000000000E+00  0.00000000000E+00 -0.38066771728E+03  0.38066771729E+03  0.25500000920E-02 0.  1.
    10030    2    1    2    0    0  0.00000000000E+00  0.00000000000E+00 -0.14305969096E+03  0.61827574363E+03  0.60149714877E+03 0.  0.
        4    1    3    3  502    0 -0.33562184306E+02  0.18719858532E+03 -0.31100584807E+03  0.36454901041E+03  0.12699999809E+01 0.  1.
       -4    1    3    3    0  502  0.33562184306E+02 -0.18719858532E+03  0.16794615711E+03  0.25372673321E+03  0.12699999809E+01 0. -1.
</event>
<event>
 5   0  0.5790967E-03  0.5994979E+03  0.7818609E-02  0.9906448E-01
       -1   -1    0    0    0  501  0.00000000000E+00  0.00000000000E+00  0.46256774277E+03  0.46256774280E+03  0.50400001928E-02 0. -1.
        1   -1    0    0  501    0  0.00000000000E+00  0.00000000000E+00 -0.19424061667E+03  0.19424061673E+03  0.50400001928E-02 0.  1.
    10030    2    1    2    0    0  0.00000000000E+00  0.00000000000E+00  0.26832712610E+03  0.65680835953E+03  0.59949793540E+03 0.  0.
        3    1    3    3  502    0 -0.12562538493E+03  0.12248825346E+03 -0.13210113970E+03  0.21962657145E+03  0.10100000352E+00 0.  1.
       -3    1    3    3    0  502  0.12562538493E+03 -0.12248825346E+03  0.40042826581E+03  0.43718178808E+03  0.10100000352E+00 0. -1.
</event>
<event>
 5   0  0.6078658E-03  0.5935641E+03  0.7818609E-02  0.9918849E-01
       -1   -1    0    0    0  501  0.00000000000E+00  0.00000000000E+00  0.71915309525E+02  0.71915309702E+02  0.50400001928E-02 0.  1.
        1   -1    0    0  501    0  0.00000000000E+00  0.00000000000E+00 -0.12247682584E+04  0.12247682584E+04  0.50400001928E-02 0. -1.
    10030    2    1    2    0    0  0.00000000000E+00  0.00000000000E+00 -0.11528529488E+04  0.12966835681E+04  0.59356411117E+03 0.  0.
        2    1    3    3  502    0 -0.10645041213E+03 -0.36769751032E+02 -0.11762730599E+04  0.11816522400E+04  0.25500000920E-02 0. -1.
       -2    1    3    3    0  502  0.10645041213E+03  0.36769751032E+02  0.23420111056E+02  0.11503132809E+03  0.25500000920E-02 0.  1.
</event>
<event>
 5   0  0.5790967E-03  0.6015980E+03  0.7818609E-02  0.9902096E-01
        1   -1    0    0  501    0  0.00000000000E+00  0.00000000000E+00  0.11140010523E+04  0.11140010523E+04  0.50400001928E-02 0.  1.
       -1   -1    0    0    0  501  0.00000000000E+00  0.00000000000E+00 -0.81220791169E+02  0.81220791326E+02  0.50400001928E-02 0. -1.
    10030    2    1    2    0    0  0.00000000000E+00  0.00000000000E+00  0.10327802611E+04  0.11952218436E+04  0.60159802835E+03 0.  0.
        3    1    3    3  502    0  0.50835817889E+01 -0.28816399237E+03  0.68747768199E+03  0.74544610989E+03  0.10100000352E+00 0.  1.
       -3    1    3    3    0  502 -0.50835817889E+01  0.28816399237E+03  0.34530257911E+03  0.44977573372E+03  0.10100000352E+00 0. -1.
</event>
<event>
 5   0  0.5765045E-03  0.5983811E+03  0.7818609E-02  0.9908770E-01
       -1   -1    0    0    0  501  0.00000000000E+00  0.00000000000E+00  0.23962960708E+03  0.23962960713E+03  0.50400001928E-02 0. -1.
        1   -1    0    0  501    0  0.00000000000E+00  0.00000000000E+00 -0.37355566937E+03  0.37355566941E+03  0.50400001928E-02 0.  1.
    10030    2    1    2    0    0  0.00000000000E+00  0.00000000000E+00 -0.13392606230E+03  0.61318527654E+03  0.59838114376E+03 0.  0.
        1    1    3    3  502    0 -0.11777774569E+03  0.24634912322E+03  0.58355252465E+02  0.27922181757E+03  0.50400001928E-02 0. -1.
       -1    1    3    3    0  502  0.11777774569E+03 -0.24634912322E+03 -0.19228131476E+03  0.33396345897E+03  0.50400001928E-02 0.  1.
</event>
<event>
 5   0  0.5819446E-03  0.6152104E+03  0.7818609E-02  0.9874342E-01
       -1   -1    0    0    0  501  0.00000000000E+00  0.00000000000E+00  0.12530933582E+03  0.12530933592E+03  0.50400001928E-02 0. -1.
        1   -1    0    0  501    0  0.00000000000E+00  0.00000000000E+00 -0.75509902473E+03  0.75509902475E+03  0.50400001928E-02 0.  1.
    10030    2    1    2    0    0  0.00000000000E+00  0.00000000000E+00 -0.62978968892E+03  0.88040836067E+03  0.61521039431E+03 0.  0.
        5    1    3    3  502    0 -0.16638527603E+03  0.19055490082E+03 -0.56524450953E+03  0.61928884687E+03  0.46999998093E+01 0.  1.
       -5    1    3    3    0  502  0.16638527603E+03 -0.19055490082E+03 -0.64545179391E+02  0.26111951380E+03  0.46999998093E+01 0. -1.
</event>
<event>
 5   0  0.3806250E-03  0.6002289E+03  0.7818609E-02  0.9904931E-01
        4   -1    0    0  501    0  0.00000000000E+00  0.00000000000E+00  0.70855192507E+03  0.70855306324E+03  0.12699999809E+01 0.  1.
       -4   -1    0    0    0  501  0.00000000000E+00  0.00000000000E+00 -0.12711213417E+03  0.12711847841E+03  0.12699999809E+01 0. -1.
    10030    2    1    2    0    0  0.00000000000E+00  0.00000000000E+00  0.58143979090E+03  0.83567154165E+03  0.60022886892E+03 0.  0.
        3    1    3    3  502    0  0.24334335548E+03 -0.74186507875E+02  0.69053700992E+02  0.26360586191E+03  0.10100000352E+00 0. -1.
       -3    1    3    3    0  502 -0.24334335548E+03  0.74186507875E+02  0.51238608991E+03  0.57206567975E+03  0.10100000352E+00 0.  1.
</event>
<event>
 5   0  0.3806250E-03  0.6002076E+03  0.7818609E-02  0.9904976E-01
        3   -1    0    0  501    0  0.00000000000E+00  0.00000000000E+00  0.42421701283E+03  0.42421702486E+03  0.10100000352E+00 0. -1.
       -3   -1    0    0    0  501  0.00000000000E+00  0.00000000000E+00 -0.21230233992E+03  0.21230236395E+03  0.10100000352E+00 0.  1.
    10030    2    1    2    0    0  0.00000000000E+00  0.00000000000E+00  0.21191467291E+03  0.63651938880E+03  0.60020755054E+03 0.  0.
        2    1    3    3  502    0 -0.16818714748E+03  0.22359076198E+03  0.22107168736E+03  0.35658440288E+03  0.25500000920E-02 0. -1.
       -2    1    3    3    0  502  0.16818714748E+03 -0.22359076198E+03 -0.91570144441E+01  0.27993498592E+03  0.25500000920E-02 0.  1.
</event>
<event>
 5   0  0.3806250E-03  0.5967207E+03  0.7818609E-02  0.9912233E-01
        4   -1    0    0  501    0  0.00000000000E+00  0.00000000000E+00  0.82966054400E+03  0.82966151602E+03  0.12699999809E+01 0.  1.
       -4   -1    0    0    0  501  0.00000000000E+00  0.00000000000E+00 -0.10729078339E+03  0.10729829962E+03  0.12699999809E+01 0. -1.
    10030    2    1    2    0    0  0.00000000000E+00  0.00000000000E+00  0.72236976061E+03  0.93695981564E+03  0.59672072621E+03 0.  0.
        4    1    3    3  502    0  0.92301201793E+02 -0.27445301633E+03  0.47412146616E+03  0.55555085059E+03  0.12699999809E+01 0. -1.
       -4    1    3    3    0  502 -0.92301201793E+02  0.27445301633E+03  0.24824829445E+03  0.38140896505E+03  0.12699999809E+01 0.  1.
</event>
<event>
 5   0  0.9162342E-03  0.6011753E+03  0.7818609E-02  0.9902971E-01
       -2   -1    0    0    0  501  0.00000000000E+00  0.00000000000E+00  0.10307850499E+03  0.10307850502E+03  0.25500000920E-02 0. -1.
        2   -1    0    0  501    0  0.00000000000E+00  0.00000000000E+00 -0.87654488661E+03  0.87654488661E+03  0.25500000920E-02 0.  1.
    10030    2    1    2    0    0  0.00000000000E+00  0.00000000000E+00 -0.77346638161E+03  0.97962339163E+03  0.60117530384E+03 0.  0.
        5    1    3    3  502    0  0.18026516561E+03 -0.22830628266E+03 -0.26358293866E+03  0.39257781927E+03  0.46999998093E+01 0. -1.
       -5    1    3    3    0  502 -0.18026516561E+03  0.22830628266E+03 -0.50988344296E+03  0.58704557236E+03  0.46999998093E+01 0.  1.
</event>
<event>
 5   0  0.5765045E-03  0.5996464E+03  0.7818609E-02  0.9906140E-01
       -1   -1    0    0    0  501  0.00000000000E+00  0.00000000000E+00  0.48509282924E+03  0.48509282927E+03  0.50400001928E-02 0. -1.
        1   -1    0    0  501    0  0.00000000000E+00  0.00000000000E+00 -0.18531288569E+03  0.18531288576E+03  0.50400001928E-02 0.  1.
    10030    2    1    2    0    0  0.00000000000E+00  0.00000000000E+00  0.29977994355E+03  0.67040571503E+03  0.59964640263E+03 0.  0.
        1    1    3    3  502    0 -0.41878853523E+01  0.21742699810E+03  0.38064811278E+03  0.43838912358E+03  0.50400001928E-02 0. -1.
       -1    1    3    3    0  502  0.41878853523E+01 -0.21742699810E+03 -0.80868169232E+02  0.23201659145E+03  0.50400001928E-02 0.  1.
</event>
<event>
 5   0  0.9162342E-03  0.5995959E+03  0.7818609E-02  0.9906245E-01
       -2   -1    0    0    0  501  0.00000000000E+00  0.00000000000E+00  0.78794786993E+02  0.78794787034E+02  0.25500000920E-02 0. -1.
        2   -1    0    0  501    0  0.00000000000E+00  0.00000000000E+00 -0.11406696762E+04  0.11406696762E+04  0.25500000920E-02 0.  1.
    10030    2    1    2    0    0  0.00000000000E+00  0.00000000000E+00 -0.10618748892E+04  0.12194644632E+04  0.59959594458E+03 0.  0.
        5    1    3    3  502    0  0.92708215164E+02  0.12174711534E+03 -0.67050685368E+01  0.15324562374E+03  0.46999998093E+01 0. -1.
       -5    1    3    3    0  502 -0.92708215164E+02 -0.12174711534E+03 -0.10551698206E+04  0.10662188394E+04  0.46999998093E+01 0.  1.
</event>
<event>
 5   0  0.5790967E-03  0.6004636E+03  0.7818609E-02  0.9904445E-01
       -1   -1    0    0    0  501  0.00000000000E+00  0.00000000000E+00  0.68513416339E+02  0.68513416524E+02  0.50400001928E-02 0. -1.
        1   -1    0    0  501    0  0.00000000000E+00  0.00000000000E+00 -0.13156420194E+04  0.13156420194E+04  0.50400001928E-02 0.  1.
    10030    2    1    2    0    0  0.00000000000E+00  0.00000000000E+00 -0.12471286030E+04  0.13841554359E+04  0.60046358610E+03 0.  0.
        3    1    3    3  502    0  0.25237483706E+02 -0.12361895237E+02  0.65474914349E+02  0.71251116817E+02  0.10100000352E+00 0. -1.
       -3    1    3    3    0  502 -0.25237483706E+02  0.12361895237E+02 -0.13126035174E+04  0.13129043191E+04  0.10100000352E+00 0.  1.
</event>
<event>
 5   0  0.9303190E-03  0.5996680E+03  0.7818609E-02  0.9906095E-01
       -2   -1    0    0    0  501  0.00000000000E+00  0.00000000000E+00  0.14603757651E+03  0.14603757653E+03  0.25500000920E-02 0. -1.
        2   -1    0    0  501    0  0.00000000000E+00  0.00000000000E+00 -0.61559794556E+03  0.61559794556E+03  0.25500000920E-02 0.  1.
    10030    2    1    2    0    0  0.00000000000E+00  0.00000000000E+00 -0.46956036905E+03  0.76163552210E+03  0.59966801511E+03 0.  0.
        4    1    3    3  502    0  0.10384527549E+03 -0.71688876996E+02  0.11066631575E+03  0.16784451933E+03  0.12699999809E+01 0. -1.
       -4    1    3    3    0  502 -0.10384527549E+03  0.71688876996E+02 -0.58022668479E+03  0.59379100277E+03  0.12699999809E+01 0.  1.
</event>
<event>
 5   0  0.5891927E-03  0.6005844E+03  0.7818609E-02  0.9904194E-01
        1   -1    0    0  501    0  0.00000000000E+00  0.00000000000E+00  0.13735720338E+03  0.13735720347E+03  0.50400001928E-02 0.  1.
       -1   -1    0    0    0  501  0.00000000000E+00  0.00000000000E+00 -0.65650281496E+03  0.65650281498E+03  0.50400001928E-02 0. -1.
    10030    2    1    2    0    0  0.00000000000E+00  0.00000000000E+00 -0.51914561158E+03  0.79386001844E+03  0.60058435116E+03 0.  0.
        4    1    3    3  502    0  0.15521946748E+03 -0.91410219679E+02 -0.57715152024E+03  0.60461095058E+03  0.12699999809E+01 0. -1.
       -4    1    3    3    0  502 -0.15521946748E+03  0.91410219679E+02  0.58005908659E+02  0.18924906786E+03  0.12699999809E+01 0.  1.
</event>
<event>
 5   0  0.9303190E-03  0.6002427E+03  0.7818609E-02  0.9904903E-01
       -2   -1    0    0    0  501  0.00000000000E+00  0.00000000000E+00  0.11675283579E+04  0.11675283580E+04  0.25500000920E-02 0.  1.
        2   -1    0    0  501    0  0.00000000000E+00  0.00000000000E+00 -0.77148295570E+02  0.77148295612E+02  0.25500000920E-02 0. -1.
    10030    2    1    2    0    0  0.00000000000E+00  0.00000000000E+00  0.10903800624E+04  0.12446766536E+04  0.60024269383E+03 0.  0.
        4    1    3    3  502    0 -0.22509611122E+03  0.13780680981E+03  0.24892872814E+03  0.36280311563E+03  0.12699999809E+01 0. -1.
       -4    1    3    3    0  502  0.22509611122E+03 -0.13780680981E+03  0.84145133424E+03  0.88187353794E+03  0.12699999809E+01 0.  1.
</event>
<event>
 5   0  0.9391405E-03  0.6008198E+03  0.7818609E-02  0.9903707E-01
        2   -1    0    0  501    0  0.00000000000E+00  0.00000000000E+00  0.10358426336E+04  0.10358426336E+04  0.25500000920E-02 0. -1.
       -2   -1    0    0    0  501  0.00000000000E+00  0.00000000000E+00 -0.87123372014E+02  0.87123372051E+02  0.25500000920E-02 0.  1.
    10030    2    1    2    0    0  0.00000000000E+00  0.00000000000E+00  0.94871926159E+03  0.11229660057E+04  0.60081978376E+03 0.  0.
        2    1    3    3  502    0 -0.95651126849E+01  0.19274595093E+03  0.90466336050E+03  0.92501799378E+03  0.25500000920E-02 0. -1.
       -2    1    3    3    0  502  0.95651126849E+01 -0.19274595093E+03  0.44055901092E+02  0.19794801188E+03  0.25500000920E-02 0.  1.
</event>
<event>
 5   0  0.5765045E-03  0.6026861E+03  0.7818609E-02  0.9899849E-01
       -1   -1    0    0    0  501  0.00000000000E+00  0.00000000000E+00  0.16236673166E+03  0.16236673173E+03  0.50400001928E-02 0. -1.
        1   -1    0    0  501    0  0.00000000000E+00  0.00000000000E+00 -0.55927495578E+03  0.55927495580E+03  0.50400001928E-02 0.  1.
    10030    2    1    2    0    0  0.00000000000E+00  0.00000000000E+00 -0.39690822412E+03  0.72164168754E+03  0.60268614287E+03 0.  0.
        1    1    3    3  502    0  0.12199384107E+02 -0.94861101240E+02  0.14371090777E+03  0.17262757178E+03  0.50400001928E-02 0. -1.
       -1    1    3    3    0  502 -0.12199384107E+02  0.94861101240E+02 -0.54061913189E+03  0.54901411575E+03  0.50400001928E-02 0.  1.
</event>
<event>
 5   0  0.5819446E-03  0.5999307E+03  0.7818609E-02  0.9905550E-01
       -1   -1    0    0    0  501  0.00000000000E+00  0.00000000000E+00  0.67820013529E+03  0.67820013530E+03  0.50400001928E-02 0. -1.
        1   -1    0    0  501    0  0.00000000000E+00  0.00000000000E+00 -0.13267351618E+03  0.13267351628E+03  0.50400001928E-02 0.  1.
    10030    2    1    2    0    0  0.00000000000E+00  0.00000000000E+00  0.54552661910E+03  0.81087365158E+03  0.59993065156E+03 0.  0.
        5    1    3    3  502    0 -0.24475077449E+03  0.24492645080E+02  0.40796254516E+02  0.24937773689E+03  0.46999998093E+01 0.  1.
       -5    1    3    3    0  502  0.24475077449E+03 -0.24492645080E+02  0.50473036459E+03  0.56149591469E+03  0.46999998093E+01 0. -1.
</event>
<event>
 5   0  0.5765045E-03  0.6003732E+03  0.7818609E-02  0.9904632E-01
        1   -1    0    0  501    0  0.00000000000E+00  0.00000000000E+00  0.12086142354E+04  0.12086142354E+04  0.50400001928E-02 0.  1.
       -1   -1    0    0    0  501  0.00000000000E+00  0.00000000000E+00 -0.74558107712E+02  0.74558107883E+02  0.50400001928E-02 0. -1.
    10030    2    1    2    0    0  0.00000000000E+00  0.00000000000E+00  0.11340561277E+04  0.12831723433E+04  0.60037318548E+03 0.  0.
        1    1    3    3  502    0 -0.27891291252E+03  0.97277260079E+02  0.45279364971E+03  0.54062682817E+03  0.50400001928E-02 0.  1.
       -1    1    3    3    0  502  0.27891291252E+03 -0.97277260079E+02  0.68126247797E+03  0.74254551511E+03  0.50400001928E-02 0. -1.
</event>
<event>
 5   0  0.9162342E-03  0.5998349E+03  0.7818609E-02  0.9905749E-01
       -2   -1    0    0    0  501  0.00000000000E+00  0.00000000000E+00  0.11556867388E+03  0.11556867391E+03  0.25500000920E-02 0. -1.
        2   -1    0    0  501    0  0.00000000000E+00  0.00000000000E+00 -0.77832919475E+03  0.77832919476E+03  0.25500000920E-02 0.  1.
    10030    2    1    2    0    0  0.00000000000E+00  0.00000000000E+00 -0.66276052087E+03  0.89389786867E+03  0.59983488694E+03 0.  0.
        5    1    3    3  502    0  0.22675173591E+03  0.10925172901E+03 -0.88438738966E+02  0.26682539343E+03  0.46999998093E+01 0. -1.
       -5    1    3    3    0  502 -0.22675173591E+03 -0.10925172901E+03 -0.57432178190E+03  0.62707247523E+03  0.46999998093E+01 0.  1.
</event>
<event>
 5   0  0.9822607E-03  0.5984773E+03  0.7818609E-02  0.9908570E-01
        2   -1    0    0  501    0  0.00000000000E+00  0.00000000000E+00  0.11876802877E+04  0.11876802877E+04  0.25500000920E-02 0. -1.
       -2   -1    0    0    0  501  0.00000000000E+00  0.00000000000E+00 -0.75393834117E+02  0.75393834160E+02  0.25500000920E-02 0.  1.
    10030    2    1    2    0    0  0.00000000000E+00  0.00000000000E+00  0.11122864536E+04  0.12630741218E+04  0.59847730324E+03 0.  0.
        3    1    3    3  502    0 -0.10561946110E+03  0.41720410088E+00  0.11470327166E+04  0.11518852842E+04  0.10100000352E+00 0. -1.
       -3    1    3    3    0  502  0.10561946110E+03 -0.41720410088E+00 -0.34746263088E+02  0.11118883767E+03  0.10100000352E+00 0.  1.
</event>
<event>
 5   0  0.9822607E-03  0.5945040E+03  0.7818609E-02  0.9916875E-01
        2   -1    0    0  501    0  0.00000000000E+00  0.00000000000E+00  0.39540436374E+03  0.39540436375E+03  0.25500000920E-02 0. -1.
       -2   -1    0    0    0  501  0.00000000000E+00  0.00000000000E+00 -0.22346428801E+03  0.22346428802E+03  0.25500000920E-02 0.  1.
    10030    2    1    2    0    0  0.00000000000E+00  0.00000000000E+00  0.17194007573E+03  0.61886865177E+03  0.59450401050E+03 0.  0.
        3    1    3    3  502    0  0.18900427459E+03 -0.22799109460E+03  0.11263606396E+03  0.31684293922E+03  0.10100000352E+00 0. -1.
       -3    1    3    3    0  502 -0.18900427459E+03  0.22799109460E+03  0.59304011779E+02  0.30202571255E+03  0.10100000352E+00 0.  1.
</event>
<event>
 5   0  0.6078658E-03  0.6007143E+03  0.7818609E-02  0.9903925E-01
        1   -1    0    0  501    0  0.00000000000E+00  0.00000000000E+00  0.10619387005E+04  0.10619387005E+04  0.50400001928E-02 0.  1.
       -1   -1    0    0    0  501  0.00000000000E+00  0.00000000000E+00 -0.84952571962E+02  0.84952572112E+02  0.50400001928E-02 0. -1.
    10030    2    1    2    0    0  0.00000000000E+00  0.00000000000E+00  0.97698612854E+03  0.11468912726E+04  0.60071432134E+03 0.  0.
        2    1    3    3  502    0 -0.22088393876E+03 -0.13564884441E+03  0.19879499629E+03  0.32666461998E+03  0.25500000920E-02 0. -1.
       -2    1    3    3    0  502  0.22088393876E+03  0.13564884441E+03  0.77819113225E+03  0.82022665265E+03  0.25500000920E-02 0.  1.
</event>
<event>
 5   0  0.9303190E-03  0.5997997E+03  0.7818609E-02  0.9905822E-01
       -2   -1    0    0    0  501  0.00000000000E+00  0.00000000000E+00  0.35535989530E+03  0.35535989531E+03  0.25500000920E-02 0. -1.
        2   -1    0    0  501    0  0.00000000000E+00  0.00000000000E+00 -0.25309532951E+03  0.25309532952E+03  0.25500000920E-02 0.  1.
    10030    2    1    2    0    0  0.00000000000E+00  0.00000000000E+00  0.10226456580E+03  0.60845522483E+03  0.59979973258E+03 0.  0.
        4    1    3    3  502    0  0.25145633167E+02 -0.14974619066E+03 -0.21121543019E+03  0.26013418718E+03  0.12699999809E+01 0.  1.
       -4    1    3    3    0  502 -0.25145633167E+02  0.14974619066E+03  0.31347999599E+03  0.34832103765E+03  0.12699999809E+01 0. -1.
</event>
<event>
 5   0  0.5765045E-03  0.5963427E+03  0.7818609E-02  0.9913023E-01
        1   -1    0    0  501    0  0.00000000000E+00  0.00000000000E+00  0.21743580820E+03  0.21743580826E+03  0.50400001928E-02 0. -1.
       -1   -1    0    0    0  501  0.00000000000E+00  0.00000000000E+00 -0.40888453374E+03  0.40888453377E+03  0.50400001928E-02 0.  1.
    10030    2    1    2    0    0  0.00000000000E+00  0.00000000000E+00 -0.19144872554E+03  0.62632034203E+03  0.59634265010E+03 0.  0.
        1    1    3    3  502    0  0.89818648747E+02  0.17095911311E+03 -0.33432679091E+03  0.38609430346E+03  0.50400001928E-02 0.  1.
       -1    1    3    3    0  502 -0.89818648747E+02 -0.17095911311E+03  0.14287806537E+03  0.24022603857E+03  0.50400001928E-02 0. -1.
</event>
<event>
 5   0  0.9822607E-03  0.6014406E+03  0.7818609E-02  0.9902422E-01
       -2   -1    0    0    0  501  0.00000000000E+00  0.00000000000E+00  0.89187978427E+02  0.89187978464E+02  0.25500000920E-02 0. -1.
        2   -1    0    0  501    0  0.00000000000E+00  0.00000000000E+00 -0.10139560159E+04  0.10139560159E+04  0.25500000920E-02 0.  1.
    10030    2    1    2    0    0  0.00000000000E+00  0.00000000000E+00 -0.92476803748E+03  0.11031439944E+04  0.60144056163E+03 0.  0.
        3    1    3    3  502    0  0.83237054969E+02 -0.21558801763E+03 -0.10945014923E+03  0.25570675790E+03  0.10100000352E+00 0. -1.
       -3    1    3    3    0  502 -0.83237054969E+02  0.21558801763E+03 -0.81531788825E+03  0.84743723648E+03  0.10100000352E+00 0.  1.
</event>
<event>
 5   0  0.5765045E-03  0.6003986E+03  0.7818609E-02  0.9904579E-01
       -1   -1    0    0    0  501  0.00000000000E+00  0.00000000000E+00  0.46830118727E+03  0.46830118729E+03  0.50400001928E-02 0.  1.
        1   -1    0    0  501    0  0.00000000000E+00  0.00000000000E+00 -0.19243944703E+03  0.19243944709E+03  0.50400001928E-02 0. -1.
    10030    2    1    2    0    0  0.00000000000E+00  0.00000000000E+00  0.27586174024E+03  0.66074063439E+03  0.60039860610E+03 0.  0.
        1    1    3    3  502    0  0.11350064279E+03 -0.71324953354E+02 -0.15767253881E+03  0.20695476415E+03  0.50400001928E-02 0. -1.
       -1    1    3    3    0  502 -0.11350064279E+03  0.71324953354E+02  0.43353427905E+03  0.45378587023E+03  0.50400001928E-02 0.  1.
</event>
<event>
 5   0  0.3806250E-03  0.5995593E+03  0.7818609E-02  0.9906321E-01
       -3   -1    0    0    0  501  0.00000000000E+00  0.00000000000E+00  0.12465096753E+03  0.12465100845E+03  0.10100000352E+00 0.  1.
        3   -1    0    0  501    0  0.00000000000E+00  0.00000000000E+00 -0.72095560746E+03  0.72095561453E+03  0.10100000352E+00 0. -1.
    10030    2    1    2    0    0  0.00000000000E+00  0.00000000000E+00 -0.59630463992E+03  0.84560662298E+03  0.59955928583E+03 0.  0.
        5    1    3    3  502    0 -0.21747576119E+03  0.93390571219E+02 -0.38748757486E+02  0.23987718046E+03  0.46999998093E+01 0.  1.
       -5    1    3    3    0  502  0.21747576119E+03 -0.93390571219E+02 -0.55755588244E+03  0.60572944252E+03  0.46999998093E+01 0. -1.
</event>
<event>
 5   0  0.9162342E-03  0.6005713E+03  0.7818609E-02  0.9904222E-01
        2   -1    0    0  501    0  0.00000000000E+00  0.00000000000E+00  0.13209850109E+04  0.13209850109E+04  0.25500000920E-02 0. -1.
       -2   -1    0    0    0  501  0.00000000000E+00  0.00000000000E+00 -0.68260779893E+02  0.68260779941E+02  0.25500000920E-02 0.  1.
    10030    2    1    2    0    0  0.00000000000E+00  0.00000000000E+00  0.12527242310E+04  0.13892457908E+04  0.60057128505E+03 0.  0.
        5    1    3    3  502    0 -0.19273937403E+03 -0.11146494556E+02  0.11582824095E+04  0.11742712382E+04  0.46999998093E+01 0. -1.
       -5    1    3    3    0  502  0.19273937403E+03  0.11146494556E+02  0.94441821477E+02  0.21497455264E+03  0.46999998093E+01 0.  1.
</event>
<event>
 5   0  0.5819446E-03  0.5997000E+03  0.7818609E-02  0.9906029E-01
        1   -1    0    0  501    0  0.00000000000E+00  0.00000000000E+00  0.17192165140E+04  0.17192165140E+04  0.50400001928E-02 0. -1.
       -1   -1    0    0    0  501  0.00000000000E+00  0.00000000000E+00 -0.52297087475E+02  0.52297087718E+02  0.50400001928E-02 0.  1.
    10030    2    1    2    0    0  0.00000000000E+00  0.00000000000E+00  0.16669194265E+04  0.17715136017E+04  0.59969998047E+03 0.  0.
        5    1    3    3  502    0  0.18251451772E+03 -0.10558235415E+02  0.15353993111E+04  0.15462522951E+04  0.46999998093E+01 0. -1.
       -5    1    3    3    0  502 -0.18251451772E+03  0.10558235415E+02  0.13152011542E+03  0.22526130665E+03  0.46999998093E+01 0.  1.
</event>
<event>
 5   0  0.6078658E-03  0.6000124E+03  0.7818609E-02  0.9905380E-01
       -1   -1    0    0    0  501  0.00000000000E+00  0.00000000000E+00  0.48016818417E+03  0.48016818420E+03  0.50400001928E-02 0. -1.
        1   -1    0    0  501    0  0.00000000000E+00  0.00000000000E+00 -0.18744207374E+03  0.18744207381E+03  0.50400001928E-02 0.  1.
    10030    2    1    2    0    0  0.00000000000E+00  0.00000000000E+00  0.29272611043E+03  0.66761025801E+03  0.60001240060E+03 0.  0.
        2    1    3    3  502    0 -0.29809405751E+02  0.22142392243E+03  0.36913587533E+03  0.43148400730E+03  0.25500000920E-02 0. -1.
       -2    1    3    3    0  502  0.29809405751E+02 -0.22142392243E+03 -0.76409764897E+02  0.23612625071E+03  0.25500000920E-02 0.  1.
</event>
<event>
 5   0  0.9391405E-03  0.6019248E+03  0.7818609E-02  0.9901421E-01
       -2   -1    0    0    0  501  0.00000000000E+00  0.00000000000E+00  0.93095519929E+02  0.93095519964E+02  0.25500000920E-02 0. -1.
        2   -1    0    0  501    0  0.00000000000E+00  0.00000000000E+00 -0.97296173122E+03  0.97296173123E+03  0.25500000920E-02 0.  1.
    10030    2    1    2    0    0  0.00000000000E+00  0.00000000000E+00 -0.87986621130E+03  0.10660572512E+04  0.60192484002E+03 0.  0.
        2    1    3    3  502    0  0.16150778720E+03  0.25745295306E+02 -0.88739224343E+03  0.90233728686E+03  0.25500000920E-02 0.  1.
       -2    1    3    3    0  502 -0.16150778720E+03 -0.25745295306E+02  0.75260321300E+01  0.16371996433E+03  0.25500000920E-02 0. -1.
</event>
<event>
 5   0  0.9822607E-03  0.5999921E+03  0.7818609E-02  0.9905423E-01
        2   -1    0    0  501    0  0.00000000000E+00  0.00000000000E+00  0.19112344370E+04  0.19112344370E+04  0.25500000920E-02 0. -1.
       -2   -1    0    0    0  501  0.00000000000E+00  0.00000000000E+00 -0.47088737409E+02  0.47088737478E+02  0.25500000920E-02 0.  1.
    10030    2    1    2    0    0  0.00000000000E+00  0.00000000000E+00  0.18641456996E+04  0.19583231745E+04  0.59999205529E+03 0.  0.
        3    1    3    3  502    0  0.85777197054E+02 -0.27167604891E+03  0.12388114810E+04  0.12711488893E+04  0.10100000352E+00 0. -1.
       -3    1    3    3    0  502 -0.85777197054E+02  0.27167604891E+03  0.62533421862E+03  0.68717428521E+03  0.10100000352E+00 0.  1.
</event>
<event>
 5   0  0.5790967E-03  0.6007379E+03  0.7818609E-02  0.9903876E-01
       -1   -1    0    0    0  501  0.00000000000E+00  0.00000000000E+00  0.30336622599E+02  0.30336623018E+02  0.50400001928E-02 0. -1.
        1   -1    0    0  501    0  0.00000000000E+00  0.00000000000E+00 -0.29740130842E+04  0.29740130842E+04  0.50400001928E-02 0.  1.
    10030    2    1    2    0    0  0.00000000000E+00  0.00000000000E+00 -0.29436764616E+04  0.30043497072E+04  0.60073792348E+03 0.  0.
        3    1    3    3  502    0  0.10264924314E+02 -0.15735005670E+03 -0.27503708157E+04  0.27548873013E+04  0.10100000352E+00 0.  1.
       -3    1    3    3    0  502 -0.10264924314E+02  0.15735005670E+03 -0.19330564592E+03  0.24946240590E+03  0.10100000352E+00 0. -1.
</event>
<event>
 5   0  0.9162342E-03  0.5938010E+03  0.7818609E-02  0.9918351E-01
       -2   -1    0    0    0  501  0.00000000000E+00  0.00000000000E+00  0.14437192851E+03  0.14437192854E+03  0.25500000920E-02 0. -1.
        2   -1    0    0  501    0  0.00000000000E+00  0.00000000000E+00 -0.61057521089E+03  0.61057521090E+03  0.25500000920E-02 0.  1.
    10030    2    1    2    0    0  0.00000000000E+00  0.00000000000E+00 -0.46620328238E+03  0.75494713943E+03  0.59380104651E+03 0.  0.
        5    1    3    3  502    0  0.48841641703E+02 -0.13065149902E+03  0.10006924776E+03  0.17173020848E+03  0.46999998093E+01 0. -1.
       -5    1    3    3    0  502 -0.48841641703E+02  0.13065149902E+03 -0.56627253013E+03  0.58321693095E+03  0.46999998093E+01 0.  1.
</event>
<event>
 5   0  0.9303190E-03  0.6005324E+03  0.7818609E-02  0.9904302E-01
        2   -1    0    0  501    0  0.00000000000E+00  0.00000000000E+00  0.17666835837E+04  0.17666835837E+04  0.25500000920E-02 0.  1.
       -2   -1    0    0    0  501  0.00000000000E+00  0.00000000000E+00 -0.51033348260E+02  0.51033348324E+02  0.25500000920E-02 0. -1.
    10030    2    1    2    0    0  0.00000000000E+00  0.00000000000E+00  0.17156502354E+04  0.18177169320E+04  0.60053235933E+03 0.  0.
        4    1    3    3  502    0  0.27248252753E+03 -0.12594956026E+03  0.83682262147E+03  0.88903528177E+03  0.12699999809E+01 0. -1.
       -4    1    3    3    0  502 -0.27248252753E+03  0.12594956026E+03  0.87882761395E+03  0.92868165023E+03  0.12699999809E+01 0.  1.
</event>
<event>
 5   0  0.9391405E-03  0.5998646E+03  0.7818609E-02  0.9905687E-01
        2   -1    0    0  501    0  0.00000000000E+00  0.00000000000E+00  0.57386426033E+03  0.57386426034E+03  0.25500000920E-02 0. -1.
       -2   -1    0    0    0  501  0.00000000000E+00  0.00000000000E+00 -0.15676075942E+03  0.15676075944E+03  0.25500000920E-02 0.  1.
    10030    2    1    2    0    0  0.00000000000E+00  0.00000000000E+00  0.41710350091E+03  0.73062501978E+03  0.59986464228E+03 0.  0.
        2    1    3    3  502    0 -0.17788314269E+03 -0.19801898634E+03  0.37690445280E+03  0.46142268903E+03  0.25500000920E-02 0. -1.
       -2    1    3    3    0  502  0.17788314269E+03  0.19801898634E+03  0.40199048108E+02  0.26920233075E+03  0.25500000920E-02 0.  1.
</event>
<event>
 5   0  0.3806250E-03  0.5988731E+03  0.7818609E-02  0.9907747E-01
       -4   -1    0    0    0  501  0.00000000000E+00  0.00000000000E+00  0.66554861329E+03  0.66554982500E+03  0.12699999809E+01 0. -1.
        4   -1    0    0  501    0  0.00000000000E+00  0.00000000000E+00 -0.13471498898E+03  0.13472097519E+03  0.12699999809E+01 0.  1.
    10030    2    1    2    0    0  0.00000000000E+00  0.00000000000E+00  0.53083362431E+03  0.80027080019E+03  0.59887312257E+03 0.  0.
        1    1    3    3  502    0 -0.38367012315E+02 -0.26014409391E+03  0.45681633066E+03  0.52709404969E+03  0.50400001928E-02 0. -1.
       -1    1    3    3    0  502  0.38367012315E+02  0.26014409391E+03  0.74017293647E+02  0.27317675050E+03  0.50400001928E-02 0.  1.
</event>
<event>
 5   0  0.9391405E-03  0.6004081E+03  0.7818609E-02  0.9904560E-01
        2   -1    0    0  501    0  0.00000000000E+00  0.00000000000E+00  0.11972540765E+04  0.11972540765E+04  0.25500000920E-02 0. -1.
       -2   -1    0    0    0  501  0.00000000000E+00  0.00000000000E+00 -0.75274318442E+02  0.75274318485E+02  0.25500000920E-02 0.  1.
    10030    2    1    2    0    0  0.00000000000E+00  0.00000000000E+00  0.11219797580E+04  0.12725283950E+04  0.60040814331E+03 0.  0.
        2    1    3    3  502    0 -0.21292441765E+03  0.11481104894E+03  0.93777402609E+03  0.96847225495E+03  0.25500000920E-02 0. -1.
       -2    1    3    3    0  502  0.21292441765E+03 -0.11481104894E+03  0.18420573194E+03  0.30405614001E+03  0.25500000920E-02 0.  1.
</event>
<event>
 5   0  0.9162342E-03  0.5987818E+03  0.7818609E-02  0.9907937E-01
       -2   -1    0    0    0  501  0.00000000000E+00  0.00000000000E+00  0.38862982500E+03  0.38862982501E+03  0.25500000920E-02 0.  1.
        2   -1    0    0  501    0  0.00000000000E+00  0.00000000000E+00 -0.23064344305E+03  0.23064344306E+03  0.25500000920E-02 0. -1.
    10030    2    1    2    0    0  0.00000000000E+00  0.00000000000E+00  0.15798638195E+03  0.61927326808E+03  0.59878183312E+03 0.  0.
        5    1    3    3  502    0 -0.15939874495E+03 -0.19941559359E+03  0.24067052649E+03  0.35088307337E+03  0.46999998093E+01 0.  1.
       -5    1    3    3    0  502  0.15939874495E+03  0.19941559359E+03 -0.82684144533E+02  0.26839019471E+03  0.46999998093E+01 0. -1.
</event>
<event>
 5   0  0.9303190E-03  0.6000374E+03  0.7818609E-02  0.9905328E-01
       -2   -1    0    0    0  501  0.00000000000E+00  0.00000000000E+00  0.99232364014E+02  0.99232364047E+02  0.25500000920E-02 0. -1.
        2   -1    0    0  501    0  0.00000000000E+00  0.00000000000E+00 -0.90707532834E+03  0.90707532834E+03  0.25500000920E-02 0.  1.
    10030    2    1    2    0    0  0.00000000000E+00  0.00000000000E+00 -0.80784296433E+03  0.10063076924E+04  0.60003742946E+03 0.  0.
        4    1    3    3  502    0  0.20789837718E+03 -0.18968099568E+02 -0.76528380566E+03  0.79324803192E+03  0.12699999809E+01 0.  1.
       -4    1    3    3    0  502 -0.20789837718E+03  0.18968099568E+02 -0.42559158664E+02  0.21305966047E+03  0.12699999809E+01 0. -1.
</event>
<event>
 5   0  0.9391405E-03  0.5998495E+03  0.7818609E-02  0.9905718E-01
        2   -1    0    0  501    0  0.00000000000E+00  0.00000000000E+00  0.16411076913E+04  0.16411076913E+04  0.25500000920E-02 0. -1.
       -2   -1    0    0    0  501  0.00000000000E+00  0.00000000000E+00 -0.54813499782E+02  0.54813499841E+02  0.25500000920E-02 0.  1.
    10030    2    1    2    0    0  0.00000000000E+00  0.00000000000E+00  0.15862941915E+04  0.16959211911E+04  0.59984950155E+03 0.  0.
        2    1    3    3  502    0  0.63782750970E+02  0.49908802896E+02  0.16096077622E+04  0.16116439669E+04  0.25500000920E-02 0. -1.
       -2    1    3    3    0  502 -0.63782750970E+02 -0.49908802896E+02 -0.23313570741E+02  0.84277224177E+02  0.25500000920E-02 0.  1.
</event>
<event>
 5   0  0.9162342E-03  0.5994989E+03  0.7818609E-02  0.9906446E-01
       -2   -1    0    0    0  501  0.00000000000E+00  0.00000000000E+00  0.17623120217E+03  0.17623120218E+03  0.25500000920E-02 0.  1.
        2   -1    0    0  501    0  0.00000000000E+00  0.00000000000E+00 -0.50984008103E+03  0.50984008103E+03  0.25500000920E-02 0. -1.
    10030    2    1    2    0    0  0.00000000000E+00  0.00000000000E+00 -0.33360887886E+03  0.68607128322E+03  0.59949889208E+03 0.  0.
        5    1    3    3  502    0  0.27276964991E+02  0.17354643615E+02  0.17418769051E+03  0.17722487973E+03  0.46999998093E+01 0.  1.
       -5    1    3    3    0  502 -0.27276964991E+02 -0.17354643615E+02 -0.50779656937E+03  0.50884640348E+03  0.46999998093E+01 0. -1.
</event>
<event>
 5   0  0.5765045E-03  0.6005972E+03  0.7818609E-02  0.9904168E-01
        1   -1    0    0  501    0  0.00000000000E+00  0.00000000000E+00  0.36391659807E+03  0.36391659811E+03  0.50400001928E-02 0.  1.
       -1   -1    0    0    0  501  0.00000000000E+00  0.00000000000E+00 -0.24780195904E+03  0.24780195909E+03  0.50400001928E-02 0. -1.
    10030    2    1    2    0    0  0.00000000000E+00  0.00000000000E+00  0.11611463903E+03  0.61171855720E+03  0.60059718933E+03 0.  0.
        1    1    3    3  502    0  0.23594763729E+03 -0.27954719803E+02  0.24510569722E+03  0.34136425814E+03  0.50400001928E-02 0.  1.
       -1    1    3    3    0  502 -0.23594763729E+03  0.27954719803E+02 -0.12899105819E+03  0.27035429906E+03  0.50400001928E-02 0. -1.
</event>
<event>
 5   0  0.9822607E-03  0.6038390E+03  0.7818609E-02  0.9897473E-01
        2   -1    0    0  501    0  0.00000000000E+00  0.00000000000E+00  0.18043976446E+03  0.18043976448E+03  0.25500000920E-02 0.  1.
       -2   -1    0    0    0  501  0.00000000000E+00  0.00000000000E+00 -0.50518450541E+03  0.50518450542E+03  0.25500000920E-02 0. -1.
    10030    2    1    2    0    0  0.00000000000E+00  0.00000000000E+00 -0.32474474095E+03  0.68562426990E+03  0.60383896255E+03 0.  0.
        3    1    3    3  502    0  0.17714122128E+03  0.53613286345E+02 -0.43322227503E+03  0.47109972037E+03  0.10100000352E+00 0. -1.
       -3    1    3    3    0  502 -0.17714122128E+03 -0.53613286345E+02  0.10847753408E+03  0.21452454953E+03  0.10100000352E+00 0.  1.
</event>
<event>
 5   0  0.5765045E-03  0.6014825E+03  0.7818609E-02  0.9902335E-01
       -1   -1    0    0    0  501  0.00000000000E+00  0.00000000000E+00  0.39842707550E+03  0.39842707553E+03  0.50400001928E-02 0.  1.
        1   -1    0    0  501    0  0.00000000000E+00  0.00000000000E+00 -0.22700588541E+03  0.22700588546E+03  0.50400001928E-02 0. -1.
    10030    2    1    2    0    0  0.00000000000E+00  0.00000000000E+00  0.17142119009E+03  0.62543296100E+03  0.60148247214E+03 0.  0.
        1    1    3    3  502    0 -0.17752256260E+03 -0.23251389244E+03  0.13158931300E+02  0.29283122769E+03  0.50400001928E-02 0. -1.
       -1    1    3    3    0  502  0.17752256260E+03  0.23251389244E+03  0.15826225880E+03  0.33260173331E+03  0.50400001928E-02 0.  1.
</event>
<event>
 5   0  0.9391405E-03  0.5995571E+03  0.7818609E-02  0.9906325E-01
       -2   -1    0    0    0  501  0.00000000000E+00  0.00000000000E+00  0.30468625071E+03  0.30468625072E+03  0.25500000920E-02 0. -1.
        2   -1    0    0  501    0  0.00000000000E+00  0.00000000000E+00 -0.29494993000E+03  0.29494993001E+03  0.25500000920E-02 0.  1.
    10030    2    1    2    0    0  0.00000000000E+00  0.00000000000E+00  0.97363207101E+01  0.59963618073E+03  0.59955713097E+03 0.  0.
        2    1    3    3  502    0  0.26912939590E+03  0.11109453539E+03 -0.66517442410E+02  0.29865899900E+03  0.25500000920E-02 0.  1.
       -2    1    3    3    0  502 -0.26912939590E+03 -0.11109453539E+03  0.76253763120E+02  0.30097718174E+03  0.25500000920E-02 0. -1.
</event>
<event>
 5   0  0.9162342E-03  0.6014412E+03  0.7818609E-02  0.9902420E-01
        2   -1    0    0  501    0  0.00000000000E+00  0.00000000000E+00  0.68948373136E+03  0.68948373137E+03  0.25500000920E-02 0.  1.
       -2   -1    0    0    0  501  0.00000000000E+00  0.00000000000E+00 -0.13116028920E+03  0.13116028922E+03  0.25500000920E-02 0. -1.
    10030    2    1    2    0    0  0.00000000000E+00  0.00000000000E+00  0.55832344217E+03  0.82064402059E+03  0.60144122111E+03 0.  0.
        5    1    3    3  502    0 -0.22799684314E+03  0.13574111176E+03  0.86185103771E+02  0.27903077252E+03  0.46999998093E+01 0.  1.
       -5    1    3    3    0  502  0.22799684314E+03 -0.13574111176E+03  0.47213833840E+03  0.54161324807E+03  0.46999998093E+01 0. -1.
</event>
<event>
 5   0  0.5765045E-03  0.6015619E+03  0.7818609E-02  0.9902171E-01
       -1   -1    0    0    0  501  0.00000000000E+00  0.00000000000E+00  0.42128638129E+03  0.42128638132E+03  0.50400001928E-02 0. -1.
        1   -1    0    0  501    0  0.00000000000E+00  0.00000000000E+00 -0.21474508839E+03  0.21474508844E+03  0.50400001928E-02 0.  1.
    10030    2    1    2    0    0  0.00000000000E+00  0.00000000000E+00  0.20654129291E+03  0.63603146977E+03  0.60156190443E+03 0.  0.
        1    1    3    3  502    0  0.25417729789E+03  0.14445841266E+03  0.17799453769E+03  0.34228115231E+03  0.50400001928E-02 0. -1.
       -1    1    3    3    0  502 -0.25417729789E+03 -0.14445841266E+03  0.28546755214E+02  0.29375031746E+03  0.50400001928E-02 0.  1.
</event>
<event>
 5   0  0.5891927E-03  0.6006563E+03  0.7818609E-02  0.9904045E-01
        1   -1    0    0  501    0  0.00000000000E+00  0.00000000000E+00  0.47737194262E+03  0.47737194264E+03  0.50400001928E-02 0.  1.
       -1   -1    0    0    0  501  0.00000000000E+00  0.00000000000E+00 -0.18894492950E+03  0.18894492956E+03  0.50400001928E-02 0. -1.
    10030    2    1    2    0    0  0.00000000000E+00  0.00000000000E+00  0.28842701312E+03  0.66631687221E+03  0.60065633459E+03 0.  0.
        4    1    3    3  502    0 -0.14138825962E+02  0.27940156278E+03  0.26537918572E+03  0.38560713790E+03  0.12699999809E+01 0.  1.
       -4    1    3    3    0  502  0.14138825962E+02 -0.27940156278E+03  0.23047827400E+02  0.28070973431E+03  0.12699999809E+01 0. -1.
</event>
<event>
 5   0  0.5790967E-03  0.5997330E+03  0.7818609E-02  0.9905960E-01
        1   -1    0    0  501    0  0.00000000000E+00  0.00000000000E+00  0.12064877162E+04  0.12064877162E+04  0.50400001928E-02 0. -1.
       -1   -1    0    0    0  501  0.00000000000E+00  0.00000000000E+00 -0.74530313184E+02  0.74530313355E+02  0.50400001928E-02 0.  1.
    10030    2    1    2    0    0  0.00000000000E+00  0.00000000000E+00  0.11319574030E+04  0.12810180296E+04  0.59973296544E+03 0.  0.
        3    1    3    3  502    0  0.95137071517E+02  0.14544515268E+03  0.10879388853E+04  0.11017333540E+04  0.10100000352E+00 0. -1.
       -3    1    3    3    0  502 -0.95137071517E+02 -0.14544515268E+03  0.44018517712E+02  0.17928467563E+03  0.10100000352E+00 0.  1.
</event>
<event>
 5   0  0.5819446E-03  0.5991802E+03  0.7818609E-02  0.9907108E-01
        1   -1    0    0  501    0  0.00000000000E+00  0.00000000000E+00  0.18688778296E+04  0.18688778296E+04  0.50400001928E-02 0. -1.
       -1   -1    0    0    0  501  0.00000000000E+00  0.00000000000E+00 -0.48025729517E+02  0.48025729781E+02  0.50400001928E-02 0.  1.
    10030    2    1    2    0    0  0.00000000000E+00  0.00000000000E+00  0.18208521001E+04  0.19169035594E+04  0.59918017792E+03 0.  0.
        5    1    3    3  502    0  0.74595200807E+02  0.80525503520E+02  0.18021013676E+04  0.18054473767E+04  0.46999998093E+01 0. -1.
       -5    1    3    3    0  502 -0.74595200807E+02 -0.80525503520E+02  0.18750732450E+02  0.11145618272E+03  0.46999998093E+01 0.  1.
</event>
<event>
 5   0  0.5819446E-03  0.6001510E+03  0.7818609E-02  0.9905093E-01
       -1   -1    0    0    0  501  0.00000000000E+00  0.00000000000E+00  0.33874580283E+03  0.33874580286E+03  0.50400001928E-02 0.  1.
        1   -1    0    0  501    0  0.00000000000E+00  0.00000000000E+00 -0.26581968048E+03  0.26581968053E+03  0.50400001928E-02 0. -1.
    10030    2    1    2    0    0  0.00000000000E+00  0.00000000000E+00  0.72926122345E+02  0.60456548339E+03  0.60015098466E+03 0.  0.
        5    1    3    3  502    0  0.27797386160E+03 -0.10024871217E+03 -0.15918842349E+02  0.29596413898E+03  0.46999998093E+01 0. -1.
       -5    1    3    3    0  502 -0.27797386160E+03  0.10024871217E+03  0.88844964694E+02  0.30860134441E+03  0.46999998093E+01 0.  1.
</event>
<event>
 5   0  0.5790967E-03  0.6022077E+03  0.7818609E-02  0.9900836E-01
        1   -1    0    0  501    0  0.00000000000E+00  0.00000000000E+00  0.90462045863E+03  0.90462045864E+03  0.50400001928E-02 0. -1.
       -1   -1    0    0    0  501  0.00000000000E+00  0.00000000000E+00 -0.10022273689E+03  0.10022273702E+03  0.50400001928E-02 0.  1.
    10030    2    1    2    0    0  0.00000000000E+00  0.00000000000E+00  0.80439772174E+03  0.10048431957E+04  0.60220773254E+03 0.  0.
        3    1    3    3  502    0 -0.23160858565E+03 -0.14327042464E+03  0.61649904974E+03  0.67397332296E+03  0.10100000352E+00 0. -1.
       -3    1    3    3    0  502  0.23160858565E+03  0.14327042464E+03  0.18789867200E+03  0.33086987270E+03  0.10100000352E+00 0.  1.
</event>
<event>
 5   0  0.9162342E-03  0.5995442E+03  0.7818609E-02  0.9906352E-01
        2   -1    0    0  501    0  0.00000000000E+00  0.00000000000E+00  0.20639235501E+03  0.20639235502E+03  0.25500000920E-02 0.  1.
       -2   -1    0    0    0  501  0.00000000000E+00  0.00000000000E+00 -0.43540032940E+03  0.43540032941E+03  0.25500000920E-02 0. -1.
    10030    2    1    2    0    0  0.00000000000E+00  0.00000000000E+00 -0.22900797440E+03  0.64179268443E+03  0.59954415805E+03 0.  0.
        5    1    3    3  502    0 -0.21565539173E+03 -0.20785213109E+03 -0.12677721544E+03  0.32527574262E+03  0.46999998093E+01 0.  1.
       -5    1    3    3    0  502  0.21565539173E+03  0.20785213109E+03 -0.10223075896E+03  0.31651694182E+03  0.46999998093E+01 0. -1.
</event>
<event>
 5   0  0.3806250E-03  0.6017573E+03  0.7818609E-02  0.9901767E-01
        3   -1    0    0  501    0  0.00000000000E+00  0.00000000000E+00  0.25114334602E+03  0.25114336633E+03  0.10100000352E+00 0. -1.
       -3   -1    0    0    0  501  0.00000000000E+00  0.00000000000E+00 -0.36046328483E+03  0.36046329898E+03  0.10100000352E+00 0.  1.
    10030    2    1    2    0    0  0.00000000000E+00  0.00000000000E+00 -0.10931993881E+03  0.61160666532E+03  0.60175731324E+03 0.  0.
        3    1    3    3  502    0  0.20622147913E+03  0.20493773836E+03 -0.13339521499E+03  0.31987664598E+03  0.10100000352E+00 0.  1.
       -3    1    3    3    0  502 -0.20622147913E+03 -0.20493773836E+03  0.24075276179E+02  0.29173001934E+03  0.10100000352E+00 0. -1.
</event>
<event>
 5   0  0.5819446E-03  0.6000642E+03  0.7818609E-02  0.9905273E-01
        1   -1    0    0  501    0  0.00000000000E+00  0.00000000000E+00  0.11452800890E+04  0.11452800890E+04  0.50400001928E-02 0. -1.
       -1   -1    0    0    0  501  0.00000000000E+00  0.00000000000E+00 -0.78600207259E+02  0.78600207420E+02  0.50400001928E-02 0.  1.
    10030    2    1    2    0    0  0.00000000000E+00  0.00000000000E+00  0.10666798818E+04  0.12238802965E+04  0.60006417148E+03 0.  0.
        5    1    3    3  502    0  0.21951343542E+03 -0.45981102901E+01  0.95028301512E+03  0.97532927249E+03  0.46999998093E+01 0. -1.
       -5    1    3    3    0  502 -0.21951343542E+03  0.45981102901E+01  0.11639686664E+03  0.24855102396E+03  0.46999998093E+01 0.  1.
</event>
<event>
 5   0  0.9162342E-03  0.5996887E+03  0.7818609E-02  0.9906052E-01
       -2   -1    0    0    0  501  0.00000000000E+00  0.00000000000E+00  0.14708699558E+03  0.14708699560E+03  0.25500000920E-02 0. -1.
        2   -1    0    0  501    0  0.00000000000E+00  0.00000000000E+00 -0.61124792024E+03  0.61124792025E+03  0.25500000920E-02 0.  1.
    10030    2    1    2    0    0  0.00000000000E+00  0.00000000000E+00 -0.46416092467E+03  0.75833491585E+03  0.59968865306E+03 0.  0.
        5    1    3    3  502    0  0.71450890280E+02 -0.12023416653E+03  0.10325853141E+03  0.17391348088E+03  0.46999998093E+01 0. -1.
       -5    1    3    3    0  502 -0.71450890280E+02  0.12023416653E+03 -0.56741945607E+03  0.58442143497E+03  0.46999998093E+01 0.  1.
</event>
<event>
 5   0  0.5891927E-03  0.5996290E+03  0.7818609E-02  0.9906176E-01
        1   -1    0    0  501    0  0.00000000000E+00  0.00000000000E+00  0.25522797022E+03  0.25522797027E+03  0.50400001928E-02 0. -1.
       -1   -1    0    0    0  501  0.00000000000E+00  0.00000000000E+00 -0.35219001353E+03  0.35219001356E+03  0.50400001928E-02 0.  1.
    10030    2    1    2    0    0  0.00000000000E+00  0.00000000000E+00 -0.96962043308E+02  0.60741798383E+03  0.59962902635E+03 0.  0.
        4    1    3    3  502    0  0.57726397346E+02  0.18508727989E+03  0.18317597756E+03  0.26672961925E+03  0.12699999809E+01 0. -1.
       -4    1    3    3    0  502 -0.57726397346E+02 -0.18508727989E+03 -0.28013802087E+03  0.34068836459E+03  0.12699999809E+01 0.  1.
</event>
<event>
 5   0  0.5819446E-03  0.5995969E+03  0.7818609E-02  0.9906243E-01
        1   -1    0    0  501    0  0.00000000000E+00  0.00000000000E+00  0.22523753462E+03  0.22523753467E+03  0.50400001928E-02 0. -1.
       -1   -1    0    0    0  501  0.00000000000E+00  0.00000000000E+00 -0.39904141474E+03  0.39904141477E+03  0.50400001928E-02 0.  1.
    10030    2    1    2    0    0  0.00000000000E+00  0.00000000000E+00 -0.17380388012E+03  0.62427894944E+03  0.59959687956E+03 0.  0.
        5    1    3    3  502    0 -0.42352749465E+02 -0.21147462972E+03  0.12985474402E+03  0.25179280955E+03  0.46999998093E+01 0. -1.
       -5    1    3    3    0  502  0.42352749465E+02  0.21147462972E+03 -0.30365862414E+03  0.37248613989E+03  0.46999998093E+01 0.  1.
</event>
<event>
 5   0  0.9822607E-03  0.5992230E+03  0.7818609E-02  0.9907019E-01
       -2   -1    0    0    0  501  0.00000000000E+00  0.00000000000E+00  0.25237801616E+03  0.25237801617E+03  0.25500000920E-02 0.  1.
        2   -1    0    0  501    0  0.00000000000E+00  0.00000000000E+00 -0.35568489023E+03  0.35568489023E+03  0.25500000920E-02 0. -1.
    10030    2    1    2    0    0  0.00000000000E+00  0.00000000000E+00 -0.10330687406E+03  0.60806290641E+03  0.59922298681E+03 0.  0.
        3    1    3    3  502    0 -0.55862013915E+02 -0.26819292176E+03 -0.17476522113E+03  0.32494753514E+03  0.10100000352E+00 0. -1.
       -3    1    3    3    0  502  0.55862013915E+02  0.26819292176E+03  0.71458347066E+02  0.28311537126E+03  0.10100000352E+00 0.  1.
</event>
<event>
 5   0  0.9162342E-03  0.5997690E+03  0.7818609E-02  0.9905885E-01
        2   -1    0    0  501    0  0.00000000000E+00  0.00000000000E+00  0.57380336693E+03  0.57380336693E+03  0.25500000920E-02 0. -1.
       -2   -1    0    0    0  501  0.00000000000E+00  0.00000000000E+00 -0.15672740359E+03  0.15672740361E+03  0.25500000920E-02 0.  1.
    10030    2    1    2    0    0  0.00000000000E+00  0.00000000000E+00  0.41707596334E+03  0.73053077054E+03  0.59976899512E+03 0.  0.
        5    1    3    3  502    0 -0.16557145119E+03 -0.18475859187E+03  0.34218587355E+01  0.24816011330E+03  0.46999998093E+01 0.  1.
       -5    1    3    3    0  502  0.16557145119E+03  0.18475859187E+03  0.41365410460E+03  0.48237065724E+03  0.46999998093E+01 0. -1.
</event>
<event>
 5   0  0.5819446E-03  0.5989148E+03  0.7818609E-02  0.9907660E-01
        1   -1    0    0  501    0  0.00000000000E+00  0.00000000000E+00  0.68034611655E+03  0.68034611657E+03  0.50400001928E-02 0.  1.
       -1   -1    0    0    0  501  0.00000000000E+00  0.00000000000E+00 -0.13180750529E+03  0.13180750539E+03  0.50400001928E-02 0. -1.
    10030    2    1    2    0    0  0.00000000000E+00  0.00000000000E+00  0.54853861126E+03  0.81215362196E+03  0.59891476657E+03 0.  0.
        5    1    3    3  502    0  0.84447107218E+02  0.22969974579E+02 -0.11402713431E+03  0.14381658808E+03  0.46999998093E+01 0. -1.
       -5    1    3    3    0  502 -0.84447107218E+02 -0.22969974579E+02  0.66256574557E+03  0.66833703388E+03  0.46999998093E+01 0.  1.
</event>
<event>
 5   0  0.9303190E-03  0.5999323E+03  0.7818609E-02  0.9905547E-01
       -2   -1    0    0    0  501  0.00000000000E+00  0.00000000000E+00  0.78793263320E+02  0.78793263361E+02  0.25500000920E-02 0.  1.
        2   -1    0    0  501    0  0.00000000000E+00  0.00000000000E+00 -0.11419717283E+04  0.11419717283E+04  0.25500000920E-02 0. -1.
    10030    2    1    2    0    0  0.00000000000E+00  0.00000000000E+00 -0.10631784650E+04  0.12207649917E+04  0.59993225992E+03 0.  0.
        4    1    3    3  502    0  0.21771871088E+03  0.64985445830E+02 -0.13308542926E+03  0.26332088717E+03  0.12699999809E+01 0.  1.
       -4    1    3    3    0  502 -0.21771871088E+03 -0.64985445830E+02 -0.93009303576E+03  0.95744410454E+03  0.12699999809E+01 0. -1.
</event>
<event>
 5   0  0.5765045E-03  0.5979657E+03  0.7818609E-02  0.9909636E-01
       -1   -1    0    0    0  501  0.00000000000E+00  0.00000000000E+00  0.12933935625E+03  0.12933935635E+03  0.50400001928E-02 0.  1.
        1   -1    0    0  501    0  0.00000000000E+00  0.00000000000E+00 -0.69113328740E+03  0.69113328742E+03  0.50400001928E-02 0. -1.
    10030    2    1    2    0    0  0.00000000000E+00  0.00000000000E+00 -0.56179393115E+03  0.82047264377E+03  0.59796566632E+03 0.  0.
        1    1    3    3  502    0  0.10335861204E+03  0.39407903750E+02 -0.66202350184E+03  0.67120123851E+03  0.50400001928E-02 0. -1.
       -1    1    3    3    0  502 -0.10335861204E+03 -0.39407903750E+02  0.10022957069E+03  0.14927140526E+03  0.50400001928E-02 0.  1.
</event>
<event>
 5   0  0.6078658E-03  0.5969793E+03  0.7818609E-02  0.9911693E-01
        1   -1    0    0  501    0  0.00000000000E+00  0.00000000000E+00  0.21987094133E+03  0.21987094139E+03  0.50400001928E-02 0.  1.
       -1   -1    0    0    0  501  0.00000000000E+00  0.00000000000E+00 -0.40521987736E+03  0.40521987739E+03  0.50400001928E-02 0. -1.
    10030    2    1    2    0    0  0.00000000000E+00  0.00000000000E+00 -0.18534893602E+03  0.62509081878E+03  0.59697931592E+03 0.  0.
        2    1    3    3  502    0 -0.85349471954E+01  0.28460962546E+02  0.21831854701E+03  0.22033124992E+03  0.25500000920E-02 0.  1.
       -2    1    3    3    0  502  0.85349471954E+01 -0.28460962546E+02 -0.40366748304E+03  0.40475956886E+03  0.25500000920E-02 0. -1.
</event>
<event>
 5   0  0.5891927E-03  0.5997001E+03  0.7818609E-02  0.9906028E-01
        1   -1    0    0  501    0  0.00000000000E+00  0.00000000000E+00  0.69327847013E+03  0.69327847015E+03  0.50400001928E-02 0.  1.
       -1   -1    0    0    0  501  0.00000000000E+00  0.00000000000E+00 -0.12968823584E+03  0.12968823594E+03  0.50400001928E-02 0. -1.
    10030    2    1    2    0    0  0.00000000000E+00  0.00000000000E+00  0.56359023430E+03  0.82296670609E+03  0.59970013101E+03 0.  0.
        4    1    3    3  502    0 -0.21909214004E+02 -0.20516935802E+03  0.58035715510E+03  0.61594684795E+03  0.12699999809E+01 0.  1.
       -4    1    3    3    0  502  0.21909214004E+02  0.20516935802E+03 -0.16766920801E+02  0.20701985814E+03  0.12699999809E+01 0. -1.
</event>
<event>
 5   0  0.5891927E-03  0.6003479E+03  0.7818609E-02  0.9904685E-01
        1   -1    0    0  501    0  0.00000000000E+00  0.00000000000E+00  0.19882038988E+03  0.19882038994E+03  0.50400001928E-02 0. -1.
       -1   -1    0    0    0  501  0.00000000000E+00  0.00000000000E+00 -0.45319489807E+03  0.45319489809E+03  0.50400001928E-02 0.  1.
    10030    2    1    2    0    0  0.00000000000E+00  0.00000000000E+00 -0.25437450819E+03  0.65201528803E+03  0.60034785368E+03 0.  0.
        4    1    3    3  502    0 -0.71574759056E+02  0.28091183266E+03 -0.21179124080E+03  0.35901468834E+03  0.12699999809E+01 0.  1.
       -4    1    3    3    0  502  0.71574759056E+02 -0.28091183266E+03 -0.42583267387E+02  0.29300059970E+03  0.12699999809E+01 0. -1.
</event>
<event>
 5   0  0.5765045E-03  0.5998998E+03  0.7818609E-02  0.9905614E-01
       -1   -1    0    0    0  501  0.00000000000E+00  0.00000000000E+00  0.72588983617E+02  0.72588983792E+02  0.50400001928E-02 0. -1.
        1   -1    0    0  501    0  0.00000000000E+00  0.00000000000E+00 -0.12394432806E+04  0.12394432806E+04  0.50400001928E-02 0.  1.
    10030    2    1    2    0    0  0.00000000000E+00  0.00000000000E+00 -0.11668542970E+04  0.13120322644E+04  0.59989975201E+03 0.  0.
        1    1    3    3  502    0 -0.11124777234E+03 -0.27734802179E+03 -0.64012019616E+03  0.70643602512E+03  0.50400001928E-02 0. -1.
       -1    1    3    3    0  502  0.11124777234E+03  0.27734802179E+03 -0.52673410087E+03  0.60559623932E+03  0.50400001928E-02 0.  1.
</event>
<event>
 5   0  0.5819446E-03  0.5985866E+03  0.7818609E-02  0.9908343E-01
        1   -1    0    0  501    0  0.00000000000E+00  0.00000000000E+00  0.48096828931E+03  0.48096828934E+03  0.50400001928E-02 0. -1.
       -1   -1    0    0    0  501  0.00000000000E+00  0.00000000000E+00 -0.18624194638E+03  0.18624194645E+03  0.50400001928E-02 0.  1.
    10030    2    1    2    0    0  0.00000000000E+00  0.00000000000E+00  0.29472634293E+03  0.66721023579E+03  0.59858656978E+03 0.  0.
        5    1    3    3  502    0  0.24381910195E+03  0.10980938975E+03  0.29710963520E+03  0.39975252580E+03  0.46999998093E+01 0. -1.
       -5    1    3    3    0  502 -0.24381910195E+03 -0.10980938975E+03 -0.23832922717E+01  0.26745770999E+03  0.46999998093E+01 0.  1.
</event>
<event>
 5   0  0.9303190E-03  0.5991163E+03  0.7818609E-02  0.9907241E-01
       -2   -1    0    0    0  501  0.00000000000E+00  0.00000000000E+00  0.12479217623E+03  0.12479217626E+03  0.25500000920E-02 0.  1.
        2   -1    0    0  501    0  0.00000000000E+00  0.00000000000E+00 -0.71907615024E+03  0.71907615024E+03  0.25500000920E-02 0. -1.
    10030    2    1    2    0    0  0.00000000000E+00  0.00000000000E+00 -0.59428397400E+03  0.84386832650E+03  0.59911627479E+03 0.  0.
        4    1    3    3  502    0  0.15647493448E+03  0.81525247283E+02 -0.63811684632E+03  0.66206154814E+03  0.12699999809E+01 0. -1.
       -4    1    3    3    0  502 -0.15647493448E+03 -0.81525247283E+02  0.43832872316E+02  0.18180677836E+03  0.12699999809E+01 0.  1.
</event>
<event>
 5   0  0.5819446E-03  0.6002979E+03  0.7818609E-02  0.9904788E-01
       -1   -1    0    0    0  501  0.00000000000E+00  0.00000000000E+00  0.31004475931E+03  0.31004475935E+03  0.50400001928E-02 0. -1.
        1   -1    0    0  501    0  0.00000000000E+00  0.00000000000E+00 -0.29056896566E+03  0.29056896570E+03  0.50400001928E-02 0.  1.
    10030    2    1    2    0    0  0.00000000000E+00  0.00000000000E+00  0.19475793651E+02  0.60061372505E+03  0.60029787621E+03 0.  0.
        5    1    3    3  502    0  0.17335396260E+03 -0.89392424503E+02  0.23794712865E+03  0.30770688640E+03  0.46999998093E+01 0. -1.
       -5    1    3    3    0  502 -0.17335396260E+03  0.89392424503E+02 -0.21847133500E+03  0.29290683864E+03  0.46999998093E+01 0.  1.
</event>
<event>
 5   0  0.9303190E-03  0.6003193E+03  0.7818609E-02  0.9904744E-01
       -2   -1    0    0    0  501  0.00000000000E+00  0.00000000000E+00  0.10241489466E+03  0.10241489469E+03  0.25500000920E-02 0.  1.
        2   -1    0    0  501    0  0.00000000000E+00  0.00000000000E+00 -0.87971411360E+03  0.87971411361E+03  0.25500000920E-02 0. -1.
    10030    2    1    2    0    0  0.00000000000E+00  0.00000000000E+00 -0.77729921894E+03  0.98212900830E+03  0.60031934266E+03 0.  0.
        4    1    3    3  502    0 -0.60250141187E+02  0.86563112746E+02  0.71098465929E+02  0.12720006588E+03  0.12699999809E+01 0.  1.
       -4    1    3    3    0  502  0.60250141187E+02 -0.86563112746E+02 -0.84839768487E+03  0.85492894243E+03  0.12699999809E+01 0. -1.
</event>
<event>
 5   0  0.5765045E-03  0.6033663E+03  0.7818609E-02  0.9898446E-01
        1   -1    0    0  501    0  0.00000000000E+00  0.00000000000E+00  0.54093262824E+03  0.54093262827E+03  0.50400001928E-02 0.  1.
       -1   -1    0    0    0  501  0.00000000000E+00  0.00000000000E+00 -0.16825151627E+03  0.16825151634E+03  0.50400001928E-02 0. -1.
    10030    2    1    2    0    0  0.00000000000E+00  0.00000000000E+00  0.37268111198E+03  0.70918414461E+03  0.60336633958E+03 0.  0.
        1    1    3    3  502    0 -0.29926156758E+03 -0.13560299786E+02  0.14443096078E+03  0.33256829376E+03  0.50400001928E-02 0. -1.
       -1    1    3    3    0  502  0.29926156758E+03  0.13560299786E+02  0.22825015120E+03  0.37661585085E+03  0.50400001928E-02 0.  1.
</event>
<event>
 5   0  0.3806250E-03  0.6019029E+03  0.7818609E-02  0.9901466E-01
        3   -1    0    0  501    0  0.00000000000E+00  0.00000000000E+00  0.56384752655E+03  0.56384753560E+03  0.10100000352E+00 0.  1.
       -3   -1    0    0    0  501  0.00000000000E+00  0.00000000000E+00 -0.16063163214E+03  0.16063166389E+03  0.10100000352E+00 0. -1.
    10030    2    1    2    0    0  0.00000000000E+00  0.00000000000E+00  0.40321589441E+03  0.72447919949E+03  0.60190286009E+03 0.  0.
        4    1    3    3  502    0  0.22928079172E+03  0.12452677148E+03  0.21086612735E+02  0.26176870784E+03  0.12699999809E+01 0. -1.
       -4    1    3    3    0  502 -0.22928079172E+03 -0.12452677148E+03  0.38212928168E+03  0.46271049165E+03  0.12699999809E+01 0.  1.
</event>
<event>
 5   0  0.9028473E-03  0.6003971E+03  0.7818609E-02  0.9904582E-01
        2   -1    0    0  501    0  0.00000000000E+00  0.00000000000E+00  0.31667565286E+03  0.31667565287E+03  0.25500000920E-02 0. -1.
       -2   -1    0    0    0  501  0.00000000000E+00  0.00000000000E+00 -0.28457882181E+03  0.28457882182E+03  0.25500000920E-02 0.  1.
    10030    2    1    2    0    0  0.00000000000E+00  0.00000000000E+00  0.32096831059E+02  0.60125447469E+03  0.60039714920E+03 0.  0.
        1    1    3    3  502    0 -0.16856536473E+03  0.16371168357E+03  0.20313966877E+03  0.31061474946E+03  0.50400001928E-02 0. -1.
       -1    1    3    3    0  502  0.16856536473E+03 -0.16371168357E+03 -0.17104283772E+03  0.29063972523E+03  0.50400001928E-02 0.  1.
</event>
<event>
 5   0  0.5765045E-03  0.6017561E+03  0.7818609E-02  0.9901769E-01
        1   -1    0    0  501    0  0.00000000000E+00  0.00000000000E+00  0.21593877341E+03  0.21593877347E+03  0.50400001928E-02 0.  1.
       -1   -1    0    0    0  501  0.00000000000E+00  0.00000000000E+00 -0.41922808551E+03  0.41922808554E+03  0.50400001928E-02 0. -1.
    10030    2    1    2    0    0  0.00000000000E+00  0.00000000000E+00 -0.20328931210E+03  0.63516685902E+03  0.60175609210E+03 0.  0.
        1    1    3    3  502    0 -0.28310624731E+03  0.20641983848E+02 -0.20694514031E+03  0.35128553897E+03  0.50400001928E-02 0. -1.
       -1    1    3    3    0  502  0.28310624731E+03 -0.20641983848E+02  0.36558282139E+01  0.28388132005E+03  0.50400001928E-02 0.  1.
</event>
<event>
 5   0  0.9391405E-03  0.6003025E+03  0.7818609E-02  0.9904779E-01
        2   -1    0    0  501    0  0.00000000000E+00  0.00000000000E+00  0.59286686408E+03  0.59286686408E+03  0.25500000920E-02 0.  1.
       -2   -1    0    0    0  501  0.00000000000E+00  0.00000000000E+00 -0.15195782505E+03  0.15195782507E+03  0.25500000920E-02 0. -1.
    10030    2    1    2    0    0  0.00000000000E+00  0.00000000000E+00  0.44090903903E+03  0.74482468915E+03  0.60030245450E+03 0.  0.
        2    1    3    3  502    0 -0.16861755458E+03  0.16767947277E+03 -0.67837588560E+01  0.23789557519E+03  0.25500000920E-02 0. -1.
       -2    1    3    3    0  502  0.16861755458E+03 -0.16767947277E+03  0.44769279789E+03  0.50692911397E+03  0.25500000920E-02 0.  1.
</event>
<event>
 5   0  0.5765045E-03  0.5995244E+03  0.7818609E-02  0.9906393E-01
        1   -1    0    0  501    0  0.00000000000E+00  0.00000000000E+00  0.18294784642E+03  0.18294784649E+03  0.50400001928E-02 0.  1.
       -1   -1    0    0    0  501  0.00000000000E+00  0.00000000000E+00 -0.49116388230E+03  0.49116388232E+03  0.50400001928E-02 0. -1.
    10030    2    1    2    0    0  0.00000000000E+00  0.00000000000E+00 -0.30821603587E+03  0.67411172881E+03  0.59952439330E+03 0.  0.
        1    1    3    3  502    0 -0.18636659722E+03 -0.19303780777E+03 -0.30438110278E+03  0.40576342805E+03  0.50400001928E-02 0. -1.
       -1    1    3    3    0  502  0.18636659722E+03  0.19303780777E+03 -0.38349330923E+01  0.26834830077E+03  0.50400001928E-02 0.  1.
</event>
<event>
 5   0  0.5790967E-03  0.5959741E+03  0.7818609E-02  0.9913794E-01
        1   -1    0    0  501    0  0.00000000000E+00  0.00000000000E+00  0.77954040450E+03  0.77954040451E+03  0.50400001928E-02 0. -1.
       -1   -1    0    0    0  501  0.00000000000E+00  0.00000000000E+00 -0.11390849256E+03  0.11390849267E+03  0.50400001928E-02 0.  1.
    10030    2    1    2    0    0  0.00000000000E+00  0.00000000000E+00  0.66563191194E+03  0.89344889718E+03  0.59597406797E+03 0.  0.
        3    1    3    3  502    0  0.21496786719E+03 -0.87070107255E+00  0.64217813154E+03  0.67720359189E+03  0.10100000352E+00 0. -1.
       -3    1    3    3    0  502 -0.21496786719E+03  0.87070107255E+00  0.23453780396E+02  0.21624530529E+03  0.10100000352E+00 0.  1.
</event>
<event>
 5   0  0.5765045E-03  0.5978283E+03  0.7818609E-02  0.9909922E-01
        1   -1    0    0  501    0  0.00000000000E+00  0.00000000000E+00  0.22201891745E+04  0.22201891745E+04  0.50400001928E-02 0. -1.
       -1   -1    0    0    0  501  0.00000000000E+00  0.00000000000E+00 -0.40244174075E+02  0.40244174390E+02  0.50400001928E-02 0.  1.
    10030    2    1    2    0    0  0.00000000000E+00  0.00000000000E+00  0.21799450005E+04  0.22604333489E+04  0.59782833650E+03 0.  0.
        1    1    3    3  502    0 -0.10994930258E+03 -0.18142637534E+03  0.29374162538E+03  0.36233757921E+03  0.50400001928E-02 0.  1.
       -1    1    3    3    0  502  0.10994930258E+03  0.18142637534E+03  0.18862033751E+04  0.18980957697E+04  0.50400001928E-02 0. -1.
</event>
<event>
 5   0  0.9162342E-03  0.5995190E+03  0.7818609E-02  0.9906405E-01
       -2   -1    0    0    0  501  0.00000000000E+00  0.00000000000E+00  0.39292833177E+02  0.39292833260E+02  0.25500000920E-02 0.  1.
        2   -1    0    0  501    0  0.00000000000E+00  0.00000000000E+00 -0.22868227209E+04  0.22868227209E+04  0.25500000920E-02 0. -1.
    10030    2    1    2    0    0  0.00000000000E+00  0.00000000000E+00 -0.22475298877E+04  0.23261155541E+04  0.59951895308E+03 0.  0.
        5    1    3    3  502    0  0.28889558536E+03 -0.65655810248E+02 -0.12999646780E+04  0.13333047659E+04  0.46999998093E+01 0.  1.
       -5    1    3    3    0  502 -0.28889558536E+03  0.65655810248E+02 -0.94756520972E+03  0.99281078829E+03  0.46999998093E+01 0. -1.
</event>
<event>
 5   0  0.9822607E-03  0.6005333E+03  0.7818609E-02  0.9904300E-01
       -2   -1    0    0    0  501  0.00000000000E+00  0.00000000000E+00  0.65137486928E+03  0.65137486929E+03  0.25500000920E-02 0. -1.
        2   -1    0    0  501    0  0.00000000000E+00  0.00000000000E+00 -0.13841499339E+03  0.13841499341E+03  0.25500000920E-02 0.  1.
    10030    2    1    2    0    0  0.00000000000E+00  0.00000000000E+00  0.51295987589E+03  0.78978986270E+03  0.60053325716E+03 0.  0.
        3    1    3    3  502    0  0.11827653450E+02 -0.16225642183E+02 -0.13753106435E+03  0.13898909566E+03  0.10100000352E+00 0.  1.
       -3    1    3    3    0  502 -0.11827653450E+02  0.16225642183E+02  0.65049094024E+03  0.65080076705E+03  0.10100000352E+00 0. -1.
</event>
<event>
 5   0  0.9028473E-03  0.6001625E+03  0.7818609E-02  0.9905069E-01
        2   -1    0    0  501    0  0.00000000000E+00  0.00000000000E+00  0.77166881135E+02  0.77166881177E+02  0.25500000920E-02 0. -1.
       -2   -1    0    0    0  501  0.00000000000E+00  0.00000000000E+00 -0.11669352712E+04  0.11669352712E+04  0.25500000920E-02 0.  1.
    10030    2    1    2    0    0  0.00000000000E+00  0.00000000000E+00 -0.10897683901E+04  0.12441021524E+04  0.60016249598E+03 0.  0.
        1    1    3    3  502    0  0.19137929564E+02  0.14241694876E+03 -0.10909772269E+04  0.11003999988E+04  0.50400001928E-02 0.  1.
       -1    1    3    3    0  502 -0.19137929564E+02 -0.14241694876E+03  0.12088368386E+01  0.14370215361E+03  0.50400001928E-02 0. -1.
</event>
<event>
 5   0  0.6078658E-03  0.6000871E+03  0.7818609E-02  0.9905225E-01
        1   -1    0    0  501    0  0.00000000000E+00  0.00000000000E+00  0.75488829783E+03  0.75488829784E+03  0.50400001928E-02 0.  1.
       -1   -1    0    0    0  501  0.00000000000E+00  0.00000000000E+00 -0.11925754918E+03  0.11925754929E+03  0.50400001928E-02 0. -1.
    10030    2    1    2    0    0  0.00000000000E+00  0.00000000000E+00  0.63563074865E+03  0.87414584713E+03  0.60008708821E+03 0.  0.
        2    1    3    3  502    0  0.21146335084E+03  0.14691530850E+03  0.54219076077E+03  0.60022635538E+03  0.25500000920E-02 0.  1.
       -2    1    3    3    0  502 -0.21146335084E+03 -0.14691530850E+03  0.93439987877E+02  0.27391949175E+03  0.25500000920E-02 0. -1.
</event>
<event>
 5   0  0.5765045E-03  0.6002302E+03  0.7818609E-02  0.9904929E-01
        1   -1    0    0  501    0  0.00000000000E+00  0.00000000000E+00  0.38865318233E+03  0.38865318237E+03  0.50400001928E-02 0. -1.
       -1   -1    0    0    0  501  0.00000000000E+00  0.00000000000E+00 -0.23174665475E+03  0.23174665480E+03  0.50400001928E-02 0.  1.
    10030    2    1    2    0    0  0.00000000000E+00  0.00000000000E+00  0.15690652759E+03  0.62039983717E+03  0.60023020547E+03 0.  0.
        1    1    3    3  502    0  0.16855479818E+03  0.24759815536E+03  0.97886881727E+02  0.31511491263E+03  0.50400001928E-02 0. -1.
       -1    1    3    3    0  502 -0.16855479818E+03 -0.24759815536E+03  0.59019645858E+02  0.30528492453E+03  0.50400001928E-02 0.  1.
</event>
<event>
 5   0  0.9162342E-03  0.6107233E+03  0.7818609E-02  0.9883405E-01
        2   -1    0    0  501    0  0.00000000000E+00  0.00000000000E+00  0.12071599873E+04  0.12071599873E+04  0.25500000920E-02 0. -1.
       -2   -1    0    0    0  501  0.00000000000E+00  0.00000000000E+00 -0.77243902126E+02  0.77243902168E+02  0.25500000920E-02 0.  1.
    10030    2    1    2    0    0  0.00000000000E+00  0.00000000000E+00  0.11299160851E+04  0.12844038894E+04  0.61072333486E+03 0.  0.
        5    1    3    3  502    0  0.10352730053E+03  0.18458752354E+02  0.11677960257E+04  0.11725307140E+04  0.46999998093E+01 0. -1.
       -5    1    3    3    0  502 -0.10352730053E+03 -0.18458752354E+02 -0.37879940586E+02  0.11187317547E+03  0.46999998093E+01 0.  1.
</event>
<event>
 5   0  0.5790967E-03  0.6003040E+03  0.7818609E-02  0.9904776E-01
        1   -1    0    0  501    0  0.00000000000E+00  0.00000000000E+00  0.92650997923E+03  0.92650997924E+03  0.50400001928E-02 0.  1.
       -1   -1    0    0    0  501  0.00000000000E+00  0.00000000000E+00 -0.97237170119E+02  0.97237170250E+02  0.50400001928E-02 0. -1.
    10030    2    1    2    0    0  0.00000000000E+00  0.00000000000E+00  0.82927280911E+03  0.10237471495E+04  0.60030395148E+03 0.  0.
        3    1    3    3  502    0  0.21117964853E+02 -0.21746519705E+03  0.63666947041E+02  0.22757541764E+03  0.10100000352E+00 0. -1.
       -3    1    3    3    0  502 -0.21117964853E+02  0.21746519705E+03  0.76560586207E+03  0.79617173185E+03  0.10100000352E+00 0.  1.
</event>
<event>
 5   0  0.5891927E-03  0.6012901E+03  0.7818609E-02  0.9902733E-01
       -1   -1    0    0    0  501  0.00000000000E+00  0.00000000000E+00  0.15811495798E+03  0.15811495806E+03  0.50400001928E-02 0. -1.
        1   -1    0    0  501    0  0.00000000000E+00  0.00000000000E+00 -0.57165644223E+03  0.57165644225E+03  0.50400001928E-02 0.  1.
    10030    2    1    2    0    0  0.00000000000E+00  0.00000000000E+00 -0.41354148425E+03  0.72977140031E+03  0.60129006105E+03 0.  0.
        4    1    3    3  502    0 -0.15158460986E+03  0.15988281422E+03  0.41500687288E+02  0.22419707441E+03  0.12699999809E+01 0. -1.
       -4    1    3    3    0  502  0.15158460986E+03 -0.15988281422E+03 -0.45504217154E+03  0.50557432590E+03  0.12699999809E+01 0.  1.
</event>
<event>
 5   0  0.9822607E-03  0.5998860E+03  0.7818609E-02  0.9905643E-01
        2   -1    0    0  501    0  0.00000000000E+00  0.00000000000E+00  0.88971247826E+03  0.88971247826E+03  0.25500000920E-02 0. -1.
       -2   -1    0    0    0  501  0.00000000000E+00  0.00000000000E+00 -0.10111784458E+03  0.10111784461E+03  0.25500000920E-02 0.  1.
    10030    2    1    2    0    0  0.00000000000E+00  0.00000000000E+00  0.78859463368E+03  0.99083032287E+03  0.59988601621E+03 0.  0.
        3    1    3    3  502    0  0.27746179004E+03  0.49186648526E+02  0.22455432877E+03  0.36031795416E+03  0.10100000352E+00 0.  1.
       -3    1    3    3    0  502 -0.27746179004E+03 -0.49186648526E+02  0.56404030491E+03  0.63051236871E+03  0.10100000352E+00 0. -1.
</event>
<event>
 5   0  0.5819446E-03  0.6012080E+03  0.7818609E-02  0.9902903E-01
        1   -1    0    0  501    0  0.00000000000E+00  0.00000000000E+00  0.30332574971E+03  0.30332574975E+03  0.50400001928E-02 0. -1.
       -1   -1    0    0    0  501  0.00000000000E+00  0.00000000000E+00 -0.29790663487E+03  0.29790663492E+03  0.50400001928E-02 0.  1.
    10030    2    1    2    0    0  0.00000000000E+00  0.00000000000E+00  0.54191148373E+01  0.60123238467E+03  0.60120796200E+03 0.  0.
        5    1    3    3  502    0  0.12500821577E+03 -0.19494984265E+03  0.19431109880E+03  0.30234316311E+03  0.46999998093E+01 0. -1.
       -5    1    3    3    0  502 -0.12500821577E+03  0.19494984265E+03 -0.18889198397E+03  0.29888922156E+03  0.46999998093E+01 0.  1.
</event>
<event>
 5   0  0.9162342E-03  0.6003207E+03  0.7818609E-02  0.9904741E-01
       -2   -1    0    0    0  501  0.00000000000E+00  0.00000000000E+00  0.74113156723E+02  0.74113156767E+02  0.25500000920E-02 0.  1.
        2   -1    0    0  501    0  0.00000000000E+00  0.00000000000E+00 -0.12156576117E+04  0.12156576117E+04  0.25500000920E-02 0. -1.
    10030    2    1    2    0    0  0.00000000000E+00  0.00000000000E+00 -0.11415444549E+04  0.12897707684E+04  0.60032065807E+03 0.  0.
        5    1    3    3  502    0 -0.16399554573E+02 -0.21998301990E+03 -0.13355647788E+03  0.25791645394E+03  0.46999998093E+01 0.  1.
       -5    1    3    3    0  502  0.16399554573E+02  0.21998301990E+03 -0.10079879771E+04  0.10318543145E+04  0.46999998093E+01 0. -1.
</event>
<event>
 5   0  0.9303190E-03  0.5996409E+03  0.7818609E-02  0.9906151E-01
       -2   -1    0    0    0  501  0.00000000000E+00  0.00000000000E+00  0.10808850882E+03  0.10808850885E+03  0.25500000920E-02 0.  1.
        2   -1    0    0  501    0  0.00000000000E+00  0.00000000000E+00 -0.83165460629E+03  0.83165460629E+03  0.25500000920E-02 0. -1.
    10030    2    1    2    0    0  0.00000000000E+00  0.00000000000E+00 -0.72356609746E+03  0.93974311514E+03  0.59964091343E+03 0.  0.
        4    1    3    3  502    0  0.15854374869E+03 -0.23573114388E+03 -0.21158407888E+03  0.35422412084E+03  0.12699999809E+01 0.  1.
       -4    1    3    3    0  502 -0.15854374869E+03  0.23573114388E+03 -0.51198201858E+03  0.58551899431E+03  0.12699999809E+01 0. -1.
</event>
<event>
 5   0  0.9028473E-03  0.5972525E+03  0.7818609E-02  0.9911123E-01
       -2   -1    0    0    0  501  0.00000000000E+00  0.00000000000E+00  0.16377302055E+03  0.16377302057E+03  0.25500000920E-02 0.  1.
        2   -1    0    0  501    0  0.00000000000E+00  0.00000000000E+00 -0.54451968229E+03  0.54451968230E+03  0.25500000920E-02 0. -1.
    10030    2    1    2    0    0  0.00000000000E+00  0.00000000000E+00 -0.38074666174E+03  0.70829270287E+03  0.59725248641E+03 0.  0.
        1    1    3    3  502    0 -0.77414516045E+02 -0.25513069222E+03 -0.34989128131E+03  0.43989610838E+03  0.50400001928E-02 0. -1.
       -1    1    3    3    0  502  0.77414516045E+02  0.25513069222E+03 -0.30855380424E+02  0.26839659449E+03  0.50400001928E-02 0.  1.
</event>
<event>
 5   0  0.9028473E-03  0.5997161E+03  0.7818609E-02  0.9905995E-01
       -2   -1    0    0    0  501  0.00000000000E+00  0.00000000000E+00  0.50584045412E+02  0.50584045476E+02  0.25500000920E-02 0.  1.
        2   -1    0    0  501    0  0.00000000000E+00  0.00000000000E+00 -0.17775336702E+04  0.17775336702E+04  0.25500000920E-02 0. -1.
    10030    2    1    2    0    0  0.00000000000E+00  0.00000000000E+00 -0.17269496248E+04  0.18281177157E+04  0.59971607934E+03 0.  0.
        1    1    3    3  502    0  0.24963003646E+03  0.14843376630E+03 -0.63603148330E+03  0.69920224961E+03  0.50400001928E-02 0.  1.
       -1    1    3    3    0  502 -0.24963003646E+03 -0.14843376630E+03 -0.10909181415E+04  0.11289154661E+04  0.50400001928E-02 0. -1.
</event>
<event>
 5   0  0.3806250E-03  0.6038486E+03  0.7818609E-02  0.9897454E-01
       -3   -1    0    0    0  501  0.00000000000E+00  0.00000000000E+00  0.19391858001E+03  0.19391860631E+03  0.10100000352E+00 0.  1.
        3   -1    0    0  501    0  0.00000000000E+00  0.00000000000E+00 -0.47008521213E+03  0.47008522298E+03  0.10100000352E+00 0. -1.
    10030    2    1    2    0    0  0.00000000000E+00  0.00000000000E+00 -0.27616663212E+03  0.66400382929E+03  0.60384855437E+03 0.  0.
        5    1    3    3  502    0 -0.24992667879E+02 -0.82502277117E+02 -0.45622314688E+03  0.46431983473E+03  0.46999998093E+01 0. -1.
       -5    1    3    3    0  502  0.24992667879E+02  0.82502277117E+02  0.18005651476E+03  0.19968399456E+03  0.46999998093E+01 0.  1.
</event>
<event>
 5   0  0.6078658E-03  0.5997313E+03  0.7818609E-02  0.9905964E-01
        1   -1    0    0  501    0  0.00000000000E+00  0.00000000000E+00  0.14462592524E+03  0.14462592533E+03  0.50400001928E-02 0.  1.
       -1   -1    0    0    0  501  0.00000000000E+00  0.00000000000E+00 -0.62173784356E+03  0.62173784358E+03  0.50400001928E-02 0. -1.
    10030    2    1    2    0    0  0.00000000000E+00  0.00000000000E+00 -0.47711191832E+03  0.76636376891E+03  0.59973130959E+03 0.  0.
        2    1    3    3  502    0  0.12335899097E+03 -0.21133111783E+03 -0.17075014718E+02  0.24529540996E+03  0.25500000920E-02 0.  1.
       -2    1    3    3    0  502 -0.12335899097E+03  0.21133111783E+03 -0.46003690360E+03  0.52106835895E+03  0.25500000920E-02 0. -1.
</event>
<event>
 5   0  0.9028473E-03  0.6001763E+03  0.7818609E-02  0.9905040E-01
        2   -1    0    0  501    0  0.00000000000E+00  0.00000000000E+00  0.62546263553E+03  0.62546263554E+03  0.25500000920E-02 0.  1.
       -2   -1    0    0    0  501  0.00000000000E+00  0.00000000000E+00 -0.14397805309E+03  0.14397805311E+03  0.25500000920E-02 0. -1.
    10030    2    1    2    0    0  0.00000000000E+00  0.00000000000E+00  0.48148458245E+03  0.76944068865E+03  0.60017628261E+03 0.  0.
        1    1    3    3  502    0  0.20176308697E+03 -0.11894379218E+03  0.22368877109E+00  0.23421361836E+03  0.50400001928E-02 0. -1.
       -1    1    3    3    0  502 -0.20176308697E+03  0.11894379218E+03  0.48126089367E+03  0.53522707029E+03  0.50400001928E-02 0.  1.
</event>
<event>
 5   0  0.5819446E-03  0.6000855E+03  0.7818609E-02  0.9905229E-01
       -1   -1    0    0    0  501  0.00000000000E+00  0.00000000000E+00  0.59698612183E+03  0.59698612186E+03  0.50400001928E-02 0.  1.
        1   -1    0    0  501    0  0.00000000000E+00  0.00000000000E+00 -0.15080023005E+03  0.15080023014E+03  0.50400001928E-02 0. -1.
    10030    2    1    2    0    0  0.00000000000E+00  0.00000000000E+00  0.44618589178E+03  0.74778635199E+03  0.60008547574E+03 0.  0.
        5    1    3    3  502    0 -0.11461001770E+03  0.27395334317E+03  0.16996521824E+03  0.34219315569E+03  0.46999998093E+01 0. -1.
       -5    1    3    3    0  502  0.11461001770E+03 -0.27395334317E+03  0.27622067354E+03  0.40559319630E+03  0.46999998093E+01 0.  1.
</event>
<event>
 5   0  0.5790967E-03  0.6003029E+03  0.7818609E-02  0.9904778E-01
       -1   -1    0    0    0  501  0.00000000000E+00  0.00000000000E+00  0.12150473387E+03  0.12150473397E+03  0.50400001928E-02 0. -1.
        1   -1    0    0  501    0  0.00000000000E+00  0.00000000000E+00 -0.74145992649E+03  0.74145992650E+03  0.50400001928E-02 0.  1.
    10030    2    1    2    0    0  0.00000000000E+00  0.00000000000E+00 -0.61995519262E+03  0.86296466047E+03  0.60030289385E+03 0.  0.
        3    1    3    3  502    0  0.17146312635E+02  0.69996661184E+02 -0.72883832815E+03  0.73239255006E+03  0.10100000352E+00 0.  1.
       -3    1    3    3    0  502 -0.17146312635E+02 -0.69996661184E+02  0.10888313553E+03  0.13057211041E+03  0.10100000352E+00 0. -1.
</event>
<event>
 5   0  0.9303190E-03  0.6003774E+03  0.7818609E-02  0.9904623E-01
       -2   -1    0    0    0  501  0.00000000000E+00  0.00000000000E+00  0.17664631264E+03  0.17664631265E+03  0.25500000920E-02 0.  1.
        2   -1    0    0  501    0  0.00000000000E+00  0.00000000000E+00 -0.51013373527E+03  0.51013373528E+03  0.25500000920E-02 0. -1.
    10030    2    1    2    0    0  0.00000000000E+00  0.00000000000E+00 -0.33348742264E+03  0.68678004793E+03  0.60037735898E+03 0.  0.
        4    1    3    3  502    0 -0.19629177700E+03  0.11517389565E+03 -0.39065926060E+03  0.45211918644E+03  0.12699999809E+01 0.  1.
       -4    1    3    3    0  502  0.19629177700E+03 -0.11517389565E+03  0.57171837966E+02  0.23466086149E+03  0.12699999809E+01 0. -1.
</event>
<event>
 5   0  0.5891927E-03  0.5991827E+03  0.7818609E-02  0.9907103E-01
        1   -1    0    0  501    0  0.00000000000E+00  0.00000000000E+00  0.45924149463E+03  0.45924149465E+03  0.50400001928E-02 0.  1.
       -1   -1    0    0    0  501  0.00000000000E+00  0.00000000000E+00 -0.19544180896E+03  0.19544180903E+03  0.50400001928E-02 0. -1.
    10030    2    1    2    0    0  0.00000000000E+00  0.00000000000E+00  0.26379968566E+03  0.65468330368E+03  0.59918273837E+03 0.  0.
        4    1    3    3  502    0 -0.19814964590E+03  0.18636230753E+03 -0.52637434155E+01  0.27207262217E+03  0.12699999809E+01 0. -1.
       -4    1    3    3    0  502  0.19814964590E+03 -0.18636230753E+03  0.26906342908E+03  0.38261068151E+03  0.12699999809E+01 0.  1.
</event>
<event>
 5   0  0.9028473E-03  0.6004721E+03  0.7818609E-02  0.9904427E-01
        2   -1    0    0  501    0  0.00000000000E+00  0.00000000000E+00  0.37473217719E+03  0.37473217720E+03  0.25500000920E-02 0.  1.
       -2   -1    0    0    0  501  0.00000000000E+00  0.00000000000E+00 -0.24054960698E+03  0.24054960700E+03  0.25500000920E-02 0. -1.
    10030    2    1    2    0    0  0.00000000000E+00  0.00000000000E+00  0.13418257021E+03  0.61528178420E+03  0.60047207414E+03 0.  0.
        1    1    3    3  502    0  0.88550014447E+02 -0.21588152677E+03  0.26068418861E+03  0.34986023620E+03  0.50400001928E-02 0.  1.
       -1    1    3    3    0  502 -0.88550014447E+02  0.21588152677E+03 -0.12650161840E+03  0.26542154800E+03  0.50400001928E-02 0. -1.
</event>
<event>
 5   0  0.9822607E-03  0.5996599E+03  0.7818609E-02  0.9906112E-01
       -2   -1    0    0    0  501  0.00000000000E+00  0.00000000000E+00  0.68564300142E+03  0.68564300142E+03  0.25500000920E-02 0.  1.
        2   -1    0    0  501    0  0.00000000000E+00  0.00000000000E+00 -0.13111489202E+03  0.13111489204E+03  0.25500000920E-02 0. -1.
    10030    2    1    2    0    0  0.00000000000E+00  0.00000000000E+00  0.55452810940E+03  0.81675789346E+03  0.59965993065E+03 0.  0.
        3    1    3    3  502    0  0.13197641836E+03 -0.10742836132E+03 -0.58966587823E+02  0.18009912965E+03  0.10100000352E+00 0. -1.
       -3    1    3    3    0  502 -0.13197641836E+03  0.10742836132E+03  0.61349469722E+03  0.63665876381E+03  0.10100000352E+00 0.  1.
</event>
<event>
 5   0  0.9822607E-03  0.5992906E+03  0.7818609E-02  0.9906879E-01
        2   -1    0    0  501    0  0.00000000000E+00  0.00000000000E+00  0.19282135966E+04  0.19282135966E+04  0.25500000920E-02 0.  1.
       -2   -1    0    0    0  501  0.00000000000E+00  0.00000000000E+00 -0.46565016347E+02  0.46565016417E+02  0.25500000920E-02 0. -1.
    10030    2    1    2    0    0  0.00000000000E+00  0.00000000000E+00  0.18816485802E+04  0.19747786130E+04  0.59929057298E+03 0.  0.
        3    1    3    3  502    0  0.19409441800E+03 -0.13700347461E+03  0.15425441233E+04  0.15607321928E+04  0.10100000352E+00 0.  1.
       -3    1    3    3    0  502 -0.19409441800E+03  0.13700347461E+03  0.33910445692E+03  0.41404642017E+03  0.10100000352E+00 0. -1.
</event>
<event>
 5   0  0.6078658E-03  0.6004590E+03  0.7818609E-02  0.9904454E-01
        1   -1    0    0  501    0  0.00000000000E+00  0.00000000000E+00  0.65851297151E+03  0.65851297153E+03  0.50400001928E-02 0. -1.
       -1   -1    0    0    0  501  0.00000000000E+00  0.00000000000E+00 -0.13688076954E+03  0.13688076963E+03  0.50400001928E-02 0.  1.
    10030    2    1    2    0    0  0.00000000000E+00  0.00000000000E+00  0.52163220197E+03  0.79539374116E+03  0.60045903220E+03 0.  0.
        2    1    3    3  502    0  0.20750927571E+03  0.44687021319E+02 -0.20435026122E+02  0.21324778939E+03  0.25500000920E-02 0.  1.
       -2    1    3    3    0  502 -0.20750927571E+03 -0.44687021319E+02  0.54206722809E+03  0.58214595177E+03  0.25500000920E-02 0. -1.
</event>
<event>
 5   0  0.9162342E-03  0.6112450E+03  0.7818609E-02  0.9882347E-01
        2   -1    0    0  501    0  0.00000000000E+00  0.00000000000E+00  0.10805740116E+04  0.10805740116E+04  0.25500000920E-02 0. -1.
       -2   -1    0    0    0  501  0.00000000000E+00  0.00000000000E+00 -0.86440284768E+02  0.86440284806E+02  0.25500000920E-02 0.  1.
    10030    2    1    2    0    0  0.00000000000E+00  0.00000000000E+00  0.99413372686E+03  0.11670142964E+04  0.61124504187E+03 0.  0.
        5    1    3    3  502    0 -0.81262725939E+02  0.16389999795E+03  0.29726877603E+02  0.18539853615E+03  0.46999998093E+01 0.  1.
       -5    1    3    3    0  502  0.81262725939E+02 -0.16389999795E+03  0.96440684925E+03  0.98161576029E+03  0.46999998093E+01 0. -1.
</event>
<event>
 5   0  0.9162342E-03  0.6012567E+03  0.7818609E-02  0.9902802E-01
        2   -1    0    0  501    0  0.00000000000E+00  0.00000000000E+00  0.36527619120E+03  0.36527619121E+03  0.25500000920E-02 0. -1.
       -2   -1    0    0    0  501  0.00000000000E+00  0.00000000000E+00 -0.24742210454E+03  0.24742210455E+03  0.25500000920E-02 0.  1.
    10030    2    1    2    0    0  0.00000000000E+00  0.00000000000E+00  0.11785408666E+03  0.61269829576E+03  0.60125669717E+03 0.  0.
        5    1    3    3  502    0 -0.25839266948E+03 -0.13599070225E+03 -0.13811043762E+02  0.29235779051E+03  0.46999998093E+01 0. -1.
       -5    1    3    3    0  502  0.25839266948E+03  0.13599070225E+03  0.13166513043E+03  0.32034050526E+03  0.46999998093E+01 0.  1.
</event>
<event>
 5   0  0.9303190E-03  0.6001769E+03  0.7818609E-02  0.9905039E-01
        2   -1    0    0  501    0  0.00000000000E+00  0.00000000000E+00  0.17704767334E+04  0.17704767334E+04  0.25500000920E-02 0.  1.
       -2   -1    0    0    0  501  0.00000000000E+00  0.00000000000E+00 -0.50863741470E+02  0.50863741534E+02  0.25500000920E-02 0. -1.
    10030    2    1    2    0    0  0.00000000000E+00  0.00000000000E+00  0.17196129919E+04  0.18213404749E+04  0.60017687694E+03 0.  0.
        4    1    3    3  502    0  0.14367542118E+03 -0.99452901408E+02  0.16001544287E+04  0.16096674547E+04  0.12699999809E+01 0.  1.
       -4    1    3    3    0  502 -0.14367542118E+03  0.99452901408E+02  0.11945856323E+03  0.21167302020E+03  0.12699999809E+01 0. -1.
</event>
<event>
 5   0  0.9303190E-03  0.5986008E+03  0.7818609E-02  0.9908313E-01
        2   -1    0    0  501    0  0.00000000000E+00  0.00000000000E+00  0.28788854922E+03  0.28788854923E+03  0.25500000920E-02 0. -1.
       -2   -1    0    0    0  501  0.00000000000E+00  0.00000000000E+00 -0.31116458813E+03  0.31116458814E+03  0.25500000920E-02 0.  1.
    10030    2    1    2    0    0  0.00000000000E+00  0.00000000000E+00 -0.23276038906E+02  0.59905313737E+03  0.59860077465E+03 0.  0.
        4    1    3    3  502    0  0.16530015920E+03 -0.18526568433E+03 -0.17889179161E+03  0.30602516633E+03  0.12699999809E+01 0.  1.
       -4    1    3    3    0  502 -0.16530015920E+03  0.18526568433E+03  0.15561575270E+03  0.29302797104E+03  0.12699999809E+01 0. -1.
</event>
<event>
 5   0  0.6078658E-03  0.5979633E+03  0.7818609E-02  0.9909641E-01
        1   -1    0    0  501    0  0.00000000000E+00  0.00000000000E+00  0.15030730316E+03  0.15030730325E+03  0.50400001928E-02 0.  1.
       -1   -1    0    0    0  501  0.00000000000E+00  0.00000000000E+00 -0.59471512720E+03  0.59471512722E+03  0.50400001928E-02 0. -1.
    10030    2    1    2    0    0  0.00000000000E+00  0.00000000000E+00 -0.44440782404E+03  0.74502243047E+03  0.59796329974E+03 0.  0.
        2    1    3    3  502    0 -0.21476372862E+03 -0.78489875110E+02 -0.46220673293E+03  0.51567352424E+03  0.25500000920E-02 0. -1.
       -2    1    3    3    0  502  0.21476372862E+03  0.78489875110E+02  0.17798908893E+02  0.22934890623E+03  0.25500000920E-02 0.  1.
</event>
<event>
 5   0  0.9822607E-03  0.5998336E+03  0.7818609E-02  0.9905751E-01
       -2   -1    0    0    0  501  0.00000000000E+00  0.00000000000E+00  0.98447263677E+02  0.98447263710E+02  0.25500000920E-02 0.  1.
        2   -1    0    0  501    0  0.00000000000E+00  0.00000000000E+00 -0.91368805140E+03  0.91368805140E+03  0.25500000920E-02 0. -1.
    10030    2    1    2    0    0  0.00000000000E+00  0.00000000000E+00 -0.81524078772E+03  0.10121353151E+04  0.59983360537E+03 0.  0.
        3    1    3    3  502    0 -0.29265830390E+03  0.34335652511E+02 -0.31333547958E+03  0.43012434579E+03  0.10100000352E+00 0.  1.
       -3    1    3    3    0  502  0.29265830390E+03 -0.34335652511E+02 -0.50190530814E+03  0.58201096933E+03  0.10100000352E+00 0. -1.
</event>
<event>
 5   0  0.5891927E-03  0.6007021E+03  0.7818609E-02  0.9903951E-01
       -1   -1    0    0    0  501  0.00000000000E+00  0.00000000000E+00  0.26932496715E+03  0.26932496720E+03  0.50400001928E-02 0.  1.
        1   -1    0    0  501    0  0.00000000000E+00  0.00000000000E+00 -0.33495126864E+03  0.33495126867E+03  0.50400001928E-02 0. -1.
    10030    2    1    2    0    0  0.00000000000E+00  0.00000000000E+00 -0.65626301482E+02  0.60427623588E+03  0.60070205410E+03 0.  0.
        4    1    3    3  502    0  0.14018584330E+03 -0.11289521934E+03  0.20905816304E+03  0.27587013185E+03  0.12699999809E+01 0.  1.
       -4    1    3    3    0  502 -0.14018584330E+03  0.11289521934E+03 -0.27468446452E+03  0.32840610403E+03  0.12699999809E+01 0. -1.
</event>
<event>
 5   0  0.9028473E-03  0.6010120E+03  0.7818609E-02  0.9903309E-01
       -2   -1    0    0    0  501  0.00000000000E+00  0.00000000000E+00  0.91156913090E+02  0.91156913125E+02  0.25500000920E-02 0.  1.
        2   -1    0    0  501    0  0.00000000000E+00  0.00000000000E+00 -0.99064184994E+03  0.99064184994E+03  0.25500000920E-02 0. -1.
    10030    2    1    2    0    0  0.00000000000E+00  0.00000000000E+00 -0.89948493685E+03  0.10817987631E+04  0.60101199003E+03 0.  0.
        1    1    3    3  502    0  0.40228821754E+02  0.24462147430E+03 -0.75544909902E+03  0.79508575954E+03  0.50400001928E-02 0. -1.
       -1    1    3    3    0  502 -0.40228821754E+02 -0.24462147430E+03 -0.14403583784E+03  0.28671300353E+03  0.50400001928E-02 0.  1.
</event>
<event>
 5   0  0.9391405E-03  0.5999424E+03  0.7818609E-02  0.9905526E-01
        2   -1    0    0  501    0  0.00000000000E+00  0.00000000000E+00  0.36202346578E+03  0.36202346579E+03  0.25500000920E-02 0. -1.
       -2   -1    0    0    0  501  0.00000000000E+00  0.00000000000E+00 -0.24855494358E+03  0.24855494359E+03  0.25500000920E-02 0.  1.
    10030    2    1    2    0    0  0.00000000000E+00  0.00000000000E+00  0.11346852220E+03  0.61057840938E+03  0.59994240429E+03 0.  0.
        2    1    3    3  502    0  0.11760057747E+03  0.22744347289E+02 -0.22316051002E+03  0.25327418817E+03  0.25500000920E-02 0.  1.
       -2    1    3    3    0  502 -0.11760057747E+03 -0.22744347289E+02  0.33662903222E+03  0.35730422121E+03  0.25500000920E-02 0. -1.
</event>
<event>
 5   0  0.5891927E-03  0.6004426E+03  0.7818609E-02  0.9904488E-01
        1   -1    0    0  501    0  0.00000000000E+00  0.00000000000E+00  0.47468645753E+03  0.47468645756E+03  0.50400001928E-02 0. -1.
       -1   -1    0    0    0  501  0.00000000000E+00  0.00000000000E+00 -0.18987867698E+03  0.18987867705E+03  0.50400001928E-02 0.  1.
    10030    2    1    2    0    0  0.00000000000E+00  0.00000000000E+00  0.28480778055E+03  0.66456513460E+03  0.60044262529E+03 0.  0.
        4    1    3    3  502    0  0.75196437077E+02 -0.27605986420E+03  0.24304087783E+03  0.37541181916E+03  0.12699999809E+01 0. -1.
       -4    1    3    3    0  502 -0.75196437077E+02  0.27605986420E+03  0.41766902725E+02  0.28915331544E+03  0.12699999809E+01 0.  1.
</event>
<event>
 5   0  0.6078658E-03  0.5995674E+03  0.7818609E-02  0.9906304E-01
        1   -1    0    0  501    0  0.00000000000E+00  0.00000000000E+00  0.20402846004E+03  0.20402846010E+03  0.50400001928E-02 0. -1.
       -1   -1    0    0    0  501  0.00000000000E+00  0.00000000000E+00 -0.44047913969E+03  0.44047913972E+03  0.50400001928E-02 0.  1.
    10030    2    1    2    0    0  0.00000000000E+00  0.00000000000E+00 -0.23645067965E+03  0.64450759982E+03  0.59956744602E+03 0.  0.
        2    1    3    3  502    0  0.59046100682E+02 -0.28847705004E+03 -0.17869885354E+03  0.34443973445E+03  0.25500000920E-02 0. -1.
       -2    1    3    3    0  502 -0.59046100682E+02  0.28847705004E+03 -0.57751826112E+02  0.30006786537E+03  0.25500000920E-02 0.  1.
</event>
<event>
 5   0  0.9303190E-03  0.6006151E+03  0.7818609E-02  0.9904131E-01
        2   -1    0    0  501    0  0.00000000000E+00  0.00000000000E+00  0.27978948101E+03  0.27978948102E+03  0.25500000920E-02 0.  1.
       -2   -1    0    0    0  501  0.00000000000E+00  0.00000000000E+00 -0.32233032839E+03  0.32233032840E+03  0.25500000920E-02 0. -1.
    10030    2    1    2    0    0  0.00000000000E+00  0.00000000000E+00 -0.42540847378E+02  0.60211980942E+03  0.60061513567E+03 0.  0.
        4    1    3    3  502    0  0.26479829079E+03 -0.13996153788E+03  0.59374190879E+00  0.29951516209E+03  0.12699999809E+01 0.  1.
       -4    1    3    3    0  502 -0.26479829079E+03  0.13996153788E+03 -0.43134589287E+02  0.30260464733E+03  0.12699999809E+01 0. -1.
</event>
<event>
 5   0  0.9303190E-03  0.5985853E+03  0.7818609E-02  0.9908346E-01
       -2   -1    0    0    0  501  0.00000000000E+00  0.00000000000E+00  0.16945446294E+03  0.16945446296E+03  0.25500000920E-02 0.  1.
        2   -1    0    0  501    0  0.00000000000E+00  0.00000000000E+00 -0.52861445829E+03  0.52861445830E+03  0.25500000920E-02 0. -1.
    10030    2    1    2    0    0  0.00000000000E+00  0.00000000000E+00 -0.35915999535E+03  0.69806892126E+03  0.59858526258E+03 0.  0.
        4    1    3    3  502    0  0.11508323493E+03 -0.21771735251E+03  0.18774713254E+02  0.24697995729E+03  0.12699999809E+01 0.  1.
       -4    1    3    3    0  502 -0.11508323493E+03  0.21771735251E+03 -0.37793470860E+03  0.45108896397E+03  0.12699999809E+01 0. -1.
</event>
<event>
 5   0  0.5891927E-03  0.5988054E+03  0.7818609E-02  0.9907887E-01
        1   -1    0    0  501    0  0.00000000000E+00  0.00000000000E+00  0.65929547070E+03  0.65929547072E+03  0.50400001928E-02 0. -1.
       -1   -1    0    0    0  501  0.00000000000E+00  0.00000000000E+00 -0.13596633629E+03  0.13596633639E+03  0.50400001928E-02 0.  1.
    10030    2    1    2    0    0  0.00000000000E+00  0.00000000000E+00  0.52332913441E+03  0.79526180711E+03  0.59880544330E+03 0.  0.
        4    1    3    3  502    0 -0.48324789847E+02 -0.31541239394E+02  0.65183607565E+03  0.65438674919E+03  0.12699999809E+01 0. -1.
       -4    1    3    3    0  502  0.48324789847E+02  0.31541239394E+02 -0.12850694124E+03  0.14087505792E+03  0.12699999809E+01 0.  1.
</event>
<event>
 5   0  0.6078658E-03  0.5996923E+03  0.7818609E-02  0.9906045E-01
       -1   -1    0    0    0  501  0.00000000000E+00  0.00000000000E+00  0.39334502019E+03  0.39334502022E+03  0.50400001928E-02 0. -1.
        1   -1    0    0  501    0  0.00000000000E+00  0.00000000000E+00 -0.22857211622E+03  0.22857211628E+03  0.50400001928E-02 0.  1.
    10030    2    1    2    0    0  0.00000000000E+00  0.00000000000E+00  0.16477290396E+03  0.62191713650E+03  0.59969226674E+03 0.  0.
        2    1    3    3  502    0  0.99982985232E+02  0.20050749551E+03 -0.12426680993E+03  0.25620712938E+03  0.25500000920E-02 0.  1.
       -2    1    3    3    0  502 -0.99982985232E+02 -0.20050749551E+03  0.28903971389E+03  0.36571000712E+03  0.25500000920E-02 0. -1.
</event>
<event>
 5   0  0.9162342E-03  0.5993103E+03  0.7818609E-02  0.9906838E-01
        2   -1    0    0  501    0  0.00000000000E+00  0.00000000000E+00  0.35895159374E+03  0.35895159375E+03  0.25500000920E-02 0. -1.
       -2   -1    0    0    0  501  0.00000000000E+00  0.00000000000E+00 -0.25015410284E+03  0.25015410286E+03  0.25500000920E-02 0.  1.
    10030    2    1    2    0    0  0.00000000000E+00  0.00000000000E+00  0.10879749089E+03  0.60910569660E+03  0.59931031662E+03 0.  0.
        5    1    3    3  502    0  0.12793282547E+03  0.11811246062E+03  0.30221545156E+03  0.34881747425E+03  0.46999998093E+01 0. -1.
       -5    1    3    3    0  502 -0.12793282547E+03 -0.11811246062E+03 -0.19341796066E+03  0.26028822235E+03  0.46999998093E+01 0.  1.
</event>
<event>
 5   0  0.9162342E-03  0.5994676E+03  0.7818609E-02  0.9906511E-01
        2   -1    0    0  501    0  0.00000000000E+00  0.00000000000E+00  0.23036169174E+03  0.23036169175E+03  0.25500000920E-02 0. -1.
       -2   -1    0    0    0  501  0.00000000000E+00  0.00000000000E+00 -0.38999688012E+03  0.38999688013E+03  0.25500000920E-02 0.  1.
    10030    2    1    2    0    0  0.00000000000E+00  0.00000000000E+00 -0.15963518838E+03  0.62035857188E+03  0.59946756738E+03 0.  0.
        5    1    3    3  502    0 -0.23124407690E+03 -0.16305937726E+03  0.22397372974E+02  0.28387658573E+03  0.46999998093E+01 0.  1.
       -5    1    3    3    0  502  0.23124407690E+03  0.16305937726E+03 -0.18203256136E+03  0.33648198615E+03  0.46999998093E+01 0. -1.
</event>
<event>
 5   0  0.5790967E-03  0.6002426E+03  0.7818609E-02  0.9904903E-01
        1   -1    0    0  501    0  0.00000000000E+00  0.00000000000E+00  0.34832153635E+03  0.34832153639E+03  0.50400001928E-02 0.  1.
       -1   -1    0    0    0  501  0.00000000000E+00  0.00000000000E+00 -0.25859095949E+03  0.25859095954E+03  0.50400001928E-02 0. -1.
    10030    2    1    2    0    0  0.00000000000E+00  0.00000000000E+00  0.89730576857E+02  0.60691249593E+03  0.60024261869E+03 0.  0.
        3    1    3    3  502    0  0.70853198582E+02 -0.13872915240E+03 -0.21451367994E+03  0.26510768106E+03  0.10100000352E+00 0. -1.
       -3    1    3    3    0  502 -0.70853198582E+02  0.13872915240E+03  0.30424425679E+03  0.34180481487E+03  0.10100000352E+00 0.  1.
</event>
<event>
 5   0  0.9391405E-03  0.6078763E+03  0.7818609E-02  0.9889199E-01
        2   -1    0    0  501    0  0.00000000000E+00  0.00000000000E+00  0.11194025200E+04  0.11194025200E+04  0.25500000920E-02 0. -1.
       -2   -1    0    0    0  501  0.00000000000E+00  0.00000000000E+00 -0.82524738987E+02  0.82524739026E+02  0.25500000920E-02 0.  1.
    10030    2    1    2    0    0  0.00000000000E+00  0.00000000000E+00  0.10368777810E+04  0.12019272590E+04  0.60787630587E+03 0.  0.
        2    1    3    3  502    0 -0.66660188327E+02  0.13115101055E+03  0.10443081596E+04  0.10546201689E+04  0.25500000920E-02 0.  1.
       -2    1    3    3    0  502  0.66660188327E+02 -0.13115101055E+03 -0.74303786374E+01  0.14730709016E+03  0.25500000920E-02 0. -1.
</event>
<event>
 5   0  0.5891927E-03  0.6009069E+03  0.7818609E-02  0.9903526E-01
       -1   -1    0    0    0  501  0.00000000000E+00  0.00000000000E+00  0.52196289096E+03  0.52196289099E+03  0.50400001928E-02 0. -1.
        1   -1    0    0  501    0  0.00000000000E+00  0.00000000000E+00 -0.17294768705E+03  0.17294768712E+03  0.50400001928E-02 0.  1.
    10030    2    1    2    0    0  0.00000000000E+00  0.00000000000E+00  0.34901520391E+03  0.69491057811E+03  0.60090689712E+03 0.  0.
        4    1    3    3  502    0  0.20557991617E+03 -0.10720778018E+03 -0.46471776376E+02  0.23646955187E+03  0.12699999809E+01 0.  1.
       -4    1    3    3    0  502 -0.20557991617E+03  0.10720778018E+03  0.39548698029E+03  0.45844102624E+03  0.12699999809E+01 0. -1.
</event>
<event>
 5   0  0.9822607E-03  0.5993032E+03  0.7818609E-02  0.9906853E-01
       -2   -1    0    0    0  501  0.00000000000E+00  0.00000000000E+00  0.26362770459E+03  0.26362770460E+03  0.25500000920E-02 0. -1.
        2   -1    0    0  501    0  0.00000000000E+00  0.00000000000E+00 -0.34059807815E+03  0.34059807816E+03  0.25500000920E-02 0.  1.
    10030    2    1    2    0    0  0.00000000000E+00  0.00000000000E+00 -0.76970373559E+02  0.60422578276E+03  0.59930322721E+03 0.  0.
        3    1    3    3  502    0  0.69733942213E+02 -0.66298944748E+02 -0.32459897282E+03  0.33856000373E+03  0.10100000352E+00 0.  1.
       -3    1    3    3    0  502 -0.69733942213E+02  0.66298944748E+02  0.24762859926E+03  0.26566577902E+03  0.10100000352E+00 0. -1.
</event>
<event>
 5   0  0.9162342E-03  0.6004413E+03  0.7818609E-02  0.9904491E-01
        2   -1    0    0  501    0  0.00000000000E+00  0.00000000000E+00  0.33902421486E+03  0.33902421487E+03  0.25500000920E-02 0. -1.
       -2   -1    0    0    0  501  0.00000000000E+00  0.00000000000E+00 -0.26585842139E+03  0.26585842141E+03  0.25500000920E-02 0.  1.
    10030    2    1    2    0    0  0.00000000000E+00  0.00000000000E+00  0.73165793463E+02  0.60488263627E+03  0.60044131298E+03 0.  0.
        5    1    3    3  502    0  0.24719396579E+03 -0.16942774523E+03  0.54023812618E+02  0.30455094796E+03  0.46999998093E+01 0.  1.
       -5    1    3    3    0  502 -0.24719396579E+03  0.16942774523E+03  0.19141980845E+02  0.30033168831E+03  0.46999998093E+01 0. -1.
</event>
<event>
 5   0  0.9391405E-03  0.5994131E+03  0.7818609E-02  0.9906624E-01
        2   -1    0    0  501    0  0.00000000000E+00  0.00000000000E+00  0.84725514930E+03  0.84725514930E+03  0.25500000920E-02 0. -1.
       -2   -1    0    0    0  501  0.00000000000E+00  0.00000000000E+00 -0.10601766711E+03  0.10601766714E+03  0.25500000920E-02 0.  1.
    10030    2    1    2    0    0  0.00000000000E+00  0.00000000000E+00  0.74123748219E+03  0.95327281644E+03  0.59941309425E+03 0.  0.
        2    1    3    3  502    0 -0.17370599992E+03  0.95661837856E+02  0.13236803726E+02  0.19874650843E+03  0.25500000920E-02 0.  1.
       -2    1    3    3    0  502  0.17370599992E+03 -0.95661837856E+02  0.72800067847E+03  0.75452630801E+03  0.25500000920E-02 0. -1.
</event>
<event>
 5   0  0.5765045E-03  0.6010089E+03  0.7818609E-02  0.9903315E-01
        1   -1    0    0  501    0  0.00000000000E+00  0.00000000000E+00  0.19359702388E+03  0.19359702394E+03  0.50400001928E-02 0.  1.
       -1   -1    0    0    0  501  0.00000000000E+00  0.00000000000E+00 -0.46644790913E+03  0.46644790916E+03  0.50400001928E-02 0. -1.
    10030    2    1    2    0    0  0.00000000000E+00  0.00000000000E+00 -0.27285088526E+03  0.66004493310E+03  0.60100890853E+03 0.  0.
        1    1    3    3  502    0 -0.69161419215E+02  0.13123906210E+01  0.18473430860E+03  0.19726071347E+03  0.50400001928E-02 0.  1.
       -1    1    3    3    0  502  0.69161419215E+02 -0.13123906210E+01 -0.45758519386E+03  0.46278421964E+03  0.50400001928E-02 0. -1.
</event>
<event>
 5   0  0.9391405E-03  0.5928743E+03  0.7818609E-02  0.9920301E-01
        2   -1    0    0  501    0  0.00000000000E+00  0.00000000000E+00  0.18941191567E+04  0.18941191567E+04  0.25500000920E-02 0.  1.
       -2   -1    0    0    0  501  0.00000000000E+00  0.00000000000E+00 -0.46393593289E+02  0.46393593359E+02  0.25500000920E-02 0. -1.
    10030    2    1    2    0    0  0.00000000000E+00  0.00000000000E+00  0.18477255634E+04  0.19405127501E+04  0.59287433362E+03 0.  0.
        2    1    3    3  502    0  0.16239634249E+03 -0.24654783749E+03  0.83624587829E+03  0.88682894472E+03  0.25500000920E-02 0.  1.
       -2    1    3    3    0  502 -0.16239634249E+03  0.24654783749E+03  0.10114796851E+04  0.10536838054E+04  0.25500000920E-02 0. -1.
</event>
<event>
 5   0  0.5790967E-03  0.6004677E+03  0.7818609E-02  0.9904436E-01
       -1   -1    0    0    0  501  0.00000000000E+00  0.00000000000E+00  0.99627511295E+02  0.99627511422E+02  0.50400001928E-02 0. -1.
        1   -1    0    0  501    0  0.00000000000E+00  0.00000000000E+00 -0.90477382822E+03  0.90477382823E+03  0.50400001928E-02 0.  1.
    10030    2    1    2    0    0  0.00000000000E+00  0.00000000000E+00 -0.80514631692E+03  0.10044013397E+04  0.60046770058E+03 0.  0.
        3    1    3    3  502    0  0.87898393254E+02  0.21947057908E+03 -0.71212130943E+03  0.75034007768E+03  0.10100000352E+00 0.  1.
       -3    1    3    3    0  502 -0.87898393254E+02 -0.21947057908E+03 -0.93025007490E+02  0.25406126198E+03  0.10100000352E+00 0. -1.
</event>
<event>
 5   0  0.5891927E-03  0.5999490E+03  0.7818609E-02  0.9905512E-01
       -1   -1    0    0    0  501  0.00000000000E+00  0.00000000000E+00  0.89623175852E+02  0.89623175993E+02  0.50400001928E-02 0.  1.
        1   -1    0    0  501    0  0.00000000000E+00  0.00000000000E+00 -0.10040337007E+04  0.10040337007E+04  0.50400001928E-02 0. -1.
    10030    2    1    2    0    0  0.00000000000E+00  0.00000000000E+00 -0.91441052481E+03  0.10936568767E+04  0.59994896116E+03 0.  0.
        4    1    3    3  502    0 -0.22116872336E+03  0.74927065293E+02 -0.11396694109E+03  0.25984561930E+03  0.12699999809E+01 0.  1.
       -4    1    3    3    0  502  0.22116872336E+03 -0.74927065293E+02 -0.80044358372E+03  0.83381125738E+03  0.12699999809E+01 0. -1.
</event>
<event>
 5   0  0.9822607E-03  0.5986376E+03  0.7818609E-02  0.9908237E-01
       -2   -1    0    0    0  501  0.00000000000E+00  0.00000000000E+00  0.11619353531E+03  0.11619353534E+03  0.25500000920E-02 0. -1.
        2   -1    0    0  501    0  0.00000000000E+00  0.00000000000E+00 -0.77105608074E+03  0.77105608074E+03  0.25500000920E-02 0.  1.
    10030    2    1    2    0    0  0.00000000000E+00  0.00000000000E+00 -0.65486254542E+03  0.88724961608E+03  0.59863755966E+03 0.  0.
        3    1    3    3  502    0 -0.26953353604E+03 -0.81485675477E+02 -0.47787490550E+03  0.55466447323E+03  0.10100000352E+00 0.  1.
       -3    1    3    3    0  502  0.26953353604E+03  0.81485675477E+02 -0.17698763993E+03  0.33258514285E+03  0.10100000352E+00 0. -1.
</event>
<event>
 5   0  0.5765045E-03  0.5945004E+03  0.7818609E-02  0.9916882E-01
        1   -1    0    0  501    0  0.00000000000E+00  0.00000000000E+00  0.10022783171E+04  0.10022783171E+04  0.50400001928E-02 0.  1.
       -1   -1    0    0    0  501  0.00000000000E+00  0.00000000000E+00 -0.88156826438E+02  0.88156826582E+02  0.50400001928E-02 0. -1.
    10030    2    1    2    0    0  0.00000000000E+00  0.00000000000E+00  0.91412149064E+03  0.10904351437E+04  0.59450038091E+03 0.  0.
        1    1    3    3  502    0  0.25239910414E+03  0.14051656860E+03  0.58555276928E+03  0.65293357967E+03  0.50400001928E-02 0.  1.
       -1    1    3    3    0  502 -0.25239910414E+03 -0.14051656860E+03  0.32856872136E+03  0.43750156400E+03  0.50400001928E-02 0. -1.
</event>
<event>
 5   0  0.6078658E-03  0.5998411E+03  0.7818609E-02  0.9905736E-01
       -1   -1    0    0    0  501  0.00000000000E+00  0.00000000000E+00  0.15322417610E+03  0.15322417619E+03  0.50400001928E-02 0. -1.
        1   -1    0    0  501    0  0.00000000000E+00  0.00000000000E+00 -0.58706354923E+03  0.58706354925E+03  0.50400001928E-02 0.  1.
    10030    2    1    2    0    0  0.00000000000E+00  0.00000000000E+00 -0.43383937313E+03  0.74028772544E+03  0.59984107458E+03 0.  0.
        2    1    3    3  502    0 -0.15865356294E+03  0.20386069903E+03 -0.28851237049E+02  0.25992793526E+03  0.25500000920E-02 0.  1.
       -2    1    3    3    0  502  0.15865356294E+03 -0.20386069903E+03 -0.40498813608E+03  0.48035979017E+03  0.25500000920E-02 0. -1.
</event>
<event>
 5   0  0.6078658E-03  0.5986822E+03  0.7818609E-02  0.9908144E-01
       -1   -1    0    0    0  501  0.00000000000E+00  0.00000000000E+00  0.73172219739E+02  0.73172219913E+02  0.50400001928E-02 0.  1.
        1   -1    0    0  501    0  0.00000000000E+00  0.00000000000E+00 -0.12245779303E+04  0.12245779303E+04  0.50400001928E-02 0. -1.
    10030    2    1    2    0    0  0.00000000000E+00  0.00000000000E+00 -0.11514057106E+04  0.12977501502E+04  0.59868217119E+03 0.  0.
        2    1    3    3  502    0  0.21278085513E+03  0.10138644760E+03 -0.97569777746E+03  0.10037634467E+04  0.25500000920E-02 0. -1.
       -2    1    3    3    0  502 -0.21278085513E+03 -0.10138644760E+03 -0.17570793311E+03  0.29398670349E+03  0.25500000920E-02 0.  1.
</event>
<event>
 5   0  0.9303190E-03  0.5998486E+03  0.7818609E-02  0.9905720E-01
       -2   -1    0    0    0  501  0.00000000000E+00  0.00000000000E+00  0.11620161948E+03  0.11620161951E+03  0.25500000920E-02 0.  1.
        2   -1    0    0  501    0  0.00000000000E+00  0.00000000000E+00 -0.77412515055E+03  0.77412515056E+03  0.25500000920E-02 0. -1.
    10030    2    1    2    0    0  0.00000000000E+00  0.00000000000E+00 -0.65792353107E+03  0.89032677007E+03  0.59984863488E+03 0.  0.
        4    1    3    3  502    0 -0.10435471223E+03  0.97990999577E+02 -0.72014278720E+03  0.73423387883E+03  0.12699999809E+01 0. -1.
       -4    1    3    3    0  502  0.10435471223E+03 -0.97990999577E+02  0.62219256132E+02  0.15609289124E+03  0.12699999809E+01 0.  1.
</event>
<event>
 5   0  0.5891927E-03  0.6000084E+03  0.7818609E-02  0.9905389E-01
        1   -1    0    0  501    0  0.00000000000E+00  0.00000000000E+00  0.10421110812E+04  0.10421110812E+04  0.50400001928E-02 0.  1.
       -1   -1    0    0    0  501  0.00000000000E+00  0.00000000000E+00 -0.86365579936E+02  0.86365580083E+02  0.50400001928E-02 0. -1.
    10030    2    1    2    0    0  0.00000000000E+00  0.00000000000E+00  0.95574550127E+03  0.11284766613E+04  0.60000842653E+03 0.  0.
        4    1    3    3  502    0  0.15085138134E+03  0.25510961713E+03  0.56536099838E+03  0.63833512154E+03  0.12699999809E+01 0. -1.
       -4    1    3    3    0  502 -0.15085138134E+03 -0.25510961713E+03  0.39038450289E+03  0.49014153976E+03  0.12699999809E+01 0.  1.
</event>
<event>
 5   0  0.5891927E-03  0.5975301E+03  0.7818609E-02  0.9910544E-01
        1   -1    0    0  501    0  0.00000000000E+00  0.00000000000E+00  0.77597949902E+03  0.77597949904E+03  0.50400001928E-02 0. -1.
       -1   -1    0    0    0  501  0.00000000000E+00  0.00000000000E+00 -0.11502953581E+03  0.11502953592E+03  0.50400001928E-02 0.  1.
    10030    2    1    2    0    0  0.00000000000E+00  0.00000000000E+00  0.66094996321E+03  0.89100903495E+03  0.59753012183E+03 0.  0.
        4    1    3    3  502    0  0.20088424525E+02 -0.29089575740E+03  0.23343466523E+03  0.37352006948E+03  0.12699999809E+01 0. -1.
       -4    1    3    3    0  502 -0.20088424525E+02  0.29089575740E+03  0.42751529798E+03  0.51748896547E+03  0.12699999809E+01 0.  1.
</event>
<event>
 5   0  0.9162342E-03  0.5996784E+03  0.7818609E-02  0.9906074E-01
        2   -1    0    0  501    0  0.00000000000E+00  0.00000000000E+00  0.13011793619E+04  0.13011793619E+04  0.25500000920E-02 0. -1.
       -2   -1    0    0    0  501  0.00000000000E+00  0.00000000000E+00 -0.69093882288E+02  0.69093882335E+02  0.25500000920E-02 0.  1.
    10030    2    1    2    0    0  0.00000000000E+00  0.00000000000E+00  0.12320854796E+04  0.13702732442E+04  0.59967835945E+03 0.  0.
        5    1    3    3  502    0  0.15193537908E+03  0.44606887953E+02  0.34340416798E+02  0.16209715634E+03  0.46999998093E+01 0.  1.
       -5    1    3    3    0  502 -0.15193537908E+03 -0.44606887953E+02  0.11977450628E+04  0.12081760879E+04  0.46999998093E+01 0. -1.
</event>
<event>
 5   0  0.9028473E-03  0.6007471E+03  0.7818609E-02  0.9903857E-01
       -2   -1    0    0    0  501  0.00000000000E+00  0.00000000000E+00  0.49350763159E+02  0.49350763225E+02  0.25500000920E-02 0.  1.
        2   -1    0    0  501    0  0.00000000000E+00  0.00000000000E+00 -0.18282244445E+04  0.18282244445E+04  0.25500000920E-02 0. -1.
    10030    2    1    2    0    0  0.00000000000E+00  0.00000000000E+00 -0.17788736813E+04  0.18775752077E+04  0.60074710694E+03 0.  0.
        1    1    3    3  502    0 -0.75681489454E+02  0.71177560035E+02 -0.17702805583E+04  0.17733265881E+04  0.50400001928E-02 0. -1.
       -1    1    3    3    0  502  0.75681489454E+02 -0.71177560035E+02 -0.85931229929E+01  0.10424861959E+03  0.50400001928E-02 0.  1.
</event>
<event>
 5   0  0.9028473E-03  0.6019224E+03  0.7818609E-02  0.9901426E-01
       -2   -1    0    0    0  501  0.00000000000E+00  0.00000000000E+00  0.87305022223E+02  0.87305022260E+02  0.25500000920E-02 0. -1.
        2   -1    0    0  501    0  0.00000000000E+00  0.00000000000E+00 -0.10374849956E+04  0.10374849956E+04  0.25500000920E-02 0.  1.
    10030    2    1    2    0    0  0.00000000000E+00  0.00000000000E+00 -0.95017997336E+03  0.11247900178E+04  0.60192242230E+03 0.  0.
        1    1    3    3  502    0 -0.14773784151E+03  0.86374287757E+02 -0.12466058214E+02  0.17158784932E+03  0.50400001928E-02 0. -1.
       -1    1    3    3    0  502  0.14773784151E+03 -0.86374287757E+02 -0.93771391514E+03  0.95320216852E+03  0.50400001928E-02 0.  1.
</event>
<event>
 5   0  0.3806250E-03  0.5982704E+03  0.7818609E-02  0.9909001E-01
        3   -1    0    0  501    0  0.00000000000E+00  0.00000000000E+00  0.29285034381E+03  0.29285036123E+03  0.10100000352E+00 0. -1.
       -3   -1    0    0    0  501  0.00000000000E+00  0.00000000000E+00 -0.30555493678E+03  0.30555495347E+03  0.10100000352E+00 0.  1.
    10030    2    1    2    0    0  0.00000000000E+00  0.00000000000E+00 -0.12704592965E+02  0.59840531470E+03  0.59827043549E+03 0.  0.
        1    1    3    3  502    0 -0.11354321821E+03 -0.12253930389E+03  0.24184460461E+03  0.29393325127E+03  0.50400001928E-02 0. -1.
       -1    1    3    3    0  502  0.11354321821E+03  0.12253930389E+03 -0.25454919757E+03  0.30447206343E+03  0.50400001928E-02 0.  1.
</event>
<event>
 5   0  0.5790967E-03  0.5993014E+03  0.7818609E-02  0.9906857E-01
       -1   -1    0    0    0  501  0.00000000000E+00  0.00000000000E+00  0.94414551055E+03  0.94414551056E+03  0.50400001928E-02 0.  1.
        1   -1    0    0  501    0  0.00000000000E+00  0.00000000000E+00 -0.95102430272E+02  0.95102430405E+02  0.50400001928E-02 0. -1.
    10030    2    1    2    0    0  0.00000000000E+00  0.00000000000E+00  0.84904308027E+03  0.10392479410E+04  0.59930136879E+03 0.  0.
        3    1    3    3  502    0  0.25034515681E+03  0.10897781126E+03  0.21043465656E+03  0.34471961906E+03  0.10100000352E+00 0. -1.
       -3    1    3    3    0  502 -0.25034515681E+03 -0.10897781126E+03  0.63860842371E+03  0.69452832190E+03  0.10100000352E+00 0.  1.
</event>
<event>
 5   0  0.9162342E-03  0.6017336E+03  0.7818609E-02  0.9901816E-01
       -2   -1    0    0    0  501  0.00000000000E+00  0.00000000000E+00  0.42717097404E+02  0.42717097480E+02  0.25500000920E-02 0.  1.
        2   -1    0    0  501    0  0.00000000000E+00  0.00000000000E+00 -0.21190775857E+04  0.21190775857E+04  0.25500000920E-02 0. -1.
    10030    2    1    2    0    0  0.00000000000E+00  0.00000000000E+00 -0.20763604882E+04  0.21617946831E+04  0.60173364113E+03 0.  0.
        5    1    3    3  502    0 -0.16085355605E+03  0.19979027202E+03 -0.47345733918E+03  0.53849230386E+03  0.46999998093E+01 0.  1.
       -5    1    3    3    0  502  0.16085355605E+03 -0.19979027202E+03 -0.16029031491E+04  0.16233023793E+04  0.46999998093E+01 0. -1.
</event>
<event>
 5   0  0.9391405E-03  0.5995499E+03  0.7818609E-02  0.9906340E-01
        2   -1    0    0  501    0  0.00000000000E+00  0.00000000000E+00  0.29234130041E+03  0.29234130042E+03  0.25500000920E-02 0. -1.
       -2   -1    0    0    0  501  0.00000000000E+00  0.00000000000E+00 -0.30739762421E+03  0.30739762422E+03  0.25500000920E-02 0.  1.
    10030    2    1    2    0    0  0.00000000000E+00  0.00000000000E+00 -0.15056323799E+02  0.59973892464E+03  0.59954990188E+03 0.  0.
        2    1    3    3  502    0 -0.62073339822E+02  0.58100406970E+02  0.28002770887E+03  0.29265043063E+03  0.25500000920E-02 0. -1.
       -2    1    3    3    0  502  0.62073339822E+02 -0.58100406970E+02 -0.29508403267E+03  0.30708849401E+03  0.25500000920E-02 0.  1.
</event>
<event>
 5   0  0.5819446E-03  0.5999692E+03  0.7818609E-02  0.9905470E-01
        1   -1    0    0  501    0  0.00000000000E+00  0.00000000000E+00  0.43416423756E+03  0.43416423759E+03  0.50400001928E-02 0. -1.
       -1   -1    0    0    0  501  0.00000000000E+00  0.00000000000E+00 -0.20727353636E+03  0.20727353642E+03  0.50400001928E-02 0.  1.
    10030    2    1    2    0    0  0.00000000000E+00  0.00000000000E+00  0.22689070121E+03  0.64143777401E+03  0.59996918890E+03 0.  0.
        5    1    3    3  502    0  0.17097218677E+03 -0.21185572932E+03  0.24806222607E+03  0.36833584769E+03  0.46999998093E+01 0. -1.
       -5    1    3    3    0  502 -0.17097218677E+03  0.21185572932E+03 -0.21171524861E+02  0.27310192632E+03  0.46999998093E+01 0.  1.
</event>
<event>
 5   0  0.9028473E-03  0.5990928E+03  0.7818609E-02  0.9907290E-01
        2   -1    0    0  501    0  0.00000000000E+00  0.00000000000E+00  0.34729589572E+03  0.34729589573E+03  0.25500000920E-02 0.  1.
       -2   -1    0    0    0  501  0.00000000000E+00  0.00000000000E+00 -0.25836192367E+03  0.25836192368E+03  0.25500000920E-02 0. -1.
    10030    2    1    2    0    0  0.00000000000E+00  0.00000000000E+00  0.88933972048E+02  0.60565781941E+03  0.59909276646E+03 0.  0.
        1    1    3    3  502    0  0.16429731262E+03 -0.20073004148E+03 -0.10698077696E+03  0.28059052577E+03  0.50400001928E-02 0. -1.
       -1    1    3    3    0  502 -0.16429731262E+03  0.20073004148E+03  0.19591474901E+03  0.32506729364E+03  0.50400001928E-02 0.  1.
</event>
<event>
 5   0  0.9303190E-03  0.5998474E+03  0.7818609E-02  0.9905723E-01
       -2   -1    0    0    0  501  0.00000000000E+00  0.00000000000E+00  0.12163520135E+03  0.12163520138E+03  0.25500000920E-02 0. -1.
        2   -1    0    0  501    0  0.00000000000E+00  0.00000000000E+00 -0.73954112014E+03  0.73954112014E+03  0.25500000920E-02 0.  1.
    10030    2    1    2    0    0  0.00000000000E+00  0.00000000000E+00 -0.61790591879E+03  0.86117632152E+03  0.59984742416E+03 0.  0.
        4    1    3    3  502    0  0.55886789938E+02 -0.28318742848E+03 -0.19201796765E+03  0.34668568724E+03  0.12699999809E+01 0. -1.
       -4    1    3    3    0  502 -0.55886789938E+02  0.28318742848E+03 -0.42588795114E+03  0.51449063428E+03  0.12699999809E+01 0.  1.
</event>
<event>
 5   0  0.9028473E-03  0.5982014E+03  0.7818609E-02  0.9909145E-01
        2   -1    0    0  501    0  0.00000000000E+00  0.00000000000E+00  0.11160159191E+04  0.11160159191E+04  0.25500000920E-02 0.  1.
       -2   -1    0    0    0  501  0.00000000000E+00  0.00000000000E+00 -0.80161256441E+02  0.80161256482E+02  0.25500000920E-02 0. -1.
    10030    2    1    2    0    0  0.00000000000E+00  0.00000000000E+00  0.10358546626E+04  0.11961771756E+04  0.59820143199E+03 0.  0.
        1    1    3    3  502    0 -0.28536266941E+03 -0.17173287332E+02  0.34206891529E+03  0.44580031149E+03  0.50400001928E-02 0. -1.
       -1    1    3    3    0  502  0.28536266941E+03  0.17173287332E+02  0.69378574735E+03  0.75037686407E+03  0.50400001928E-02 0.  1.
</event>
<event>
 5   0  0.9391405E-03  0.6005988E+03  0.7818609E-02  0.9904165E-01
        2   -1    0    0  501    0  0.00000000000E+00  0.00000000000E+00  0.78273394441E+03  0.78273394441E+03  0.25500000920E-02 0. -1.
       -2   -1    0    0    0  501  0.00000000000E+00  0.00000000000E+00 -0.11521120186E+03  0.11521120189E+03  0.25500000920E-02 0.  1.
    10030    2    1    2    0    0  0.00000000000E+00  0.00000000000E+00  0.66752274254E+03  0.89794514630E+03  0.60059876286E+03 0.  0.
        2    1    3    3  502    0 -0.10585041706E+03  0.54868158081E+01 -0.86315258223E+02  0.13669213491E+03  0.25500000920E-02 0.  1.
       -2    1    3    3    0  502  0.10585041706E+03 -0.54868158081E+01  0.75383800077E+03  0.76125301139E+03  0.25500000920E-02 0. -1.
</event>
<event>
 5   0  0.6078658E-03  0.5995868E+03  0.7818609E-02  0.9906264E-01
       -1   -1    0    0    0  501  0.00000000000E+00  0.00000000000E+00  0.10066725198E+03  0.10066725211E+03  0.50400001928E-02 0.  1.
        1   -1    0    0  501    0  0.00000000000E+00  0.00000000000E+00 -0.89280361078E+03  0.89280361080E+03  0.50400001928E-02 0. -1.
    10030    2    1    2    0    0  0.00000000000E+00  0.00000000000E+00 -0.79213635880E+03  0.99347086291E+03  0.59958681149E+03 0.  0.
        2    1    3    3  502    0  0.13482066780E+03 -0.26073940649E+03 -0.49705146040E+03  0.57725367461E+03  0.25500000920E-02 0. -1.
       -2    1    3    3    0  502 -0.13482066780E+03  0.26073940649E+03 -0.29508489840E+03  0.41621718829E+03  0.25500000920E-02 0.  1.
</event>
<event>
 5   0  0.6078658E-03  0.5918433E+03  0.7818609E-02  0.9922475E-01
        1   -1    0    0  501    0  0.00000000000E+00  0.00000000000E+00  0.11125321879E+04  0.11125321879E+04  0.50400001928E-02 0. -1.
       -1   -1    0    0    0  501  0.00000000000E+00  0.00000000000E+00 -0.78711983260E+02  0.78711983422E+02  0.50400001928E-02 0.  1.
    10030    2    1    2    0    0  0.00000000000E+00  0.00000000000E+00  0.10338202047E+04  0.11912441714E+04  0.59184327336E+03 0.  0.
        2    1    3    3  502    0  0.24464723373E+03  0.16602000408E+03  0.49187523465E+03  0.57389559781E+03  0.25500000920E-02 0.  1.
       -2    1    3    3    0  502 -0.24464723373E+03 -0.16602000408E+03  0.54194497002E+03  0.61734857355E+03  0.25500000920E-02 0. -1.
</event>
<event>
 5   0  0.9028473E-03  0.5997501E+03  0.7818609E-02  0.9905925E-01
       -2   -1    0    0    0  501  0.00000000000E+00  0.00000000000E+00  0.74959612891E+02  0.74959612935E+02  0.25500000920E-02 0.  1.
        2   -1    0    0  501    0  0.00000000000E+00  0.00000000000E+00 -0.11996466829E+04  0.11996466829E+04  0.25500000920E-02 0. -1.
    10030    2    1    2    0    0  0.00000000000E+00  0.00000000000E+00 -0.11246870701E+04  0.12746062959E+04  0.59975011793E+03 0.  0.
        1    1    3    3  502    0 -0.84151425238E+02  0.36319914347E+02 -0.11691492502E+04  0.11727363590E+04  0.50400001928E-02 0. -1.
       -1    1    3    3    0  502  0.84151425238E+02 -0.36319914347E+02  0.44462180131E+02  0.10186993686E+03  0.50400001928E-02 0.  1.
</event>
<event>
 5   0  0.5765045E-03  0.6001362E+03  0.7818609E-02  0.9905123E-01
       -1   -1    0    0    0  501  0.00000000000E+00  0.00000000000E+00  0.42704838858E+03  0.42704838861E+03  0.50400001928E-02 0.  1.
        1   -1    0    0  501    0  0.00000000000E+00  0.00000000000E+00 -0.21084465286E+03  0.21084465292E+03  0.50400001928E-02 0. -1.
    10030    2    1    2    0    0  0.00000000000E+00  0.00000000000E+00  0.21620373572E+03  0.63789304153E+03  0.60013621545E+03 0.  0.
        1    1    3    3  502    0  0.22411534915E+03  0.60241956573E+02  0.31029054652E+03  0.38747516867E+03  0.50400001928E-02 0.  1.
       -1    1    3    3    0  502 -0.22411534915E+03 -0.60241956573E+02 -0.94086810802E+02  0.25041787286E+03  0.50400001928E-02 0. -1.
</event>
<event>
 5   0  0.5819446E-03  0.6009596E+03  0.7818609E-02  0.9903417E-01
        1   -1    0    0  501    0  0.00000000000E+00  0.00000000000E+00  0.12715741529E+04  0.12715741529E+04  0.50400001928E-02 0. -1.
       -1   -1    0    0    0  501  0.00000000000E+00  0.00000000000E+00 -0.71004999140E+02  0.71004999319E+02  0.50400001928E-02 0.  1.
    10030    2    1    2    0    0  0.00000000000E+00  0.00000000000E+00  0.12005691537E+04  0.13425791522E+04  0.60095963844E+03 0.  0.
        5    1    3    3  502    0  0.10230709650E+02  0.19521430544E+03  0.90582516883E+02  0.21550075366E+03  0.46999998093E+01 0.  1.
       -5    1    3    3    0  502 -0.10230709650E+02 -0.19521430544E+03  0.11099866369E+04  0.11270783985E+04  0.46999998093E+01 0. -1.
</event>
<event>
 5   0  0.9028473E-03  0.5993546E+03  0.7818609E-02  0.9906746E-01
       -2   -1    0    0    0  501  0.00000000000E+00  0.00000000000E+00  0.10621227590E+03  0.10621227593E+03  0.25500000920E-02 0. -1.
        2   -1    0    0  501    0  0.00000000000E+00  0.00000000000E+00 -0.84553765105E+03  0.84553765105E+03  0.25500000920E-02 0.  1.
    10030    2    1    2    0    0  0.00000000000E+00  0.00000000000E+00 -0.73932537515E+03  0.95174992699E+03  0.59935458051E+03 0.  0.
        1    1    3    3  502    0 -0.14690197758E+03  0.21665202070E+02  0.43685280952E+02  0.15478364189E+03  0.50400001928E-02 0. -1.
       -1    1    3    3    0  502  0.14690197758E+03 -0.21665202070E+02 -0.78301065610E+03  0.79696628510E+03  0.50400001928E-02 0.  1.
</event>
<event>
 5   0  0.5891927E-03  0.5986863E+03  0.7818609E-02  0.9908135E-01
       -1   -1    0    0    0  501  0.00000000000E+00  0.00000000000E+00  0.38720167201E+02  0.38720167529E+02  0.50400001928E-02 0. -1.
        1   -1    0    0  501    0  0.00000000000E+00  0.00000000000E+00 -0.23142024778E+04  0.23142024778E+04  0.50400001928E-02 0.  1.
    10030    2    1    2    0    0  0.00000000000E+00  0.00000000000E+00 -0.22754823106E+04  0.23529226453E+04  0.59868625262E+03 0.  0.
        4    1    3    3  502    0  0.20449181303E+03 -0.72362065043E+02 -0.32703041798E+03  0.39243302261E+03  0.12699999809E+01 0. -1.
       -4    1    3    3    0  502 -0.20449181303E+03  0.72362065043E+02 -0.19484518926E+04  0.19604896227E+04  0.12699999809E+01 0.  1.
</event>
<event>
 5   0  0.9391405E-03  0.6009234E+03  0.7818609E-02  0.9903492E-01
       -2   -1    0    0    0  501  0.00000000000E+00  0.00000000000E+00  0.61420793370E+02  0.61420793423E+02  0.25500000920E-02 0.  1.
        2   -1    0    0  501    0  0.00000000000E+00  0.00000000000E+00 -0.14698153092E+04  0.14698153092E+04  0.25500000920E-02 0. -1.
    10030    2    1    2    0    0  0.00000000000E+00  0.00000000000E+00 -0.14083945159E+04  0.15312361027E+04  0.60092336431E+03 0.  0.
        2    1    3    3  502    0 -0.19738883655E+03  0.90008047107E+02 -0.12339002120E+04  0.12528262188E+04  0.25500000920E-02 0. -1.
       -2    1    3    3    0  502  0.19738883655E+03 -0.90008047107E+02 -0.17449430384E+03  0.27840988384E+03  0.25500000920E-02 0.  1.
</event>
<event>
 5   0  0.5891927E-03  0.5998997E+03  0.7818609E-02  0.9905614E-01
       -1   -1    0    0    0  501  0.00000000000E+00  0.00000000000E+00  0.41069495976E+02  0.41069496286E+02  0.50400001928E-02 0.  1.
        1   -1    0    0  501    0  0.00000000000E+00  0.00000000000E+00 -0.21906750305E+04  0.21906750305E+04  0.50400001928E-02 0. -1.
    10030    2    1    2    0    0  0.00000000000E+00  0.00000000000E+00 -0.21496055345E+04  0.22317445268E+04  0.59989972396E+03 0.  0.
        4    1    3    3  502    0  0.28603934268E+02  0.28560451213E+03 -0.75090668010E+03  0.80389711874E+03  0.12699999809E+01 0.  1.
       -4    1    3    3    0  502 -0.28603934268E+02 -0.28560451213E+03 -0.13986988544E+04  0.14278474080E+04  0.12699999809E+01 0. -1.
</event>
<event>
 5   0  0.5765045E-03  0.6005123E+03  0.7818609E-02  0.9904344E-01
       -1   -1    0    0    0  501  0.00000000000E+00  0.00000000000E+00  0.86356024476E+02  0.86356024623E+02  0.50400001928E-02 0. -1.
        1   -1    0    0  501    0  0.00000000000E+00  0.00000000000E+00 -0.10439777537E+04  0.10439777538E+04  0.50400001928E-02 0.  1.
    10030    2    1    2    0    0  0.00000000000E+00  0.00000000000E+00 -0.95762172927E+03  0.11303337784E+04  0.60051234307E+03 0.  0.
        1    1    3    3  502    0  0.16537273426E+03  0.20690199796E+03 -0.21263464066E+03  0.33966169704E+03  0.50400001928E-02 0. -1.
       -1    1    3    3    0  502 -0.16537273426E+03 -0.20690199796E+03 -0.74498708861E+03  0.79067208134E+03  0.50400001928E-02 0.  1.
</event>
<event>
 5   0  0.9162342E-03  0.5994899E+03  0.7818609E-02  0.9906465E-01
       -2   -1    0    0    0  501  0.00000000000E+00  0.00000000000E+00  0.75640155157E+02  0.75640155200E+02  0.25500000920E-02 0. -1.
        2   -1    0    0  501    0  0.00000000000E+00  0.00000000000E+00 -0.11878218592E+04  0.11878218592E+04  0.25500000920E-02 0.  1.
    10030    2    1    2    0    0  0.00000000000E+00  0.00000000000E+00 -0.11121817040E+04  0.12634620144E+04  0.59948988234E+03 0.  0.
        5    1    3    3  502    0  0.15598710501E+03  0.62378328791E+02 -0.32999657007E+02  0.17127200645E+03  0.46999998093E+01 0. -1.
       -5    1    3    3    0  502 -0.15598710501E+03 -0.62378328791E+02 -0.10791820470E+04  0.10921900080E+04  0.46999998093E+01 0.  1.
</event>
<event>
 5   0  0.5790967E-03  0.6022575E+03  0.7818609E-02  0.9900734E-01
       -1   -1    0    0    0  501  0.00000000000E+00  0.00000000000E+00  0.19652591598E+03  0.19652591604E+03  0.50400001928E-02 0. -1.
        1   -1    0    0  501    0  0.00000000000E+00  0.00000000000E+00 -0.46140739024E+03  0.46140739027E+03  0.50400001928E-02 0.  1.
    10030    2    1    2    0    0  0.00000000000E+00  0.00000000000E+00 -0.26488147427E+03  0.65793330631E+03  0.60225745337E+03 0.  0.
        3    1    3    3  502    0  0.77012235832E+02 -0.21886583395E+03  0.77255724867E+02  0.24454364634E+03  0.10100000352E+00 0. -1.
       -3    1    3    3    0  502 -0.77012235832E+02  0.21886583395E+03 -0.34213719913E+03  0.41338965997E+03  0.10100000352E+00 0.  1.
</event>
<event>
 5   0  0.3806250E-03  0.6001040E+03  0.7818609E-02  0.9905190E-01
        3   -1    0    0  501    0  0.00000000000E+00  0.00000000000E+00  0.39777128477E+03  0.39777129759E+03  0.10100000352E+00 0.  1.
       -3   -1    0    0    0  501  0.00000000000E+00  0.00000000000E+00 -0.22633906763E+03  0.22633909016E+03  0.10100000352E+00 0. -1.
    10030    2    1    2    0    0  0.00000000000E+00  0.00000000000E+00  0.17143221714E+03  0.62411038775E+03  0.60010396685E+03 0.  0.
        3    1    3    3  502    0 -0.18227410157E+03 -0.78667078499E+02  0.31970268566E+03  0.37632721767E+03  0.10100000352E+00 0.  1.
       -3    1    3    3    0  502  0.18227410157E+03  0.78667078499E+02 -0.14827046851E+03  0.24778317008E+03  0.10100000352E+00 0. -1.
</event>
<event>
 5   0  0.5790967E-03  0.5996353E+03  0.7818609E-02  0.9906163E-01
        1   -1    0    0  501    0  0.00000000000E+00  0.00000000000E+00  0.26794312052E+03  0.26794312057E+03  0.50400001928E-02 0. -1.
       -1   -1    0    0    0  501  0.00000000000E+00  0.00000000000E+00 -0.33548402470E+03  0.33548402474E+03  0.50400001928E-02 0.  1.
    10030    2    1    2    0    0  0.00000000000E+00  0.00000000000E+00 -0.67540904184E+02  0.60342714531E+03  0.59963534416E+03 0.  0.
        3    1    3    3  502    0  0.11587624352E+02 -0.19080827552E+03 -0.26620407469E+03  0.32772959987E+03  0.10100000352E+00 0.  1.
       -3    1    3    3    0  502 -0.11587624352E+02  0.19080827552E+03  0.19866317051E+03  0.27569754544E+03  0.10100000352E+00 0. -1.
</event>
<event>
 5   0  0.9391405E-03  0.6015249E+03  0.7818609E-02  0.9902247E-01
       -2   -1    0    0    0  501  0.00000000000E+00  0.00000000000E+00  0.63019854256E+02  0.63019854307E+02  0.25500000920E-02 0. -1.
        2   -1    0    0  501    0  0.00000000000E+00  0.00000000000E+00 -0.14353898219E+04  0.14353898219E+04  0.25500000920E-02 0.  1.
    10030    2    1    2    0    0  0.00000000000E+00  0.00000000000E+00 -0.13723699676E+04  0.14984096762E+04  0.60152492023E+03 0.  0.
        2    1    3    3  502    0 -0.12500187178E+03 -0.26195576724E+02 -0.13644851517E+04  0.13704493444E+04  0.25500000920E-02 0.  1.
       -2    1    3    3    0  502  0.12500187178E+03  0.26195576724E+02 -0.78848158800E+01  0.12796033180E+03  0.25500000920E-02 0. -1.
</event>
<event>
 5   0  0.9303190E-03  0.6013532E+03  0.7818609E-02  0.9902603E-01
       -2   -1    0    0    0  501  0.00000000000E+00  0.00000000000E+00  0.81182076385E+02  0.81182076425E+02  0.25500000920E-02 0. -1.
        2   -1    0    0  501    0  0.00000000000E+00  0.00000000000E+00 -0.11136252083E+04  0.11136252083E+04  0.25500000920E-02 0.  1.
    10030    2    1    2    0    0  0.00000000000E+00  0.00000000000E+00 -0.10324431319E+04  0.11948072847E+04  0.60135316329E+03 0.  0.
        4    1    3    3  502    0  0.12869391747E+03  0.26993040231E+03 -0.45401501777E+03  0.54365043525E+03  0.12699999809E+01 0.  1.
       -4    1    3    3    0  502 -0.12869391747E+03 -0.26993040231E+03 -0.57842811414E+03  0.65115684948E+03  0.12699999809E+01 0. -1.
</event>
<event>
 5   0  0.5790967E-03  0.5992078E+03  0.7818609E-02  0.9907051E-01
        1   -1    0    0  501    0  0.00000000000E+00  0.00000000000E+00  0.11160119158E+04  0.11160119158E+04  0.50400001928E-02 0. -1.
       -1   -1    0    0    0  501  0.00000000000E+00  0.00000000000E+00 -0.80431490505E+02  0.80431490663E+02  0.50400001928E-02 0.  1.
    10030    2    1    2    0    0  0.00000000000E+00  0.00000000000E+00  0.10355804253E+04  0.11964434065E+04  0.59920781674E+03 0.  0.
        3    1    3    3  502    0  0.53252786368E+02 -0.14145540375E+02 -0.70227882699E+02  0.89263213464E+02  0.10100000352E+00 0.  1.
       -3    1    3    3    0  502 -0.53252786368E+02  0.14145540375E+02  0.11058083080E+04  0.11071801930E+04  0.10100000352E+00 0. -1.
</event>
<event>
 5   0  0.9391405E-03  0.6004759E+03  0.7818609E-02  0.9904419E-01
       -2   -1    0    0    0  501  0.00000000000E+00  0.00000000000E+00  0.30429818333E+03  0.30429818334E+03  0.25500000920E-02 0.  1.
        2   -1    0    0  501    0  0.00000000000E+00  0.00000000000E+00 -0.29623191376E+03  0.29623191378E+03  0.25500000920E-02 0. -1.
    10030    2    1    2    0    0  0.00000000000E+00  0.00000000000E+00  0.80662695679E+01  0.60053009712E+03  0.60047592195E+03 0.  0.
        2    1    3    3  502    0  0.42667946551E+02  0.28667415537E+03 -0.74333415340E+02  0.29921243567E+03  0.25500000920E-02 0. -1.
       -2    1    3    3    0  502 -0.42667946551E+02 -0.28667415537E+03  0.82399684908E+02  0.30131766144E+03  0.25500000920E-02 0.  1.
</event>
<event>
 5   0  0.9303190E-03  0.6017276E+03  0.7818609E-02  0.9901828E-01
        2   -1    0    0  501    0  0.00000000000E+00  0.00000000000E+00  0.80701652749E+03  0.80701652750E+03  0.25500000920E-02 0.  1.
       -2   -1    0    0    0  501  0.00000000000E+00  0.00000000000E+00 -0.11216501172E+03  0.11216501175E+03  0.25500000920E-02 0. -1.
    10030    2    1    2    0    0  0.00000000000E+00  0.00000000000E+00  0.69485151577E+03  0.91918153925E+03  0.60172757384E+03 0.  0.
        4    1    3    3  502    0 -0.88707996134E+02 -0.12314824926E+03  0.74424977107E+03  0.75956825534E+03  0.12699999809E+01 0.  1.
       -4    1    3    3    0  502  0.88707996134E+02  0.12314824926E+03 -0.49398255298E+02  0.15961328391E+03  0.12699999809E+01 0. -1.
</event>
<event>
 5   0  0.9822607E-03  0.5996549E+03  0.7818609E-02  0.9906122E-01
       -2   -1    0    0    0  501  0.00000000000E+00  0.00000000000E+00  0.95674547954E+02  0.95674547988E+02  0.25500000920E-02 0. -1.
        2   -1    0    0  501    0  0.00000000000E+00  0.00000000000E+00 -0.93960716796E+03  0.93960716796E+03  0.25500000920E-02 0.  1.
    10030    2    1    2    0    0  0.00000000000E+00  0.00000000000E+00 -0.84393262000E+03  0.10352817159E+04  0.59965487096E+03 0.  0.
        3    1    3    3  502    0  0.17072671545E+03  0.13154418077E+03 -0.62111701361E+02  0.22429747326E+03  0.10100000352E+00 0. -1.
       -3    1    3    3    0  502 -0.17072671545E+03 -0.13154418077E+03 -0.78182091864E+03  0.81098424269E+03  0.10100000352E+00 0.  1.
</event>
<event>
 5   0  0.5790967E-03  0.6006336E+03  0.7818609E-02  0.9904092E-01
        1   -1    0    0  501    0  0.00000000000E+00  0.00000000000E+00  0.17211345303E+04  0.17211345303E+04  0.50400001928E-02 0.  1.
       -1   -1    0    0    0  501  0.00000000000E+00  0.00000000000E+00 -0.52401581604E+02  0.52401581846E+02  0.50400001928E-02 0. -1.
    10030    2    1    2    0    0  0.00000000000E+00  0.00000000000E+00  0.16687329487E+04  0.17735361121E+04  0.60063357136E+03 0.  0.
        3    1    3    3  502    0  0.15905604926E+02 -0.12106726216E+03  0.24208101126E+02  0.12448418613E+03  0.10100000352E+00 0. -1.
       -3    1    3    3    0  502 -0.15905604926E+02  0.12106726216E+03  0.16445248476E+04  0.16490519260E+04  0.10100000352E+00 0.  1.
</event>
<event>
 5   0  0.9391405E-03  0.5995939E+03  0.7818609E-02  0.9906249E-01
        2   -1    0    0  501    0  0.00000000000E+00  0.00000000000E+00  0.39052818937E+03  0.39052818938E+03  0.25500000920E-02 0.  1.
       -2   -1    0    0    0  501  0.00000000000E+00  0.00000000000E+00 -0.23014524376E+03  0.23014524377E+03  0.25500000920E-02 0. -1.
    10030    2    1    2    0    0  0.00000000000E+00  0.00000000000E+00  0.16038294561E+03  0.62067343315E+03  0.59959388036E+03 0.  0.
        2    1    3    3  502    0 -0.11494453983E+03 -0.15443534223E+03 -0.15770467834E+03  0.24886399447E+03  0.25500000920E-02 0. -1.
       -2    1    3    3    0  502  0.11494453983E+03  0.15443534223E+03  0.31808762396E+03  0.37180943867E+03  0.25500000920E-02 0.  1.
</event>
<event>
 5   0  0.5819446E-03  0.5995658E+03  0.7818609E-02  0.9906307E-01
        1   -1    0    0  501    0  0.00000000000E+00  0.00000000000E+00  0.58531366639E+03  0.58531366641E+03  0.50400001928E-02 0.  1.
       -1   -1    0    0    0  501  0.00000000000E+00  0.00000000000E+00 -0.15354123135E+03  0.15354123144E+03  0.50400001928E-02 0. -1.
    10030    2    1    2    0    0  0.00000000000E+00  0.00000000000E+00  0.43177243504E+03  0.73885489785E+03  0.59956577989E+03 0.  0.
        5    1    3    3  502    0 -0.22328593690E+03  0.30302164999E+02 -0.27704043740E+02  0.22707803694E+03  0.46999998093E+01 0. -1.
       -5    1    3    3    0  502  0.22328593690E+03 -0.30302164999E+02  0.45947647878E+03  0.51177686091E+03  0.46999998093E+01 0.  1.
</event>
<event>
 5   0  0.6078658E-03  0.6005193E+03  0.7818609E-02  0.9904329E-01
       -1   -1    0    0    0  501  0.00000000000E+00  0.00000000000E+00  0.47656090310E+03  0.47656090313E+03  0.50400001928E-02 0.  1.
        1   -1    0    0  501    0  0.00000000000E+00  0.00000000000E+00 -0.18918010997E+03  0.18918011004E+03  0.50400001928E-02 0. -1.
    10030    2    1    2    0    0  0.00000000000E+00  0.00000000000E+00  0.28738079313E+03  0.66574101316E+03  0.60051925560E+03 0.  0.
        2    1    3    3  502    0  0.20159062666E+03 -0.12479583176E+03 -0.60555760818E+02  0.24470345432E+03  0.25500000920E-02 0. -1.
       -2    1    3    3    0  502 -0.20159062666E+03  0.12479583176E+03  0.34793655395E+03  0.42103755885E+03  0.25500000920E-02 0.  1.
</event>
<event>
 5   0  0.9391405E-03  0.5981678E+03  0.7818609E-02  0.9909215E-01
        2   -1    0    0  501    0  0.00000000000E+00  0.00000000000E+00  0.20711999145E+03  0.20711999147E+03  0.25500000920E-02 0. -1.
       -2   -1    0    0    0  501  0.00000000000E+00  0.00000000000E+00 -0.43188088077E+03  0.43188088077E+03  0.25500000920E-02 0.  1.
    10030    2    1    2    0    0  0.00000000000E+00  0.00000000000E+00 -0.22476088931E+03  0.63900087224E+03  0.59816775019E+03 0.  0.
        2    1    3    3  502    0 -0.12657510298E+02 -0.23003946123E+03 -0.31611599274E+03  0.39116197050E+03  0.25500000920E-02 0.  1.
       -2    1    3    3    0  502  0.12657510298E+02  0.23003946123E+03  0.91355103430E+02  0.24783890175E+03  0.25500000920E-02 0. -1.
</event>
<event>
 5   0  0.5790967E-03  0.6002224E+03  0.7818609E-02  0.9904945E-01
       -1   -1    0    0    0  501  0.00000000000E+00  0.00000000000E+00  0.43270864066E+03  0.43270864068E+03  0.50400001928E-02 0. -1.
        1   -1    0    0  501    0  0.00000000000E+00  0.00000000000E+00 -0.20814636680E+03  0.20814636686E+03  0.50400001928E-02 0.  1.
    10030    2    1    2    0    0  0.00000000000E+00  0.00000000000E+00  0.22456227386E+03  0.64085500754E+03  0.60022239699E+03 0.  0.
        3    1    3    3  502    0 -0.10929574509E+02 -0.26274617206E+03  0.26667939923E+03  0.37453026408E+03  0.10100000352E+00 0. -1.
       -3    1    3    3    0  502  0.10929574509E+02  0.26274617206E+03 -0.42117125374E+02  0.26632474347E+03  0.10100000352E+00 0.  1.
</event>
<event>
 5   0  0.5790967E-03  0.6001975E+03  0.7818609E-02  0.9904996E-01
        1   -1    0    0  501    0  0.00000000000E+00  0.00000000000E+00  0.45860117499E+02  0.45860117776E+02  0.50400001928E-02 0.  1.
       -1   -1    0    0    0  501  0.00000000000E+00  0.00000000000E+00 -0.19637819055E+04  0.19637819055E+04  0.50400001928E-02 0. -1.
    10030    2    1    2    0    0  0.00000000000E+00  0.00000000000E+00 -0.19179217880E+04  0.20096420233E+04  0.60019753153E+03 0.  0.
        3    1    3    3  502    0 -0.84870026326E+02 -0.31205241461E+02 -0.84017284417E+00  0.90429002839E+02  0.10100000352E+00 0.  1.
       -3    1    3    3    0  502  0.84870026326E+02  0.31205241461E+02 -0.19170816152E+04  0.19192130205E+04  0.10100000352E+00 0. -1.
</event>
<event>
 5   0  0.5790967E-03  0.5998592E+03  0.7818609E-02  0.9905698E-01
       -1   -1    0    0    0  501  0.00000000000E+00  0.00000000000E+00  0.50896893972E+03  0.50896893974E+03  0.50400001928E-02 0.  1.
        1   -1    0    0  501    0  0.00000000000E+00  0.00000000000E+00 -0.17674507653E+03  0.17674507660E+03  0.50400001928E-02 0. -1.
    10030    2    1    2    0    0  0.00000000000E+00  0.00000000000E+00  0.33222386319E+03  0.68571401634E+03  0.59985916425E+03 0.  0.
        3    1    3    3  502    0 -0.28844404651E+02 -0.15463686327E+03  0.45803030741E+03  0.48428951245E+03  0.10100000352E+00 0.  1.
       -3    1    3    3    0  502  0.28844404651E+02  0.15463686327E+03 -0.12580644421E+03  0.20142450389E+03  0.10100000352E+00 0. -1.
</event>
<event>
 5   0  0.3806250E-03  0.6006256E+03  0.7818609E-02  0.9904109E-01
       -4   -1    0    0    0  501  0.00000000000E+00  0.00000000000E+00  0.92519099757E+02  0.92527815925E+02  0.12699999809E+01 0.  1.
        4   -1    0    0  501    0  0.00000000000E+00  0.00000000000E+00 -0.97474678577E+03  0.97474761312E+03  0.12699999809E+01 0. -1.
    10030    2    1    2    0    0  0.00000000000E+00  0.00000000000E+00 -0.88222768602E+03  0.10672754290E+04  0.60062563337E+03 0.  0.
        3    1    3    3  502    0 -0.26926530600E+03  0.61552306114E+02 -0.23165128772E+03  0.36049246969E+03  0.10100000352E+00 0.  1.
       -3    1    3    3    0  502  0.26926530600E+03 -0.61552306114E+02 -0.65057639830E+03  0.70678295935E+03  0.10100000352E+00 0. -1.
</event>
<event>
 5   0  0.9162342E-03  0.5997433E+03  0.7818609E-02  0.9905939E-01
        2   -1    0    0  501    0  0.00000000000E+00  0.00000000000E+00  0.16847471739E+03  0.16847471741E+03  0.25500000920E-02 0.  1.
       -2   -1    0    0    0  501  0.00000000000E+00  0.00000000000E+00 -0.53374775017E+03  0.53374775018E+03  0.25500000920E-02 0. -1.
    10030    2    1    2    0    0  0.00000000000E+00  0.00000000000E+00 -0.36527303278E+03  0.70222246759E+03  0.59974328301E+03 0.  0.
        5    1    3    3  502    0  0.19276148260E+03 -0.15375952242E+03 -0.38237890304E+03  0.45501065416E+03  0.46999998093E+01 0. -1.
       -5    1    3    3    0  502 -0.19276148260E+03  0.15375952242E+03  0.17105870258E+02  0.24721181344E+03  0.46999998093E+01 0.  1.
</event>
<event>
 5   0  0.5891927E-03  0.6125333E+03  0.7818609E-02  0.9879739E-01
        1   -1    0    0  501    0  0.00000000000E+00  0.00000000000E+00  0.27371211824E+03  0.27371211828E+03  0.50400001928E-02 0. -1.
       -1   -1    0    0    0  501  0.00000000000E+00  0.00000000000E+00 -0.34269315543E+03  0.34269315547E+03  0.50400001928E-02 0.  1.
    10030    2    1    2    0    0  0.00000000000E+00  0.00000000000E+00 -0.68981037198E+02  0.61640527375E+03  0.61253332809E+03 0.  0.
        4    1    3    3  502    0 -0.20100840474E+03 -0.10974459932E+03 -0.23912142690E+03  0.33110259069E+03  0.12699999809E+01 0.  1.
       -4    1    3    3    0  502  0.20100840474E+03  0.10974459932E+03  0.17014038970E+03  0.28530268307E+03  0.12699999809E+01 0. -1.
</event>
<event>
 5   0  0.5790967E-03  0.5995643E+03  0.7818609E-02  0.9906310E-01
       -1   -1    0    0    0  501  0.00000000000E+00  0.00000000000E+00  0.31225756412E+03  0.31225756416E+03  0.50400001928E-02 0.  1.
        1   -1    0    0  501    0  0.00000000000E+00  0.00000000000E+00 -0.28780517789E+03  0.28780517794E+03  0.50400001928E-02 0. -1.
    10030    2    1    2    0    0  0.00000000000E+00  0.00000000000E+00  0.24452386229E+02  0.60006274210E+03  0.59956432121E+03 0.  0.
        3    1    3    3  502    0  0.65737429855E+02 -0.20003707242E+03 -0.20133604334E+03  0.29132877060E+03  0.10100000352E+00 0. -1.
       -3    1    3    3    0  502 -0.65737429855E+02  0.20003707242E+03  0.22578842957E+03  0.30873397150E+03  0.10100000352E+00 0.  1.
</event>
<event>
 5   0  0.3806250E-03  0.5990468E+03  0.7818609E-02  0.9907386E-01
       -3   -1    0    0    0  501  0.00000000000E+00  0.00000000000E+00  0.11003646523E+03  0.11003651159E+03  0.10100000352E+00 0. -1.
        3   -1    0    0  501    0  0.00000000000E+00  0.00000000000E+00 -0.81531363386E+03  0.81531364011E+03  0.10100000352E+00 0.  1.
    10030    2    1    2    0    0  0.00000000000E+00  0.00000000000E+00 -0.70527716862E+03  0.92535015170E+03  0.59904675833E+03 0.  0.
        5    1    3    3  502    0 -0.16908486206E+03 -0.16323999450E+03 -0.65908918280E+02  0.24413738323E+03  0.46999998093E+01 0. -1.
       -5    1    3    3    0  502  0.16908486206E+03  0.16323999450E+03 -0.63936825034E+03  0.68121276847E+03  0.46999998093E+01 0.  1.
</event>
<event>
 5   0  0.9391405E-03  0.5997287E+03  0.7818609E-02  0.9905969E-01
        2   -1    0    0  501    0  0.00000000000E+00  0.00000000000E+00  0.10338205766E+04  0.10338205766E+04  0.25500000920E-02 0. -1.
       -2   -1    0    0    0  501  0.00000000000E+00  0.00000000000E+00 -0.86977024162E+02  0.86977024199E+02  0.25500000920E-02 0.  1.
    10030    2    1    2    0    0  0.00000000000E+00  0.00000000000E+00  0.94684355242E+03  0.11207976008E+04  0.59972872965E+03 0.  0.
        2    1    3    3  502    0  0.98217924523E+02  0.14214424740E+03  0.15396009630E+02  0.17346119130E+03  0.25500000920E-02 0.  1.
       -2    1    3    3    0  502 -0.98217924523E+02 -0.14214424740E+03  0.93144754279E+03  0.94733640949E+03  0.25500000920E-02 0. -1.
</event>
<event>
 5   0  0.3806250E-03  0.6000418E+03  0.7818609E-02  0.9905319E-01
       -4   -1    0    0    0  501  0.00000000000E+00  0.00000000000E+00  0.55870788496E+03  0.55870932838E+03  0.12699999809E+01 0. -1.
        4   -1    0    0  501    0  0.00000000000E+00  0.00000000000E+00 -0.16110426194E+03  0.16110926763E+03  0.12699999809E+01 0.  1.
    10030    2    1    2    0    0  0.00000000000E+00  0.00000000000E+00  0.39760362302E+03  0.71981859601E+03  0.60004180698E+03 0.  0.
        4    1    3    3  502    0 -0.70905629093E+02 -0.21476006208E+03  0.43528538562E+03  0.49053488391E+03  0.12699999809E+01 0. -1.
       -4    1    3    3    0  502  0.70905629093E+02  0.21476006208E+03 -0.37681762603E+02  0.22928371210E+03  0.12699999809E+01 0.  1.
</event>
<event>
 5   0  0.9162342E-03  0.6001797E+03  0.7818609E-02  0.9905033E-01
        2   -1    0    0  501    0  0.00000000000E+00  0.00000000000E+00  0.36576268100E+03  0.36576268101E+03  0.25500000920E-02 0. -1.
       -2   -1    0    0    0  501  0.00000000000E+00  0.00000000000E+00 -0.24620857423E+03  0.24620857424E+03  0.25500000920E-02 0.  1.
    10030    2    1    2    0    0  0.00000000000E+00  0.00000000000E+00  0.11955410677E+03  0.61197125525E+03  0.60017966710E+03 0.  0.
        5    1    3    3  502    0 -0.13439733619E+03  0.37145393277E+02  0.33068358239E+03  0.35890966256E+03  0.46999998093E+01 0. -1.
       -5    1    3    3    0  502  0.13439733619E+03 -0.37145393277E+02 -0.21112947562E+03  0.25306159268E+03  0.46999998093E+01 0.  1.
</event>
<event>
 5   0  0.5765045E-03  0.5997652E+03  0.7818609E-02  0.9905893E-01
       -1   -1    0    0    0  501  0.00000000000E+00  0.00000000000E+00  0.16878393715E+03  0.16878393722E+03  0.50400001928E-02 0. -1.
        1   -1    0    0  501    0  0.00000000000E+00  0.00000000000E+00 -0.53280882117E+03  0.53280882119E+03  0.50400001928E-02 0.  1.
    10030    2    1    2    0    0  0.00000000000E+00  0.00000000000E+00 -0.36402488402E+03  0.70159275842E+03  0.59976518945E+03 0.  0.
        1    1    3    3  502    0  0.57194424962E+02  0.18928764818E+03  0.81716457242E+02  0.21395933120E+03  0.50400001928E-02 0. -1.
       -1    1    3    3    0  502 -0.57194424962E+02 -0.18928764818E+03 -0.44574134126E+03  0.48763342721E+03  0.50400001928E-02 0.  1.
</event>
<event>
 5   0  0.9822607E-03  0.5996550E+03  0.7818609E-02  0.9906122E-01
       -2   -1    0    0    0  501  0.00000000000E+00  0.00000000000E+00  0.13894729370E+04  0.13894729370E+04  0.25500000920E-02 0. -1.
        2   -1    0    0  501    0  0.00000000000E+00  0.00000000000E+00 -0.64698286325E+02  0.64698286375E+02  0.25500000920E-02 0.  1.
    10030    2    1    2    0    0  0.00000000000E+00  0.00000000000E+00  0.13247746506E+04  0.14541712233E+04  0.59965496063E+03 0.  0.
        3    1    3    3  502    0  0.16519460240E+02  0.53025037609E+02 -0.52115413141E+02  0.76161497280E+02  0.10100000352E+00 0.  1.
       -3    1    3    3    0  502 -0.16519460240E+02 -0.53025037609E+02  0.13768900638E+04  0.13780097260E+04  0.10100000352E+00 0. -1.
</event>
<event>
 5   0  0.9162342E-03  0.5998533E+03  0.7818609E-02  0.9905711E-01
        2   -1    0    0  501    0  0.00000000000E+00  0.00000000000E+00  0.27274064544E+03  0.27274064545E+03  0.25500000920E-02 0.  1.
       -2   -1    0    0    0  501  0.00000000000E+00  0.00000000000E+00 -0.32982242288E+03  0.32982242289E+03  0.25500000920E-02 0. -1.
    10030    2    1    2    0    0  0.00000000000E+00  0.00000000000E+00 -0.57081777438E+02  0.60256306835E+03  0.59985325040E+03 0.  0.
        5    1    3    3  502    0 -0.14448603240E+03  0.51121832477E+02  0.23039136223E+03  0.27675246179E+03  0.46999998093E+01 0.  1.
       -5    1    3    3    0  502  0.14448603240E+03 -0.51121832477E+02 -0.28747313967E+03  0.32581060656E+03  0.46999998093E+01 0. -1.
</event>
<event>
 5   0  0.5765045E-03  0.5997639E+03  0.7818609E-02  0.9905896E-01
        1   -1    0    0  501    0  0.00000000000E+00  0.00000000000E+00  0.19085479337E+03  0.19085479343E+03  0.50400001928E-02 0. -1.
       -1   -1    0    0    0  501  0.00000000000E+00  0.00000000000E+00 -0.47119165255E+03  0.47119165258E+03  0.50400001928E-02 0.  1.
    10030    2    1    2    0    0  0.00000000000E+00  0.00000000000E+00 -0.28033685918E+03  0.66204644601E+03  0.59976390527E+03 0.  0.
        1    1    3    3  502    0 -0.50838003070E+02 -0.64892628543E+02 -0.45843901589E+03  0.46579167780E+03  0.50400001928E-02 0.  1.
       -1    1    3    3    0  502  0.50838003070E+02  0.64892628543E+02  0.17810215671E+03  0.19625476821E+03  0.50400001928E-02 0. -1.
</event>
<event>
 5   0  0.9391405E-03  0.6007988E+03  0.7818609E-02  0.9903750E-01
        2   -1    0    0  501    0  0.00000000000E+00  0.00000000000E+00  0.58485111766E+03  0.58485111767E+03  0.25500000920E-02 0.  1.
       -2   -1    0    0    0  501  0.00000000000E+00  0.00000000000E+00 -0.15429533675E+03  0.15429533677E+03  0.25500000920E-02 0. -1.
    10030    2    1    2    0    0  0.00000000000E+00  0.00000000000E+00  0.43055578091E+03  0.73914645444E+03  0.60079880213E+03 0.  0.
        2    1    3    3  502    0 -0.15916795107E+03  0.21734896443E+03  0.37879217321E+03  0.46482095422E+03  0.25500000920E-02 0.  1.
       -2    1    3    3    0  502  0.15916795107E+03 -0.21734896443E+03  0.51763607696E+02  0.27432550022E+03  0.25500000920E-02 0. -1.
</event>
<event>
 5   0  0.9162342E-03  0.6001591E+03  0.7818609E-02  0.9905076E-01
       -2   -1    0    0    0  501  0.00000000000E+00  0.00000000000E+00  0.65041308162E+02  0.65041308212E+02  0.25500000920E-02 0.  1.
        2   -1    0    0  501    0  0.00000000000E+00  0.00000000000E+00 -0.13844698625E+04  0.13844698625E+04  0.25500000920E-02 0. -1.
    10030    2    1    2    0    0  0.00000000000E+00  0.00000000000E+00 -0.13194285544E+04  0.14495111707E+04  0.60015908227E+03 0.  0.
        5    1    3    3  502    0  0.29871838232E+02 -0.14318933267E+03 -0.12924357777E+04  0.13006951376E+04  0.46999998093E+01 0. -1.
       -5    1    3    3    0  502 -0.29871838232E+02  0.14318933267E+03 -0.26992776688E+02  0.14881603308E+03  0.46999998093E+01 0.  1.
</event>
<event>
 5   0  0.6078658E-03  0.5986695E+03  0.7818609E-02  0.9908170E-01
        1   -1    0    0  501    0  0.00000000000E+00  0.00000000000E+00  0.65631768180E+03  0.65631768182E+03  0.50400001928E-02 0. -1.
       -1   -1    0    0    0  501  0.00000000000E+00  0.00000000000E+00 -0.13652123689E+03  0.13652123699E+03  0.50400001928E-02 0.  1.
    10030    2    1    2    0    0  0.00000000000E+00  0.00000000000E+00  0.51979644490E+03  0.79283891881E+03  0.59866953074E+03 0.  0.
        2    1    3    3  502    0  0.83972495391E+02 -0.15020983449E+03  0.58425734283E+03  0.60907390111E+03  0.25500000920E-02 0. -1.
       -2    1    3    3    0  502 -0.83972495391E+02  0.15020983449E+03 -0.64460897923E+02  0.18376501770E+03  0.25500000920E-02 0.  1.
</event>
<event>
 5   0  0.9162342E-03  0.6056637E+03  0.7818609E-02  0.9893725E-01
        2   -1    0    0  501    0  0.00000000000E+00  0.00000000000E+00  0.37144879064E+03  0.37144879065E+03  0.25500000920E-02 0.  1.
       -2   -1    0    0    0  501  0.00000000000E+00  0.00000000000E+00 -0.24689039403E+03  0.24689039405E+03  0.25500000920E-02 0. -1.
    10030    2    1    2    0    0  0.00000000000E+00  0.00000000000E+00  0.12455839661E+03  0.61833918469E+03  0.60566372944E+03 0.  0.
        5    1    3    3  502    0 -0.92270438115E+02 -0.15466638934E+03  0.31078562811E+03  0.35922878835E+03  0.46999998093E+01 0.  1.
       -5    1    3    3    0  502  0.92270438115E+02  0.15466638934E+03 -0.18622723151E+03  0.25911039634E+03  0.46999998093E+01 0. -1.
</event>
<event>
 5   0  0.5891927E-03  0.5985526E+03  0.7818609E-02  0.9908414E-01
       -1   -1    0    0    0  501  0.00000000000E+00  0.00000000000E+00  0.23880075308E+03  0.23880075313E+03  0.50400001928E-02 0. -1.
        1   -1    0    0  501    0  0.00000000000E+00  0.00000000000E+00 -0.37506706863E+03  0.37506706867E+03  0.50400001928E-02 0.  1.
    10030    2    1    2    0    0  0.00000000000E+00  0.00000000000E+00 -0.13626631556E+03  0.61386782180E+03  0.59855258239E+03 0.  0.
        4    1    3    3  502    0 -0.24844294988E+03  0.23333863978E+02 -0.23757653022E+03  0.34454693318E+03  0.12699999809E+01 0.  1.
       -4    1    3    3    0  502  0.24844294988E+03 -0.23333863978E+02  0.10131021466E+03  0.26932088862E+03  0.12699999809E+01 0. -1.
</event>
<event>
 5   0  0.5819446E-03  0.5997778E+03  0.7818609E-02  0.9905867E-01
       -1   -1    0    0    0  501  0.00000000000E+00  0.00000000000E+00  0.20335650840E+03  0.20335650846E+03  0.50400001928E-02 0.  1.
        1   -1    0    0  501    0  0.00000000000E+00  0.00000000000E+00 -0.44224481498E+03  0.44224481501E+03  0.50400001928E-02 0. -1.
    10030    2    1    2    0    0  0.00000000000E+00  0.00000000000E+00 -0.23888830658E+03  0.64560132346E+03  0.59977783040E+03 0.  0.
        5    1    3    3  502    0  0.95251434656E+02  0.85196495448E+02  0.17253636402E+03  0.21476071696E+03  0.46999998093E+01 0.  1.
       -5    1    3    3    0  502 -0.95251434656E+02 -0.85196495448E+02 -0.41142467060E+03  0.43084060651E+03  0.46999998093E+01 0. -1.
</event>
<event>
 5   0  0.5819446E-03  0.6004660E+03  0.7818609E-02  0.9904440E-01
        1   -1    0    0  501    0  0.00000000000E+00  0.00000000000E+00  0.22266944836E+03  0.22266944841E+03  0.50400001928E-02 0.  1.
       -1   -1    0    0    0  501  0.00000000000E+00  0.00000000000E+00 -0.40481467776E+03  0.40481467779E+03  0.50400001928E-02 0. -1.
    10030    2    1    2    0    0  0.00000000000E+00  0.00000000000E+00 -0.18214522940E+03  0.62748412620E+03  0.60046602239E+03 0.  0.
        5    1    3    3  502    0  0.11078496919E+03 -0.10376155544E+03  0.17957509890E+03  0.23517881692E+03  0.46999998093E+01 0. -1.
       -5    1    3    3    0  502 -0.11078496919E+03  0.10376155544E+03 -0.36172032830E+03  0.39230530928E+03  0.46999998093E+01 0.  1.
</event>
<event>
 5   0  0.5819446E-03  0.6037843E+03  0.7818609E-02  0.9897586E-01
        1   -1    0    0  501    0  0.00000000000E+00  0.00000000000E+00  0.37672973868E+03  0.37672973872E+03  0.50400001928E-02 0.  1.
       -1   -1    0    0    0  501  0.00000000000E+00  0.00000000000E+00 -0.24192106015E+03  0.24192106020E+03  0.50400001928E-02 0. -1.
    10030    2    1    2    0    0  0.00000000000E+00  0.00000000000E+00  0.13480867853E+03  0.61865079892E+03  0.60378425882E+03 0.  0.
        5    1    3    3  502    0 -0.18297262280E+03 -0.21871417791E+03 -0.34037899580E+02  0.28722036995E+03  0.46999998093E+01 0. -1.
       -5    1    3    3    0  502  0.18297262280E+03  0.21871417791E+03  0.16884657811E+03  0.33143042897E+03  0.46999998093E+01 0.  1.
</event>
<event>
 5   0  0.9822607E-03  0.5993139E+03  0.7818609E-02  0.9906831E-01
       -2   -1    0    0    0  501  0.00000000000E+00  0.00000000000E+00  0.10721621295E+03  0.10721621298E+03  0.25500000920E-02 0. -1.
        2   -1    0    0  501    0  0.00000000000E+00  0.00000000000E+00 -0.83750660823E+03  0.83750660824E+03  0.25500000920E-02 0.  1.
    10030    2    1    2    0    0  0.00000000000E+00  0.00000000000E+00 -0.73029039528E+03  0.94472282122E+03  0.59931389729E+03 0.  0.
        3    1    3    3  502    0 -0.67999395007E+02  0.27785032283E+03 -0.22442152854E+03  0.36357908671E+03  0.10100000352E+00 0. -1.
       -3    1    3    3    0  502  0.67999395007E+02 -0.27785032283E+03 -0.50586886674E+03  0.58114373451E+03  0.10100000352E+00 0.  1.
</event>
<event>
 5   0  0.5790967E-03  0.5994447E+03  0.7818609E-02  0.9906559E-01
       -1   -1    0    0    0  501  0.00000000000E+00  0.00000000000E+00  0.40668849245E+03  0.40668849248E+03  0.50400001928E-02 0.  1.
        1   -1    0    0  501    0  0.00000000000E+00  0.00000000000E+00 -0.22089015893E+03  0.22089015899E+03  0.50400001928E-02 0. -1.
    10030    2    1    2    0    0  0.00000000000E+00  0.00000000000E+00  0.18579833352E+03  0.62757865147E+03  0.59944469556E+03 0.  0.
        3    1    3    3  502    0  0.12973639966E+03  0.18573866029E+03  0.29833057580E+03  0.37460849695E+03  0.10100000352E+00 0.  1.
       -3    1    3    3    0  502 -0.12973639966E+03 -0.18573866029E+03 -0.11253224228E+03  0.25297015452E+03  0.10100000352E+00 0. -1.
</event>
<event>
 5   0  0.5819446E-03  0.5983821E+03  0.7818609E-02  0.9908768E-01
       -1   -1    0    0    0  501  0.00000000000E+00  0.00000000000E+00  0.78969451917E+02  0.78969452078E+02  0.50400001928E-02 0. -1.
        1   -1    0    0  501    0  0.00000000000E+00  0.00000000000E+00 -0.11335433167E+04  0.11335433167E+04  0.50400001928E-02 0.  1.
    10030    2    1    2    0    0  0.00000000000E+00  0.00000000000E+00 -0.10545738648E+04  0.12125127688E+04  0.59838213393E+03 0.  0.
        5    1    3    3  502    0 -0.31534487078E+02  0.75228727261E+02  0.55924764289E+02  0.99012395888E+02  0.46999998093E+01 0. -1.
       -5    1    3    3    0  502  0.31534487078E+02 -0.75228727261E+02 -0.11104986291E+04  0.11135003729E+04  0.46999998093E+01 0.  1.
</event>
<event>
 5   0  0.9822607E-03  0.5998059E+03  0.7818609E-02  0.9905809E-01
        2   -1    0    0  501    0  0.00000000000E+00  0.00000000000E+00  0.22363426896E+03  0.22363426898E+03  0.25500000920E-02 0.  1.
       -2   -1    0    0    0  501  0.00000000000E+00  0.00000000000E+00 -0.40218245331E+03  0.40218245331E+03  0.25500000920E-02 0. -1.
    10030    2    1    2    0    0  0.00000000000E+00  0.00000000000E+00 -0.17854818434E+03  0.62581672229E+03  0.59980589841E+03 0.  0.
        3    1    3    3  502    0 -0.15365958564E+03 -0.25311349069E+03 -0.13891966469E+03  0.32707245507E+03  0.10100000352E+00 0. -1.
       -3    1    3    3    0  502  0.15365958564E+03  0.25311349069E+03 -0.39628519653E+02  0.29874426722E+03  0.10100000352E+00 0.  1.
</event>
<event>
 5   0  0.9028473E-03  0.5982350E+03  0.7818609E-02  0.9909075E-01
       -2   -1    0    0    0  501  0.00000000000E+00  0.00000000000E+00  0.51984962738E+02  0.51984962801E+02  0.25500000920E-02 0. -1.
        2   -1    0    0  501    0  0.00000000000E+00  0.00000000000E+00 -0.17210990402E+04  0.17210990402E+04  0.25500000920E-02 0.  1.
    10030    2    1    2    0    0  0.00000000000E+00  0.00000000000E+00 -0.16691140775E+04  0.17730840030E+04  0.59823496899E+03 0.  0.
        1    1    3    3  502    0 -0.20908990153E+03 -0.11497562946E+03 -0.13691478501E+04  0.13897855294E+04  0.50400001928E-02 0.  1.
       -1    1    3    3    0  502  0.20908990153E+03  0.11497562946E+03 -0.29996622743E+03  0.38329847366E+03  0.50400001928E-02 0. -1.
</event>
<event>
 5   0  0.9303190E-03  0.5987198E+03  0.7818609E-02  0.9908066E-01
       -2   -1    0    0    0  501  0.00000000000E+00  0.00000000000E+00  0.18559596740E+03  0.18559596742E+03  0.25500000920E-02 0.  1.
        2   -1    0    0  501    0  0.00000000000E+00  0.00000000000E+00 -0.48285716101E+03  0.48285716102E+03  0.25500000920E-02 0. -1.
    10030    2    1    2    0    0  0.00000000000E+00  0.00000000000E+00 -0.29726119361E+03  0.66845312844E+03  0.59871977393E+03 0.  0.
        4    1    3    3  502    0  0.23008243868E+03  0.16659647748E+03 -0.43170407463E+02  0.28732840423E+03  0.12699999809E+01 0. -1.
       -4    1    3    3    0  502 -0.23008243868E+03 -0.16659647748E+03 -0.25409078614E+03  0.38112472420E+03  0.12699999809E+01 0.  1.
</event>
<event>
 5   0  0.3806250E-03  0.5996144E+03  0.7818609E-02  0.9906206E-01
        3   -1    0    0  501    0  0.00000000000E+00  0.00000000000E+00  0.70436023014E+03  0.70436023738E+03  0.10100000352E+00 0. -1.
       -3   -1    0    0    0  501  0.00000000000E+00  0.00000000000E+00 -0.12761132307E+03  0.12761136304E+03  0.10100000352E+00 0.  1.
    10030    2    1    2    0    0  0.00000000000E+00  0.00000000000E+00  0.57674890706E+03  0.83197160042E+03  0.59961441119E+03 0.  0.
        5    1    3    3  502    0  0.27376328344E+03 -0.10441478850E+03  0.20047273296E+03  0.35504956003E+03  0.46999998093E+01 0.  1.
       -5    1    3    3    0  502 -0.27376328344E+03  0.10441478850E+03  0.37627617410E+03  0.47692204039E+03  0.46999998093E+01 0. -1.
</event>
<event>
 5   0  0.6078658E-03  0.6002661E+03  0.7818609E-02  0.9904854E-01
       -1   -1    0    0    0  501  0.00000000000E+00  0.00000000000E+00  0.11366414289E+03  0.11366414300E+03  0.50400001928E-02 0. -1.
        1   -1    0    0  501    0  0.00000000000E+00  0.00000000000E+00 -0.79250879857E+03  0.79250879859E+03  0.50400001928E-02 0.  1.
    10030    2    1    2    0    0  0.00000000000E+00  0.00000000000E+00 -0.67884465568E+03  0.90617294159E+03  0.60026605228E+03 0.  0.
        2    1    3    3  502    0 -0.21893278985E+03 -0.79898127506E+01 -0.29731722599E+02  0.22108681308E+03  0.25500000920E-02 0. -1.
       -2    1    3    3    0  502  0.21893278985E+03  0.79898127506E+01 -0.64911293308E+03  0.68508612852E+03  0.25500000920E-02 0.  1.
</event>
<event>
 5   0  0.9162342E-03  0.6054243E+03  0.7818609E-02  0.9894216E-01
        2   -1    0    0  501    0  0.00000000000E+00  0.00000000000E+00  0.18462473479E+04  0.18462473479E+04  0.25500000920E-02 0. -1.
       -2   -1    0    0    0  501  0.00000000000E+00  0.00000000000E+00 -0.49632926620E+02  0.49632926685E+02  0.25500000920E-02 0.  1.
    10030    2    1    2    0    0  0.00000000000E+00  0.00000000000E+00  0.17966144212E+04  0.18958802746E+04  0.60542434441E+03 0.  0.
        5    1    3    3  502    0 -0.27818738086E+02  0.13319920071E+03  0.51665239334E+02  0.14562725093E+03  0.46999998093E+01 0.  1.
       -5    1    3    3    0  502  0.27818738086E+02 -0.13319920071E+03  0.17449491819E+04  0.17502530236E+04  0.46999998093E+01 0. -1.
</event>
<event>
 5   0  0.5891927E-03  0.5996700E+03  0.7818609E-02  0.9906091E-01
       -1   -1    0    0    0  501  0.00000000000E+00  0.00000000000E+00  0.30904621077E+03  0.30904621082E+03  0.50400001928E-02 0. -1.
        1   -1    0    0  501    0  0.00000000000E+00  0.00000000000E+00 -0.29089831987E+03  0.29089831991E+03  0.50400001928E-02 0.  1.
    10030    2    1    2    0    0  0.00000000000E+00  0.00000000000E+00  0.18147890907E+02  0.59994453073E+03  0.59966998758E+03 0.  0.
        4    1    3    3  502    0  0.58868322072E+02  0.17369494889E+03 -0.22823497930E+03  0.29279384093E+03  0.12699999809E+01 0.  1.
       -4    1    3    3    0  502 -0.58868322072E+02 -0.17369494889E+03  0.24638287020E+03  0.30715068980E+03  0.12699999809E+01 0. -1.
</event>
<event>
 5   0  0.9028473E-03  0.5993603E+03  0.7818609E-02  0.9906734E-01
       -2   -1    0    0    0  501  0.00000000000E+00  0.00000000000E+00  0.99486866075E+02  0.99486866108E+02  0.25500000920E-02 0.  1.
        2   -1    0    0  501    0  0.00000000000E+00  0.00000000000E+00 -0.90271400978E+03  0.90271400979E+03  0.25500000920E-02 0. -1.
    10030    2    1    2    0    0  0.00000000000E+00  0.00000000000E+00 -0.80322714371E+03  0.10022008759E+04  0.59936028502E+03 0.  0.
        1    1    3    3  502    0  0.13799335199E+03  0.72428803852E+02 -0.82962371539E+03  0.84413482690E+03  0.50400001928E-02 0. -1.
       -1    1    3    3    0  502 -0.13799335199E+03 -0.72428803852E+02  0.26396571688E+02  0.15806604899E+03  0.50400001928E-02 0.  1.
</event>
<event>
 5   0  0.9162342E-03  0.5954404E+03  0.7818609E-02  0.9914911E-01
        2   -1    0    0  501    0  0.00000000000E+00  0.00000000000E+00  0.66945710515E+03  0.66945710515E+03  0.25500000920E-02 0. -1.
       -2   -1    0    0    0  501  0.00000000000E+00  0.00000000000E+00 -0.13240180220E+03  0.13240180223E+03  0.25500000920E-02 0.  1.
    10030    2    1    2    0    0  0.00000000000E+00  0.00000000000E+00  0.53705530295E+03  0.80185890738E+03  0.59544043272E+03 0.  0.
        5    1    3    3  502    0  0.86528892160E+01  0.50537625928E+02 -0.12636067928E+03  0.13644792190E+03  0.46999998093E+01 0.  1.
       -5    1    3    3    0  502 -0.86528892160E+01 -0.50537625928E+02  0.66341598222E+03  0.66541098548E+03  0.46999998093E+01 0. -1.
</event>
<event>
 5   0  0.9391405E-03  0.6008028E+03  0.7818609E-02  0.9903742E-01
        2   -1    0    0  501    0  0.00000000000E+00  0.00000000000E+00  0.29679783696E+03  0.29679783697E+03  0.25500000920E-02 0. -1.
       -2   -1    0    0    0  501  0.00000000000E+00  0.00000000000E+00 -0.30404875411E+03  0.30404875412E+03  0.25500000920E-02 0.  1.
    10030    2    1    2    0    0  0.00000000000E+00  0.00000000000E+00 -0.72509171517E+01  0.60084659109E+03  0.60080283806E+03 0.  0.
        2    1    3    3  502    0 -0.57113214737E+02 -0.24169154398E+03 -0.17264750246E+03  0.30246302558E+03  0.25500000920E-02 0.  1.
       -2    1    3    3    0  502  0.57113214737E+02  0.24169154398E+03  0.16539658531E+03  0.29838356551E+03  0.25500000920E-02 0. -1.
</event>
<event>
 5   0  0.5765045E-03  0.6009427E+03  0.7818609E-02  0.9903452E-01
        1   -1    0    0  501    0  0.00000000000E+00  0.00000000000E+00  0.35860782527E+03  0.35860782531E+03  0.50400001928E-02 0. -1.
       -1   -1    0    0    0  501  0.00000000000E+00  0.00000000000E+00 -0.25175976681E+03  0.25175976686E+03  0.50400001928E-02 0.  1.
    10030    2    1    2    0    0  0.00000000000E+00  0.00000000000E+00  0.10684805847E+03  0.61036759216E+03  0.60094266779E+03 0.  0.
        1    1    3    3  502    0  0.13681911616E+03  0.16812117451E+03  0.26477121502E+03  0.34218123296E+03  0.50400001928E-02 0. -1.
       -1    1    3    3    0  502 -0.13681911616E+03 -0.16812117451E+03 -0.15792315655E+03  0.26818635920E+03  0.50400001928E-02 0.  1.
</event>
<event>
 5   0  0.5891927E-03  0.6005268E+03  0.7818609E-02  0.9904314E-01
       -1   -1    0    0    0  501  0.00000000000E+00  0.00000000000E+00  0.15905831237E+03  0.15905831245E+03  0.50400001928E-02 0.  1.
        1   -1    0    0  501    0  0.00000000000E+00  0.00000000000E+00 -0.56682427007E+03  0.56682427009E+03  0.50400001928E-02 0. -1.
    10030    2    1    2    0    0  0.00000000000E+00  0.00000000000E+00 -0.40776595770E+03  0.72588258254E+03  0.60052680821E+03 0.  0.
        4    1    3    3  502    0 -0.10124810904E+03 -0.61325595006E+02 -0.53742704542E+03  0.55031032176E+03  0.12699999809E+01 0. -1.
       -4    1    3    3    0  502  0.10124810904E+03  0.61325595006E+02  0.12966108772E+03  0.17557226078E+03  0.12699999809E+01 0.  1.
</event>
<event>
 5   0  0.9391405E-03  0.6037687E+03  0.7818609E-02  0.9897618E-01
       -2   -1    0    0    0  501  0.00000000000E+00  0.00000000000E+00  0.57478371049E+02  0.57478371106E+02  0.25500000920E-02 0. -1.
        2   -1    0    0  501    0  0.00000000000E+00  0.00000000000E+00 -0.15855381443E+04  0.15855381443E+04  0.25500000920E-02 0.  1.
    10030    2    1    2    0    0  0.00000000000E+00  0.00000000000E+00 -0.15280597732E+04  0.16430165154E+04  0.60376866370E+03 0.  0.
        2    1    3    3  502    0 -0.85930096946E+02  0.28500086856E+03 -0.90076307548E+03  0.94867465171E+03  0.25500000920E-02 0. -1.
       -2    1    3    3    0  502  0.85930096946E+02 -0.28500086856E+03 -0.62729669772E+03  0.69434186365E+03  0.25500000920E-02 0.  1.
</event>
<event>
 5   0  0.9162342E-03  0.5999663E+03  0.7818609E-02  0.9905476E-01
        2   -1    0    0  501    0  0.00000000000E+00  0.00000000000E+00  0.10069215100E+04  0.10069215101E+04  0.25500000920E-02 0. -1.
       -2   -1    0    0    0  501  0.00000000000E+00  0.00000000000E+00 -0.89371318476E+02  0.89371318512E+02  0.25500000920E-02 0.  1.
    10030    2    1    2    0    0  0.00000000000E+00  0.00000000000E+00  0.91755019157E+03  0.10962928286E+04  0.59996634231E+03 0.  0.
        5    1    3    3  502    0 -0.18653658542E+03 -0.10146460848E+03  0.71686068093E+02  0.22416946008E+03  0.46999998093E+01 0.  1.
       -5    1    3    3    0  502  0.18653658542E+03  0.10146460848E+03  0.84586412348E+03  0.87212336849E+03  0.46999998093E+01 0. -1.
</event>
<event>
 5   0  0.5891927E-03  0.6016049E+03  0.7818609E-02  0.9902082E-01
        1   -1    0    0  501    0  0.00000000000E+00  0.00000000000E+00  0.67173821599E+03  0.67173821601E+03  0.50400001928E-02 0. -1.
       -1   -1    0    0    0  501  0.00000000000E+00  0.00000000000E+00 -0.13469846801E+03  0.13469846810E+03  0.50400001928E-02 0.  1.
    10030    2    1    2    0    0  0.00000000000E+00  0.00000000000E+00  0.53703974798E+03  0.80643668412E+03  0.60160488244E+03 0.  0.
        4    1    3    3  502    0 -0.20135463265E+03  0.22099108748E+03  0.22406644181E+03  0.37361495163E+03  0.12699999809E+01 0.  1.
       -4    1    3    3    0  502  0.20135463265E+03 -0.22099108748E+03  0.31297330618E+03  0.43282173249E+03  0.12699999809E+01 0. -1.
</event>
<event>
 5   0  0.6078658E-03  0.6001308E+03  0.7818609E-02  0.9905135E-01
       -1   -1    0    0    0  501  0.00000000000E+00  0.00000000000E+00  0.42067030946E+03  0.42067030949E+03  0.50400001928E-02 0.  1.
        1   -1    0    0  501    0  0.00000000000E+00  0.00000000000E+00 -0.21403756890E+03  0.21403756895E+03  0.50400001928E-02 0. -1.
    10030    2    1    2    0    0  0.00000000000E+00  0.00000000000E+00  0.20663274056E+03  0.63470787844E+03  0.60013082031E+03 0.  0.
        2    1    3    3  502    0 -0.20559700208E+03  0.72990539622E+02 -0.11456662758E+03  0.24642089664E+03  0.25500000920E-02 0. -1.
       -2    1    3    3    0  502  0.20559700208E+03 -0.72990539622E+02  0.32119936814E+03  0.38828698180E+03  0.25500000920E-02 0.  1.
</event>
<event>
 5   0  0.3806250E-03  0.5963774E+03  0.7818609E-02  0.9912950E-01
       -3   -1    0    0    0  501  0.00000000000E+00  0.00000000000E+00  0.23030403921E+03  0.23030406135E+03  0.10100000352E+00 0.  1.
        3   -1    0    0  501    0  0.00000000000E+00  0.00000000000E+00 -0.38608313045E+03  0.38608314366E+03  0.10100000352E+00 0. -1.
    10030    2    1    2    0    0  0.00000000000E+00  0.00000000000E+00 -0.15577909125E+03  0.61638720502E+03  0.59637744863E+03 0.  0.
        4    1    3    3  502    0 -0.29419690129E+03  0.44056838342E+02 -0.56655627579E+02  0.30282716980E+03  0.12699999809E+01 0.  1.
       -4    1    3    3    0  502  0.29419690129E+03 -0.44056838342E+02 -0.99123463669E+02  0.31356003522E+03  0.12699999809E+01 0. -1.
</event>
<event>
 5   0  0.9303190E-03  0.5992042E+03  0.7818609E-02  0.9907058E-01
        2   -1    0    0  501    0  0.00000000000E+00  0.00000000000E+00  0.25843073654E+03  0.25843073655E+03  0.25500000920E-02 0.  1.
       -2   -1    0    0    0  501  0.00000000000E+00  0.00000000000E+00 -0.34733261489E+03  0.34733261490E+03  0.25500000920E-02 0. -1.
    10030    2    1    2    0    0  0.00000000000E+00  0.00000000000E+00 -0.88901878348E+02  0.60576335145E+03  0.59920421726E+03 0.  0.
        4    1    3    3  502    0 -0.54204813836E+02  0.24796804093E+03 -0.20535823130E+03  0.32649644290E+03  0.12699999809E+01 0. -1.
       -4    1    3    3    0  502  0.54204813836E+02 -0.24796804093E+03  0.11645635295E+03  0.27926690854E+03  0.12699999809E+01 0.  1.
</event>
<event>
 5   0  0.5819446E-03  0.5998642E+03  0.7818609E-02  0.9905688E-01
       -1   -1    0    0    0  501  0.00000000000E+00  0.00000000000E+00  0.18255808488E+03  0.18255808495E+03  0.50400001928E-02 0. -1.
        1   -1    0    0  501    0  0.00000000000E+00  0.00000000000E+00 -0.49277058324E+03  0.49277058326E+03  0.50400001928E-02 0.  1.
    10030    2    1    2    0    0  0.00000000000E+00  0.00000000000E+00 -0.31021249836E+03  0.67532866821E+03  0.59986416460E+03 0.  0.
        5    1    3    3  502    0  0.90896001214E+01 -0.96756571874E+01  0.18218566277E+03  0.18272915719E+03  0.46999998093E+01 0. -1.
       -5    1    3    3    0  502 -0.90896001214E+01  0.96756571874E+01 -0.49239816113E+03  0.49259951102E+03  0.46999998093E+01 0.  1.
</event>
<event>
 5   0  0.9303190E-03  0.6000611E+03  0.7818609E-02  0.9905279E-01
        2   -1    0    0  501    0  0.00000000000E+00  0.00000000000E+00  0.39824707672E+03  0.39824707673E+03  0.25500000920E-02 0.  1.
       -2   -1    0    0    0  501  0.00000000000E+00  0.00000000000E+00 -0.22603642573E+03  0.22603642574E+03  0.25500000920E-02 0. -1.
    10030    2    1    2    0    0  0.00000000000E+00  0.00000000000E+00  0.17221065099E+03  0.62428350247E+03  0.60006114950E+03 0.  0.
        4    1    3    3  502    0 -0.11204551974E+03  0.91036262678E+01  0.37550614239E+03  0.39197391543E+03  0.12699999809E+01 0.  1.
       -4    1    3    3    0  502  0.11204551974E+03 -0.91036262678E+01 -0.20329549140E+03  0.23230958704E+03  0.12699999809E+01 0. -1.
</event>
<event>
 5   0  0.9303190E-03  0.6006562E+03  0.7818609E-02  0.9904046E-01
       -2   -1    0    0    0  501  0.00000000000E+00  0.00000000000E+00  0.18356952563E+03  0.18356952565E+03  0.25500000920E-02 0. -1.
        2   -1    0    0  501    0  0.00000000000E+00  0.00000000000E+00 -0.49135039195E+03  0.49135039195E+03  0.25500000920E-02 0.  1.
    10030    2    1    2    0    0  0.00000000000E+00  0.00000000000E+00 -0.30778086631E+03  0.67491991761E+03  0.60065616913E+03 0.  0.
        4    1    3    3  502    0  0.36305345146E+02 -0.29279231897E+03 -0.21695369543E+03  0.36621843072E+03  0.12699999809E+01 0.  1.
       -4    1    3    3    0  502 -0.36305345146E+02  0.29279231897E+03 -0.90827170889E+02  0.30870148689E+03  0.12699999809E+01 0. -1.
</event>
<event>
 5   0  0.9822607E-03  0.5996339E+03  0.7818609E-02  0.9906166E-01
       -2   -1    0    0    0  501  0.00000000000E+00  0.00000000000E+00  0.17836989229E+03  0.17836989231E+03  0.25500000920E-02 0. -1.
        2   -1    0    0  501    0  0.00000000000E+00  0.00000000000E+00 -0.50395391277E+03  0.50395391278E+03  0.25500000920E-02 0.  1.
    10030    2    1    2    0    0  0.00000000000E+00  0.00000000000E+00 -0.32558402048E+03  0.68232380508E+03  0.59963390547E+03 0.  0.
        3    1    3    3  502    0  0.16017131790E+03  0.52782195882E+02 -0.44486604294E+03  0.47575899113E+03  0.10100000352E+00 0.  1.
       -3    1    3    3    0  502 -0.16017131790E+03 -0.52782195882E+02  0.11928202245E+03  0.20656481395E+03  0.10100000352E+00 0. -1.
</event>
<event>
 5   0  0.6078658E-03  0.5990021E+03  0.7818609E-02  0.9907478E-01
       -1   -1    0    0    0  501  0.00000000000E+00  0.00000000000E+00  0.86496621769E+03  0.86496621771E+03  0.50400001928E-02 0. -1.
        1   -1    0    0  501    0  0.00000000000E+00  0.00000000000E+00 -0.10370449645E+03  0.10370449657E+03  0.50400001928E-02 0.  1.
    10030    2    1    2    0    0  0.00000000000E+00  0.00000000000E+00  0.76126172124E+03  0.96867071427E+03  0.59900212392E+03 0.  0.
        2    1    3    3  502    0  0.24725800709E+03 -0.13527711570E+03  0.54446937001E+03  0.61309323515E+03  0.25500000920E-02 0. -1.
       -2    1    3    3    0  502 -0.24725800709E+03  0.13527711570E+03  0.21679235123E+03  0.35557747912E+03  0.25500000920E-02 0.  1.
</event>
<event>
 5   0  0.5891927E-03  0.6001488E+03  0.7818609E-02  0.9905097E-01
       -1   -1    0    0    0  501  0.00000000000E+00  0.00000000000E+00  0.39860373147E+03  0.39860373150E+03  0.50400001928E-02 0.  1.
        1   -1    0    0  501    0  0.00000000000E+00  0.00000000000E+00 -0.22590015348E+03  0.22590015353E+03  0.50400001928E-02 0. -1.
    10030    2    1    2    0    0  0.00000000000E+00  0.00000000000E+00  0.17270357799E+03  0.62450388503E+03  0.60014879536E+03 0.  0.
        4    1    3    3  502    0 -0.15990317655E+03 -0.16713192379E+03  0.28526607569E+03  0.36726074206E+03  0.12699999809E+01 0.  1.
       -4    1    3    3    0  502  0.15990317655E+03  0.16713192379E+03 -0.11256249769E+03  0.25724314297E+03  0.12699999809E+01 0. -1.
</event>
<event>
 5   0  0.5819446E-03  0.5989381E+03  0.7818609E-02  0.9907612E-01
       -1   -1    0    0    0  501  0.00000000000E+00  0.00000000000E+00  0.60144737639E+02  0.60144737850E+02  0.50400001928E-02 0.  1.
        1   -1    0    0  501    0  0.00000000000E+00  0.00000000000E+00 -0.14910983557E+04  0.14910983557E+04  0.50400001928E-02 0. -1.
    10030    2    1    2    0    0  0.00000000000E+00  0.00000000000E+00 -0.14309536180E+04  0.15512430935E+04  0.59893812557E+03 0.  0.
        5    1    3    3  502    0 -0.29497760245E+03 -0.44275103699E+02 -0.64756382266E+03  0.71297479981E+03  0.46999998093E+01 0.  1.
       -5    1    3    3    0  502  0.29497760245E+03  0.44275103699E+02 -0.78338979539E+03  0.83826829373E+03  0.46999998093E+01 0. -1.
</event>
<event>
 5   0  0.9028473E-03  0.5987281E+03  0.7818609E-02  0.9908048E-01
        2   -1    0    0  501    0  0.00000000000E+00  0.00000000000E+00  0.12363687516E+04  0.12363687516E+04  0.25500000920E-02 0.  1.
       -2   -1    0    0    0  501  0.00000000000E+00  0.00000000000E+00 -0.72485512262E+02  0.72485512307E+02  0.25500000920E-02 0. -1.
    10030    2    1    2    0    0  0.00000000000E+00  0.00000000000E+00  0.11638832393E+04  0.13088542639E+04  0.59872805959E+03 0.  0.
        1    1    3    3  502    0 -0.65254661045E+02 -0.22029728540E+03  0.16241346649E+03  0.28136666268E+03  0.50400001928E-02 0. -1.
       -1    1    3    3    0  502  0.65254661045E+02  0.22029728540E+03  0.10014697728E+04  0.10274876012E+04  0.50400001928E-02 0.  1.
</event>
<event>
 5   0  0.9162342E-03  0.6007014E+03  0.7818609E-02  0.9903952E-01
        2   -1    0    0  501    0  0.00000000000E+00  0.00000000000E+00  0.77063781666E+03  0.77063781667E+03  0.25500000920E-02 0. -1.
       -2   -1    0    0    0  501  0.00000000000E+00  0.00000000000E+00 -0.11705958500E+03  0.11705958503E+03  0.25500000920E-02 0.  1.
    10030    2    1    2    0    0  0.00000000000E+00  0.00000000000E+00  0.65357823166E+03  0.88769740170E+03  0.60070140010E+03 0.  0.
        5    1    3    3  502    0 -0.22086143440E+03  0.74233151262E+02  0.60677887783E+03  0.64999463885E+03  0.46999998093E+01 0. -1.
       -5    1    3    3    0  502  0.22086143440E+03 -0.74233151262E+02  0.46799353827E+02  0.23770276285E+03  0.46999998093E+01 0.  1.
</event>
<event>
 5   0  0.9303190E-03  0.5989257E+03  0.7818609E-02  0.9907637E-01
       -2   -1    0    0    0  501  0.00000000000E+00  0.00000000000E+00  0.24331766824E+03  0.24331766825E+03  0.25500000920E-02 0. -1.
        2   -1    0    0  501    0  0.00000000000E+00  0.00000000000E+00 -0.36856342689E+03  0.36856342690E+03  0.25500000920E-02 0.  1.
    10030    2    1    2    0    0  0.00000000000E+00  0.00000000000E+00 -0.12524575865E+03  0.61188109516E+03  0.59892568366E+03 0.  0.
        4    1    3    3  502    0 -0.17334315830E+03  0.18703829035E+03 -0.22300662180E+03  0.33876944793E+03  0.12699999809E+01 0.  1.
       -4    1    3    3    0  502  0.17334315830E+03 -0.18703829035E+03  0.97760863149E+02  0.27311164722E+03  0.12699999809E+01 0. -1.
</event>
<event>
 5   0  0.5819446E-03  0.6029142E+03  0.7818609E-02  0.9899378E-01
        1   -1    0    0  501    0  0.00000000000E+00  0.00000000000E+00  0.31642661092E+03  0.31642661096E+03  0.50400001928E-02 0.  1.
       -1   -1    0    0    0  501  0.00000000000E+00  0.00000000000E+00 -0.28719573060E+03  0.28719573065E+03  0.50400001928E-02 0. -1.
    10030    2    1    2    0    0  0.00000000000E+00  0.00000000000E+00  0.29230880314E+02  0.60362234161E+03  0.60291416215E+03 0.  0.
        5    1    3    3  502    0  0.20940551448E+03  0.12561760364E+03  0.19152565362E+03  0.31037818518E+03  0.46999998093E+01 0.  1.
       -5    1    3    3    0  502 -0.20940551448E+03 -0.12561760364E+03 -0.16229477331E+03  0.29324415643E+03  0.46999998093E+01 0. -1.
</event>
<event>
 5   0  0.5765045E-03  0.5950029E+03  0.7818609E-02  0.9915828E-01
       -1   -1    0    0    0  501  0.00000000000E+00  0.00000000000E+00  0.56876872537E+02  0.56876872760E+02  0.50400001928E-02 0.  1.
        1   -1    0    0  501    0  0.00000000000E+00  0.00000000000E+00 -0.15561175236E+04  0.15561175236E+04  0.50400001928E-02 0. -1.
    10030    2    1    2    0    0  0.00000000000E+00  0.00000000000E+00 -0.14992406511E+04  0.16129943964E+04  0.59500285118E+03 0.  0.
        1    1    3    3  502    0 -0.10506602123E+03 -0.11461671449E+03 -0.62037901309E+02  0.16740538009E+03  0.50400001928E-02 0.  1.
       -1    1    3    3    0  502  0.10506602123E+03  0.11461671449E+03 -0.14372027498E+04  0.14455890163E+04  0.50400001928E-02 0. -1.
</event>
<event>
 5   0  0.3806250E-03  0.6003050E+03  0.7818609E-02  0.9904774E-01
       -4   -1    0    0    0  501  0.00000000000E+00  0.00000000000E+00  0.45568535676E+03  0.45568712651E+03  0.12699999809E+01 0.  1.
        4   -1    0    0  501    0  0.00000000000E+00  0.00000000000E+00 -0.19770133858E+03  0.19770541767E+03  0.12699999809E+01 0. -1.
    10030    2    1    2    0    0  0.00000000000E+00  0.00000000000E+00  0.25798401818E+03  0.65339254418E+03  0.60030497512E+03 0.  0.
        1    1    3    3  502    0 -0.25925685969E+03 -0.87507073259E+02 -0.52870390140E+01  0.27367783976E+03  0.50400001928E-02 0. -1.
       -1    1    3    3    0  502  0.25925685969E+03  0.87507073259E+02  0.26327105719E+03  0.37971470442E+03  0.50400001928E-02 0.  1.
</event>
<event>
 5   0  0.6078658E-03  0.6002691E+03  0.7818609E-02  0.9904848E-01
        1   -1    0    0  501    0  0.00000000000E+00  0.00000000000E+00  0.30452118667E+03  0.30452118671E+03  0.50400001928E-02 0.  1.
       -1   -1    0    0    0  501  0.00000000000E+00  0.00000000000E+00 -0.29581111877E+03  0.29581111882E+03  0.50400001928E-02 0. -1.
    10030    2    1    2    0    0  0.00000000000E+00  0.00000000000E+00  0.87100678941E+01  0.60033230552E+03  0.60026911612E+03 0.  0.
        2    1    3    3  502    0  0.20900824505E+03 -0.18980998882E+03  0.10619145986E+03  0.30164367142E+03  0.25500000920E-02 0. -1.
       -2    1    3    3    0  502 -0.20900824505E+03  0.18980998882E+03 -0.97481391967E+02  0.29868863410E+03  0.25500000920E-02 0.  1.
</event>
<event>
 5   0  0.5790967E-03  0.6000703E+03  0.7818609E-02  0.9905260E-01
       -1   -1    0    0    0  501  0.00000000000E+00  0.00000000000E+00  0.25167637598E+03  0.25167637603E+03  0.50400001928E-02 0. -1.
        1   -1    0    0  501    0  0.00000000000E+00  0.00000000000E+00 -0.35768586705E+03  0.35768586708E+03  0.50400001928E-02 0.  1.
    10030    2    1    2    0    0  0.00000000000E+00  0.00000000000E+00 -0.10600949107E+03  0.60936224311E+03  0.60007027182E+03 0.  0.
        3    1    3    3  502    0 -0.29853082555E+03  0.27912576315E+02 -0.41820257352E+02  0.30273537924E+03  0.10100000352E+00 0.  1.
       -3    1    3    3    0  502  0.29853082555E+03 -0.27912576315E+02 -0.64189233719E+02  0.30662686387E+03  0.10100000352E+00 0. -1.
</event>
<event>
 5   0  0.9028473E-03  0.5994748E+03  0.7818609E-02  0.9906496E-01
       -2   -1    0    0    0  501  0.00000000000E+00  0.00000000000E+00  0.54724621294E+02  0.54724621353E+02  0.25500000920E-02 0.  1.
        2   -1    0    0  501    0  0.00000000000E+00  0.00000000000E+00 -0.16417203372E+04  0.16417203372E+04  0.25500000920E-02 0. -1.
    10030    2    1    2    0    0  0.00000000000E+00  0.00000000000E+00 -0.15869957159E+04  0.16964449585E+04  0.59947484943E+03 0.  0.
        1    1    3    3  502    0 -0.78725854317E+02  0.14280391070E+03 -0.81784243305E+02  0.18242636741E+03  0.50400001928E-02 0.  1.
       -1    1    3    3    0  502  0.78725854317E+02 -0.14280391070E+03 -0.15052114726E+04  0.15140185911E+04  0.50400001928E-02 0. -1.
</event>
<event>
 5   0  0.6078658E-03  0.6103822E+03  0.7818609E-02  0.9884097E-01
        1   -1    0    0  501    0  0.00000000000E+00  0.00000000000E+00  0.71908967296E+03  0.71908967297E+03  0.50400001928E-02 0. -1.
       -1   -1    0    0    0  501  0.00000000000E+00  0.00000000000E+00 -0.12952712737E+03  0.12952712746E+03  0.50400001928E-02 0.  1.
    10030    2    1    2    0    0  0.00000000000E+00  0.00000000000E+00  0.58956254559E+03  0.84861680044E+03  0.61038223993E+03 0.  0.
        2    1    3    3  502    0  0.10068535885E+03 -0.27234075478E+03  0.42545942153E+03  0.51509489181E+03  0.25500000920E-02 0.  1.
       -2    1    3    3    0  502 -0.10068535885E+03  0.27234075478E+03  0.16410312406E+03  0.33352190862E+03  0.25500000920E-02 0. -1.
</event>
<event>
 5   0  0.5891927E-03  0.5985584E+03  0.7818609E-02  0.9908401E-01
        1   -1    0    0  501    0  0.00000000000E+00  0.00000000000E+00  0.11325309315E+04  0.11325309315E+04  0.50400001928E-02 0. -1.
       -1   -1    0    0    0  501  0.00000000000E+00  0.00000000000E+00 -0.79086613254E+02  0.79086613415E+02  0.50400001928E-02 0.  1.
    10030    2    1    2    0    0  0.00000000000E+00  0.00000000000E+00  0.10534443182E+04  0.12116175449E+04  0.59855838773E+03 0.  0.
        4    1    3    3  502    0 -0.90169999176E+02  0.40845008398E+02 -0.44982810301E+02  0.10873826183E+03  0.12699999809E+01 0.  1.
       -4    1    3    3    0  502  0.90169999176E+02 -0.40845008398E+02  0.10984271285E+04  0.11028792831E+04  0.12699999809E+01 0. -1.
</event>
<event>
 5   0  0.9303190E-03  0.6000131E+03  0.7818609E-02  0.9905379E-01
       -2   -1    0    0    0  501  0.00000000000E+00  0.00000000000E+00  0.40020278313E+02  0.40020278394E+02  0.25500000920E-02 0. -1.
        2   -1    0    0  501    0  0.00000000000E+00  0.00000000000E+00 -0.22489583031E+04  0.22489583031E+04  0.25500000920E-02 0.  1.
    10030    2    1    2    0    0  0.00000000000E+00  0.00000000000E+00 -0.22089380248E+04  0.22889785815E+04  0.60001312419E+03 0.  0.
        4    1    3    3  502    0 -0.12513621343E+03  0.18881143325E+03 -0.18548813393E+04  0.18686613458E+04  0.12699999809E+01 0.  1.
       -4    1    3    3    0  502  0.12513621343E+03 -0.18881143325E+03 -0.35405668545E+03  0.42031723573E+03  0.12699999809E+01 0. -1.
</event>
<event>
 5   0  0.5819446E-03  0.5997817E+03  0.7818609E-02  0.9905859E-01
       -1   -1    0    0    0  501  0.00000000000E+00  0.00000000000E+00  0.51285988370E+02  0.51285988618E+02  0.50400001928E-02 0. -1.
        1   -1    0    0  501    0  0.00000000000E+00  0.00000000000E+00 -0.17535884380E+04  0.17535884380E+04  0.50400001928E-02 0.  1.
    10030    2    1    2    0    0  0.00000000000E+00  0.00000000000E+00 -0.17023024496E+04  0.18048744266E+04  0.59978168184E+03 0.  0.
        5    1    3    3  502    0  0.18874484089E+03 -0.14932864262E+02 -0.15508501049E+04  0.15623718326E+04  0.46999998093E+01 0.  1.
       -5    1    3    3    0  502 -0.18874484089E+03  0.14932864262E+02 -0.15145234475E+03  0.24250259405E+03  0.46999998093E+01 0. -1.
</event>
<event>
 5   0  0.5819446E-03  0.6024461E+03  0.7818609E-02  0.9900344E-01
        1   -1    0    0  501    0  0.00000000000E+00  0.00000000000E+00  0.83844449812E+03  0.83844449814E+03  0.50400001928E-02 0. -1.
       -1   -1    0    0    0  501  0.00000000000E+00  0.00000000000E+00 -0.10821865411E+03  0.10821865423E+03  0.50400001928E-02 0.  1.
    10030    2    1    2    0    0  0.00000000000E+00  0.00000000000E+00  0.73022584401E+03  0.94666315237E+03  0.60244613102E+03 0.  0.
        5    1    3    3  502    0 -0.23620589840E+03 -0.73068303670E+02  0.94851544677E+02  0.26486054626E+03  0.46999998093E+01 0.  1.
       -5    1    3    3    0  502  0.23620589840E+03  0.73068303670E+02  0.63537429933E+03  0.68180260610E+03  0.46999998093E+01 0. -1.
</event>
<event>
 5   0  0.3806250E-03  0.6023337E+03  0.7818609E-02  0.9900576E-01
       -3   -1    0    0    0  501  0.00000000000E+00  0.00000000000E+00  0.19338650896E+03  0.19338653534E+03  0.10100000352E+00 0.  1.
        3   -1    0    0  501    0  0.00000000000E+00  0.00000000000E+00 -0.46901642514E+03  0.46901643601E+03  0.10100000352E+00 0. -1.
    10030    2    1    2    0    0  0.00000000000E+00  0.00000000000E+00 -0.27562991618E+03  0.66240297135E+03  0.60233366647E+03 0.  0.
        1    1    3    3  502    0  0.18560207754E+03  0.12624018117E+03  0.82999687614E+02  0.23931916492E+03  0.50400001928E-02 0.  1.
       -1    1    3    3    0  502 -0.18560207754E+03 -0.12624018117E+03 -0.35862960379E+03  0.42308380643E+03  0.50400001928E-02 0. -1.
</event>
<event>
 5   0  0.6078658E-03  0.6028396E+03  0.7818609E-02  0.9899532E-01
       -1   -1    0    0    0  501  0.00000000000E+00  0.00000000000E+00  0.13538737962E+03  0.13538737972E+03  0.50400001928E-02 0.  1.
        1   -1    0    0  501    0  0.00000000000E+00  0.00000000000E+00 -0.67106623322E+03  0.67106623324E+03  0.50400001928E-02 0. -1.
    10030    2    1    2    0    0  0.00000000000E+00  0.00000000000E+00 -0.53567885359E+03  0.80645361295E+03  0.60283961023E+03 0.  0.
        2    1    3    3  502    0 -0.95792435335E+02 -0.72947779901E+02 -0.63749744739E+03  0.64876849854E+03  0.25500000920E-02 0. -1.
       -2    1    3    3    0  502  0.95792435335E+02  0.72947779901E+02  0.10181859379E+03  0.15768511442E+03  0.25500000920E-02 0.  1.
</event>
<event>
 5   0  0.9028473E-03  0.6012597E+03  0.7818609E-02  0.9902796E-01
        2   -1    0    0  501    0  0.00000000000E+00  0.00000000000E+00  0.34528322766E+03  0.34528322767E+03  0.25500000920E-02 0. -1.
       -2   -1    0    0    0  501  0.00000000000E+00  0.00000000000E+00 -0.26175119859E+03  0.26175119860E+03  0.25500000920E-02 0.  1.
    10030    2    1    2    0    0  0.00000000000E+00  0.00000000000E+00  0.83532029068E+02  0.60703442627E+03  0.60125967335E+03 0.  0.
        1    1    3    3  502    0  0.12076114358E+03  0.78984810573E+02 -0.22450257166E+03  0.26687686076E+03  0.50400001928E-02 0.  1.
       -1    1    3    3    0  502 -0.12076114358E+03 -0.78984810573E+02  0.30803460073E+03  0.34015756551E+03  0.50400001928E-02 0. -1.
</event>
<event>
 5   0  0.6078658E-03  0.5995853E+03  0.7818609E-02  0.9906267E-01
       -1   -1    0    0    0  501  0.00000000000E+00  0.00000000000E+00  0.79436610375E+02  0.79436610535E+02  0.50400001928E-02 0. -1.
        1   -1    0    0  501    0  0.00000000000E+00  0.00000000000E+00 -0.11314133114E+04  0.11314133114E+04  0.50400001928E-02 0.  1.
    10030    2    1    2    0    0  0.00000000000E+00  0.00000000000E+00 -0.10519767010E+04  0.12108499219E+04  0.59958531834E+03 0.  0.
        2    1    3    3  502    0 -0.21195011773E+03 -0.20607944175E+03 -0.62663967038E+03  0.69287002043E+03  0.25500000920E-02 0. -1.
       -2    1    3    3    0  502  0.21195011773E+03  0.20607944175E+03 -0.42533703061E+03  0.51797990148E+03  0.25500000920E-02 0.  1.
</event>
<event>
 5   0  0.9028473E-03  0.6012444E+03  0.7818609E-02  0.9902828E-01
       -2   -1    0    0    0  501  0.00000000000E+00  0.00000000000E+00  0.98106503443E+02  0.98106503476E+02  0.25500000920E-02 0. -1.
        2   -1    0    0  501    0  0.00000000000E+00  0.00000000000E+00 -0.92117954896E+03  0.92117954896E+03  0.25500000920E-02 0.  1.
    10030    2    1    2    0    0  0.00000000000E+00  0.00000000000E+00 -0.82307304552E+03  0.10192860524E+04  0.60124439161E+03 0.  0.
        1    1    3    3  502    0 -0.20885345988E+03  0.16423989095E+03 -0.64996018271E+03  0.70217002828E+03  0.50400001928E-02 0. -1.
       -1    1    3    3    0  502  0.20885345988E+03 -0.16423989095E+03 -0.17311286280E+03  0.31711602416E+03  0.50400001928E-02 0.  1.
</event>
<event>
 5   0  0.9822607E-03  0.6016888E+03  0.7818609E-02  0.9901909E-01
       -2   -1    0    0    0  501  0.00000000000E+00  0.00000000000E+00  0.70338828948E+02  0.70338828994E+02  0.25500000920E-02 0. -1.
        2   -1    0    0  501    0  0.00000000000E+00  0.00000000000E+00 -0.12867338183E+04  0.12867338183E+04  0.25500000920E-02 0.  1.
    10030    2    1    2    0    0  0.00000000000E+00  0.00000000000E+00 -0.12163949894E+04  0.13570726473E+04  0.60168878993E+03 0.  0.
        3    1    3    3  502    0  0.96614375823E+02 -0.23836018060E+03 -0.96020090976E+03  0.99405015498E+03  0.10100000352E+00 0.  1.
       -3    1    3    3    0  502 -0.96614375823E+02  0.23836018060E+03 -0.25619407961E+03  0.36302249233E+03  0.10100000352E+00 0. -1.
</event>
<event>
 5   0  0.9822607E-03  0.5838682E+03  0.7818609E-02  0.9939451E-01
        2   -1    0    0  501    0  0.00000000000E+00  0.00000000000E+00  0.86262314089E+03  0.86262314089E+03  0.25500000920E-02 0.  1.
       -2   -1    0    0    0  501  0.00000000000E+00  0.00000000000E+00 -0.98798093699E+02  0.98798093732E+02  0.25500000920E-02 0. -1.
    10030    2    1    2    0    0  0.00000000000E+00  0.00000000000E+00  0.76382504719E+03  0.96142123463E+03  0.58386821088E+03 0.  0.
        3    1    3    3  502    0 -0.26597939901E+03  0.98899728280E+02  0.26903274537E+03  0.39103046586E+03  0.10100000352E+00 0. -1.
       -3    1    3    3    0  502  0.26597939901E+03 -0.98899728280E+02  0.49479230182E+03  0.57039076876E+03  0.10100000352E+00 0.  1.
</event>
<event>
 5   0  0.5765045E-03  0.5998949E+03  0.7818609E-02  0.9905624E-01
       -1   -1    0    0    0  501  0.00000000000E+00  0.00000000000E+00  0.10730964132E+03  0.10730964144E+03  0.50400001928E-02 0. -1.
        1   -1    0    0  501    0  0.00000000000E+00  0.00000000000E+00 -0.83840065130E+03  0.83840065131E+03  0.50400001928E-02 0.  1.
    10030    2    1    2    0    0  0.00000000000E+00  0.00000000000E+00 -0.73109100998E+03  0.94571029275E+03  0.59989490159E+03 0.  0.
        1    1    3    3  502    0  0.12128854125E+03 -0.27372839132E+03 -0.33689333956E+03  0.45070529697E+03  0.50400001928E-02 0. -1.
       -1    1    3    3    0  502 -0.12128854125E+03  0.27372839132E+03 -0.39419767042E+03  0.49500499578E+03  0.50400001928E-02 0.  1.
</event>
<event>
 5   0  0.5790967E-03  0.5999162E+03  0.7818609E-02  0.9905580E-01
        1   -1    0    0  501    0  0.00000000000E+00  0.00000000000E+00  0.74818447172E+03  0.74818447174E+03  0.50400001928E-02 0.  1.
       -1   -1    0    0    0  501  0.00000000000E+00  0.00000000000E+00 -0.12025758673E+03  0.12025758684E+03  0.50400001928E-02 0. -1.
    10030    2    1    2    0    0  0.00000000000E+00  0.00000000000E+00  0.62792688499E+03  0.86844205858E+03  0.59991619099E+03 0.  0.
        3    1    3    3  502    0 -0.12329227426E+02  0.62777643653E+02 -0.11026604316E+03  0.12748197075E+03  0.10100000352E+00 0. -1.
       -3    1    3    3    0  502  0.12329227426E+02 -0.62777643653E+02  0.73819292814E+03  0.74096008783E+03  0.10100000352E+00 0.  1.
</event>
<event>
 5   0  0.9822607E-03  0.5997602E+03  0.7818609E-02  0.9905904E-01
       -2   -1    0    0    0  501  0.00000000000E+00  0.00000000000E+00  0.71802020527E+02  0.71802020572E+02  0.25500000920E-02 0. -1.
        2   -1    0    0  501    0  0.00000000000E+00  0.00000000000E+00 -0.12524449520E+04  0.12524449520E+04  0.25500000920E-02 0.  1.
    10030    2    1    2    0    0  0.00000000000E+00  0.00000000000E+00 -0.11806429315E+04  0.13242469726E+04  0.59976021270E+03 0.  0.
        3    1    3    3  502    0 -0.12392908029E+03  0.20048551192E+03 -0.99968958750E+03  0.10270988945E+04  0.10100000352E+00 0. -1.
       -3    1    3    3    0  502  0.12392908029E+03 -0.20048551192E+03 -0.18095334397E+03  0.29714807811E+03  0.10100000352E+00 0.  1.
</event>
<event>
 5   0  0.3806250E-03  0.5999953E+03  0.7818609E-02  0.9905416E-01
       -3   -1    0    0    0  501  0.00000000000E+00  0.00000000000E+00  0.14414182990E+03  0.14414186529E+03  0.10100000352E+00 0.  1.
        3   -1    0    0  501    0  0.00000000000E+00  0.00000000000E+00 -0.62437509806E+03  0.62437510623E+03  0.10100000352E+00 0. -1.
    10030    2    1    2    0    0  0.00000000000E+00  0.00000000000E+00 -0.48023326816E+03  0.76851697152E+03  0.59999528637E+03 0.  0.
        5    1    3    3  502    0  0.28406948373E+03 -0.95993450366E+02 -0.25054467729E+03  0.39077479374E+03  0.46999998093E+01 0.  1.
       -5    1    3    3    0  502 -0.28406948373E+03  0.95993450366E+02 -0.22968859087E+03  0.37774217778E+03  0.46999998093E+01 0. -1.
</event>
<event>
 5   0  0.5790967E-03  0.6004552E+03  0.7818609E-02  0.9904462E-01
       -1   -1    0    0    0  501  0.00000000000E+00  0.00000000000E+00  0.14521244704E+03  0.14521244712E+03  0.50400001928E-02 0.  1.
        1   -1    0    0  501    0  0.00000000000E+00  0.00000000000E+00 -0.62072229514E+03  0.62072229516E+03  0.50400001928E-02 0. -1.
    10030    2    1    2    0    0  0.00000000000E+00  0.00000000000E+00 -0.47550984810E+03  0.76593474229E+03  0.60045517218E+03 0.  0.
        3    1    3    3  502    0 -0.27769633080E+03  0.38288682127E+02 -0.37487534212E+03  0.46809487035E+03  0.10100000352E+00 0. -1.
       -3    1    3    3    0  502  0.27769633080E+03 -0.38288682127E+02 -0.10063450598E+03  0.29783987193E+03  0.10100000352E+00 0.  1.
</event>
<event>
 5   0  0.9391405E-03  0.5997331E+03  0.7818609E-02  0.9905960E-01
       -2   -1    0    0    0  501  0.00000000000E+00  0.00000000000E+00  0.73043830060E+02  0.73043830105E+02  0.25500000920E-02 0.  1.
        2   -1    0    0  501    0  0.00000000000E+00  0.00000000000E+00 -0.12310409004E+04  0.12310409004E+04  0.25500000920E-02 0. -1.
    10030    2    1    2    0    0  0.00000000000E+00  0.00000000000E+00 -0.11579970703E+04  0.13040847305E+04  0.59973308181E+03 0.  0.
        2    1    3    3  502    0 -0.25727002717E+03  0.14840336870E+03 -0.48911973171E+03  0.57223206715E+03  0.25500000920E-02 0.  1.
       -2    1    3    3    0  502  0.25727002717E+03 -0.14840336870E+03 -0.66887733859E+03  0.73185266332E+03  0.25500000920E-02 0. -1.
</event>
<event>
 5   0  0.5765045E-03  0.6001580E+03  0.7818609E-02  0.9905078E-01
       -1   -1    0    0    0  501  0.00000000000E+00  0.00000000000E+00  0.73952068449E+02  0.73952068620E+02  0.50400001928E-02 0.  1.
        1   -1    0    0  501    0  0.00000000000E+00  0.00000000000E+00 -0.12176456284E+04  0.12176456284E+04  0.50400001928E-02 0. -1.
    10030    2    1    2    0    0  0.00000000000E+00  0.00000000000E+00 -0.11436935600E+04  0.12915976971E+04  0.60015802245E+03 0.  0.
        1    1    3    3  502    0 -0.14982302838E+03 -0.14072981593E+03 -0.10135117718E+03  0.22918089376E+03  0.50400001928E-02 0.  1.
       -1    1    3    3    0  502  0.14982302838E+03  0.14072981593E+03 -0.10423423828E+04  0.10624168033E+04  0.50400001928E-02 0. -1.
</event>
<event>
 5   0  0.5765045E-03  0.6002790E+03  0.7818609E-02  0.9904827E-01
       -1   -1    0    0    0  501  0.00000000000E+00  0.00000000000E+00  0.11114781309E+03  0.11114781321E+03  0.50400001928E-02 0.  1.
        1   -1    0    0  501    0  0.00000000000E+00  0.00000000000E+00 -0.81048589102E+03  0.81048589103E+03  0.50400001928E-02 0. -1.
    10030    2    1    2    0    0  0.00000000000E+00  0.00000000000E+00 -0.69933807792E+03  0.92163370424E+03  0.60027904974E+03 0.  0.
        1    1    3    3  502    0  0.18146576399E+03 -0.14411482893E+03 -0.64253258665E+03  0.68304248210E+03  0.50400001928E-02 0. -1.
       -1    1    3    3    0  502 -0.18146576399E+03  0.14411482893E+03 -0.56805491272E+02  0.23859122214E+03  0.50400001928E-02 0.  1.
</event>
<event>
 5   0  0.6078658E-03  0.6112463E+03  0.7818609E-02  0.9882344E-01
       -1   -1    0    0    0  501  0.00000000000E+00  0.00000000000E+00  0.23849426512E+03  0.23849426517E+03  0.50400001928E-02 0.  1.
        1   -1    0    0  501    0  0.00000000000E+00  0.00000000000E+00 -0.39164673266E+03  0.39164673270E+03  0.50400001928E-02 0. -1.
    10030    2    1    2    0    0  0.00000000000E+00  0.00000000000E+00 -0.15315246754E+03  0.63014099787E+03  0.61124626697E+03 0.  0.
        2    1    3    3  502    0  0.29570119413E+03  0.45865356420E+02 -0.14064781842E+03  0.33064276184E+03  0.25500000920E-02 0. -1.
       -2    1    3    3    0  502 -0.29570119413E+03 -0.45865356420E+02 -0.12504649123E+02  0.29949823603E+03  0.25500000920E-02 0.  1.
</event>
<event>
 5   0  0.9303190E-03  0.5990194E+03  0.7818609E-02  0.9907443E-01
       -2   -1    0    0    0  501  0.00000000000E+00  0.00000000000E+00  0.56880409286E+03  0.56880409287E+03  0.25500000920E-02 0. -1.
        2   -1    0    0  501    0  0.00000000000E+00  0.00000000000E+00 -0.15770996120E+03  0.15770996122E+03  0.25500000920E-02 0.  1.
    10030    2    1    2    0    0  0.00000000000E+00  0.00000000000E+00  0.41109413166E+03  0.72651405409E+03  0.59901943683E+03 0.  0.
        4    1    3    3  502    0 -0.15365137220E+03 -0.20011836000E+03  0.40129323326E+03  0.47401895969E+03  0.12699999809E+01 0.  1.
       -4    1    3    3    0  502  0.15365137220E+03  0.20011836000E+03  0.98008984048E+01  0.25249509440E+03  0.12699999809E+01 0. -1.
</event>
<event>
 5   0  0.5790967E-03  0.6003542E+03  0.7818609E-02  0.9904672E-01
        1   -1    0    0  501    0  0.00000000000E+00  0.00000000000E+00  0.20005090736E+03  0.20005090742E+03  0.50400001928E-02 0. -1.
       -1   -1    0    0    0  501  0.00000000000E+00  0.00000000000E+00 -0.45041676759E+03  0.45041676762E+03  0.50400001928E-02 0.  1.
    10030    2    1    2    0    0  0.00000000000E+00  0.00000000000E+00 -0.25036586023E+03  0.65046767505E+03  0.60035417239E+03 0.  0.
        3    1    3    3  502    0 -0.11596825678E+03 -0.45622375955E+02  0.17069897972E+03  0.21134850282E+03  0.10100000352E+00 0. -1.
       -3    1    3    3    0  502  0.11596825678E+03  0.45622375955E+02 -0.42106483995E+03  0.43911917222E+03  0.10100000352E+00 0.  1.
</event>
<event>
 5   0  0.5819446E-03  0.6005895E+03  0.7818609E-02  0.9904184E-01
        1   -1    0    0  501    0  0.00000000000E+00  0.00000000000E+00  0.42345951663E+03  0.42345951666E+03  0.50400001928E-02 0.  1.
       -1   -1    0    0    0  501  0.00000000000E+00  0.00000000000E+00 -0.21295290600E+03  0.21295290606E+03  0.50400001928E-02 0. -1.
    10030    2    1    2    0    0  0.00000000000E+00  0.00000000000E+00  0.21050661063E+03  0.63641242272E+03  0.60058949265E+03 0.  0.
        5    1    3    3  502    0  0.84432014715E+02 -0.25164016068E+03 -0.43487628504E+02  0.26900706200E+03  0.46999998093E+01 0. -1.
       -5    1    3    3    0  502 -0.84432014715E+02  0.25164016068E+03  0.25399423913E+03  0.36740536072E+03  0.46999998093E+01 0.  1.
</event>
<event>
 5   0  0.6078658E-03  0.5984772E+03  0.7818609E-02  0.9908570E-01
        1   -1    0    0  501    0  0.00000000000E+00  0.00000000000E+00  0.70027540827E+03  0.70027540829E+03  0.50400001928E-02 0. -1.
       -1   -1    0    0    0  501  0.00000000000E+00  0.00000000000E+00 -0.12786933694E+03  0.12786933704E+03  0.50400001928E-02 0.  1.
    10030    2    1    2    0    0  0.00000000000E+00  0.00000000000E+00  0.57240607133E+03  0.82814474533E+03  0.59847724160E+03 0.  0.
        2    1    3    3  502    0  0.18912512450E+02 -0.10597748639E+03  0.67255235968E+03  0.68111349074E+03  0.25500000920E-02 0. -1.
       -2    1    3    3    0  502 -0.18912512450E+02  0.10597748639E+03 -0.10014628835E+03  0.14703125459E+03  0.25500000920E-02 0.  1.
</event>
<event>
 5   0  0.9391405E-03  0.6011430E+03  0.7818609E-02  0.9903038E-01
       -2   -1    0    0    0  501  0.00000000000E+00  0.00000000000E+00  0.42579081424E+02  0.42579081500E+02  0.25500000920E-02 0.  1.
        2   -1    0    0  501    0  0.00000000000E+00  0.00000000000E+00 -0.21217747377E+04  0.21217747377E+04  0.25500000920E-02 0. -1.
    10030    2    1    2    0    0  0.00000000000E+00  0.00000000000E+00 -0.20791956563E+04  0.21643538192E+04  0.60114297602E+03 0.  0.
        2    1    3    3  502    0  0.49060262842E+02 -0.15538051861E+03 -0.13023396731E+03  0.20859266814E+03  0.25500000920E-02 0.  1.
       -2    1    3    3    0  502 -0.49060262842E+02  0.15538051861E+03 -0.19489616890E+04  0.19557611511E+04  0.25500000920E-02 0. -1.
</event>
<event>
 5   0  0.3806250E-03  0.6011802E+03  0.7818609E-02  0.9902960E-01
       -3   -1    0    0    0  501  0.00000000000E+00  0.00000000000E+00  0.26982288636E+03  0.26982290526E+03  0.10100000352E+00 0. -1.
        3   -1    0    0  501    0  0.00000000000E+00  0.00000000000E+00 -0.33486562463E+03  0.33486563987E+03  0.10100000352E+00 0.  1.
    10030    2    1    2    0    0  0.00000000000E+00  0.00000000000E+00 -0.65042738279E+02  0.60468854512E+03  0.60118023820E+03 0.  0.
        4    1    3    3  502    0 -0.10859792710E+03 -0.25361873880E+03  0.87493133889E+02  0.28943502867E+03  0.12699999809E+01 0. -1.
       -4    1    3    3    0  502  0.10859792710E+03  0.25361873880E+03 -0.15253587217E+03  0.31525351646E+03  0.12699999809E+01 0.  1.
</event>
<event>
 5   0  0.9303190E-03  0.6001251E+03  0.7818609E-02  0.9905147E-01
        2   -1    0    0  501    0  0.00000000000E+00  0.00000000000E+00  0.32625270477E+03  0.32625270478E+03  0.25500000920E-02 0. -1.
       -2   -1    0    0    0  501  0.00000000000E+00  0.00000000000E+00 -0.27597478784E+03  0.27597478785E+03  0.25500000920E-02 0.  1.
    10030    2    1    2    0    0  0.00000000000E+00  0.00000000000E+00  0.50277916929E+02  0.60222749262E+03  0.60012505692E+03 0.  0.
        4    1    3    3  502    0 -0.29295079170E+03 -0.49530468742E+02  0.67267868750E+02  0.30463094517E+03  0.12699999809E+01 0. -1.
       -4    1    3    3    0  502  0.29295079170E+03  0.49530468742E+02 -0.16989951821E+02  0.29759654745E+03  0.12699999809E+01 0.  1.
</event>
<event>
 5   0  0.9303190E-03  0.5999929E+03  0.7818609E-02  0.9905421E-01
        2   -1    0    0  501    0  0.00000000000E+00  0.00000000000E+00  0.39090509282E+03  0.39090509283E+03  0.25500000920E-02 0.  1.
       -2   -1    0    0    0  501  0.00000000000E+00  0.00000000000E+00 -0.23022945904E+03  0.23022945905E+03  0.25500000920E-02 0. -1.
    10030    2    1    2    0    0  0.00000000000E+00  0.00000000000E+00  0.16067563378E+03  0.62113455188E+03  0.59999289350E+03 0.  0.
        4    1    3    3  502    0 -0.26231767579E+03 -0.13283220036E+03  0.18732121981E+02  0.29463106044E+03  0.12699999809E+01 0. -1.
       -4    1    3    3    0  502  0.26231767579E+03  0.13283220036E+03  0.14194351180E+03  0.32650349144E+03  0.12699999809E+01 0.  1.
</event>
<event>
 5   0  0.5891927E-03  0.6013446E+03  0.7818609E-02  0.9902620E-01
       -1   -1    0    0    0  501  0.00000000000E+00  0.00000000000E+00  0.13648580926E+03  0.13648580935E+03  0.50400001928E-02 0.  1.
        1   -1    0    0  501    0  0.00000000000E+00  0.00000000000E+00 -0.66236800885E+03  0.66236800887E+03  0.50400001928E-02 0. -1.
    10030    2    1    2    0    0  0.00000000000E+00  0.00000000000E+00 -0.52588219959E+03  0.79885381822E+03  0.60134460589E+03 0.  0.
        4    1    3    3  502    0 -0.75315575916E+01  0.13395162425E+03 -0.62039542252E+03  0.63473762704E+03  0.12699999809E+01 0. -1.
       -4    1    3    3    0  502  0.75315575916E+01 -0.13395162425E+03  0.94513222929E+02  0.16411619118E+03  0.12699999809E+01 0.  1.
</event>
<event>
 5   0  0.9391405E-03  0.5998704E+03  0.7818609E-02  0.9905675E-01
        2   -1    0    0  501    0  0.00000000000E+00  0.00000000000E+00  0.15479088676E+03  0.15479088678E+03  0.25500000920E-02 0. -1.
       -2   -1    0    0    0  501  0.00000000000E+00  0.00000000000E+00 -0.58117843210E+03  0.58117843211E+03  0.25500000920E-02 0.  1.
    10030    2    1    2    0    0  0.00000000000E+00  0.00000000000E+00 -0.42638754534E+03  0.73596931888E+03  0.59987040227E+03 0.  0.
        2    1    3    3  502    0  0.27198174378E+01 -0.24441117051E+03  0.75005526586E-01  0.24442631468E+03  0.25500000920E-02 0. -1.
       -2    1    3    3    0  502 -0.27198174378E+01  0.24441117051E+03 -0.42646255087E+03  0.49154300420E+03  0.25500000920E-02 0.  1.
</event>
<event>
 5   0  0.3806250E-03  0.5996907E+03  0.7818609E-02  0.9906048E-01
       -3   -1    0    0    0  501  0.00000000000E+00  0.00000000000E+00  0.82640680483E+02  0.82640742202E+02  0.10100000352E+00 0.  1.
        3   -1    0    0  501    0  0.00000000000E+00  0.00000000000E+00 -0.10879291283E+04  0.10879291329E+04  0.10100000352E+00 0. -1.
    10030    2    1    2    0    0  0.00000000000E+00  0.00000000000E+00 -0.10052884478E+04  0.11705698751E+04  0.59969072810E+03 0.  0.
        4    1    3    3  502    0 -0.20009737462E+02  0.18527072361E+03 -0.96116693595E+03  0.97906543309E+03  0.12699999809E+01 0. -1.
       -4    1    3    3    0  502  0.20009737462E+02 -0.18527072361E+03 -0.44121511819E+02  0.19150444205E+03  0.12699999809E+01 0.  1.
</event>
<event>
 5   0  0.9303190E-03  0.5999236E+03  0.7818609E-02  0.9905565E-01
       -2   -1    0    0    0  501  0.00000000000E+00  0.00000000000E+00  0.71596581521E+02  0.71596581566E+02  0.25500000920E-02 0. -1.
        2   -1    0    0  501    0  0.00000000000E+00  0.00000000000E+00 -0.12567232213E+04  0.12567232213E+04  0.25500000920E-02 0.  1.
    10030    2    1    2    0    0  0.00000000000E+00  0.00000000000E+00 -0.11851266398E+04  0.13283198029E+04  0.59992361713E+03 0.  0.
        4    1    3    3  502    0 -0.11423447486E+03  0.21024465727E+03 -0.99309252640E+03  0.10215119725E+04  0.12699999809E+01 0.  1.
       -4    1    3    3    0  502  0.11423447486E+03 -0.21024465727E+03 -0.19203411340E+03  0.30680783035E+03  0.12699999809E+01 0. -1.
</event>
<event>
 5   0  0.9162342E-03  0.5990912E+03  0.7818609E-02  0.9907293E-01
       -2   -1    0    0    0  501  0.00000000000E+00  0.00000000000E+00  0.15397884485E+03  0.15397884487E+03  0.25500000920E-02 0.  1.
        2   -1    0    0  501    0  0.00000000000E+00  0.00000000000E+00 -0.58272662530E+03  0.58272662531E+03  0.25500000920E-02 0. -1.
    10030    2    1    2    0    0  0.00000000000E+00  0.00000000000E+00 -0.42874778045E+03  0.73670547018E+03  0.59909122055E+03 0.  0.
        5    1    3    3  502    0 -0.26391648460E+03  0.14008582446E+03 -0.18888801813E+03  0.35352046964E+03  0.46999998093E+01 0. -1.
       -5    1    3    3    0  502  0.26391648460E+03 -0.14008582446E+03 -0.23985976232E+03  0.38318500054E+03  0.46999998093E+01 0.  1.
</event>
<event>
 5   0  0.9162342E-03  0.6050644E+03  0.7818609E-02  0.9894954E-01
       -2   -1    0    0    0  501  0.00000000000E+00  0.00000000000E+00  0.13787783190E+03  0.13787783192E+03  0.25500000920E-02 0. -1.
        2   -1    0    0  501    0  0.00000000000E+00  0.00000000000E+00 -0.66381770927E+03  0.66381770928E+03  0.25500000920E-02 0.  1.
    10030    2    1    2    0    0  0.00000000000E+00  0.00000000000E+00 -0.52593987737E+03  0.80169554120E+03  0.60506444794E+03 0.  0.
        5    1    3    3  502    0 -0.28966031239E+03  0.62818589361E+02 -0.18287317468E+03  0.34830153568E+03  0.46999998093E+01 0. -1.
       -5    1    3    3    0  502  0.28966031239E+03 -0.62818589361E+02 -0.34306670270E+03  0.45339400552E+03  0.46999998093E+01 0.  1.
</event>
<event>
 5   0  0.9822607E-03  0.6000294E+03  0.7818609E-02  0.9905345E-01
        2   -1    0    0  501    0  0.00000000000E+00  0.00000000000E+00  0.57477748454E+03  0.57477748454E+03  0.25500000920E-02 0. -1.
       -2   -1    0    0    0  501  0.00000000000E+00  0.00000000000E+00 -0.15659769101E+03  0.15659769103E+03  0.25500000920E-02 0.  1.
    10030    2    1    2    0    0  0.00000000000E+00  0.00000000000E+00  0.41817979352E+03  0.73137517558E+03  0.60002942239E+03 0.  0.
        3    1    3    3  502    0  0.23203010395E+03  0.18223306351E+03  0.27542709552E+03  0.40361733575E+03  0.10100000352E+00 0. -1.
       -3    1    3    3    0  502 -0.23203010395E+03 -0.18223306351E+03  0.14275269801E+03  0.32775783982E+03  0.10100000352E+00 0.  1.
</event>
<event>
 5   0  0.5819446E-03  0.6008407E+03  0.7818609E-02  0.9903663E-01
       -1   -1    0    0    0  501  0.00000000000E+00  0.00000000000E+00  0.68006310430E+02  0.68006310617E+02  0.50400001928E-02 0.  1.
        1   -1    0    0  501    0  0.00000000000E+00  0.00000000000E+00 -0.13271180113E+04  0.13271180113E+04  0.50400001928E-02 0. -1.
    10030    2    1    2    0    0  0.00000000000E+00  0.00000000000E+00 -0.12591117008E+04  0.13951243219E+04  0.60084074292E+03 0.  0.
        5    1    3    3  502    0  0.85104148403E+02  0.24511451544E+03 -0.27813089469E+03  0.38039811558E+03  0.46999998093E+01 0.  1.
       -5    1    3    3    0  502 -0.85104148403E+02 -0.24511451544E+03 -0.98098080614E+03  0.10147262063E+04  0.46999998093E+01 0. -1.
</event>
<event>
 5   0  0.3806250E-03  0.5998843E+03  0.7818609E-02  0.9905646E-01
        4   -1    0    0  501    0  0.00000000000E+00  0.00000000000E+00  0.13539579321E+04  0.13539585277E+04  0.12699999809E+01 0.  1.
       -4   -1    0    0    0  501  0.00000000000E+00  0.00000000000E+00 -0.66439462397E+02  0.66451599405E+02  0.12699999809E+01 0. -1.
    10030    2    1    2    0    0  0.00000000000E+00  0.00000000000E+00  0.12875184697E+04  0.14204101271E+04  0.59988425502E+03 0.  0.
        5    1    3    3  502    0  0.17665467266E+03  0.54377711020E+01  0.70052028096E+02  0.19017312998E+03  0.46999998093E+01 0. -1.
       -5    1    3    3    0  502 -0.17665467266E+03 -0.54377711020E+01  0.12174664416E+04  0.12302369972E+04  0.46999998093E+01 0.  1.
</event>
<event>
 5   0  0.9028473E-03  0.5979058E+03  0.7818609E-02  0.9909760E-01
        2   -1    0    0  501    0  0.00000000000E+00  0.00000000000E+00  0.10983758362E+04  0.10983758362E+04  0.25500000920E-02 0.  1.
       -2   -1    0    0    0  501  0.00000000000E+00  0.00000000000E+00 -0.81368171155E+02  0.81368171195E+02  0.25500000920E-02 0. -1.
    10030    2    1    2    0    0  0.00000000000E+00  0.00000000000E+00  0.10170076651E+04  0.11797440074E+04  0.59790578877E+03 0.  0.
        1    1    3    3  502    0  0.36736124034E+02  0.87989061772E+01  0.10936478179E+04  0.10943000106E+04  0.50400001928E-02 0.  1.
       -1    1    3    3    0  502 -0.36736124034E+02 -0.87989061772E+01 -0.76640152782E+02  0.85443996879E+02  0.50400001928E-02 0. -1.
</event>
<event>
 5   0  0.5891927E-03  0.5995036E+03  0.7818609E-02  0.9906436E-01
        1   -1    0    0  501    0  0.00000000000E+00  0.00000000000E+00  0.33154095390E+03  0.33154095394E+03  0.50400001928E-02 0. -1.
       -1   -1    0    0    0  501  0.00000000000E+00  0.00000000000E+00 -0.27101069296E+03  0.27101069300E+03  0.50400001928E-02 0.  1.
    10030    2    1    2    0    0  0.00000000000E+00  0.00000000000E+00  0.60530260941E+02  0.60255164694E+03  0.59950360695E+03 0.  0.
        4    1    3    3  502    0 -0.40054219182E+02  0.18590242755E+03  0.26314443129E+03  0.32467007510E+03  0.12699999809E+01 0. -1.
       -4    1    3    3    0  502  0.40054219182E+02 -0.18590242755E+03 -0.20261417035E+03  0.27788157184E+03  0.12699999809E+01 0.  1.
</event>
<event>
 5   0  0.9822607E-03  0.6003357E+03  0.7818609E-02  0.9904710E-01
        2   -1    0    0  501    0  0.00000000000E+00  0.00000000000E+00  0.46068586663E+03  0.46068586663E+03  0.25500000920E-02 0.  1.
       -2   -1    0    0    0  501  0.00000000000E+00  0.00000000000E+00 -0.19557956457E+03  0.19557956458E+03  0.25500000920E-02 0. -1.
    10030    2    1    2    0    0  0.00000000000E+00  0.00000000000E+00  0.26510630206E+03  0.65626543122E+03  0.60033571010E+03 0.  0.
        3    1    3    3  502    0 -0.27221353339E+03 -0.12617004344E+03  0.12267567842E+03  0.32414259193E+03  0.10100000352E+00 0.  1.
       -3    1    3    3    0  502  0.27221353339E+03  0.12617004344E+03  0.14243062364E+03  0.33212283929E+03  0.10100000352E+00 0. -1.
</event>
<event>
 5   0  0.5790967E-03  0.5999019E+03  0.7818609E-02  0.9905610E-01
       -1   -1    0    0    0  501  0.00000000000E+00  0.00000000000E+00  0.17380306063E+03  0.17380306071E+03  0.50400001928E-02 0. -1.
        1   -1    0    0  501    0  0.00000000000E+00  0.00000000000E+00 -0.51765816936E+03  0.51765816938E+03  0.50400001928E-02 0.  1.
    10030    2    1    2    0    0  0.00000000000E+00  0.00000000000E+00 -0.34385510873E+03  0.69146123009E+03  0.59990190608E+03 0.  0.
        3    1    3    3  502    0 -0.24791883432E+03 -0.97497422652E+02 -0.13044858215E+02  0.26672021738E+03  0.10100000352E+00 0. -1.
       -3    1    3    3    0  502  0.24791883432E+03  0.97497422652E+02 -0.33081025051E+03  0.42474101271E+03  0.10100000352E+00 0.  1.
</event>
<event>
 5   0  0.5790967E-03  0.5998062E+03  0.7818609E-02  0.9905808E-01
       -1   -1    0    0    0  501  0.00000000000E+00  0.00000000000E+00  0.11491290442E+03  0.11491290453E+03  0.50400001928E-02 0.  1.
        1   -1    0    0  501    0  0.00000000000E+00  0.00000000000E+00 -0.78269593090E+03  0.78269593092E+03  0.50400001928E-02 0. -1.
    10030    2    1    2    0    0  0.00000000000E+00  0.00000000000E+00 -0.66778302648E+03  0.89760883545E+03  0.59980617787E+03 0.  0.
        3    1    3    3  502    0 -0.23840064126E+03  0.18058693618E+03 -0.30058492109E+03  0.42402572123E+03  0.10100000352E+00 0.  1.
       -3    1    3    3    0  502  0.23840064126E+03 -0.18058693618E+03 -0.36719810539E+03  0.47358311422E+03  0.10100000352E+00 0. -1.
</event>
<event>
 5   0  0.5819446E-03  0.5988097E+03  0.7818609E-02  0.9907879E-01
       -1   -1    0    0    0  501  0.00000000000E+00  0.00000000000E+00  0.10775090760E+03  0.10775090772E+03  0.50400001928E-02 0. -1.
        1   -1    0    0  501    0  0.00000000000E+00  0.00000000000E+00 -0.83194892977E+03  0.83194892979E+03  0.50400001928E-02 0.  1.
    10030    2    1    2    0    0  0.00000000000E+00  0.00000000000E+00 -0.72419802217E+03  0.93969983751E+03  0.59880966033E+03 0.  0.
        5    1    3    3  502    0  0.95047884893E+02 -0.17540431662E+03 -0.71236978733E+03  0.73979292955E+03  0.46999998093E+01 0.  1.
       -5    1    3    3    0  502 -0.95047884893E+02  0.17540431662E+03 -0.11828234841E+02  0.19990690796E+03  0.46999998093E+01 0. -1.
</event>
<event>
 5   0  0.9391405E-03  0.5996140E+03  0.7818609E-02  0.9906207E-01
        2   -1    0    0  501    0  0.00000000000E+00  0.00000000000E+00  0.51472678117E+03  0.51472678118E+03  0.25500000920E-02 0.  1.
       -2   -1    0    0    0  501  0.00000000000E+00  0.00000000000E+00 -0.17462513439E+03  0.17462513441E+03  0.25500000920E-02 0. -1.
    10030    2    1    2    0    0  0.00000000000E+00  0.00000000000E+00  0.34010164678E+03  0.68935191559E+03  0.59961398699E+03 0.  0.
        2    1    3    3  502    0  0.23095074217E+03  0.44450889252E+02  0.38380745166E+03  0.45013585373E+03  0.25500000920E-02 0.  1.
       -2    1    3    3    0  502 -0.23095074217E+03 -0.44450889252E+02 -0.43705804879E+02  0.23921606186E+03  0.25500000920E-02 0. -1.
</event>
<event>
 5   0  0.9162342E-03  0.6010940E+03  0.7818609E-02  0.9903139E-01
       -2   -1    0    0    0  501  0.00000000000E+00  0.00000000000E+00  0.31074130785E+03  0.31074130787E+03  0.25500000920E-02 0. -1.
        2   -1    0    0  501    0  0.00000000000E+00  0.00000000000E+00 -0.29068716882E+03  0.29068716883E+03  0.25500000920E-02 0.  1.
    10030    2    1    2    0    0  0.00000000000E+00  0.00000000000E+00  0.20054139032E+02  0.60142847670E+03  0.60109403931E+03 0.  0.
        5    1    3    3  502    0 -0.28988132448E+03 -0.71054184357E+02 -0.25014432426E+02  0.29954580822E+03  0.46999998093E+01 0.  1.
       -5    1    3    3    0  502  0.28988132448E+03  0.71054184357E+02  0.45068571459E+02  0.30188266848E+03  0.46999998093E+01 0. -1.
</event>
<event>
 5   0  0.5891927E-03  0.6006638E+03  0.7818609E-02  0.9904030E-01
       -1   -1    0    0    0  501  0.00000000000E+00  0.00000000000E+00  0.22961565608E+03  0.22961565614E+03  0.50400001928E-02 0.  1.
        1   -1    0    0  501    0  0.00000000000E+00  0.00000000000E+00 -0.39282703101E+03  0.39282703105E+03  0.50400001928E-02 0. -1.
    10030    2    1    2    0    0  0.00000000000E+00  0.00000000000E+00 -0.16321137493E+03  0.62244268718E+03  0.60066375446E+03 0.  0.
        4    1    3    3  502    0 -0.93880211642E+02  0.10050568791E+03  0.19506307236E+03  0.23867572675E+03  0.12699999809E+01 0.  1.
       -4    1    3    3    0  502  0.93880211642E+02 -0.10050568791E+03 -0.35827444729E+03  0.38376696044E+03  0.12699999809E+01 0. -1.
</event>
<event>
 5   0  0.9303190E-03  0.6012392E+03  0.7818609E-02  0.9902838E-01
       -2   -1    0    0    0  501  0.00000000000E+00  0.00000000000E+00  0.34522991582E+03  0.34522991583E+03  0.25500000920E-02 0.  1.
        2   -1    0    0  501    0  0.00000000000E+00  0.00000000000E+00 -0.26177378333E+03  0.26177378335E+03  0.25500000920E-02 0. -1.
    10030    2    1    2    0    0  0.00000000000E+00  0.00000000000E+00  0.83456132491E+02  0.60700369918E+03  0.60123919098E+03 0.  0.
        4    1    3    3  502    0  0.92976556086E+02  0.91531293810E+01  0.33019840348E+03  0.34316325316E+03  0.12699999809E+01 0.  1.
       -4    1    3    3    0  502 -0.92976556086E+02 -0.91531293810E+01 -0.24674227099E+03  0.26384044602E+03  0.12699999809E+01 0. -1.
</event>
<event>
 5   0  0.5819446E-03  0.6002343E+03  0.7818609E-02  0.9904920E-01
       -1   -1    0    0    0  501  0.00000000000E+00  0.00000000000E+00  0.22548667603E+03  0.22548667609E+03  0.50400001928E-02 0. -1.
        1   -1    0    0  501    0  0.00000000000E+00  0.00000000000E+00 -0.39944848684E+03  0.39944848687E+03  0.50400001928E-02 0.  1.
    10030    2    1    2    0    0  0.00000000000E+00  0.00000000000E+00 -0.17396181081E+03  0.62493516296E+03  0.60023432614E+03 0.  0.
        5    1    3    3  502    0  0.13708379169E+03  0.20185248142E+03  0.94883736246E+02  0.26184232584E+03  0.46999998093E+01 0. -1.
       -5    1    3    3    0  502 -0.13708379169E+03 -0.20185248142E+03 -0.26884554705E+03  0.36309283712E+03  0.46999998093E+01 0.  1.
</event>
<event>
 5   0  0.9391405E-03  0.6000735E+03  0.7818609E-02  0.9905254E-01
        2   -1    0    0  501    0  0.00000000000E+00  0.00000000000E+00  0.60436805179E+03  0.60436805179E+03  0.25500000920E-02 0.  1.
       -2   -1    0    0    0  501  0.00000000000E+00  0.00000000000E+00 -0.14895235542E+03  0.14895235544E+03  0.25500000920E-02 0. -1.
    10030    2    1    2    0    0  0.00000000000E+00  0.00000000000E+00  0.45541569636E+03  0.75332040723E+03  0.60007347839E+03 0.  0.
        2    1    3    3  502    0 -0.87723614780E+02  0.26499589724E+03  0.36582128456E+03  0.46015591965E+03  0.25500000920E-02 0. -1.
       -2    1    3    3    0  502  0.87723614780E+02 -0.26499589724E+03  0.89594411803E+02  0.29316448758E+03  0.25500000920E-02 0.  1.
</event>
<event>
 5   0  0.9822607E-03  0.5998008E+03  0.7818609E-02  0.9905819E-01
        2   -1    0    0  501    0  0.00000000000E+00  0.00000000000E+00  0.13572567876E+04  0.13572567876E+04  0.25500000920E-02 0. -1.
       -2   -1    0    0    0  501  0.00000000000E+00  0.00000000000E+00 -0.66266194247E+02  0.66266194296E+02  0.25500000920E-02 0.  1.
    10030    2    1    2    0    0  0.00000000000E+00  0.00000000000E+00  0.12909905933E+04  0.14235229819E+04  0.59980077348E+03 0.  0.
        3    1    3    3  502    0  0.41598365040E+02 -0.16111372065E+03  0.53341207589E+02  0.17473794546E+03  0.10100000352E+00 0.  1.
       -3    1    3    3    0  502 -0.41598365040E+02  0.16111372065E+03  0.12376493858E+04  0.12487850364E+04  0.10100000352E+00 0. -1.
</event>
<event>
 5   0  0.6078658E-03  0.5998265E+03  0.7818609E-02  0.9905766E-01
       -1   -1    0    0    0  501  0.00000000000E+00  0.00000000000E+00  0.33945899760E+03  0.33945899763E+03  0.50400001928E-02 0.  1.
        1   -1    0    0  501    0  0.00000000000E+00  0.00000000000E+00 -0.26497442767E+03  0.26497442772E+03  0.50400001928E-02 0. -1.
    10030    2    1    2    0    0  0.00000000000E+00  0.00000000000E+00  0.74484569923E+02  0.60443342535E+03  0.59982648702E+03 0.  0.
        2    1    3    3  502    0  0.12873394154E+03  0.26882619573E+03  0.36999581639E+01  0.29808327849E+03  0.25500000920E-02 0.  1.
       -2    1    3    3    0  502 -0.12873394154E+03 -0.26882619573E+03  0.70784611760E+02  0.30635014687E+03  0.25500000920E-02 0. -1.
</event>
<event>
 5   0  0.5819446E-03  0.6009157E+03  0.7818609E-02  0.9903508E-01
        1   -1    0    0  501    0  0.00000000000E+00  0.00000000000E+00  0.23554550170E+03  0.23554550175E+03  0.50400001928E-02 0. -1.
       -1   -1    0    0    0  501  0.00000000000E+00  0.00000000000E+00 -0.38325897766E+03  0.38325897769E+03  0.50400001928E-02 0.  1.
    10030    2    1    2    0    0  0.00000000000E+00  0.00000000000E+00 -0.14771347596E+03  0.61880447944E+03  0.60091572853E+03 0.  0.
        5    1    3    3  502    0  0.12932571013E+03 -0.26799516171E+03 -0.11639371086E+03  0.31955614831E+03  0.46999998093E+01 0.  1.
       -5    1    3    3    0  502 -0.12932571013E+03  0.26799516171E+03 -0.31319765105E+02  0.29924833113E+03  0.46999998093E+01 0. -1.
</event>
<event>
 5   0  0.9822607E-03  0.5997164E+03  0.7818609E-02  0.9905995E-01
        2   -1    0    0  501    0  0.00000000000E+00  0.00000000000E+00  0.49991190039E+03  0.49991190040E+03  0.25500000920E-02 0.  1.
       -2   -1    0    0    0  501  0.00000000000E+00  0.00000000000E+00 -0.17986158924E+03  0.17986158925E+03  0.25500000920E-02 0. -1.
    10030    2    1    2    0    0  0.00000000000E+00  0.00000000000E+00  0.32005031116E+03  0.67977348965E+03  0.59971642929E+03 0.  0.
        3    1    3    3  502    0  0.24485879155E+03 -0.16921587016E+03  0.20128642955E+03  0.35931333879E+03  0.10100000352E+00 0.  1.
       -3    1    3    3    0  502 -0.24485879155E+03  0.16921587016E+03  0.11876388160E+03  0.32046015086E+03  0.10100000352E+00 0. -1.
</event>
<event>
 5   0  0.9822607E-03  0.5999110E+03  0.7818609E-02  0.9905591E-01
        2   -1    0    0  501    0  0.00000000000E+00  0.00000000000E+00  0.18178590390E+03  0.18178590392E+03  0.25500000920E-02 0.  1.
       -2   -1    0    0    0  501  0.00000000000E+00  0.00000000000E+00 -0.49494106894E+03  0.49494106895E+03  0.25500000920E-02 0. -1.
    10030    2    1    2    0    0  0.00000000000E+00  0.00000000000E+00 -0.31315516504E+03  0.67672697286E+03  0.59991102541E+03 0.  0.
        3    1    3    3  502    0 -0.22791515085E+03 -0.11944370816E+03  0.17306841805E+02  0.25789853117E+03  0.10100000352E+00 0.  1.
       -3    1    3    3    0  502  0.22791515085E+03  0.11944370816E+03 -0.33046200685E+03  0.41882844170E+03  0.10100000352E+00 0. -1.
</event>
<event>
 5   0  0.9391405E-03  0.6001780E+03  0.7818609E-02  0.9905037E-01
       -2   -1    0    0    0  501  0.00000000000E+00  0.00000000000E+00  0.95683856123E+02  0.95683856157E+02  0.25500000920E-02 0. -1.
        2   -1    0    0  501    0  0.00000000000E+00  0.00000000000E+00 -0.94115572154E+03  0.94115572155E+03  0.25500000920E-02 0.  1.
    10030    2    1    2    0    0  0.00000000000E+00  0.00000000000E+00 -0.84547186542E+03  0.10368395777E+04  0.60017800249E+03 0.  0.
        2    1    3    3  502    0  0.17354027750E+03  0.46116781629E+00  0.20418114391E+00  0.17354101039E+03  0.25500000920E-02 0. -1.
       -2    1    3    3    0  502 -0.17354027750E+03 -0.46116781629E+00 -0.84567604656E+03  0.86329856731E+03  0.25500000920E-02 0.  1.
</event>
<event>
 5   0  0.5765045E-03  0.5893250E+03  0.7818609E-02  0.9927804E-01
       -1   -1    0    0    0  501  0.00000000000E+00  0.00000000000E+00  0.85313228356E+02  0.85313228505E+02  0.50400001928E-02 0. -1.
        1   -1    0    0  501    0  0.00000000000E+00  0.00000000000E+00 -0.10177318350E+04  0.10177318350E+04  0.50400001928E-02 0.  1.
    10030    2    1    2    0    0  0.00000000000E+00  0.00000000000E+00 -0.93241860667E+03  0.11030450635E+04  0.58932499874E+03 0.  0.
        1    1    3    3  502    0  0.18631484864E+03  0.18033156312E+03 -0.20421484320E+03  0.33005514341E+03  0.50400001928E-02 0. -1.
       -1    1    3    3    0  502 -0.18631484864E+03 -0.18033156312E+03 -0.72820376346E+03  0.77298992013E+03  0.50400001928E-02 0.  1.
</event>
<event>
 5   0  0.9303190E-03  0.6011780E+03  0.7818609E-02  0.9902965E-01
       -2   -1    0    0    0  501  0.00000000000E+00  0.00000000000E+00  0.76666857400E+02  0.76666857442E+02  0.25500000920E-02 0.  1.
        2   -1    0    0  501    0  0.00000000000E+00  0.00000000000E+00 -0.11785240523E+04  0.11785240523E+04  0.25500000920E-02 0. -1.
    10030    2    1    2    0    0  0.00000000000E+00  0.00000000000E+00 -0.11018571949E+04  0.12551909097E+04  0.60117796197E+03 0.  0.
        4    1    3    3  502    0  0.22346693977E+03 -0.12538291185E+03 -0.22283294512E+03  0.33957986113E+03  0.12699999809E+01 0.  1.
       -4    1    3    3    0  502 -0.22346693977E+03  0.12538291185E+03 -0.87902424978E+03  0.91561104862E+03  0.12699999809E+01 0. -1.
</event>
<event>
 5   0  0.9822607E-03  0.6009722E+03  0.7818609E-02  0.9903391E-01
        2   -1    0    0  501    0  0.00000000000E+00  0.00000000000E+00  0.66472453597E+03  0.66472453598E+03  0.25500000920E-02 0.  1.
       -2   -1    0    0    0  501  0.00000000000E+00  0.00000000000E+00 -0.13583354758E+03  0.13583354761E+03  0.25500000920E-02 0. -1.
    10030    2    1    2    0    0  0.00000000000E+00  0.00000000000E+00  0.52889098839E+03  0.80055808359E+03  0.60097218538E+03 0.  0.
        3    1    3    3  502    0 -0.75748646775E+02 -0.28851336828E+03  0.21615672226E+03  0.36837692646E+03  0.10100000352E+00 0. -1.
       -3    1    3    3    0  502  0.75748646775E+02  0.28851336828E+03  0.31273426613E+03  0.43218115713E+03  0.10100000352E+00 0.  1.
</event>
<event>
 5   0  0.3806250E-03  0.6027899E+03  0.7818609E-02  0.9899635E-01
        4   -1    0    0  501    0  0.00000000000E+00  0.00000000000E+00  0.42362725755E+03  0.42362916122E+03  0.12699999809E+01 0. -1.
       -4   -1    0    0    0  501  0.00000000000E+00  0.00000000000E+00 -0.21442696422E+03  0.21443072514E+03  0.12699999809E+01 0.  1.
    10030    2    1    2    0    0  0.00000000000E+00  0.00000000000E+00  0.20920029333E+03  0.63805988636E+03  0.60278989363E+03 0.  0.
        4    1    3    3  502    0  0.50407149907E+02  0.24173922341E+03 -0.78306702628E+02  0.25906038963E+03  0.12699999809E+01 0.  1.
       -4    1    3    3    0  502 -0.50407149907E+02 -0.24173922341E+03  0.28750699596E+03  0.37899949673E+03  0.12699999809E+01 0. -1.
</event>
<event>
 5   0  0.5891927E-03  0.5997515E+03  0.7818609E-02  0.9905922E-01
       -1   -1    0    0    0  501  0.00000000000E+00  0.00000000000E+00  0.22459159824E+03  0.22459159830E+03  0.50400001928E-02 0. -1.
        1   -1    0    0  501    0  0.00000000000E+00  0.00000000000E+00 -0.40039553369E+03  0.40039553372E+03  0.50400001928E-02 0.  1.
    10030    2    1    2    0    0  0.00000000000E+00  0.00000000000E+00 -0.17580393545E+03  0.62498713202E+03  0.59975152478E+03 0.  0.
        4    1    3    3  502    0 -0.24551897811E+03 -0.30061262935E+01  0.91490434680E+02  0.26203190254E+03  0.12699999809E+01 0. -1.
       -4    1    3    3    0  502  0.24551897811E+03  0.30061262935E+01 -0.26729437013E+03  0.36295522949E+03  0.12699999809E+01 0.  1.
</event>
<event>
 5   0  0.9028473E-03  0.5998854E+03  0.7818609E-02  0.9905644E-01
        2   -1    0    0  501    0  0.00000000000E+00  0.00000000000E+00  0.60708925170E+03  0.60708925171E+03  0.25500000920E-02 0.  1.
       -2   -1    0    0    0  501  0.00000000000E+00  0.00000000000E+00 -0.14819173513E+03  0.14819173515E+03  0.25500000920E-02 0. -1.
    10030    2    1    2    0    0  0.00000000000E+00  0.00000000000E+00  0.45889751657E+03  0.75528098686E+03  0.59988535438E+03 0.  0.
        1    1    3    3  502    0 -0.20347434118E+03 -0.39782377752E+02 -0.43450390724E+02  0.21183102128E+03  0.50400001928E-02 0. -1.
       -1    1    3    3    0  502  0.20347434118E+03  0.39782377752E+02  0.50234790729E+03  0.54344996558E+03  0.50400001928E-02 0.  1.
</event>
<event>
 5   0  0.5819446E-03  0.6002075E+03  0.7818609E-02  0.9904976E-01
       -1   -1    0    0    0  501  0.00000000000E+00  0.00000000000E+00  0.19698755505E+03  0.19698755512E+03  0.50400001928E-02 0.  1.
        1   -1    0    0  501    0  0.00000000000E+00  0.00000000000E+00 -0.45719769505E+03  0.45719769508E+03  0.50400001928E-02 0. -1.
    10030    2    1    2    0    0  0.00000000000E+00  0.00000000000E+00 -0.26021014000E+03  0.65418525020E+03  0.60020748464E+03 0.  0.
        5    1    3    3  502    0 -0.29923983315E+03 -0.22253269094E+02 -0.12934960746E+03  0.32679213069E+03  0.46999998093E+01 0.  1.
       -5    1    3    3    0  502  0.29923983315E+03  0.22253269094E+02 -0.13086053254E+03  0.32739311951E+03  0.46999998093E+01 0. -1.
</event>
<event>
 5   0  0.5891927E-03  0.6001958E+03  0.7818609E-02  0.9905000E-01
       -1   -1    0    0    0  501  0.00000000000E+00  0.00000000000E+00  0.17571537943E+03  0.17571537950E+03  0.50400001928E-02 0.  1.
        1   -1    0    0  501    0  0.00000000000E+00  0.00000000000E+00 -0.51252627816E+03  0.51252627819E+03  0.50400001928E-02 0. -1.
    10030    2    1    2    0    0  0.00000000000E+00  0.00000000000E+00 -0.33681089873E+03  0.68824165769E+03  0.60019579962E+03 0.  0.
        4    1    3    3  502    0 -0.12524745814E+02 -0.28809789880E+03 -0.73154701127E+02  0.29750712890E+03  0.12699999809E+01 0.  1.
       -4    1    3    3    0  502  0.12524745814E+02  0.28809789880E+03 -0.26365619761E+03  0.39073452879E+03  0.12699999809E+01 0. -1.
</event>
<event>
 5   0  0.9822607E-03  0.5999809E+03  0.7818609E-02  0.9905446E-01
       -2   -1    0    0    0  501  0.00000000000E+00  0.00000000000E+00  0.11638114109E+03  0.11638114112E+03  0.25500000920E-02 0. -1.
        2   -1    0    0  501    0  0.00000000000E+00  0.00000000000E+00 -0.77327197853E+03  0.77327197854E+03  0.25500000920E-02 0.  1.
    10030    2    1    2    0    0  0.00000000000E+00  0.00000000000E+00 -0.65689083744E+03  0.88965311966E+03  0.59998091720E+03 0.  0.
        3    1    3    3  502    0  0.13927185619E+03 -0.12503144572E+03  0.19191112328E+02  0.18814308741E+03  0.10100000352E+00 0. -1.
       -3    1    3    3    0  502 -0.13927185619E+03  0.12503144572E+03 -0.67608194977E+03  0.70151003225E+03  0.10100000352E+00 0.  1.
</event>
<event>
 5   0  0.5891927E-03  0.6006210E+03  0.7818609E-02  0.9904118E-01
        1   -1    0    0  501    0  0.00000000000E+00  0.00000000000E+00  0.11212310019E+03  0.11212310031E+03  0.50400001928E-02 0. -1.
       -1   -1    0    0    0  501  0.00000000000E+00  0.00000000000E+00 -0.80435167271E+03  0.80435167273E+03  0.50400001928E-02 0.  1.
    10030    2    1    2    0    0  0.00000000000E+00  0.00000000000E+00 -0.69222857252E+03  0.91647477303E+03  0.60062102277E+03 0.  0.
        4    1    3    3  502    0 -0.26747972417E+03  0.60444732653E+02 -0.15932142790E+03  0.31714964738E+03  0.12699999809E+01 0. -1.
       -4    1    3    3    0  502  0.26747972417E+03 -0.60444732653E+02 -0.53290714462E+03  0.59932512565E+03  0.12699999809E+01 0.  1.
</event>
<event>
 5   0  0.5765045E-03  0.5991548E+03  0.7818609E-02  0.9907161E-01
       -1   -1    0    0    0  501  0.00000000000E+00  0.00000000000E+00  0.69138164638E+03  0.69138164640E+03  0.50400001928E-02 0.  1.
        1   -1    0    0  501    0  0.00000000000E+00  0.00000000000E+00 -0.12980762477E+03  0.12980762487E+03  0.50400001928E-02 0. -1.
    10030    2    1    2    0    0  0.00000000000E+00  0.00000000000E+00  0.56157402161E+03  0.82118927128E+03  0.59915476925E+03 0.  0.
        1    1    3    3  502    0  0.40515471683E+02  0.25622533225E+03  0.75411782542E+02  0.27014785082E+03  0.50400001928E-02 0. -1.
       -1    1    3    3    0  502 -0.40515471683E+02 -0.25622533225E+03  0.48616223907E+03  0.55104142045E+03  0.50400001928E-02 0.  1.
</event>
<event>
 5   0  0.6078658E-03  0.5995560E+03  0.7818609E-02  0.9906328E-01
        1   -1    0    0  501    0  0.00000000000E+00  0.00000000000E+00  0.87064623410E+03  0.87064623411E+03  0.50400001928E-02 0. -1.
       -1   -1    0    0    0  501  0.00000000000E+00  0.00000000000E+00 -0.10321857126E+03  0.10321857139E+03  0.50400001928E-02 0.  1.
    10030    2    1    2    0    0  0.00000000000E+00  0.00000000000E+00  0.76742766284E+03  0.97386480550E+03  0.59955603716E+03 0.  0.
        2    1    3    3  502    0  0.46315278031E+02  0.12980319156E+03  0.81613699772E+03  0.82769171348E+03  0.25500000920E-02 0. -1.
       -2    1    3    3    0  502 -0.46315278031E+02 -0.12980319156E+03 -0.48709334882E+02  0.14617309201E+03  0.25500000920E-02 0.  1.
</event>
<event>
 5   0  0.9028473E-03  0.5995757E+03  0.7818609E-02  0.9906287E-01
        2   -1    0    0  501    0  0.00000000000E+00  0.00000000000E+00  0.10616683116E+04  0.10616683116E+04  0.25500000920E-02 0.  1.
       -2   -1    0    0    0  501  0.00000000000E+00  0.00000000000E+00 -0.84652373662E+02  0.84652373700E+02  0.25500000920E-02 0. -1.
    10030    2    1    2    0    0  0.00000000000E+00  0.00000000000E+00  0.97701593793E+03  0.11463206853E+04  0.59957565875E+03 0.  0.
        1    1    3    3  502    0 -0.16503321411E+03  0.19852551191E+03  0.19714496510E+03  0.32482992154E+03  0.50400001928E-02 0. -1.
       -1    1    3    3    0  502  0.16503321411E+03 -0.19852551191E+03  0.77987097284E+03  0.82149076376E+03  0.50400001928E-02 0.  1.
</event>
<event>
 5   0  0.5819446E-03  0.6002380E+03  0.7818609E-02  0.9904912E-01
       -1   -1    0    0    0  501  0.00000000000E+00  0.00000000000E+00  0.10041404253E+03  0.10041404266E+03  0.50400001928E-02 0.  1.
        1   -1    0    0  501    0  0.00000000000E+00  0.00000000000E+00 -0.89700018549E+03  0.89700018550E+03  0.50400001928E-02 0. -1.
    10030    2    1    2    0    0  0.00000000000E+00  0.00000000000E+00 -0.79658614295E+03  0.99741422816E+03  0.60023800228E+03 0.  0.
        5    1    3    3  502    0  0.27471622969E+03  0.11274823546E+02 -0.59806479776E+03  0.65825505757E+03  0.46999998093E+01 0. -1.
       -5    1    3    3    0  502 -0.27471622969E+03 -0.11274823546E+02 -0.19852134519E+03  0.33915917059E+03  0.46999998093E+01 0.  1.
</event>
<event>
 5   0  0.9822607E-03  0.5978421E+03  0.7818609E-02  0.9909893E-01
        2   -1    0    0  501    0  0.00000000000E+00  0.00000000000E+00  0.68346245824E+03  0.68346245825E+03  0.25500000920E-02 0. -1.
       -2   -1    0    0    0  501  0.00000000000E+00  0.00000000000E+00 -0.13073692384E+03  0.13073692386E+03  0.25500000920E-02 0.  1.
    10030    2    1    2    0    0  0.00000000000E+00  0.00000000000E+00  0.55272553441E+03  0.81419938211E+03  0.59784205058E+03 0.  0.
        3    1    3    3  502    0  0.58183538763E+02  0.12983725004E+03  0.63439082343E+03  0.65014980023E+03  0.10100000352E+00 0. -1.
       -3    1    3    3    0  502 -0.58183538763E+02 -0.12983725004E+03 -0.81665289025E+02  0.16404958188E+03  0.10100000352E+00 0.  1.
</event>
<event>
 5   0  0.9391405E-03  0.6006765E+03  0.7818609E-02  0.9904003E-01
        2   -1    0    0  501    0  0.00000000000E+00  0.00000000000E+00  0.35587529255E+03  0.35587529256E+03  0.25500000920E-02 0.  1.
       -2   -1    0    0    0  501  0.00000000000E+00  0.00000000000E+00 -0.25346821322E+03  0.25346821323E+03  0.25500000920E-02 0. -1.
    10030    2    1    2    0    0  0.00000000000E+00  0.00000000000E+00  0.10240707933E+03  0.60934350579E+03  0.60067653371E+03 0.  0.
        2    1    3    3  502    0  0.28764887018E+02 -0.29438793127E+03 -0.16188999192E+01  0.29579434350E+03  0.25500000920E-02 0. -1.
       -2    1    3    3    0  502 -0.28764887018E+02  0.29438793127E+03  0.10402597925E+03  0.31354916229E+03  0.25500000920E-02 0.  1.
</event>
<event>
 5   0  0.9303190E-03  0.5999153E+03  0.7818609E-02  0.9905582E-01
       -2   -1    0    0    0  501  0.00000000000E+00  0.00000000000E+00  0.13991250288E+03  0.13991250291E+03  0.25500000920E-02 0. -1.
        2   -1    0    0  501    0  0.00000000000E+00  0.00000000000E+00 -0.64307750808E+03  0.64307750809E+03  0.25500000920E-02 0.  1.
    10030    2    1    2    0    0  0.00000000000E+00  0.00000000000E+00 -0.50316500520E+03  0.78299001100E+03  0.59991527307E+03 0.  0.
        4    1    3    3  502    0 -0.13456151396E+03 -0.11907058145E+03  0.61897919894E+02  0.19004623067E+03  0.12699999809E+01 0. -1.
       -4    1    3    3    0  502  0.13456151396E+03  0.11907058145E+03 -0.56506292509E+03  0.59294378032E+03  0.12699999809E+01 0.  1.
</event>
<event>
 5   0  0.9822607E-03  0.6006772E+03  0.7818609E-02  0.9904002E-01
       -2   -1    0    0    0  501  0.00000000000E+00  0.00000000000E+00  0.76556224850E+02  0.76556224892E+02  0.25500000920E-02 0.  1.
        2   -1    0    0  501    0  0.00000000000E+00  0.00000000000E+00 -0.11782617098E+04  0.11782617098E+04  0.25500000920E-02 0. -1.
    10030    2    1    2    0    0  0.00000000000E+00  0.00000000000E+00 -0.11017054849E+04  0.12548179347E+04  0.60067717924E+03 0.  0.
        3    1    3    3  502    0 -0.17690642669E+03 -0.19212588359E+03 -0.86066725540E+03  0.89942002071E+03  0.10100000352E+00 0. -1.
       -3    1    3    3    0  502  0.17690642669E+03  0.19212588359E+03 -0.24103822955E+03  0.35539791397E+03  0.10100000352E+00 0.  1.
</event>
<event>
 5   0  0.5765045E-03  0.6015516E+03  0.7818609E-02  0.9902192E-01
        1   -1    0    0  501    0  0.00000000000E+00  0.00000000000E+00  0.55960903193E+03  0.55960903195E+03  0.50400001928E-02 0. -1.
       -1   -1    0    0    0  501  0.00000000000E+00  0.00000000000E+00 -0.16165942951E+03  0.16165942959E+03  0.50400001928E-02 0.  1.
    10030    2    1    2    0    0  0.00000000000E+00  0.00000000000E+00  0.39794960242E+03  0.72126846155E+03  0.60155158346E+03 0.  0.
        1    1    3    3  502    0 -0.23646564084E+03 -0.23902852244E+02 -0.22043200101E+02  0.23869069596E+03  0.50400001928E-02 0.  1.
       -1    1    3    3    0  502  0.23646564084E+03  0.23902852244E+02  0.41999280252E+03  0.48257776558E+03  0.50400001928E-02 0. -1.
</event>
<event>
 5   0  0.5819446E-03  0.5952280E+03  0.7818609E-02  0.9915356E-01
        1   -1    0    0  501    0  0.00000000000E+00  0.00000000000E+00  0.50420505320E+03  0.50420505322E+03  0.50400001928E-02 0. -1.
       -1   -1    0    0    0  501  0.00000000000E+00  0.00000000000E+00 -0.17567077071E+03  0.17567077078E+03  0.50400001928E-02 0.  1.
    10030    2    1    2    0    0  0.00000000000E+00  0.00000000000E+00  0.32853428249E+03  0.67987582401E+03  0.59522799103E+03 0.  0.
        5    1    3    3  502    0 -0.23131299141E+03 -0.17937553874E+03  0.10306855357E+03  0.31036510859E+03  0.46999998093E+01 0.  1.
       -5    1    3    3    0  502  0.23131299141E+03  0.17937553874E+03  0.22546572892E+03  0.36951071542E+03  0.46999998093E+01 0. -1.
</event>
<event>
 5   0  0.5819446E-03  0.6000088E+03  0.7818609E-02  0.9905388E-01
       -1   -1    0    0    0  501  0.00000000000E+00  0.00000000000E+00  0.35231699105E+03  0.35231699108E+03  0.50400001928E-02 0. -1.
        1   -1    0    0  501    0  0.00000000000E+00  0.00000000000E+00 -0.25545924061E+03  0.25545924066E+03  0.50400001928E-02 0.  1.
    10030    2    1    2    0    0  0.00000000000E+00  0.00000000000E+00  0.96857750439E+02  0.60777623174E+03  0.60000876998E+03 0.  0.
        5    1    3    3  502    0  0.11751332123E+03  0.13489666088E+03 -0.19546614824E+03  0.26501998961E+03  0.46999998093E+01 0.  1.
       -5    1    3    3    0  502 -0.11751332123E+03 -0.13489666088E+03  0.29232389868E+03  0.34275624214E+03  0.46999998093E+01 0. -1.
</event>
<event>
 5   0  0.9303190E-03  0.6003631E+03  0.7818609E-02  0.9904653E-01
       -2   -1    0    0    0  501  0.00000000000E+00  0.00000000000E+00  0.12309053251E+03  0.12309053253E+03  0.25500000920E-02 0. -1.
        2   -1    0    0  501    0  0.00000000000E+00  0.00000000000E+00 -0.73205436660E+03  0.73205436661E+03  0.25500000920E-02 0.  1.
    10030    2    1    2    0    0  0.00000000000E+00  0.00000000000E+00 -0.60896383410E+03  0.85514489914E+03  0.60036309621E+03 0.  0.
        4    1    3    3  502    0  0.24763224822E+03 -0.23170599359E+02 -0.54388253996E+03  0.59805387483E+03  0.12699999809E+01 0.  1.
       -4    1    3    3    0  502 -0.24763224822E+03  0.23170599359E+02 -0.65081294140E+02  0.25709102431E+03  0.12699999809E+01 0. -1.
</event>
<event>
 5   0  0.9391405E-03  0.5898531E+03  0.7818609E-02  0.9926684E-01
        2   -1    0    0  501    0  0.00000000000E+00  0.00000000000E+00  0.35263721548E+03  0.35263721549E+03  0.25500000920E-02 0. -1.
       -2   -1    0    0    0  501  0.00000000000E+00  0.00000000000E+00 -0.24666051017E+03  0.24666051018E+03  0.25500000920E-02 0.  1.
    10030    2    1    2    0    0  0.00000000000E+00  0.00000000000E+00  0.10597670532E+03  0.59929772567E+03  0.58985311894E+03 0.  0.
        2    1    3    3  502    0  0.67695198289E+02  0.11517854923E+03  0.32012978760E+03  0.34688877034E+03  0.25500000920E-02 0. -1.
       -2    1    3    3    0  502 -0.67695198289E+02 -0.11517854923E+03 -0.21415308228E+03  0.25240895533E+03  0.25500000920E-02 0.  1.
</event>
<event>
 5   0  0.3806250E-03  0.6001488E+03  0.7818609E-02  0.9905097E-01
       -4   -1    0    0    0  501  0.00000000000E+00  0.00000000000E+00  0.78914436974E+02  0.78924655608E+02  0.12699999809E+01 0. -1.
        4   -1    0    0  501    0  0.00000000000E+00  0.00000000000E+00 -0.11409571627E+04  0.11409578696E+04  0.12699999809E+01 0.  1.
    10030    2    1    2    0    0  0.00000000000E+00  0.00000000000E+00 -0.10620427258E+04  0.12198825252E+04  0.60014883475E+03 0.  0.
        5    1    3    3  502    0  0.34806702230E+02  0.79337620732E+02  0.52866851246E+02  0.10160196131E+03  0.46999998093E+01 0. -1.
       -5    1    3    3    0  502 -0.34806702230E+02 -0.79337620732E+02 -0.11149095770E+04  0.11182805639E+04  0.46999998093E+01 0.  1.
</event>
<event>
 5   0  0.3806250E-03  0.6001372E+03  0.7818609E-02  0.9905121E-01
        4   -1    0    0  501    0  0.00000000000E+00  0.00000000000E+00  0.34771805080E+03  0.34772037006E+03  0.12699999809E+01 0.  1.
       -4   -1    0    0    0  501  0.00000000000E+00  0.00000000000E+00 -0.25894408093E+03  0.25894719529E+03  0.12699999809E+01 0. -1.
    10030    2    1    2    0    0  0.00000000000E+00  0.00000000000E+00  0.88773969864E+02  0.60666756535E+03  0.60013724857E+03 0.  0.
        2    1    3    3  502    0 -0.12382155811E+03  0.21433041679E+03 -0.12708148185E+03  0.27824271572E+03  0.25500000920E-02 0. -1.
       -2    1    3    3    0  502  0.12382155811E+03 -0.21433041679E+03  0.21585545172E+03  0.32842484963E+03  0.25500000920E-02 0.  1.
</event>
<event>
 5   0  0.9028473E-03  0.5990783E+03  0.7818609E-02  0.9907320E-01
        2   -1    0    0  501    0  0.00000000000E+00  0.00000000000E+00  0.54174670176E+03  0.54174670177E+03  0.25500000920E-02 0. -1.
       -2   -1    0    0    0  501  0.00000000000E+00  0.00000000000E+00 -0.16561927966E+03  0.16561927968E+03  0.25500000920E-02 0.  1.
    10030    2    1    2    0    0  0.00000000000E+00  0.00000000000E+00  0.37612742210E+03  0.70736598144E+03  0.59907828708E+03 0.  0.
        1    1    3    3  502    0  0.25851199315E+03  0.10571665980E+03  0.60240349241E+02  0.28571552717E+03  0.50400001928E-02 0.  1.
       -1    1    3    3    0  502 -0.25851199315E+03 -0.10571665980E+03  0.31588707286E+03  0.42165045427E+03  0.50400001928E-02 0. -1.
</event>
<event>
 5   0  0.5891927E-03  0.5986939E+03  0.7818609E-02  0.9908119E-01
       -1   -1    0    0    0  501  0.00000000000E+00  0.00000000000E+00  0.45617356671E+03  0.45617356674E+03  0.50400001928E-02 0.  1.
        1   -1    0    0  501    0  0.00000000000E+00  0.00000000000E+00 -0.19643532999E+03  0.19643533005E+03  0.50400001928E-02 0. -1.
    10030    2    1    2    0    0  0.00000000000E+00  0.00000000000E+00  0.25973823672E+03  0.65260889679E+03  0.59869392895E+03 0.  0.
        4    1    3    3  502    0 -0.28137011236E+03 -0.47286518854E+01  0.24111604709E+03  0.37058070827E+03  0.12699999809E+01 0.  1.
       -4    1    3    3    0  502  0.28137011236E+03  0.47286518854E+01  0.18622189633E+02  0.28202818852E+03  0.12699999809E+01 0. -1.
</event>
<event>
 5   0  0.5819446E-03  0.5998393E+03  0.7818609E-02  0.9905740E-01
       -1   -1    0    0    0  501  0.00000000000E+00  0.00000000000E+00  0.16239038963E+03  0.16239038971E+03  0.50400001928E-02 0.  1.
        1   -1    0    0  501    0  0.00000000000E+00  0.00000000000E+00 -0.55392315508E+03  0.55392315510E+03  0.50400001928E-02 0. -1.
    10030    2    1    2    0    0  0.00000000000E+00  0.00000000000E+00 -0.39153276545E+03  0.71631354481E+03  0.59983930186E+03 0.  0.
        5    1    3    3  502    0 -0.12521751982E+03  0.14444559492E+03  0.80152180127E+02  0.20734131074E+03  0.46999998093E+01 0.  1.
       -5    1    3    3    0  502  0.12521751982E+03 -0.14444559492E+03 -0.47168494558E+03  0.50897223406E+03  0.46999998093E+01 0. -1.
</event>
<event>
 5   0  0.5765045E-03  0.6018910E+03  0.7818609E-02  0.9901491E-01
       -1   -1    0    0    0  501  0.00000000000E+00  0.00000000000E+00  0.26636107108E+03  0.26636107113E+03  0.50400001928E-02 0.  1.
        1   -1    0    0  501    0  0.00000000000E+00  0.00000000000E+00 -0.34002033669E+03  0.34002033673E+03  0.50400001928E-02 0. -1.
    10030    2    1    2    0    0  0.00000000000E+00  0.00000000000E+00 -0.73659265616E+02  0.60638140786E+03  0.60189095722E+03 0.  0.
        1    1    3    3  502    0 -0.23708351972E+03  0.14686433525E+02  0.14932960230E+03  0.28057729203E+03  0.50400001928E-02 0.  1.
       -1    1    3    3    0  502  0.23708351972E+03 -0.14686433525E+02 -0.22298886792E+03  0.32580411583E+03  0.50400001928E-02 0. -1.
</event>
<event>
 5   0  0.5790967E-03  0.5999063E+03  0.7818609E-02  0.9905600E-01
        1   -1    0    0  501    0  0.00000000000E+00  0.00000000000E+00  0.38673014232E+03  0.38673014236E+03  0.50400001928E-02 0.  1.
       -1   -1    0    0    0  501  0.00000000000E+00  0.00000000000E+00 -0.23264775562E+03  0.23264775568E+03  0.50400001928E-02 0. -1.
    10030    2    1    2    0    0  0.00000000000E+00  0.00000000000E+00  0.15408238670E+03  0.61937789803E+03  0.59990632492E+03 0.  0.
        3    1    3    3  502    0 -0.19285036388E+03 -0.66331011584E+02  0.30413688304E+03  0.36618345098E+03  0.10100000352E+00 0.  1.
       -3    1    3    3    0  502  0.19285036388E+03  0.66331011584E+02 -0.15005449634E+03  0.25319444705E+03  0.10100000352E+00 0. -1.
</event>
<event>
 5   0  0.9028473E-03  0.6006475E+03  0.7818609E-02  0.9904064E-01
       -2   -1    0    0    0  501  0.00000000000E+00  0.00000000000E+00  0.42713568215E+03  0.42713568216E+03  0.25500000920E-02 0. -1.
        2   -1    0    0  501    0  0.00000000000E+00  0.00000000000E+00 -0.21116090900E+03  0.21116090902E+03  0.25500000920E-02 0.  1.
    10030    2    1    2    0    0  0.00000000000E+00  0.00000000000E+00  0.21597477315E+03  0.63829659118E+03  0.60064751366E+03 0.  0.
        1    1    3    3  502    0 -0.74225405040E+00  0.16370997918E+03 -0.15957371927E+03  0.22861601023E+03  0.50400001928E-02 0.  1.
       -1    1    3    3    0  502  0.74225405040E+00 -0.16370997918E+03  0.37554849242E+03  0.40968058095E+03  0.50400001928E-02 0. -1.
</event>
<event>
 5   0  0.9028473E-03  0.5982453E+03  0.7818609E-02  0.9909053E-01
        2   -1    0    0  501    0  0.00000000000E+00  0.00000000000E+00  0.81820057263E+03  0.81820057263E+03  0.25500000920E-02 0. -1.
       -2   -1    0    0    0  501  0.00000000000E+00  0.00000000000E+00 -0.10935505476E+03  0.10935505479E+03  0.25500000920E-02 0.  1.
    10030    2    1    2    0    0  0.00000000000E+00  0.00000000000E+00  0.70884551787E+03  0.92755562743E+03  0.59824532908E+03 0.  0.
        1    1    3    3  502    0 -0.12871886735E+03 -0.11104092250E+03 -0.27178672228E+02  0.17215491144E+03  0.50400001928E-02 0.  1.
       -1    1    3    3    0  502  0.12871886735E+03  0.11104092250E+03  0.73602419010E+03  0.75540071599E+03  0.50400001928E-02 0. -1.
</event>
<event>
 5   0  0.5819446E-03  0.5992138E+03  0.7818609E-02  0.9907038E-01
        1   -1    0    0  501    0  0.00000000000E+00  0.00000000000E+00  0.94904269332E+03  0.94904269334E+03  0.50400001928E-02 0. -1.
       -1   -1    0    0    0  501  0.00000000000E+00  0.00000000000E+00 -0.94584054706E+02  0.94584054841E+02  0.50400001928E-02 0.  1.
    10030    2    1    2    0    0  0.00000000000E+00  0.00000000000E+00  0.85445863862E+03  0.10436267482E+04  0.59921383863E+03 0.  0.
        5    1    3    3  502    0  0.22489981778E+03  0.59321708440E+02  0.75604449304E+03  0.79102740697E+03  0.46999998093E+01 0. -1.
       -5    1    3    3    0  502 -0.22489981778E+03 -0.59321708440E+02  0.98414145578E+02  0.25259934120E+03  0.46999998093E+01 0.  1.
</event>
<event>
 5   0  0.9303190E-03  0.5978200E+03  0.7818609E-02  0.9909939E-01
       -2   -1    0    0    0  501  0.00000000000E+00  0.00000000000E+00  0.45390235450E+02  0.45390235522E+02  0.25500000920E-02 0. -1.
        2   -1    0    0  501    0  0.00000000000E+00  0.00000000000E+00 -0.19684229232E+04  0.19684229232E+04  0.25500000920E-02 0.  1.
    10030    2    1    2    0    0  0.00000000000E+00  0.00000000000E+00 -0.19230326878E+04  0.20138131588E+04  0.59781997298E+03 0.  0.
        4    1    3    3  502    0  0.22728900392E+03  0.11446039739E+03 -0.14896889238E+04  0.15112697233E+04  0.12699999809E+01 0.  1.
       -4    1    3    3    0  502 -0.22728900392E+03 -0.11446039739E+03 -0.43334376400E+03  0.50254343551E+03  0.12699999809E+01 0. -1.
</event>
<event>
 5   0  0.6078658E-03  0.6011306E+03  0.7818609E-02  0.9903063E-01
       -1   -1    0    0    0  501  0.00000000000E+00  0.00000000000E+00  0.25126091816E+03  0.25126091821E+03  0.50400001928E-02 0. -1.
        1   -1    0    0  501    0  0.00000000000E+00  0.00000000000E+00 -0.35954457506E+03  0.35954457509E+03  0.50400001928E-02 0.  1.
    10030    2    1    2    0    0  0.00000000000E+00  0.00000000000E+00 -0.10828365690E+03  0.61080549330E+03  0.60113060170E+03 0.  0.
        2    1    3    3  502    0 -0.55577782366E+02 -0.15066453331E+03 -0.31229944363E+03  0.35116895363E+03  0.25500000920E-02 0.  1.
       -2    1    3    3    0  502  0.55577782366E+02  0.15066453331E+03  0.20401578673E+03  0.25963653968E+03  0.25500000920E-02 0. -1.
</event>
<event>
 5   0  0.9162342E-03  0.5998310E+03  0.7818609E-02  0.9905757E-01
        2   -1    0    0  501    0  0.00000000000E+00  0.00000000000E+00  0.13226285904E+04  0.13226285904E+04  0.25500000920E-02 0.  1.
       -2   -1    0    0    0  501  0.00000000000E+00  0.00000000000E+00 -0.68007996836E+02  0.68007996884E+02  0.25500000920E-02 0. -1.
    10030    2    1    2    0    0  0.00000000000E+00  0.00000000000E+00  0.12546205935E+04  0.13906365873E+04  0.59983104629E+03 0.  0.
        5    1    3    3  502    0  0.11717552874E+03  0.10557970664E+03  0.36009403437E+02  0.16185161762E+03  0.46999998093E+01 0. -1.
       -5    1    3    3    0  502 -0.11717552874E+03 -0.10557970664E+03  0.12186111901E+04  0.12287849696E+04  0.46999998093E+01 0.  1.
</event>
<event>
 5   0  0.9162342E-03  0.5975200E+03  0.7818609E-02  0.9910565E-01
        2   -1    0    0  501    0  0.00000000000E+00  0.00000000000E+00  0.11993763293E+04  0.11993763293E+04  0.25500000920E-02 0.  1.
       -2   -1    0    0    0  501  0.00000000000E+00  0.00000000000E+00 -0.74419966618E+02  0.74419966662E+02  0.25500000920E-02 0. -1.
    10030    2    1    2    0    0  0.00000000000E+00  0.00000000000E+00  0.11249563627E+04  0.12737962960E+04  0.59752002952E+03 0.  0.
        5    1    3    3  502    0  0.20835227748E+02  0.13338367134E+03  0.11305558487E+04  0.11385973509E+04  0.46999998093E+01 0.  1.
       -5    1    3    3    0  502 -0.20835227748E+02 -0.13338367134E+03 -0.55994860339E+01  0.13519894503E+03  0.46999998093E+01 0. -1.
</event>
<event>
 5   0  0.9822607E-03  0.6003608E+03  0.7818609E-02  0.9904658E-01
        2   -1    0    0  501    0  0.00000000000E+00  0.00000000000E+00  0.94238506067E+03  0.94238506068E+03  0.25500000920E-02 0. -1.
       -2   -1    0    0    0  501  0.00000000000E+00  0.00000000000E+00 -0.95617258256E+02  0.95617258290E+02  0.25500000920E-02 0.  1.
    10030    2    1    2    0    0  0.00000000000E+00  0.00000000000E+00  0.84676780242E+03  0.10380023190E+04  0.60036081065E+03 0.  0.
        3    1    3    3  502    0 -0.10088340369E+03 -0.23556678458E+03  0.15309479454E+03  0.29850828707E+03  0.10100000352E+00 0.  1.
       -3    1    3    3    0  502  0.10088340369E+03  0.23556678458E+03  0.69367300788E+03  0.73949403189E+03  0.10100000352E+00 0. -1.
</event>
<event>
 5   0  0.9162342E-03  0.5980618E+03  0.7818609E-02  0.9909435E-01
       -2   -1    0    0    0  501  0.00000000000E+00  0.00000000000E+00  0.41862778506E+02  0.41862778584E+02  0.25500000920E-02 0. -1.
        2   -1    0    0  501    0  0.00000000000E+00  0.00000000000E+00 -0.21360139033E+04  0.21360139033E+04  0.25500000920E-02 0.  1.
    10030    2    1    2    0    0  0.00000000000E+00  0.00000000000E+00 -0.20941511248E+04  0.21778766818E+04  0.59806179281E+03 0.  0.
        5    1    3    3  502    0  0.21673794898E+03 -0.11082661184E+03 -0.41487434971E+03  0.48104125859E+03  0.46999998093E+01 0. -1.
       -5    1    3    3    0  502 -0.21673794898E+03  0.11082661184E+03 -0.16792767750E+04  0.16968354233E+04  0.46999998093E+01 0.  1.
</event>
<event>
 5   0  0.9391405E-03  0.5999152E+03  0.7818609E-02  0.9905582E-01
       -2   -1    0    0    0  501  0.00000000000E+00  0.00000000000E+00  0.29944379613E+03  0.29944379614E+03  0.25500000920E-02 0. -1.
        2   -1    0    0  501    0  0.00000000000E+00  0.00000000000E+00 -0.30047228828E+03  0.30047228829E+03  0.25500000920E-02 0.  1.
    10030    2    1    2    0    0  0.00000000000E+00  0.00000000000E+00 -0.10284921452E+01  0.59991608443E+03  0.59991520281E+03 0.  0.
        2    1    3    3  502    0 -0.51914703431E+02  0.27141053742E+03  0.11617245583E+03  0.29975799531E+03  0.25500000920E-02 0. -1.
       -2    1    3    3    0  502  0.51914703431E+02 -0.27141053742E+03 -0.11720094797E+03  0.30015808912E+03  0.25500000920E-02 0.  1.
</event>
<event>
 5   0  0.9162342E-03  0.6004439E+03  0.7818609E-02  0.9904485E-01
        2   -1    0    0  501    0  0.00000000000E+00  0.00000000000E+00  0.12602069784E+03  0.12602069786E+03  0.25500000920E-02 0.  1.
       -2   -1    0    0    0  501  0.00000000000E+00  0.00000000000E+00 -0.71522559714E+03  0.71522559715E+03  0.25500000920E-02 0. -1.
    10030    2    1    2    0    0  0.00000000000E+00  0.00000000000E+00 -0.58920489931E+03  0.84124629501E+03  0.60044393202E+03 0.  0.
        5    1    3    3  502    0  0.57442140742E+02 -0.22028007292E+03 -0.20455547583E+02  0.22861196268E+03  0.46999998093E+01 0.  1.
       -5    1    3    3    0  502 -0.57442140742E+02  0.22028007292E+03 -0.56874935172E+03  0.61263433232E+03  0.46999998093E+01 0. -1.
</event>
<event>
 5   0  0.9391405E-03  0.6003307E+03  0.7818609E-02  0.9904720E-01
        2   -1    0    0  501    0  0.00000000000E+00  0.00000000000E+00  0.86113359072E+03  0.86113359072E+03  0.25500000920E-02 0. -1.
       -2   -1    0    0    0  501  0.00000000000E+00  0.00000000000E+00 -0.10462865634E+03  0.10462865637E+03  0.25500000920E-02 0.  1.
    10030    2    1    2    0    0  0.00000000000E+00  0.00000000000E+00  0.75650493438E+03  0.96576224709E+03  0.60033074398E+03 0.  0.
        2    1    3    3  502    0 -0.17205033553E+03  0.15664887754E+03  0.73193486295E+02  0.24392104303E+03  0.25500000920E-02 0.  1.
       -2    1    3    3    0  502  0.17205033553E+03 -0.15664887754E+03  0.68331144808E+03  0.72184120406E+03  0.25500000920E-02 0. -1.
</event>
<event>
 5   0  0.9303190E-03  0.6007162E+03  0.7818609E-02  0.9903921E-01
        2   -1    0    0  501    0  0.00000000000E+00  0.00000000000E+00  0.12018237626E+03  0.12018237628E+03  0.25500000920E-02 0. -1.
       -2   -1    0    0    0  501  0.00000000000E+00  0.00000000000E+00 -0.75065066540E+03  0.75065066541E+03  0.25500000920E-02 0.  1.
    10030    2    1    2    0    0  0.00000000000E+00  0.00000000000E+00 -0.63046828915E+03  0.87083304169E+03  0.60071617497E+03 0.  0.
        4    1    3    3  502    0 -0.12111422544E+03 -0.42074243551E+01 -0.71363174903E+03  0.72384960050E+03  0.12699999809E+01 0.  1.
       -4    1    3    3    0  502  0.12111422544E+03  0.42074243551E+01  0.83163459884E+02  0.14698344119E+03  0.12699999809E+01 0. -1.
</event>
<event>
 5   0  0.9028473E-03  0.5984671E+03  0.7818609E-02  0.9908591E-01
       -2   -1    0    0    0  501  0.00000000000E+00  0.00000000000E+00  0.18722006852E+03  0.18722006853E+03  0.25500000920E-02 0.  1.
        2   -1    0    0  501    0  0.00000000000E+00  0.00000000000E+00 -0.47826459416E+03  0.47826459417E+03  0.25500000920E-02 0. -1.
    10030    2    1    2    0    0  0.00000000000E+00  0.00000000000E+00 -0.29104452565E+03  0.66548466270E+03  0.59846714228E+03 0.  0.
        1    1    3    3  502    0 -0.33859048696E+02  0.15251332506E+03 -0.42931517833E+03  0.45685694902E+03  0.50400001928E-02 0. -1.
       -1    1    3    3    0  502  0.33859048696E+02 -0.15251332506E+03  0.13827065268E+03  0.20862771368E+03  0.50400001928E-02 0.  1.
</event>
<event>
 5   0  0.5765045E-03  0.5995369E+03  0.7818609E-02  0.9906367E-01
        1   -1    0    0  501    0  0.00000000000E+00  0.00000000000E+00  0.44956479219E+03  0.44956479221E+03  0.50400001928E-02 0. -1.
       -1   -1    0    0    0  501  0.00000000000E+00  0.00000000000E+00 -0.19988467111E+03  0.19988467117E+03  0.50400001928E-02 0.  1.
    10030    2    1    2    0    0  0.00000000000E+00  0.00000000000E+00  0.24968012108E+03  0.64944946339E+03  0.59953685677E+03 0.  0.
        1    1    3    3  502    0  0.42036791319E+01  0.10829422453E+03 -0.17792023453E+03  0.20832887429E+03  0.50400001928E-02 0.  1.
       -1    1    3    3    0  502 -0.42036791319E+01 -0.10829422453E+03  0.42760035560E+03  0.44112058909E+03  0.50400001928E-02 0. -1.
</event>
<event>
 5   0  0.5819446E-03  0.5971956E+03  0.7818609E-02  0.9911241E-01
       -1   -1    0    0    0  501  0.00000000000E+00  0.00000000000E+00  0.27836975842E+03  0.27836975846E+03  0.50400001928E-02 0.  1.
        1   -1    0    0  501    0  0.00000000000E+00  0.00000000000E+00 -0.32029576784E+03  0.32029576788E+03  0.50400001928E-02 0. -1.
    10030    2    1    2    0    0  0.00000000000E+00  0.00000000000E+00 -0.41926009422E+02  0.59866552634E+03  0.59719563140E+03 0.  0.
        5    1    3    3  502    0  0.22032237710E+03 -0.73702623413E+02 -0.20894666099E+03  0.31249771789E+03  0.46999998093E+01 0. -1.
       -5    1    3    3    0  502 -0.22032237710E+03  0.73702623413E+02  0.16702065157E+03  0.28616780845E+03  0.46999998093E+01 0.  1.
</event>
<event>
 5   0  0.3806250E-03  0.6010569E+03  0.7818609E-02  0.9903216E-01
        4   -1    0    0  501    0  0.00000000000E+00  0.00000000000E+00  0.70355925477E+02  0.70367386975E+02  0.12699999809E+01 0.  1.
       -4   -1    0    0    0  501  0.00000000000E+00  0.00000000000E+00 -0.12836042663E+04  0.12836048945E+04  0.12699999809E+01 0. -1.
    10030    2    1    2    0    0  0.00000000000E+00  0.00000000000E+00 -0.12132483408E+04  0.13539722815E+04  0.60105690469E+03 0.  0.
        5    1    3    3  502    0 -0.79038839803E+02 -0.23281810781E+02  0.44334222883E+02  0.93684546365E+02  0.46999998093E+01 0.  1.
       -5    1    3    3    0  502  0.79038839803E+02  0.23281810781E+02 -0.12575825637E+04  0.12602877351E+04  0.46999998093E+01 0. -1.
</event>
<event>
 5   0  0.5819446E-03  0.6040955E+03  0.7818609E-02  0.9896945E-01
       -1   -1    0    0    0  501  0.00000000000E+00  0.00000000000E+00  0.92763006487E+02  0.92763006624E+02  0.50400001928E-02 0. -1.
        1   -1    0    0  501    0  0.00000000000E+00  0.00000000000E+00 -0.98350474721E+03  0.98350474722E+03  0.50400001928E-02 0.  1.
    10030    2    1    2    0    0  0.00000000000E+00  0.00000000000E+00 -0.89074174072E+03  0.10762677538E+04  0.60409554650E+03 0.  0.
        5    1    3    3  502    0  0.28842571830E+03 -0.89319409808E+02 -0.43363172385E+03  0.52841831334E+03  0.46999998093E+01 0. -1.
       -5    1    3    3    0  502 -0.28842571830E+03  0.89319409808E+02 -0.45711001687E+03  0.54784944051E+03  0.46999998093E+01 0.  1.
</event>
<event>
 5   0  0.9028473E-03  0.5999656E+03  0.7818609E-02  0.9905477E-01
       -2   -1    0    0    0  501  0.00000000000E+00  0.00000000000E+00  0.16816792993E+03  0.16816792995E+03  0.25500000920E-02 0. -1.
        2   -1    0    0  501    0  0.00000000000E+00  0.00000000000E+00 -0.53511799193E+03  0.53511799194E+03  0.25500000920E-02 0.  1.
    10030    2    1    2    0    0  0.00000000000E+00  0.00000000000E+00 -0.36695006200E+03  0.70328592189E+03  0.59996561562E+03 0.  0.
        1    1    3    3  502    0 -0.20398939131E+03 -0.96969971932E+02 -0.41489334244E+03  0.47238896351E+03  0.50400001928E-02 0.  1.
       -1    1    3    3    0  502  0.20398939131E+03  0.96969971932E+02  0.47943280436E+02  0.23089695838E+03  0.50400001928E-02 0. -1.
</event>
<event>
 5   0  0.9303190E-03  0.5996222E+03  0.7818609E-02  0.9906190E-01
       -2   -1    0    0    0  501  0.00000000000E+00  0.00000000000E+00  0.11021069427E+03  0.11021069430E+03  0.25500000920E-02 0.  1.
        2   -1    0    0  501    0  0.00000000000E+00  0.00000000000E+00 -0.81558957507E+03  0.81558957508E+03  0.25500000920E-02 0. -1.
    10030    2    1    2    0    0  0.00000000000E+00  0.00000000000E+00 -0.70537888081E+03  0.92580026937E+03  0.59962219212E+03 0.  0.
        4    1    3    3  502    0 -0.10901189863E+03 -0.21851046488E+02  0.77200955058E+02  0.13536123018E+03  0.12699999809E+01 0.  1.
       -4    1    3    3    0  502  0.10901189863E+03  0.21851046488E+02 -0.78257983586E+03  0.79043903919E+03  0.12699999809E+01 0. -1.
</event>
<event>
 5   0  0.5891927E-03  0.5981862E+03  0.7818609E-02  0.9909176E-01
        1   -1    0    0  501    0  0.00000000000E+00  0.00000000000E+00  0.61754199674E+03  0.61754199676E+03  0.50400001928E-02 0.  1.
       -1   -1    0    0    0  501  0.00000000000E+00  0.00000000000E+00 -0.14485925765E+03  0.14485925774E+03  0.50400001928E-02 0. -1.
    10030    2    1    2    0    0  0.00000000000E+00  0.00000000000E+00  0.47268273910E+03  0.76240125450E+03  0.59818617589E+03 0.  0.
        4    1    3    3  502    0 -0.78224720831E+02  0.15629846778E+03 -0.72994114148E+02  0.18941507749E+03  0.12699999809E+01 0. -1.
       -4    1    3    3    0  502  0.78224720831E+02 -0.15629846778E+03  0.54567685324E+03  0.57298617701E+03  0.12699999809E+01 0.  1.
</event>
<event>
 5   0  0.6078658E-03  0.6014605E+03  0.7818609E-02  0.9902381E-01
        1   -1    0    0  501    0  0.00000000000E+00  0.00000000000E+00  0.53344774056E+03  0.53344774058E+03  0.50400001928E-02 0.  1.
       -1   -1    0    0    0  501  0.00000000000E+00  0.00000000000E+00 -0.16953614045E+03  0.16953614052E+03  0.50400001928E-02 0. -1.
    10030    2    1    2    0    0  0.00000000000E+00  0.00000000000E+00  0.36391160011E+03  0.70298388110E+03  0.60146045955E+03 0.  0.
        2    1    3    3  502    0 -0.16996393581E+03 -0.48111409684E+02  0.46642284951E+03  0.49875116218E+03  0.25500000920E-02 0.  1.
       -2    1    3    3    0  502  0.16996393581E+03  0.48111409684E+02 -0.10251124940E+03  0.20423271893E+03  0.25500000920E-02 0. -1.
</event>
<event>
 5   0  0.6078658E-03  0.5998104E+03  0.7818609E-02  0.9905800E-01
       -1   -1    0    0    0  501  0.00000000000E+00  0.00000000000E+00  0.33650101703E+03  0.33650101707E+03  0.50400001928E-02 0. -1.
        1   -1    0    0  501    0  0.00000000000E+00  0.00000000000E+00 -0.26728930824E+03  0.26728930829E+03  0.50400001928E-02 0.  1.
    10030    2    1    2    0    0  0.00000000000E+00  0.00000000000E+00  0.69211708793E+02  0.60379032536E+03  0.59981038367E+03 0.  0.
        2    1    3    3  502    0  0.10732360153E+03  0.25940710033E+03  0.14081768877E+03  0.31407008871E+03  0.25500000920E-02 0. -1.
       -2    1    3    3    0  502 -0.10732360153E+03 -0.25940710033E+03 -0.71605979973E+02  0.28972023665E+03  0.25500000920E-02 0.  1.
</event>
<event>
 5   0  0.9391405E-03  0.5994777E+03  0.7818609E-02  0.9906490E-01
       -2   -1    0    0    0  501  0.00000000000E+00  0.00000000000E+00  0.13990408650E+03  0.13990408652E+03  0.25500000920E-02 0. -1.
        2   -1    0    0  501    0  0.00000000000E+00  0.00000000000E+00 -0.64217836009E+03  0.64217836010E+03  0.25500000920E-02 0.  1.
    10030    2    1    2    0    0  0.00000000000E+00  0.00000000000E+00 -0.50227427359E+03  0.78208244662E+03  0.59947769550E+03 0.  0.
        2    1    3    3  502    0  0.27873973309E+02  0.13205335441E+03  0.98020803107E+02  0.16680265180E+03  0.25500000920E-02 0. -1.
       -2    1    3    3    0  502 -0.27873973309E+02 -0.13205335441E+03 -0.60029507670E+03  0.61527979482E+03  0.25500000920E-02 0.  1.
</event>
<event>
 5   0  0.5891927E-03  0.6005707E+03  0.7818609E-02  0.9904223E-01
       -1   -1    0    0    0  501  0.00000000000E+00  0.00000000000E+00  0.89435579538E+02  0.89435579680E+02  0.50400001928E-02 0. -1.
        1   -1    0    0  501    0  0.00000000000E+00  0.00000000000E+00 -0.10082261476E+04  0.10082261476E+04  0.50400001928E-02 0.  1.
    10030    2    1    2    0    0  0.00000000000E+00  0.00000000000E+00 -0.91879056804E+03  0.10976617273E+04  0.60057069492E+03 0.  0.
        4    1    3    3  502    0  0.19126586340E+03 -0.17471903297E+03 -0.18184804082E+03  0.31651175940E+03  0.12699999809E+01 0. -1.
       -4    1    3    3    0  502 -0.19126586340E+03  0.17471903297E+03 -0.73694252722E+03  0.78114996787E+03  0.12699999809E+01 0.  1.
</event>
<event>
 5   0  0.6078658E-03  0.6007350E+03  0.7818609E-02  0.9903882E-01
        1   -1    0    0  501    0  0.00000000000E+00  0.00000000000E+00  0.69367387428E+03  0.69367387430E+03  0.50400001928E-02 0. -1.
       -1   -1    0    0    0  501  0.00000000000E+00  0.00000000000E+00 -0.13006203975E+03  0.13006203985E+03  0.50400001928E-02 0.  1.
    10030    2    1    2    0    0  0.00000000000E+00  0.00000000000E+00  0.56361183453E+03  0.82373591415E+03  0.60073501333E+03 0.  0.
        2    1    3    3  502    0 -0.43892357226E+02  0.17354193317E+03 -0.48930355281E+02  0.18557349290E+03  0.25500000920E-02 0.  1.
       -2    1    3    3    0  502  0.43892357226E+02 -0.17354193317E+03  0.61254218981E+03  0.63816242125E+03  0.25500000920E-02 0. -1.
</event>
<event>
 5   0  0.5790967E-03  0.5998971E+03  0.7818609E-02  0.9905620E-01
        1   -1    0    0  501    0  0.00000000000E+00  0.00000000000E+00  0.10453849914E+04  0.10453849914E+04  0.50400001928E-02 0. -1.
       -1   -1    0    0    0  501  0.00000000000E+00  0.00000000000E+00 -0.86063146472E+02  0.86063146620E+02  0.50400001928E-02 0.  1.
    10030    2    1    2    0    0  0.00000000000E+00  0.00000000000E+00  0.95932184496E+03  0.11314481381E+04  0.59989706359E+03 0.  0.
        3    1    3    3  502    0  0.17282118414E+03 -0.24030296940E+03  0.38810521149E+03  0.48809665454E+03  0.10100000352E+00 0. -1.
       -3    1    3    3    0  502 -0.17282118414E+03  0.24030296940E+03  0.57121663347E+03  0.64335148352E+03  0.10100000352E+00 0.  1.
</event>
<event>
 5   0  0.5891927E-03  0.6002565E+03  0.7818609E-02  0.9904874E-01
       -1   -1    0    0    0  501  0.00000000000E+00  0.00000000000E+00  0.44325553089E+03  0.44325553092E+03  0.50400001928E-02 0. -1.
        1   -1    0    0  501    0  0.00000000000E+00  0.00000000000E+00 -0.20321677903E+03  0.20321677909E+03  0.50400001928E-02 0.  1.
    10030    2    1    2    0    0  0.00000000000E+00  0.00000000000E+00  0.24003875187E+03  0.64647231001E+03  0.60025648285E+03 0.  0.
        4    1    3    3  502    0  0.16562168430E+03  0.12660158162E+03  0.35255233067E+03  0.40957692994E+03  0.12699999809E+01 0. -1.
       -4    1    3    3    0  502 -0.16562168430E+03 -0.12660158162E+03 -0.11251357881E+03  0.23689538006E+03  0.12699999809E+01 0.  1.
</event>
<event>
 5   0  0.9303190E-03  0.5996710E+03  0.7818609E-02  0.9906089E-01
       -2   -1    0    0    0  501  0.00000000000E+00  0.00000000000E+00  0.38341330213E+03  0.38341330214E+03  0.25500000920E-02 0. -1.
        2   -1    0    0  501    0  0.00000000000E+00  0.00000000000E+00 -0.23447624875E+03  0.23447624876E+03  0.25500000920E-02 0.  1.
    10030    2    1    2    0    0  0.00000000000E+00  0.00000000000E+00  0.14893705338E+03  0.61788955089E+03  0.59967095247E+03 0.  0.
        4    1    3    3  502    0  0.11229742974E+03 -0.10160148638E+03 -0.19217154873E+03  0.24467343911E+03  0.12699999809E+01 0.  1.
       -4    1    3    3    0  502 -0.11229742974E+03  0.10160148638E+03  0.34110860211E+03  0.37321611179E+03  0.12699999809E+01 0. -1.
</event>
<event>
 5   0  0.9391405E-03  0.6007359E+03  0.7818609E-02  0.9903880E-01
       -2   -1    0    0    0  501  0.00000000000E+00  0.00000000000E+00  0.43854601458E+03  0.43854601458E+03  0.25500000920E-02 0. -1.
        2   -1    0    0  501    0  0.00000000000E+00  0.00000000000E+00 -0.20572733638E+03  0.20572733640E+03  0.25500000920E-02 0.  1.
    10030    2    1    2    0    0  0.00000000000E+00  0.00000000000E+00  0.23281867819E+03  0.64427335098E+03  0.60073589361E+03 0.  0.
        2    1    3    3  502    0 -0.67386128496E+02  0.67093037849E+02  0.42197686490E+03  0.43255848224E+03  0.25500000920E-02 0. -1.
       -2    1    3    3    0  502  0.67386128496E+02 -0.67093037849E+02 -0.18915818671E+03  0.21171486874E+03  0.25500000920E-02 0.  1.
</event>
<event>
 5   0  0.9162342E-03  0.6006680E+03  0.7818609E-02  0.9904021E-01
        2   -1    0    0  501    0  0.00000000000E+00  0.00000000000E+00  0.64793760450E+03  0.64793760450E+03  0.25500000920E-02 0.  1.
       -2   -1    0    0    0  501  0.00000000000E+00  0.00000000000E+00 -0.13921173146E+03  0.13921173148E+03  0.25500000920E-02 0. -1.
    10030    2    1    2    0    0  0.00000000000E+00  0.00000000000E+00  0.50872587304E+03  0.78714933599E+03  0.60066801417E+03 0.  0.
        5    1    3    3  502    0  0.15542523967E+03  0.64553747248E+02  0.58028018496E+03  0.60421136572E+03  0.46999998093E+01 0.  1.
       -5    1    3    3    0  502 -0.15542523967E+03 -0.64553747248E+02 -0.71554311923E+02  0.18293797026E+03  0.46999998093E+01 0. -1.
</event>
<event>
 5   0  0.9822607E-03  0.6007436E+03  0.7818609E-02  0.9903864E-01
       -2   -1    0    0    0  501  0.00000000000E+00  0.00000000000E+00  0.26515284176E+03  0.26515284177E+03  0.25500000920E-02 0.  1.
        2   -1    0    0  501    0  0.00000000000E+00  0.00000000000E+00 -0.34026877002E+03  0.34026877003E+03  0.25500000920E-02 0. -1.
    10030    2    1    2    0    0  0.00000000000E+00  0.00000000000E+00 -0.75115928261E+02  0.60542161180E+03  0.60074364363E+03 0.  0.
        3    1    3    3  502    0  0.26896524463E+03  0.98076065208E+02 -0.12916132958E+03  0.31407622744E+03  0.10100000352E+00 0. -1.
       -3    1    3    3    0  502 -0.26896524463E+03 -0.98076065208E+02  0.54045401320E+02  0.29134538436E+03  0.10100000352E+00 0.  1.
</event>
<event>
 5   0  0.9028473E-03  0.6007649E+03  0.7818609E-02  0.9903820E-01
       -2   -1    0    0    0  501  0.00000000000E+00  0.00000000000E+00  0.31649787880E+03  0.31649787881E+03  0.25500000920E-02 0.  1.
        2   -1    0    0  501    0  0.00000000000E+00  0.00000000000E+00 -0.28508756564E+03  0.28508756565E+03  0.25500000920E-02 0. -1.
    10030    2    1    2    0    0  0.00000000000E+00  0.00000000000E+00  0.31410313167E+02  0.60158544446E+03  0.60076487848E+03 0.  0.
        1    1    3    3  502    0  0.56283463312E+02 -0.10476627684E+03  0.29191847483E+03  0.31521452533E+03  0.50400001928E-02 0.  1.
       -1    1    3    3    0  502 -0.56283463312E+02  0.10476627684E+03 -0.26050816167E+03  0.28637091913E+03  0.50400001928E-02 0. -1.
</event>
<event>
 5   0  0.5790967E-03  0.6007982E+03  0.7818609E-02  0.9903751E-01
        1   -1    0    0  501    0  0.00000000000E+00  0.00000000000E+00  0.39689206961E+03  0.39689206964E+03  0.50400001928E-02 0. -1.
       -1   -1    0    0    0  501  0.00000000000E+00  0.00000000000E+00 -0.22736564552E+03  0.22736564558E+03  0.50400001928E-02 0.  1.
    10030    2    1    2    0    0  0.00000000000E+00  0.00000000000E+00  0.16952642408E+03  0.62425771522E+03  0.60079820784E+03 0.  0.
        3    1    3    3  502    0 -0.12055751424E+03 -0.15621203046E+03  0.32010981570E+03  0.37604071191E+03  0.10100000352E+00 0. -1.
       -3    1    3    3    0  502  0.12055751424E+03  0.15621203046E+03 -0.15058339162E+03  0.24821700331E+03  0.10100000352E+00 0.  1.
</event>
<event>
 5   0  0.5765045E-03  0.5905784E+03  0.7818609E-02  0.9925148E-01
       -1   -1    0    0    0  501  0.00000000000E+00  0.00000000000E+00  0.85065564537E+02  0.85065564686E+02  0.50400001928E-02 0. -1.
        1   -1    0    0  501    0  0.00000000000E+00  0.00000000000E+00 -0.10250411951E+04  0.10250411952E+04  0.50400001928E-02 0.  1.
    10030    2    1    2    0    0  0.00000000000E+00  0.00000000000E+00 -0.93997563060E+03  0.11101067598E+04  0.59057838778E+03 0.  0.
        1    1    3    3  502    0 -0.17874857275E+03  0.60371440353E+02 -0.89697202670E+03  0.91659946529E+03  0.50400001928E-02 0.  1.
       -1    1    3    3    0  502  0.17874857275E+03 -0.60371440353E+02 -0.43003603906E+02  0.19350729455E+03  0.50400001928E-02 0. -1.
</event>
<event>
 5   0  0.9822607E-03  0.6004101E+03  0.7818609E-02  0.9904556E-01
        2   -1    0    0  501    0  0.00000000000E+00  0.00000000000E+00  0.70194538538E+03  0.70194538538E+03  0.25500000920E-02 0.  1.
       -2   -1    0    0    0  501  0.00000000000E+00  0.00000000000E+00 -0.12839042160E+03  0.12839042162E+03  0.25500000920E-02 0. -1.
    10030    2    1    2    0    0  0.00000000000E+00  0.00000000000E+00  0.57355496378E+03  0.83033580700E+03  0.60041007313E+03 0.  0.
        3    1    3    3  502    0  0.54481293528E+01 -0.29861902505E+03  0.24482946789E+03  0.38619228732E+03  0.10100000352E+00 0. -1.
       -3    1    3    3    0  502 -0.54481293528E+01  0.29861902505E+03  0.32872549589E+03  0.44414351969E+03  0.10100000352E+00 0.  1.
</event>
<event>
 5   0  0.6078658E-03  0.6006545E+03  0.7818609E-02  0.9904049E-01
        1   -1    0    0  501    0  0.00000000000E+00  0.00000000000E+00  0.71461824127E+03  0.71461824129E+03  0.50400001928E-02 0. -1.
       -1   -1    0    0    0  501  0.00000000000E+00  0.00000000000E+00 -0.12621628029E+03  0.12621628039E+03  0.50400001928E-02 0.  1.
    10030    2    1    2    0    0  0.00000000000E+00  0.00000000000E+00  0.58840196099E+03  0.84083452168E+03  0.60065449732E+03 0.  0.
        2    1    3    3  502    0  0.23531124482E+03  0.18245597226E+03  0.34904443311E+03  0.45879579340E+03  0.25500000920E-02 0. -1.
       -2    1    3    3    0  502 -0.23531124482E+03 -0.18245597226E+03  0.23935752788E+03  0.38203872828E+03  0.25500000920E-02 0.  1.
</event>
<event>
 5   0  0.9028473E-03  0.6075549E+03  0.7818609E-02  0.9889855E-01
        2   -1    0    0  501    0  0.00000000000E+00  0.00000000000E+00  0.74387527605E+03  0.74387527606E+03  0.25500000920E-02 0.  1.
       -2   -1    0    0    0  501  0.00000000000E+00  0.00000000000E+00 -0.12405405471E+03  0.12405405473E+03  0.25500000920E-02 0. -1.
    10030    2    1    2    0    0  0.00000000000E+00  0.00000000000E+00  0.61982122135E+03  0.86792933079E+03  0.60755491671E+03 0.  0.
        1    1    3    3  502    0  0.11547418468E+02 -0.27665413032E+03  0.13142681420E+03  0.30650262350E+03  0.50400001928E-02 0. -1.
       -1    1    3    3    0  502 -0.11547418468E+02  0.27665413032E+03  0.48839440715E+03  0.56142670729E+03  0.50400001928E-02 0.  1.
</event>
<event>
 5   0  0.3806250E-03  0.5978764E+03  0.7818609E-02  0.9909822E-01
       -3   -1    0    0    0  501  0.00000000000E+00  0.00000000000E+00  0.90506932068E+02  0.90506988423E+02  0.10100000352E+00 0.  1.
        3   -1    0    0  501    0  0.00000000000E+00  0.00000000000E+00 -0.98737192752E+03  0.98737193269E+03  0.10100000352E+00 0. -1.
    10030    2    1    2    0    0  0.00000000000E+00  0.00000000000E+00 -0.89686499545E+03  0.10778789211E+04  0.59787636557E+03 0.  0.
        3    1    3    3  502    0  0.24103835527E+03  0.17062596613E+03 -0.36481235819E+03  0.46936209468E+03  0.10100000352E+00 0.  1.
       -3    1    3    3    0  502 -0.24103835527E+03 -0.17062596613E+03 -0.53205263726E+03  0.60851682643E+03  0.10100000352E+00 0. -1.
</event>
<event>
 5   0  0.9822607E-03  0.5991504E+03  0.7818609E-02  0.9907170E-01
        2   -1    0    0  501    0  0.00000000000E+00  0.00000000000E+00  0.63283080474E+03  0.63283080474E+03  0.25500000920E-02 0.  1.
       -2   -1    0    0    0  501  0.00000000000E+00  0.00000000000E+00 -0.14181562472E+03  0.14181562474E+03  0.25500000920E-02 0. -1.
    10030    2    1    2    0    0  0.00000000000E+00  0.00000000000E+00  0.49101518002E+03  0.77464642948E+03  0.59915038488E+03 0.  0.
        3    1    3    3  502    0  0.21899546381E+03 -0.53962505127E+02 -0.94095790280E+01  0.22574214384E+03  0.10100000352E+00 0. -1.
       -3    1    3    3    0  502 -0.21899546381E+03  0.53962505127E+02  0.50042475905E+03  0.54890428564E+03  0.10100000352E+00 0.  1.
</event>
<event>
 5   0  0.3806250E-03  0.5991046E+03  0.7818609E-02  0.9907266E-01
        3   -1    0    0  501    0  0.00000000000E+00  0.00000000000E+00  0.10137447801E+03  0.10137452833E+03  0.10100000352E+00 0. -1.
       -3   -1    0    0    0  501  0.00000000000E+00  0.00000000000E+00 -0.88514927189E+03  0.88514927766E+03  0.10100000352E+00 0.  1.
    10030    2    1    2    0    0  0.00000000000E+00  0.00000000000E+00 -0.78377479388E+03  0.98652380598E+03  0.59910457539E+03 0.  0.
        1    1    3    3  502    0 -0.21888362594E+03  0.14739527751E+03 -0.62531999903E+03  0.67871975863E+03  0.50400001928E-02 0.  1.
       -1    1    3    3    0  502  0.21888362594E+03 -0.14739527751E+03 -0.15845479485E+03  0.30780404736E+03  0.50400001928E-02 0. -1.
</event>
<event>
 5   0  0.5765045E-03  0.6043290E+03  0.7818609E-02  0.9896465E-01
       -1   -1    0    0    0  501  0.00000000000E+00  0.00000000000E+00  0.55660162144E+02  0.55660162372E+02  0.50400001928E-02 0. -1.
        1   -1    0    0  501    0  0.00000000000E+00  0.00000000000E+00 -0.16403720963E+04  0.16403720964E+04  0.50400001928E-02 0.  1.
    10030    2    1    2    0    0  0.00000000000E+00  0.00000000000E+00 -0.15847119342E+04  0.16960322587E+04  0.60432897352E+03 0.  0.
        1    1    3    3  502    0  0.27737485978E+02  0.19741874023E+03 -0.14296157545E+04  0.14434489020E+04  0.50400001928E-02 0.  1.
       -1    1    3    3    0  502 -0.27737485978E+02 -0.19741874023E+03 -0.15509617974E+03  0.25258335678E+03  0.50400001928E-02 0. -1.
</event>
<event>
 5   0  0.9822607E-03  0.5994839E+03  0.7818609E-02  0.9906477E-01
       -2   -1    0    0    0  501  0.00000000000E+00  0.00000000000E+00  0.11454430230E+03  0.11454430233E+03  0.25500000920E-02 0.  1.
        2   -1    0    0  501    0  0.00000000000E+00  0.00000000000E+00 -0.78437099224E+03  0.78437099224E+03  0.25500000920E-02 0. -1.
    10030    2    1    2    0    0  0.00000000000E+00  0.00000000000E+00 -0.66982668993E+03  0.89891529458E+03  0.59948387157E+03 0.  0.
        3    1    3    3  502    0 -0.25333786708E+03 -0.15868862411E+03 -0.30195666905E+03  0.42489998176E+03  0.10100000352E+00 0. -1.
       -3    1    3    3    0  502  0.25333786708E+03  0.15868862411E+03 -0.36787002088E+03  0.47401531281E+03  0.10100000352E+00 0.  1.
</event>
<event>
 5   0  0.9028473E-03  0.6005166E+03  0.7818609E-02  0.9904335E-01
        2   -1    0    0  501    0  0.00000000000E+00  0.00000000000E+00  0.37731651296E+03  0.37731651297E+03  0.25500000920E-02 0. -1.
       -2   -1    0    0    0  501  0.00000000000E+00  0.00000000000E+00 -0.23893743141E+03  0.23893743142E+03  0.25500000920E-02 0.  1.
    10030    2    1    2    0    0  0.00000000000E+00  0.00000000000E+00  0.13837908155E+03  0.61625394439E+03  0.60051657243E+03 0.  0.
        1    1    3    3  502    0 -0.20587736897E+03 -0.12655935589E+03 -0.11367190571E+03  0.26706565446E+03  0.50400001928E-02 0.  1.
       -1    1    3    3    0  502  0.20587736897E+03  0.12655935589E+03  0.25205098726E+03  0.34918828993E+03  0.50400001928E-02 0. -1.
</event>
<event>
 5   0  0.6078658E-03  0.6017552E+03  0.7818609E-02  0.9901771E-01
       -1   -1    0    0    0  501  0.00000000000E+00  0.00000000000E+00  0.17392329768E+03  0.17392329775E+03  0.50400001928E-02 0.  1.
        1   -1    0    0  501    0  0.00000000000E+00  0.00000000000E+00 -0.52050149826E+03  0.52050149828E+03  0.50400001928E-02 0. -1.
    10030    2    1    2    0    0  0.00000000000E+00  0.00000000000E+00 -0.34657820058E+03  0.69442479604E+03  0.60175522285E+03 0.  0.
        2    1    3    3  502    0  0.19382075831E+03  0.66678855573E+02 -0.42746969345E+03  0.47407055905E+03  0.25500000920E-02 0. -1.
       -2    1    3    3    0  502 -0.19382075831E+03 -0.66678855573E+02  0.80891492864E+02  0.22035423699E+03  0.25500000920E-02 0.  1.
</event>
<event>
 5   0  0.9303190E-03  0.6009869E+03  0.7818609E-02  0.9903361E-01
        2   -1    0    0  501    0  0.00000000000E+00  0.00000000000E+00  0.19908018379E+04  0.19908018379E+04  0.25500000920E-02 0. -1.
       -2   -1    0    0    0  501  0.00000000000E+00  0.00000000000E+00 -0.45356761937E+02  0.45356762008E+02  0.25500000920E-02 0.  1.
    10030    2    1    2    0    0  0.00000000000E+00  0.00000000000E+00  0.19454450760E+04  0.20361585999E+04  0.60098693862E+03 0.  0.
        4    1    3    3  502    0  0.45485640844E+02 -0.28421405452E+03  0.12651179016E+04  0.12974480683E+04  0.12699999809E+01 0. -1.
       -4    1    3    3    0  502 -0.45485640844E+02  0.28421405452E+03  0.68032717440E+03  0.73871053156E+03  0.12699999809E+01 0.  1.
</event>
<event>
 5   0  0.9391405E-03  0.5975759E+03  0.7818609E-02  0.9910448E-01
        2   -1    0    0  501    0  0.00000000000E+00  0.00000000000E+00  0.53060682257E+03  0.53060682257E+03  0.25500000920E-02 0.  1.
       -2   -1    0    0    0  501  0.00000000000E+00  0.00000000000E+00 -0.16824930337E+03  0.16824930339E+03  0.25500000920E-02 0. -1.
    10030    2    1    2    0    0  0.00000000000E+00  0.00000000000E+00  0.36235751920E+03  0.69885612596E+03  0.59757586387E+03 0.  0.
        2    1    3    3  502    0 -0.24919449860E+03 -0.56982417662E+01  0.37385605128E+03  0.44933140907E+03  0.25500000920E-02 0.  1.
       -2    1    3    3    0  502  0.24919449860E+03  0.56982417662E+01 -0.11498532081E+02  0.24952471689E+03  0.25500000920E-02 0. -1.
</event>
<event>
 5   0  0.5790967E-03  0.6002596E+03  0.7818609E-02  0.9904868E-01
       -1   -1    0    0    0  501  0.00000000000E+00  0.00000000000E+00  0.63601386112E+03  0.63601386114E+03  0.50400001928E-02 0. -1.
        1   -1    0    0  501    0  0.00000000000E+00  0.00000000000E+00 -0.14162881773E+03  0.14162881782E+03  0.50400001928E-02 0.  1.
    10030    2    1    2    0    0  0.00000000000E+00  0.00000000000E+00  0.49438504338E+03  0.77764267896E+03  0.60025958137E+03 0.  0.
        3    1    3    3  502    0  0.25781588931E+03 -0.11621400180E+03  0.11697498535E+03  0.30603575673E+03  0.10100000352E+00 0.  1.
       -3    1    3    3    0  502 -0.25781588931E+03  0.11621400180E+03  0.37741005803E+03  0.47160692223E+03  0.10100000352E+00 0. -1.
</event>
<event>
 5   0  0.5891927E-03  0.6007615E+03  0.7818609E-02  0.9903827E-01
       -1   -1    0    0    0  501  0.00000000000E+00  0.00000000000E+00  0.46995823946E+03  0.46995823949E+03  0.50400001928E-02 0.  1.
        1   -1    0    0  501    0  0.00000000000E+00  0.00000000000E+00 -0.19199278776E+03  0.19199278783E+03  0.50400001928E-02 0. -1.
    10030    2    1    2    0    0  0.00000000000E+00  0.00000000000E+00  0.27796545170E+03  0.66195102732E+03  0.60076149197E+03 0.  0.
        4    1    3    3  502    0 -0.12102075286E+02  0.15290733566E+03 -0.14558540055E+03  0.21148010610E+03  0.12699999809E+01 0. -1.
       -4    1    3    3    0  502  0.12102075286E+02 -0.15290733566E+03  0.42355085225E+03  0.45047092122E+03  0.12699999809E+01 0.  1.
</event>
<event>
 5   0  0.5819446E-03  0.6018060E+03  0.7818609E-02  0.9901666E-01
        1   -1    0    0  501    0  0.00000000000E+00  0.00000000000E+00  0.22271407763E+04  0.22271407763E+04  0.50400001928E-02 0. -1.
       -1   -1    0    0    0  501  0.00000000000E+00  0.00000000000E+00 -0.40654195268E+02  0.40654195581E+02  0.50400001928E-02 0.  1.
    10030    2    1    2    0    0  0.00000000000E+00  0.00000000000E+00  0.21864865810E+04  0.22677949719E+04  0.60180600320E+03 0.  0.
        5    1    3    3  502    0 -0.12457211976E+03 -0.21287271609E+03  0.44395999023E+03  0.50789326556E+03  0.46999998093E+01 0.  1.
       -5    1    3    3    0  502  0.12457211976E+03  0.21287271609E+03  0.17425265908E+04  0.17599017063E+04  0.46999998093E+01 0. -1.
</event>
<event>
 5   0  0.5891927E-03  0.5987420E+03  0.7818609E-02  0.9908019E-01
       -1   -1    0    0    0  501  0.00000000000E+00  0.00000000000E+00  0.44502740936E+02  0.44502741222E+02  0.50400001928E-02 0.  1.
        1   -1    0    0  501    0  0.00000000000E+00  0.00000000000E+00 -0.20138757401E+04  0.20138757401E+04  0.50400001928E-02 0. -1.
    10030    2    1    2    0    0  0.00000000000E+00  0.00000000000E+00 -0.19693729992E+04  0.20583784813E+04  0.59874198329E+03 0.  0.
        4    1    3    3  502    0  0.54403900163E+02  0.10258501407E+03 -0.19332927723E+04  0.19367772267E+04  0.12699999809E+01 0. -1.
       -4    1    3    3    0  502 -0.54403900163E+02 -0.10258501407E+03 -0.36080226881E+02  0.12160125466E+03  0.12699999809E+01 0.  1.
</event>
<event>
 5   0  0.5765045E-03  0.6015126E+03  0.7818609E-02  0.9902273E-01
        1   -1    0    0  501    0  0.00000000000E+00  0.00000000000E+00  0.32575308402E+03  0.32575308406E+03  0.50400001928E-02 0.  1.
       -1   -1    0    0    0  501  0.00000000000E+00  0.00000000000E+00 -0.27767760946E+03  0.27767760951E+03  0.50400001928E-02 0. -1.
    10030    2    1    2    0    0  0.00000000000E+00  0.00000000000E+00  0.48075474558E+02  0.60343069356E+03  0.60151255239E+03 0.  0.
        1    1    3    3  502    0 -0.24950501968E+03 -0.16221634427E+03 -0.19545484528E+02  0.29824306058E+03  0.50400001928E-02 0.  1.
       -1    1    3    3    0  502  0.24950501968E+03  0.16221634427E+03  0.67620959086E+02  0.30518763298E+03  0.50400001928E-02 0. -1.
</event>
<event>
 5   0  0.9162342E-03  0.6014143E+03  0.7818609E-02  0.9902476E-01
        2   -1    0    0  501    0  0.00000000000E+00  0.00000000000E+00  0.27839262824E+03  0.27839262825E+03  0.25500000920E-02 0. -1.
       -2   -1    0    0    0  501  0.00000000000E+00  0.00000000000E+00 -0.32481023796E+03  0.32481023797E+03  0.25500000920E-02 0.  1.
    10030    2    1    2    0    0  0.00000000000E+00  0.00000000000E+00 -0.46417609716E+02  0.60320286622E+03  0.60141425268E+03 0.  0.
        5    1    3    3  502    0 -0.49580812214E+01 -0.27463146969E+03 -0.14586583905E+03  0.31104012556E+03  0.46999998093E+01 0.  1.
       -5    1    3    3    0  502  0.49580812214E+01  0.27463146969E+03  0.99448229330E+02  0.29216274066E+03  0.46999998093E+01 0. -1.
</event>
<event>
 5   0  0.5891927E-03  0.6013893E+03  0.7818609E-02  0.9902528E-01
       -1   -1    0    0    0  501  0.00000000000E+00  0.00000000000E+00  0.54972117639E+02  0.54972117870E+02  0.50400001928E-02 0.  1.
        1   -1    0    0  501    0  0.00000000000E+00  0.00000000000E+00 -0.16447840546E+04  0.16447840546E+04  0.50400001928E-02 0. -1.
    10030    2    1    2    0    0  0.00000000000E+00  0.00000000000E+00 -0.15898119370E+04  0.16997561725E+04  0.60138926743E+03 0.  0.
        4    1    3    3  502    0  0.87732737519E+02  0.36772907853E+02 -0.16011257018E+04  0.16039496270E+04  0.12699999809E+01 0. -1.
       -4    1    3    3    0  502 -0.87732737519E+02 -0.36772907853E+02  0.11313764855E+02  0.95806545495E+02  0.12699999809E+01 0.  1.
</event>
<event>
 5   0  0.9162342E-03  0.6015947E+03  0.7818609E-02  0.9902103E-01
       -2   -1    0    0    0  501  0.00000000000E+00  0.00000000000E+00  0.15714845786E+03  0.15714845788E+03  0.25500000920E-02 0. -1.
        2   -1    0    0  501    0  0.00000000000E+00  0.00000000000E+00 -0.57575522257E+03  0.57575522257E+03  0.25500000920E-02 0.  1.
    10030    2    1    2    0    0  0.00000000000E+00  0.00000000000E+00 -0.41860676470E+03  0.73290368046E+03  0.60159469859E+03 0.  0.
        5    1    3    3  502    0 -0.29996947380E+03 -0.18173736889E+02 -0.19463422825E+03  0.35807337618E+03  0.46999998093E+01 0.  1.
       -5    1    3    3    0  502  0.29996947380E+03  0.18173736889E+02 -0.22397253645E+03  0.37483030428E+03  0.46999998093E+01 0. -1.
</event>
<event>
 5   0  0.9822607E-03  0.6002822E+03  0.7818609E-02  0.9904821E-01
       -2   -1    0    0    0  501  0.00000000000E+00  0.00000000000E+00  0.79527867398E+02  0.79527867439E+02  0.25500000920E-02 0.  1.
        2   -1    0    0  501    0  0.00000000000E+00  0.00000000000E+00 -0.11327434505E+04  0.11327434505E+04  0.25500000920E-02 0. -1.
    10030    2    1    2    0    0  0.00000000000E+00  0.00000000000E+00 -0.10532155831E+04  0.12122713179E+04  0.60028217016E+03 0.  0.
        3    1    3    3  502    0  0.24550096736E+02  0.28853863456E+03 -0.36724089648E+03  0.46767845485E+03  0.10100000352E+00 0. -1.
       -3    1    3    3    0  502 -0.24550096736E+02 -0.28853863456E+03 -0.68597468662E+03  0.74459286309E+03  0.10100000352E+00 0.  1.
</event>
<event>
 5   0  0.9822607E-03  0.5990439E+03  0.7818609E-02  0.9907392E-01
        2   -1    0    0  501    0  0.00000000000E+00  0.00000000000E+00  0.70898418744E+03  0.70898418744E+03  0.25500000920E-02 0. -1.
       -2   -1    0    0    0  501  0.00000000000E+00  0.00000000000E+00 -0.12653793142E+03  0.12653793145E+03  0.25500000920E-02 0.  1.
    10030    2    1    2    0    0  0.00000000000E+00  0.00000000000E+00  0.58244625602E+03  0.83552211889E+03  0.59904387987E+03 0.  0.
        3    1    3    3  502    0 -0.13067253838E+03 -0.21183578500E+03  0.52362400065E+03  0.57976876110E+03  0.10100000352E+00 0. -1.
       -3    1    3    3    0  502  0.13067253838E+03  0.21183578500E+03  0.58822255366E+02  0.25575335779E+03  0.10100000352E+00 0.  1.
</event>
<event>
 5   0  0.5819446E-03  0.5986818E+03  0.7818609E-02  0.9908145E-01
        1   -1    0    0  501    0  0.00000000000E+00  0.00000000000E+00  0.93027442648E+03  0.93027442650E+03  0.50400001928E-02 0. -1.
       -1   -1    0    0    0  501  0.00000000000E+00  0.00000000000E+00 -0.96321001838E+02  0.96321001970E+02  0.50400001928E-02 0.  1.
    10030    2    1    2    0    0  0.00000000000E+00  0.00000000000E+00  0.83395342465E+03  0.10265954285E+04  0.59868176795E+03 0.  0.
        5    1    3    3  502    0 -0.63716034624E+02  0.48444017050E+02 -0.77565243068E+02  0.11155721755E+03  0.46999998093E+01 0.  1.
       -5    1    3    3    0  502  0.63716034624E+02 -0.48444017050E+02  0.91151866771E+03  0.91503821092E+03  0.46999998093E+01 0. -1.
</event>
<event>
 5   0  0.9162342E-03  0.5994164E+03  0.7818609E-02  0.9906617E-01
       -2   -1    0    0    0  501  0.00000000000E+00  0.00000000000E+00  0.50237792858E+02  0.50237792923E+02  0.25500000920E-02 0.  1.
        2   -1    0    0  501    0  0.00000000000E+00  0.00000000000E+00 -0.17879968986E+04  0.17879968986E+04  0.25500000920E-02 0. -1.
    10030    2    1    2    0    0  0.00000000000E+00  0.00000000000E+00 -0.17377591057E+04  0.18382346915E+04  0.59941644249E+03 0.  0.
        5    1    3    3  502    0 -0.78368871164E+02 -0.53445456932E+02 -0.17406275723E+04  0.17432167199E+04  0.46999998093E+01 0. -1.
       -5    1    3    3    0  502  0.78368871164E+02  0.53445456932E+02  0.28684666234E+01  0.95017971633E+02  0.46999998093E+01 0.  1.
</event>
<event>
 5   0  0.9822607E-03  0.5987262E+03  0.7818609E-02  0.9908052E-01
        2   -1    0    0  501    0  0.00000000000E+00  0.00000000000E+00  0.72503694367E+03  0.72503694367E+03  0.25500000920E-02 0. -1.
       -2   -1    0    0    0  501  0.00000000000E+00  0.00000000000E+00 -0.12360510539E+03  0.12360510541E+03  0.25500000920E-02 0.  1.
    10030    2    1    2    0    0  0.00000000000E+00  0.00000000000E+00  0.60143183828E+03  0.84864204908E+03  0.59872620736E+03 0.  0.
        3    1    3    3  502    0 -0.27049683508E+03  0.84237000028E+02  0.43780138903E+03  0.52147337075E+03  0.10100000352E+00 0. -1.
       -3    1    3    3    0  502  0.27049683508E+03 -0.84237000028E+02  0.16363044925E+03  0.32716867833E+03  0.10100000352E+00 0.  1.
</event>
<event>
 5   0  0.5765045E-03  0.6000560E+03  0.7818609E-02  0.9905290E-01
        1   -1    0    0  501    0  0.00000000000E+00  0.00000000000E+00  0.34438466003E+03  0.34438466007E+03  0.50400001928E-02 0. -1.
       -1   -1    0    0    0  501  0.00000000000E+00  0.00000000000E+00 -0.26138445328E+03  0.26138445333E+03  0.50400001928E-02 0.  1.
    10030    2    1    2    0    0  0.00000000000E+00  0.00000000000E+00  0.83000206748E+02  0.60576911340E+03  0.60005598441E+03 0.  0.
        1    1    3    3  502    0 -0.23486406570E+03  0.35058143822E+02 -0.14362136659E+03  0.27751990878E+03  0.50400001928E-02 0.  1.
       -1    1    3    3    0  502  0.23486406570E+03 -0.35058143822E+02  0.22662157334E+03  0.32824920462E+03  0.50400001928E-02 0. -1.
</event>
<event>
 5   0  0.5790967E-03  0.6002588E+03  0.7818609E-02  0.9904869E-01
        1   -1    0    0  501    0  0.00000000000E+00  0.00000000000E+00  0.12869491077E+03  0.12869491087E+03  0.50400001928E-02 0. -1.
       -1   -1    0    0    0  501  0.00000000000E+00  0.00000000000E+00 -0.69993178054E+03  0.69993178056E+03  0.50400001928E-02 0.  1.
    10030    2    1    2    0    0  0.00000000000E+00  0.00000000000E+00 -0.57123686977E+03  0.82862669142E+03  0.60025880448E+03 0.  0.
        3    1    3    3  502    0 -0.25406892966E+03 -0.50044115656E+02 -0.76161898927E+02  0.26991865364E+03  0.10100000352E+00 0. -1.
       -3    1    3    3    0  502  0.25406892966E+03  0.50044115656E+02 -0.49507497084E+03  0.55870803779E+03  0.10100000352E+00 0.  1.
</event>
<event>
 5   0  0.6078658E-03  0.6002431E+03  0.7818609E-02  0.9904902E-01
        1   -1    0    0  501    0  0.00000000000E+00  0.00000000000E+00  0.46543256599E+03  0.46543256602E+03  0.50400001928E-02 0. -1.
       -1   -1    0    0    0  501  0.00000000000E+00  0.00000000000E+00 -0.19352522603E+03  0.19352522610E+03  0.50400001928E-02 0.  1.
    10030    2    1    2    0    0  0.00000000000E+00  0.00000000000E+00  0.27190733996E+03  0.65895779211E+03  0.60024309264E+03 0.  0.
        2    1    3    3  502    0 -0.13577063319E+03  0.12563239134E+03  0.39541012926E+03  0.43653903939E+03  0.25500000920E-02 0. -1.
       -2    1    3    3    0  502  0.13577063319E+03 -0.12563239134E+03 -0.12350278930E+03  0.22241875272E+03  0.25500000920E-02 0.  1.
</event>
<event>
 5   0  0.3806250E-03  0.6000062E+03  0.7818609E-02  0.9905393E-01
        3   -1    0    0  501    0  0.00000000000E+00  0.00000000000E+00  0.16793412119E+04  0.16793412149E+04  0.10100000352E+00 0. -1.
       -3   -1    0    0    0  501  0.00000000000E+00  0.00000000000E+00 -0.53593493587E+02  0.53593588757E+02  0.10100000352E+00 0.  1.
    10030    2    1    2    0    0  0.00000000000E+00  0.00000000000E+00  0.16257477183E+04  0.17329348037E+04  0.60000615851E+03 0.  0.
        4    1    3    3  502    0  0.67094393196E+02  0.19552960403E+03  0.18495375003E+03  0.27738598775E+03  0.12699999809E+01 0.  1.
       -4    1    3    3    0  502 -0.67094393196E+02 -0.19552960403E+03  0.14407939683E+04  0.14555488159E+04  0.12699999809E+01 0. -1.
</event>
<event>
 5   0  0.9028473E-03  0.5996918E+03  0.7818609E-02  0.9906046E-01
       -2   -1    0    0    0  501  0.00000000000E+00  0.00000000000E+00  0.14113868746E+03  0.14113868748E+03  0.25500000920E-02 0. -1.
        2   -1    0    0  501    0  0.00000000000E+00  0.00000000000E+00 -0.63701577145E+03  0.63701577146E+03  0.25500000920E-02 0.  1.
    10030    2    1    2    0    0  0.00000000000E+00  0.00000000000E+00 -0.49587708400E+03  0.77815445894E+03  0.59969182047E+03 0.  0.
        1    1    3    3  502    0  0.27749354039E+02  0.77206118573E+02  0.12629152785E+03  0.15060000474E+03  0.50400001928E-02 0. -1.
       -1    1    3    3    0  502 -0.27749354039E+02 -0.77206118573E+02 -0.62216861185E+03  0.62755445420E+03  0.50400001928E-02 0.  1.
</event>
<event>
 5   0  0.9162342E-03  0.5992631E+03  0.7818609E-02  0.9906936E-01
       -2   -1    0    0    0  501  0.00000000000E+00  0.00000000000E+00  0.17277368479E+03  0.17277368481E+03  0.25500000920E-02 0. -1.
        2   -1    0    0  501    0  0.00000000000E+00  0.00000000000E+00 -0.51963399340E+03  0.51963399341E+03  0.25500000920E-02 0.  1.
    10030    2    1    2    0    0  0.00000000000E+00  0.00000000000E+00 -0.34686030862E+03  0.69240767821E+03  0.59926314684E+03 0.  0.
        5    1    3    3  502    0  0.79674380045E+01  0.99578191182E+02 -0.49978122574E+03  0.50968878723E+03  0.46999998093E+01 0.  1.
       -5    1    3    3    0  502 -0.79674380045E+01 -0.99578191182E+02  0.15292091713E+03  0.18271889098E+03  0.46999998093E+01 0. -1.
</event>
<event>
 5   0  0.9391405E-03  0.6005969E+03  0.7818609E-02  0.9904168E-01
       -2   -1    0    0    0  501  0.00000000000E+00  0.00000000000E+00  0.29627164335E+03  0.29627164336E+03  0.25500000920E-02 0. -1.
        2   -1    0    0  501    0  0.00000000000E+00  0.00000000000E+00 -0.30438003489E+03  0.30438003490E+03  0.25500000920E-02 0.  1.
    10030    2    1    2    0    0  0.00000000000E+00  0.00000000000E+00 -0.81083915436E+01  0.60065167826E+03  0.60059694687E+03 0.  0.
        2    1    3    3  502    0 -0.20703727193E+02  0.29926496252E+03 -0.17876129221E+02  0.30051242589E+03  0.25500000920E-02 0.  1.
       -2    1    3    3    0  502  0.20703727193E+02 -0.29926496252E+03  0.97677376779E+01  0.30013925237E+03  0.25500000920E-02 0. -1.
</event>
<event>
 5   0  0.9822607E-03  0.5999112E+03  0.7818609E-02  0.9905590E-01
        2   -1    0    0  501    0  0.00000000000E+00  0.00000000000E+00  0.76571947928E+03  0.76571947928E+03  0.25500000920E-02 0. -1.
       -2   -1    0    0    0  501  0.00000000000E+00  0.00000000000E+00 -0.11750174387E+03  0.11750174390E+03  0.25500000920E-02 0.  1.
    10030    2    1    2    0    0  0.00000000000E+00  0.00000000000E+00  0.64821773540E+03  0.88322122318E+03  0.59991124059E+03 0.  0.
        3    1    3    3  502    0 -0.13375583070E+03  0.18544684530E+03  0.38278548902E+02  0.23183272458E+03  0.10100000352E+00 0.  1.
       -3    1    3    3    0  502  0.13375583070E+03 -0.18544684530E+03  0.60993918650E+03  0.65138849860E+03  0.10100000352E+00 0. -1.
</event>
<event>
 5   0  0.6078658E-03  0.5998193E+03  0.7818609E-02  0.9905781E-01
        1   -1    0    0  501    0  0.00000000000E+00  0.00000000000E+00  0.15092559903E+04  0.15092559903E+04  0.50400001928E-02 0.  1.
       -1   -1    0    0    0  501  0.00000000000E+00  0.00000000000E+00 -0.59596111012E+02  0.59596111225E+02  0.50400001928E-02 0. -1.
    10030    2    1    2    0    0  0.00000000000E+00  0.00000000000E+00  0.14496598793E+04  0.15688521016E+04  0.59981926518E+03 0.  0.
        2    1    3    3  502    0 -0.24821254414E+03 -0.11751792641E+03  0.10400635274E+04  0.10757100311E+04  0.25500000920E-02 0.  1.
       -2    1    3    3    0  502  0.24821254414E+03  0.11751792641E+03  0.40959635194E+03  0.49314207043E+03  0.25500000920E-02 0. -1.
</event>
<event>
 5   0  0.5765045E-03  0.5993916E+03  0.7818609E-02  0.9906669E-01
       -1   -1    0    0    0  501  0.00000000000E+00  0.00000000000E+00  0.16377071234E+03  0.16377071242E+03  0.50400001928E-02 0. -1.
        1   -1    0    0  501    0  0.00000000000E+00  0.00000000000E+00 -0.54843492900E+03  0.54843492902E+03  0.50400001928E-02 0.  1.
    10030    2    1    2    0    0  0.00000000000E+00  0.00000000000E+00 -0.38466421665E+03  0.71220564144E+03  0.59939162167E+03 0.  0.
        1    1    3    3  502    0  0.10320592103E+03 -0.23831398157E+03 -0.37005878163E+03  0.45209348351E+03  0.50400001928E-02 0.  1.
       -1    1    3    3    0  502 -0.10320592103E+03  0.23831398157E+03 -0.14605435026E+02  0.26011215793E+03  0.50400001928E-02 0. -1.
</event>
<event>
 5   0  0.9822607E-03  0.5999096E+03  0.7818609E-02  0.9905594E-01
        2   -1    0    0  501    0  0.00000000000E+00  0.00000000000E+00  0.63844650109E+03  0.63844650110E+03  0.25500000920E-02 0. -1.
       -2   -1    0    0    0  501  0.00000000000E+00  0.00000000000E+00 -0.14092470473E+03  0.14092470475E+03  0.25500000920E-02 0.  1.
    10030    2    1    2    0    0  0.00000000000E+00  0.00000000000E+00  0.49752179636E+03  0.77937120585E+03  0.59990960874E+03 0.  0.
        3    1    3    3  502    0 -0.21207510692E+03 -0.22969214239E+02  0.52272228899E+03  0.56457243768E+03  0.10100000352E+00 0. -1.
       -3    1    3    3    0  502  0.21207510692E+03  0.22969214239E+02 -0.25200492627E+02  0.21479876817E+03  0.10100000352E+00 0.  1.
</event>
<event>
 5   0  0.9162342E-03  0.6000874E+03  0.7818609E-02  0.9905225E-01
        2   -1    0    0  501    0  0.00000000000E+00  0.00000000000E+00  0.23617381790E+03  0.23617381792E+03  0.25500000920E-02 0.  1.
       -2   -1    0    0    0  501  0.00000000000E+00  0.00000000000E+00 -0.38118632718E+03  0.38118632719E+03  0.25500000920E-02 0. -1.
    10030    2    1    2    0    0  0.00000000000E+00  0.00000000000E+00 -0.14501250928E+03  0.61736014511E+03  0.60008742773E+03 0.  0.
        5    1    3    3  502    0  0.24316996434E+03 -0.17434605548E+03 -0.94950759284E+02  0.31395209078E+03  0.46999998093E+01 0. -1.
       -5    1    3    3    0  502 -0.24316996434E+03  0.17434605548E+03 -0.50061749994E+02  0.30340805433E+03  0.46999998093E+01 0.  1.
</event>
<event>
 5   0  0.5790967E-03  0.5999595E+03  0.7818609E-02  0.9905490E-01
       -1   -1    0    0    0  501  0.00000000000E+00  0.00000000000E+00  0.90599318326E+02  0.90599318466E+02  0.50400001928E-02 0. -1.
        1   -1    0    0  501    0  0.00000000000E+00  0.00000000000E+00 -0.99325101783E+03  0.99325101784E+03  0.50400001928E-02 0.  1.
    10030    2    1    2    0    0  0.00000000000E+00  0.00000000000E+00 -0.90265169950E+03  0.10838503363E+04  0.59995954939E+03 0.  0.
        3    1    3    3  502    0  0.15668775620E+03  0.23305875140E+03 -0.64183153937E+03  0.70058202209E+03  0.10100000352E+00 0.  1.
       -3    1    3    3    0  502 -0.15668775620E+03 -0.23305875140E+03 -0.26082016013E+03  0.38326831421E+03  0.10100000352E+00 0. -1.
</event>
<event>
 5   0  0.6078658E-03  0.6059770E+03  0.7818609E-02  0.9893083E-01
       -1   -1    0    0    0  501  0.00000000000E+00  0.00000000000E+00  0.10446777711E+03  0.10446777723E+03  0.50400001928E-02 0.  1.
        1   -1    0    0  501    0  0.00000000000E+00  0.00000000000E+00 -0.87875936705E+03  0.87875936707E+03  0.50400001928E-02 0. -1.
    10030    2    1    2    0    0  0.00000000000E+00  0.00000000000E+00 -0.77429158994E+03  0.98322714430E+03  0.60597702187E+03 0.  0.
        2    1    3    3  502    0 -0.27954515604E+03  0.11658101716E+03 -0.37402320565E+03  0.48127953020E+03  0.25500000920E-02 0.  1.
       -2    1    3    3    0  502  0.27954515604E+03 -0.11658101716E+03 -0.40026838429E+03  0.50194761409E+03  0.25500000920E-02 0. -1.
</event>
<event>
 5   0  0.6078658E-03  0.6000048E+03  0.7818609E-02  0.9905396E-01
        1   -1    0    0  501    0  0.00000000000E+00  0.00000000000E+00  0.22295691239E+04  0.22295691239E+04  0.50400001928E-02 0. -1.
       -1   -1    0    0    0  501  0.00000000000E+00  0.00000000000E+00 -0.40367189275E+02  0.40367189589E+02  0.50400001928E-02 0.  1.
    10030    2    1    2    0    0  0.00000000000E+00  0.00000000000E+00  0.21892019347E+04  0.22699363135E+04  0.60000479728E+03 0.  0.
        2    1    3    3  502    0 -0.21240091441E+03 -0.43569728599E+02  0.18790007544E+04  0.18914693507E+04  0.25500000920E-02 0. -1.
       -2    1    3    3    0  502  0.21240091441E+03  0.43569728599E+02  0.31020118026E+03  0.37846696280E+03  0.25500000920E-02 0.  1.
</event>
<event>
 5   0  0.9303190E-03  0.5998330E+03  0.7818609E-02  0.9905753E-01
        2   -1    0    0  501    0  0.00000000000E+00  0.00000000000E+00  0.14533045843E+04  0.14533045843E+04  0.25500000920E-02 0.  1.
       -2   -1    0    0    0  501  0.00000000000E+00  0.00000000000E+00 -0.61893360106E+02  0.61893360158E+02  0.25500000920E-02 0. -1.
    10030    2    1    2    0    0  0.00000000000E+00  0.00000000000E+00  0.13914112242E+04  0.15151979444E+04  0.59983299015E+03 0.  0.
        4    1    3    3  502    0  0.42173985247E+02  0.16260044144E+03  0.13233154970E+04  0.13339351806E+04  0.12699999809E+01 0.  1.
       -4    1    3    3    0  502 -0.42173985247E+02 -0.16260044144E+03  0.68095727162E+02  0.18126276381E+03  0.12699999809E+01 0. -1.
</event>
<event>
 5   0  0.3806250E-03  0.6006794E+03  0.7818609E-02  0.9903997E-01
       -3   -1    0    0    0  501  0.00000000000E+00  0.00000000000E+00  0.11023129320E+03  0.11023133947E+03  0.10100000352E+00 0. -1.
        3   -1    0    0  501    0  0.00000000000E+00  0.00000000000E+00 -0.81831495480E+03  0.81831496104E+03  0.10100000352E+00 0.  1.
    10030    2    1    2    0    0  0.00000000000E+00  0.00000000000E+00 -0.70808366160E+03  0.92854630051E+03  0.60067941563E+03 0.  0.
        3    1    3    3  502    0 -0.23066377154E+03  0.15228016592E+03 -0.17238972259E+03  0.32575028946E+03  0.10100000352E+00 0. -1.
       -3    1    3    3    0  502  0.23066377154E+03 -0.15228016592E+03 -0.53569393902E+03  0.60279601104E+03  0.10100000352E+00 0.  1.
</event>
<event>
 5   0  0.5819446E-03  0.5990635E+03  0.7818609E-02  0.9907351E-01
       -1   -1    0    0    0  501  0.00000000000E+00  0.00000000000E+00  0.23977337119E+03  0.23977337124E+03  0.50400001928E-02 0.  1.
        1   -1    0    0  501    0  0.00000000000E+00  0.00000000000E+00 -0.37418367669E+03  0.37418367672E+03  0.50400001928E-02 0. -1.
    10030    2    1    2    0    0  0.00000000000E+00  0.00000000000E+00 -0.13441030550E+03  0.61395704797E+03  0.59906354131E+03 0.  0.
        5    1    3    3  502    0  0.20306994311E+03 -0.82015332420E+02  0.14216093306E+03  0.26114313591E+03  0.46999998093E+01 0.  1.
       -5    1    3    3    0  502 -0.20306994311E+03  0.82015332420E+02 -0.27657123856E+03  0.35281391206E+03  0.46999998093E+01 0. -1.
</event>
<event>
 5   0  0.9162342E-03  0.5993911E+03  0.7818609E-02  0.9906670E-01
        2   -1    0    0  501    0  0.00000000000E+00  0.00000000000E+00  0.30594548922E+03  0.30594548923E+03  0.25500000920E-02 0. -1.
       -2   -1    0    0    0  501  0.00000000000E+00  0.00000000000E+00 -0.29357332860E+03  0.29357332861E+03  0.25500000920E-02 0.  1.
    10030    2    1    2    0    0  0.00000000000E+00  0.00000000000E+00  0.12372160619E+02  0.59951881784E+03  0.59939114323E+03 0.  0.
        5    1    3    3  502    0  0.14256518530E+03 -0.19744099499E+03 -0.16845800522E+03  0.29615531074E+03  0.46999998093E+01 0. -1.
       -5    1    3    3    0  502 -0.14256518530E+03  0.19744099499E+03  0.18083016584E+03  0.30336350709E+03  0.46999998093E+01 0.  1.
</event>
<event>
 5   0  0.3806250E-03  0.5992456E+03  0.7818609E-02  0.9906972E-01
       -4   -1    0    0    0  501  0.00000000000E+00  0.00000000000E+00  0.39679205097E+03  0.39679408339E+03  0.12699999809E+01 0.  1.
        4   -1    0    0  501    0  0.00000000000E+00  0.00000000000E+00 -0.22624463554E+03  0.22624820002E+03  0.12699999809E+01 0. -1.
    10030    2    1    2    0    0  0.00000000000E+00  0.00000000000E+00  0.17054741542E+03  0.62304228341E+03  0.59924558072E+03 0.  0.
        5    1    3    3  502    0 -0.18369123646E+03  0.15758748247E+03  0.26885101192E+03  0.36177236156E+03  0.46999998093E+01 0.  1.
       -5    1    3    3    0  502  0.18369123646E+03 -0.15758748247E+03 -0.98303596492E+02  0.26126992185E+03  0.46999998093E+01 0. -1.
</event>
<event>
 5   0  0.3806250E-03  0.5998587E+03  0.7818609E-02  0.9905699E-01
        3   -1    0    0  501    0  0.00000000000E+00  0.00000000000E+00  0.25195573101E+03  0.25195575125E+03  0.10100000352E+00 0. -1.
       -3   -1    0    0    0  501  0.00000000000E+00  0.00000000000E+00 -0.35703731771E+03  0.35703733200E+03  0.10100000352E+00 0.  1.
    10030    2    1    2    0    0  0.00000000000E+00  0.00000000000E+00 -0.10508158670E+03  0.60899308325E+03  0.59985867968E+03 0.  0.
        5    1    3    3  502    0 -0.19600948914E+03  0.66749565870E+02  0.16769643517E+03  0.26649466926E+03  0.46999998093E+01 0. -1.
       -5    1    3    3    0  502  0.19600948914E+03 -0.66749565870E+02 -0.27277802187E+03  0.34249841400E+03  0.46999998093E+01 0.  1.
</event>
<event>
 5   0  0.3806250E-03  0.6005075E+03  0.7818609E-02  0.9904354E-01
       -3   -1    0    0    0  501  0.00000000000E+00  0.00000000000E+00  0.45168976205E+03  0.45168977334E+03  0.10100000352E+00 0.  1.
        3   -1    0    0  501    0  0.00000000000E+00  0.00000000000E+00 -0.19958899267E+03  0.19958901822E+03  0.10100000352E+00 0. -1.
    10030    2    1    2    0    0  0.00000000000E+00  0.00000000000E+00  0.25210076938E+03  0.65127879157E+03  0.60050750738E+03 0.  0.
        3    1    3    3  502    0 -0.10091967432E+03  0.20471544757E+03  0.33763194526E+03  0.40753961255E+03  0.10100000352E+00 0.  1.
       -3    1    3    3    0  502  0.10091967432E+03 -0.20471544757E+03 -0.85531175879E+02  0.24373917901E+03  0.10100000352E+00 0. -1.
</event>
<event>
 5   0  0.9028473E-03  0.5990968E+03  0.7818609E-02  0.9907282E-01
        2   -1    0    0  501    0  0.00000000000E+00  0.00000000000E+00  0.72492887080E+03  0.72492887080E+03  0.25500000920E-02 0.  1.
       -2   -1    0    0    0  501  0.00000000000E+00  0.00000000000E+00 -0.12377661002E+03  0.12377661005E+03  0.25500000920E-02 0. -1.
    10030    2    1    2    0    0  0.00000000000E+00  0.00000000000E+00  0.60115226078E+03  0.84870548085E+03  0.59909678066E+03 0.  0.
        1    1    3    3  502    0 -0.91548202765E+02 -0.18574492000E+03 -0.60441412862E+01  0.20716848314E+03  0.50400001928E-02 0. -1.
       -1    1    3    3    0  502  0.91548202765E+02  0.18574492000E+03  0.60719640206E+03  0.64153699772E+03  0.50400001928E-02 0.  1.
</event>
<event>
 5   0  0.5790967E-03  0.6024863E+03  0.7818609E-02  0.9900261E-01
        1   -1    0    0  501    0  0.00000000000E+00  0.00000000000E+00  0.36220845676E+03  0.36220845679E+03  0.50400001928E-02 0. -1.
       -1   -1    0    0    0  501  0.00000000000E+00  0.00000000000E+00 -0.25053921389E+03  0.25053921394E+03  0.50400001928E-02 0.  1.
    10030    2    1    2    0    0  0.00000000000E+00  0.00000000000E+00  0.11166924287E+03  0.61274767074E+03  0.60248625560E+03 0.  0.
        3    1    3    3  502    0  0.32772524004E+02  0.16741149549E+03 -0.19668182540E+03  0.26035436965E+03  0.10100000352E+00 0.  1.
       -3    1    3    3    0  502 -0.32772524004E+02 -0.16741149549E+03  0.30835106826E+03  0.35239330109E+03  0.10100000352E+00 0. -1.
</event>
<event>
 5   0  0.3806250E-03  0.5957903E+03  0.7818609E-02  0.9914178E-01
       -4   -1    0    0    0  501  0.00000000000E+00  0.00000000000E+00  0.43833180797E+03  0.43833364778E+03  0.12699999809E+01 0. -1.
        4   -1    0    0  501    0  0.00000000000E+00  0.00000000000E+00 -0.20244860170E+03  0.20245258514E+03  0.12699999809E+01 0.  1.
    10030    2    1    2    0    0  0.00000000000E+00  0.00000000000E+00  0.23588320627E+03  0.64078623292E+03  0.59579032327E+03 0.  0.
        2    1    3    3  502    0 -0.17774993571E+03  0.76074582497E+02  0.36168262208E+03  0.41011791093E+03  0.25500000920E-02 0. -1.
       -2    1    3    3    0  502  0.17774993571E+03 -0.76074582497E+02 -0.12579941580E+03  0.23066832199E+03  0.25500000920E-02 0.  1.
</event>
<event>
 5   0  0.9391405E-03  0.6001592E+03  0.7818609E-02  0.9905076E-01
        2   -1    0    0  501    0  0.00000000000E+00  0.00000000000E+00  0.12063583305E+03  0.12063583307E+03  0.25500000920E-02 0.  1.
       -2   -1    0    0    0  501  0.00000000000E+00  0.00000000000E+00 -0.74644301228E+03  0.74644301229E+03  0.25500000920E-02 0. -1.
    10030    2    1    2    0    0  0.00000000000E+00  0.00000000000E+00 -0.62580717924E+03  0.86707884536E+03  0.60015922762E+03 0.  0.
        2    1    3    3  502    0  0.21243626148E+03  0.20374327084E+03 -0.39723640306E+03  0.49440595215E+03  0.25500000920E-02 0. -1.
       -2    1    3    3    0  502 -0.21243626148E+03 -0.20374327084E+03 -0.22857077618E+03  0.37267289321E+03  0.25500000920E-02 0.  1.
</event>
<event>
 5   0  0.9391405E-03  0.6013966E+03  0.7818609E-02  0.9902513E-01
        2   -1    0    0  501    0  0.00000000000E+00  0.00000000000E+00  0.81112602599E+03  0.81112602600E+03  0.25500000920E-02 0.  1.
       -2   -1    0    0    0  501  0.00000000000E+00  0.00000000000E+00 -0.11147398901E+03  0.11147398904E+03  0.25500000920E-02 0. -1.
    10030    2    1    2    0    0  0.00000000000E+00  0.00000000000E+00  0.69965203699E+03  0.92260001504E+03  0.60139655377E+03 0.  0.
        2    1    3    3  502    0  0.14315042606E+03 -0.25523471153E+03  0.24373298198E+03  0.38084454698E+03  0.25500000920E-02 0. -1.
       -2    1    3    3    0  502 -0.14315042606E+03  0.25523471153E+03  0.45591905500E+03  0.54175546806E+03  0.25500000920E-02 0.  1.
</event>
<event>
 5   0  0.9303190E-03  0.5995432E+03  0.7818609E-02  0.9906354E-01
        2   -1    0    0  501    0  0.00000000000E+00  0.00000000000E+00  0.18998403996E+04  0.18998403996E+04  0.25500000920E-02 0. -1.
       -2   -1    0    0    0  501  0.00000000000E+00  0.00000000000E+00 -0.47300294313E+02  0.47300294382E+02  0.25500000920E-02 0.  1.
    10030    2    1    2    0    0  0.00000000000E+00  0.00000000000E+00  0.18525401053E+04  0.19471406940E+04  0.59954319317E+03 0.  0.
        4    1    3    3  502    0 -0.68477227734E+02  0.34217846567E+01 -0.21484993955E+02  0.71861374838E+02  0.12699999809E+01 0.  1.
       -4    1    3    3    0  502  0.68477227734E+02 -0.34217846567E+01  0.18740250993E+04  0.18752793192E+04  0.12699999809E+01 0. -1.
</event>
<event>
 5   0  0.9391405E-03  0.6160803E+03  0.7818609E-02  0.9872595E-01
       -2   -1    0    0    0  501  0.00000000000E+00  0.00000000000E+00  0.96966122041E+02  0.96966122074E+02  0.25500000920E-02 0. -1.
        2   -1    0    0  501    0  0.00000000000E+00  0.00000000000E+00 -0.97857601042E+03  0.97857601043E+03  0.25500000920E-02 0.  1.
    10030    2    1    2    0    0  0.00000000000E+00  0.00000000000E+00 -0.88160988838E+03  0.10755421325E+04  0.61608025735E+03 0.  0.
        2    1    3    3  502    0 -0.32742627400E+02  0.28940416737E+02 -0.97313720920E+03  0.97411788573E+03  0.25500000920E-02 0.  1.
       -2    1    3    3    0  502  0.32742627400E+02 -0.28940416737E+02  0.91527320817E+02  0.10142424677E+03  0.25500000920E-02 0. -1.
</event>
<event>
 5   0  0.9391405E-03  0.5991269E+03  0.7818609E-02  0.9907219E-01
        2   -1    0    0  501    0  0.00000000000E+00  0.00000000000E+00  0.49575693440E+03  0.49575693441E+03  0.25500000920E-02 0.  1.
       -2   -1    0    0    0  501  0.00000000000E+00  0.00000000000E+00 -0.18101261317E+03  0.18101261319E+03  0.25500000920E-02 0. -1.
    10030    2    1    2    0    0  0.00000000000E+00  0.00000000000E+00  0.31474432123E+03  0.67676954760E+03  0.59912689208E+03 0.  0.
        2    1    3    3  502    0  0.27361779952E+03  0.11777387451E+03  0.19310860706E+03  0.35500467583E+03  0.25500000920E-02 0.  1.
       -2    1    3    3    0  502 -0.27361779952E+03 -0.11777387451E+03  0.12163571417E+03  0.32176487177E+03  0.25500000920E-02 0. -1.
</event>
<event>
 5   0  0.9822607E-03  0.6005170E+03  0.7818609E-02  0.9904334E-01
        2   -1    0    0  501    0  0.00000000000E+00  0.00000000000E+00  0.26370935956E+03  0.26370935957E+03  0.25500000920E-02 0.  1.
       -2   -1    0    0    0  501  0.00000000000E+00  0.00000000000E+00 -0.34187319209E+03  0.34187319210E+03  0.25500000920E-02 0. -1.
    10030    2    1    2    0    0  0.00000000000E+00  0.00000000000E+00 -0.78163832527E+02  0.60558255167E+03  0.60051697909E+03 0.  0.
        3    1    3    3  502    0 -0.22533579774E+02  0.20904262073E+03  0.17708243125E+03  0.27489048211E+03  0.10100000352E+00 0.  1.
       -3    1    3    3    0  502  0.22533579774E+02 -0.20904262073E+03 -0.25524626377E+03  0.33069206956E+03  0.10100000352E+00 0. -1.
</event>
<event>
 5   0  0.6078658E-03  0.6023718E+03  0.7818609E-02  0.9900498E-01
        1   -1    0    0  501    0  0.00000000000E+00  0.00000000000E+00  0.79968286613E+03  0.79968286615E+03  0.50400001928E-02 0.  1.
       -1   -1    0    0    0  501  0.00000000000E+00  0.00000000000E+00 -0.11343613392E+03  0.11343613403E+03  0.50400001928E-02 0. -1.
    10030    2    1    2    0    0  0.00000000000E+00  0.00000000000E+00  0.68624673222E+03  0.91311900018E+03  0.60237175483E+03 0.  0.
        2    1    3    3  502    0 -0.10745057533E+03 -0.24754748071E+03  0.54586279905E+03  0.60892657746E+03  0.25500000920E-02 0.  1.
       -2    1    3    3    0  502  0.10745057533E+03  0.24754748071E+03  0.14038393316E+03  0.30419242272E+03  0.25500000920E-02 0. -1.
</event>
<event>
 5   0  0.5765045E-03  0.5997599E+03  0.7818609E-02  0.9905904E-01
       -1   -1    0    0    0  501  0.00000000000E+00  0.00000000000E+00  0.58230451094E+03  0.58230451096E+03  0.50400001928E-02 0. -1.
        1   -1    0    0  501    0  0.00000000000E+00  0.00000000000E+00 -0.15443463238E+03  0.15443463246E+03  0.50400001928E-02 0.  1.
    10030    2    1    2    0    0  0.00000000000E+00  0.00000000000E+00  0.42786987856E+03  0.73673914342E+03  0.59975989568E+03 0.  0.
        1    1    3    3  502    0  0.44407037176E+02  0.10552890863E+03 -0.12653006459E+03  0.17064053673E+03  0.50400001928E-02 0.  1.
       -1    1    3    3    0  502 -0.44407037176E+02 -0.10552890863E+03  0.55439994315E+03  0.56609860669E+03  0.50400001928E-02 0. -1.
</event>
<event>
 5   0  0.5790967E-03  0.5988818E+03  0.7818609E-02  0.9907729E-01
       -1   -1    0    0    0  501  0.00000000000E+00  0.00000000000E+00  0.58960483167E+03  0.58960483169E+03  0.50400001928E-02 0. -1.
        1   -1    0    0  501    0  0.00000000000E+00  0.00000000000E+00 -0.15207619367E+03  0.15207619375E+03  0.50400001928E-02 0.  1.
    10030    2    1    2    0    0  0.00000000000E+00  0.00000000000E+00  0.43752863800E+03  0.74168102544E+03  0.59888182008E+03 0.  0.
        3    1    3    3  502    0 -0.10978334730E+03  0.27825923055E+03  0.20195313663E+03  0.36092334688E+03  0.10100000352E+00 0.  1.
       -3    1    3    3    0  502  0.10978334730E+03 -0.27825923055E+03  0.23557550137E+03  0.38075767855E+03  0.10100000352E+00 0. -1.
</event>
<event>
 5   0  0.3806250E-03  0.6107496E+03  0.7818609E-02  0.9883352E-01
       -3   -1    0    0    0  501  0.00000000000E+00  0.00000000000E+00  0.24971487546E+03  0.24971489588E+03  0.10100000352E+00 0.  1.
        3   -1    0    0  501    0  0.00000000000E+00  0.00000000000E+00 -0.37344095284E+03  0.37344096650E+03  0.10100000352E+00 0. -1.
    10030    2    1    2    0    0  0.00000000000E+00  0.00000000000E+00 -0.12372607739E+03  0.62315586238E+03  0.61074961039E+03 0.  0.
        4    1    3    3  502    0 -0.11188417916E+03  0.15002200332E+03  0.18434232652E+03  0.26269445611E+03  0.12699999809E+01 0.  1.
       -4    1    3    3    0  502  0.11188417916E+03 -0.15002200332E+03 -0.30806840390E+03  0.36046140627E+03  0.12699999809E+01 0. -1.
</event>
<event>
 5   0  0.6078658E-03  0.5995424E+03  0.7818609E-02  0.9906356E-01
       -1   -1    0    0    0  501  0.00000000000E+00  0.00000000000E+00  0.10140362337E+03  0.10140362349E+03  0.50400001928E-02 0. -1.
        1   -1    0    0  501    0  0.00000000000E+00  0.00000000000E+00 -0.88618904002E+03  0.88618904004E+03  0.50400001928E-02 0.  1.
    10030    2    1    2    0    0  0.00000000000E+00  0.00000000000E+00 -0.78478541666E+03  0.98759266353E+03  0.59954242457E+03 0.  0.
        2    1    3    3  502    0  0.16293567156E+02  0.28667040907E+03 -0.53426026231E+03  0.60653065186E+03  0.25500000920E-02 0. -1.
       -2    1    3    3    0  502 -0.16293567156E+02 -0.28667040907E+03 -0.25052515435E+03  0.38106201166E+03  0.25500000920E-02 0.  1.
</event>
<event>
 5   0  0.5765045E-03  0.6023018E+03  0.7818609E-02  0.9900642E-01
        1   -1    0    0  501    0  0.00000000000E+00  0.00000000000E+00  0.31923888824E+03  0.31923888828E+03  0.50400001928E-02 0.  1.
       -1   -1    0    0    0  501  0.00000000000E+00  0.00000000000E+00 -0.28408776694E+03  0.28408776699E+03  0.50400001928E-02 0. -1.
    10030    2    1    2    0    0  0.00000000000E+00  0.00000000000E+00  0.35151121293E+02  0.60332665527E+03  0.60230179447E+03 0.  0.
        1    1    3    3  502    0 -0.96458536765E+02 -0.20074770461E+03 -0.18547103508E+03  0.28983339197E+03  0.50400001928E-02 0. -1.
       -1    1    3    3    0  502  0.96458536765E+02  0.20074770461E+03  0.22062215637E+03  0.31349326329E+03  0.50400001928E-02 0.  1.
</event>
<event>
 5   0  0.9303190E-03  0.6030726E+03  0.7818609E-02  0.9899052E-01
        2   -1    0    0  501    0  0.00000000000E+00  0.00000000000E+00  0.16865671844E+04  0.16865671844E+04  0.25500000920E-02 0.  1.
       -2   -1    0    0    0  501  0.00000000000E+00  0.00000000000E+00 -0.53910765240E+02  0.53910765301E+02  0.25500000920E-02 0. -1.
    10030    2    1    2    0    0  0.00000000000E+00  0.00000000000E+00  0.16326564192E+04  0.17404779497E+04  0.60307255814E+03 0.  0.
        4    1    3    3  502    0 -0.26270516448E+03  0.13393353781E+02  0.12417503819E+04  0.12693065072E+04  0.12699999809E+01 0.  1.
       -4    1    3    3    0  502  0.26270516448E+03 -0.13393353781E+02  0.39090603730E+03  0.47117144254E+03  0.12699999809E+01 0. -1.
</event>
<event>
 5   0  0.9303190E-03  0.5990938E+03  0.7818609E-02  0.9907288E-01
        2   -1    0    0  501    0  0.00000000000E+00  0.00000000000E+00  0.56794435493E+03  0.56794435493E+03  0.25500000920E-02 0.  1.
       -2   -1    0    0    0  501  0.00000000000E+00  0.00000000000E+00 -0.15798791984E+03  0.15798791986E+03  0.25500000920E-02 0. -1.
    10030    2    1    2    0    0  0.00000000000E+00  0.00000000000E+00  0.40995643509E+03  0.72593227479E+03  0.59909380644E+03 0.  0.
        4    1    3    3  502    0 -0.54698390087E+02  0.72012869225E+02  0.55100563229E+03  0.55837853373E+03  0.12699999809E+01 0.  1.
       -4    1    3    3    0  502  0.54698390087E+02 -0.72012869225E+02 -0.14104919720E+03  0.16755374106E+03  0.12699999809E+01 0. -1.
</event>
<event>
 5   0  0.9391405E-03  0.5997038E+03  0.7818609E-02  0.9906021E-01
       -2   -1    0    0    0  501  0.00000000000E+00  0.00000000000E+00  0.12367935876E+03  0.12367935879E+03  0.25500000920E-02 0. -1.
        2   -1    0    0  501    0  0.00000000000E+00  0.00000000000E+00 -0.72696994520E+03  0.72696994521E+03  0.25500000920E-02 0.  1.
    10030    2    1    2    0    0  0.00000000000E+00  0.00000000000E+00 -0.60329058644E+03  0.85064930400E+03  0.59970384916E+03 0.  0.
        2    1    3    3  502    0  0.38106071543E+02  0.25200750489E+03 -0.77587274968E+02  0.26642004514E+03  0.25500000920E-02 0. -1.
       -2    1    3    3    0  502 -0.38106071543E+02 -0.25200750489E+03 -0.52570331147E+03  0.58422925886E+03  0.25500000920E-02 0.  1.
</event>
<event>
 5   0  0.5819446E-03  0.6003823E+03  0.7818609E-02  0.9904613E-01
        1   -1    0    0  501    0  0.00000000000E+00  0.00000000000E+00  0.96347109456E+03  0.96347109457E+03  0.50400001928E-02 0.  1.
       -1   -1    0    0    0  501  0.00000000000E+00  0.00000000000E+00 -0.93531331936E+02  0.93531332071E+02  0.50400001928E-02 0. -1.
    10030    2    1    2    0    0  0.00000000000E+00  0.00000000000E+00  0.86993976262E+03  0.10570024266E+04  0.60038232764E+03 0.  0.
        5    1    3    3  502    0 -0.12397747503E+02  0.81320324645E+01  0.96276120460E+03  0.96288683716E+03  0.46999998093E+01 0.  1.
       -5    1    3    3    0  502  0.12397747503E+02 -0.81320324645E+01 -0.92821441976E+02  0.94115589484E+02  0.46999998093E+01 0. -1.
</event>
<event>
 5   0  0.5891927E-03  0.5993972E+03  0.7818609E-02  0.9906657E-01
        1   -1    0    0  501    0  0.00000000000E+00  0.00000000000E+00  0.72620444689E+03  0.72620444690E+03  0.50400001928E-02 0.  1.
       -1   -1    0    0    0  501  0.00000000000E+00  0.00000000000E+00 -0.12368316005E+03  0.12368316015E+03  0.50400001928E-02 0. -1.
    10030    2    1    2    0    0  0.00000000000E+00  0.00000000000E+00  0.60252128684E+03  0.84988760705E+03  0.59939723350E+03 0.  0.
        4    1    3    3  502    0  0.94820667323E+02 -0.28421512624E+03  0.31113021599E+03  0.43194076114E+03  0.12699999809E+01 0.  1.
       -4    1    3    3    0  502 -0.94820667323E+02  0.28421512624E+03  0.29139107085E+03  0.41794684591E+03  0.12699999809E+01 0. -1.
</event>
<event>
 5   0  0.5790967E-03  0.6017748E+03  0.7818609E-02  0.9901731E-01
       -1   -1    0    0    0  501  0.00000000000E+00  0.00000000000E+00  0.46385589604E+03  0.46385589607E+03  0.50400001928E-02 0. -1.
        1   -1    0    0  501    0  0.00000000000E+00  0.00000000000E+00 -0.19517533289E+03  0.19517533295E+03  0.50400001928E-02 0.  1.
    10030    2    1    2    0    0  0.00000000000E+00  0.00000000000E+00  0.26868056315E+03  0.65903122903E+03  0.60177480490E+03 0.  0.
        3    1    3    3  502    0 -0.27138539169E+03  0.85853695896E+02  0.24115115514E+03  0.37306135923E+03  0.10100000352E+00 0. -1.
       -3    1    3    3    0  502  0.27138539169E+03 -0.85853695896E+02  0.27529408014E+02  0.28596986980E+03  0.10100000352E+00 0.  1.
</event>
<event>
 5   0  0.3806250E-03  0.6000902E+03  0.7818609E-02  0.9905219E-01
        3   -1    0    0  501    0  0.00000000000E+00  0.00000000000E+00  0.65167520643E+03  0.65167521426E+03  0.10100000352E+00 0. -1.
       -3   -1    0    0    0  501  0.00000000000E+00  0.00000000000E+00 -0.13814710389E+03  0.13814714081E+03  0.10100000352E+00 0.  1.
    10030    2    1    2    0    0  0.00000000000E+00  0.00000000000E+00  0.51352810254E+03  0.78982235507E+03  0.60009019362E+03 0.  0.
        4    1    3    3  502    0  0.20694981060E+03 -0.12231232739E+03  0.20449944758E+02  0.24126405177E+03  0.12699999809E+01 0. -1.
       -4    1    3    3    0  502 -0.20694981060E+03  0.12231232739E+03  0.49307815778E+03  0.54855830330E+03  0.12699999809E+01 0.  1.
</event>
<event>
 5   0  0.5891927E-03  0.5998526E+03  0.7818609E-02  0.9905712E-01
        1   -1    0    0  501    0  0.00000000000E+00  0.00000000000E+00  0.63511543856E+03  0.63511543858E+03  0.50400001928E-02 0. -1.
       -1   -1    0    0    0  501  0.00000000000E+00  0.00000000000E+00 -0.14163690633E+03  0.14163690642E+03  0.50400001928E-02 0.  1.
    10030    2    1    2    0    0  0.00000000000E+00  0.00000000000E+00  0.49347853223E+03  0.77675234499E+03  0.59985260163E+03 0.  0.
        4    1    3    3  502    0  0.25225662561E+02 -0.27500046362E+03  0.95215508135E+02  0.29211161383E+03  0.12699999809E+01 0.  1.
       -4    1    3    3    0  502 -0.25225662561E+02  0.27500046362E+03  0.39826302409E+03  0.48464073117E+03  0.12699999809E+01 0. -1.
</event>
<event>
 5   0  0.6078658E-03  0.6003062E+03  0.7818609E-02  0.9904771E-01
       -1   -1    0    0    0  501  0.00000000000E+00  0.00000000000E+00  0.83820104582E+02  0.83820104733E+02  0.50400001928E-02 0.  1.
        1   -1    0    0  501    0  0.00000000000E+00  0.00000000000E+00 -0.10748242236E+04  0.10748242237E+04  0.50400001928E-02 0. -1.
    10030    2    1    2    0    0  0.00000000000E+00  0.00000000000E+00 -0.99100411906E+03  0.11586443284E+04  0.60030618497E+03 0.  0.
        2    1    3    3  502    0 -0.31041976395E+02 -0.27471141910E+03 -0.72109891690E+03  0.77227819861E+03  0.25500000920E-02 0. -1.
       -2    1    3    3    0  502  0.31041976395E+02  0.27471141910E+03 -0.26990520216E+03  0.38636612978E+03  0.25500000920E-02 0.  1.
</event>
<event>
 5   0  0.9028473E-03  0.5998301E+03  0.7818609E-02  0.9905759E-01
        2   -1    0    0  501    0  0.00000000000E+00  0.00000000000E+00  0.15334420429E+04  0.15334420429E+04  0.25500000920E-02 0. -1.
       -2   -1    0    0    0  501  0.00000000000E+00  0.00000000000E+00 -0.58658262739E+02  0.58658262795E+02  0.25500000920E-02 0.  1.
    10030    2    1    2    0    0  0.00000000000E+00  0.00000000000E+00  0.14747837802E+04  0.15921003057E+04  0.59983013027E+03 0.  0.
        1    1    3    3  502    0  0.22519845519E+03 -0.19063497621E+03  0.88015531497E+03  0.92829382033E+03  0.50400001928E-02 0. -1.
       -1    1    3    3    0  502 -0.22519845519E+03  0.19063497621E+03  0.59462846520E+03  0.66380648537E+03  0.50400001928E-02 0.  1.
</event>
<event>
 5   0  0.9391405E-03  0.5999064E+03  0.7818609E-02  0.9905600E-01
        2   -1    0    0  501    0  0.00000000000E+00  0.00000000000E+00  0.46688660292E+03  0.46688660292E+03  0.25500000920E-02 0.  1.
       -2   -1    0    0    0  501  0.00000000000E+00  0.00000000000E+00 -0.19270616613E+03  0.19270616614E+03  0.25500000920E-02 0. -1.
    10030    2    1    2    0    0  0.00000000000E+00  0.00000000000E+00  0.27418043679E+03  0.65959276907E+03  0.59990641694E+03 0.  0.
        2    1    3    3  502    0 -0.62954432789E+01 -0.19902096294E+03 -0.10955654950E+03  0.22726991407E+03  0.25500000920E-02 0. -1.
       -2    1    3    3    0  502  0.62954432789E+01  0.19902096294E+03  0.38373698629E+03  0.43232285500E+03  0.25500000920E-02 0.  1.
</event>
<event>
 5   0  0.9822607E-03  0.6002089E+03  0.7818609E-02  0.9904973E-01
       -2   -1    0    0    0  501  0.00000000000E+00  0.00000000000E+00  0.60608527166E+02  0.60608527220E+02  0.25500000920E-02 0. -1.
        2   -1    0    0  501    0  0.00000000000E+00  0.00000000000E+00 -0.14859735661E+04  0.14859735661E+04  0.25500000920E-02 0.  1.
    10030    2    1    2    0    0  0.00000000000E+00  0.00000000000E+00 -0.14253650389E+04  0.15465820933E+04  0.60020886128E+03 0.  0.
        3    1    3    3  502    0 -0.14484756077E+03  0.14489986060E+03 -0.12777226973E+04  0.12940448551E+04  0.10100000352E+00 0.  1.
       -3    1    3    3    0  502  0.14484756077E+03 -0.14489986060E+03 -0.14764234157E+03  0.25253723821E+03  0.10100000352E+00 0. -1.
</event>
<event>
 5   0  0.9162342E-03  0.6026810E+03  0.7818609E-02  0.9899859E-01
       -2   -1    0    0    0  501  0.00000000000E+00  0.00000000000E+00  0.16567456329E+03  0.16567456331E+03  0.25500000920E-02 0.  1.
        2   -1    0    0  501    0  0.00000000000E+00  0.00000000000E+00 -0.54809927669E+03  0.54809927670E+03  0.25500000920E-02 0. -1.
    10030    2    1    2    0    0  0.00000000000E+00  0.00000000000E+00 -0.38242471340E+03  0.71377384000E+03  0.60268103774E+03 0.  0.
        5    1    3    3  502    0 -0.85114782430E+02 -0.18570102463E+03  0.71096566359E+02  0.21634742541E+03  0.46999998093E+01 0.  1.
       -5    1    3    3    0  502  0.85114782430E+02  0.18570102463E+03 -0.45352127976E+03  0.49742641459E+03  0.46999998093E+01 0. -1.
</event>
<event>
 5   0  0.3806250E-03  0.5999726E+03  0.7818609E-02  0.9905463E-01
        3   -1    0    0  501    0  0.00000000000E+00  0.00000000000E+00  0.57319355736E+03  0.57319356626E+03  0.10100000352E+00 0. -1.
       -3   -1    0    0    0  501  0.00000000000E+00  0.00000000000E+00 -0.15700065026E+03  0.15700068275E+03  0.10100000352E+00 0.  1.
    10030    2    1    2    0    0  0.00000000000E+00  0.00000000000E+00  0.41619290709E+03  0.73019424901E+03  0.59997258718E+03 0.  0.
        1    1    3    3  502    0  0.35373786487E+02  0.24686631827E+03  0.41100942501E+03  0.48075256769E+03  0.50400001928E-02 0. -1.
       -1    1    3    3    0  502 -0.35373786487E+02 -0.24686631827E+03  0.51834820791E+01  0.24944168132E+03  0.50400001928E-02 0.  1.
</event>
<event>
 5   0  0.5790967E-03  0.5961392E+03  0.7818609E-02  0.9913449E-01
       -1   -1    0    0    0  501  0.00000000000E+00  0.00000000000E+00  0.31751571884E+03  0.31751571888E+03  0.50400001928E-02 0. -1.
        1   -1    0    0  501    0  0.00000000000E+00  0.00000000000E+00 -0.27981443641E+03  0.27981443646E+03  0.50400001928E-02 0.  1.
    10030    2    1    2    0    0  0.00000000000E+00  0.00000000000E+00  0.37701282423E+02  0.59733015534E+03  0.59613918491E+03 0.  0.
        3    1    3    3  502    0 -0.47875771869E+02 -0.28247020392E+03  0.10125828217E+03  0.30386634487E+03  0.10100000352E+00 0. -1.
       -3    1    3    3    0  502  0.47875771869E+02  0.28247020392E+03 -0.63556999746E+02  0.29346381047E+03  0.10100000352E+00 0.  1.
</event>
<event>
 5   0  0.3806250E-03  0.6002273E+03  0.7818609E-02  0.9904935E-01
        3   -1    0    0  501    0  0.00000000000E+00  0.00000000000E+00  0.32554811545E+03  0.32554813112E+03  0.10100000352E+00 0. -1.
       -3   -1    0    0    0  501  0.00000000000E+00  0.00000000000E+00 -0.27666627258E+03  0.27666629102E+03  0.10100000352E+00 0.  1.
    10030    2    1    2    0    0  0.00000000000E+00  0.00000000000E+00  0.48881842867E+02  0.60221442213E+03  0.60022727001E+03 0.  0.
        5    1    3    3  502    0  0.46765783852E+02 -0.23192696661E+03  0.20962975148E+03  0.31613901861E+03  0.46999998093E+01 0. -1.
       -5    1    3    3    0  502 -0.46765783852E+02  0.23192696661E+03 -0.16074790861E+03  0.28607540353E+03  0.46999998093E+01 0.  1.
</event>
<event>
 5   0  0.6078658E-03  0.5989331E+03  0.7818609E-02  0.9907622E-01
        1   -1    0    0  501    0  0.00000000000E+00  0.00000000000E+00  0.14989733155E+04  0.14989733155E+04  0.50400001928E-02 0.  1.
       -1   -1    0    0    0  501  0.00000000000E+00  0.00000000000E+00 -0.59827752237E+02  0.59827752449E+02  0.50400001928E-02 0. -1.
    10030    2    1    2    0    0  0.00000000000E+00  0.00000000000E+00  0.14391455633E+04  0.15588010680E+04  0.59893306572E+03 0.  0.
        2    1    3    3  502    0  0.65935364368E+02 -0.25114356269E+03  0.33126910618E+03  0.42090353060E+03  0.25500000920E-02 0. -1.
       -2    1    3    3    0  502 -0.65935364368E+02  0.25114356269E+03  0.11078764571E+04  0.11378975374E+04  0.25500000920E-02 0.  1.
</event>
<event>
 5   0  0.5790967E-03  0.6008639E+03  0.7818609E-02  0.9903615E-01
        1   -1    0    0  501    0  0.00000000000E+00  0.00000000000E+00  0.70116471304E+03  0.70116471306E+03  0.50400001928E-02 0. -1.
       -1   -1    0    0    0  501  0.00000000000E+00  0.00000000000E+00 -0.12872774080E+03  0.12872774090E+03  0.50400001928E-02 0.  1.
    10030    2    1    2    0    0  0.00000000000E+00  0.00000000000E+00  0.57243697224E+03  0.82989245396E+03  0.60086387639E+03 0.  0.
        3    1    3    3  502    0 -0.36100886112E+02  0.29387359298E+02 -0.12371657158E+03  0.13218430750E+03  0.10100000352E+00 0.  1.
       -3    1    3    3    0  502  0.36100886112E+02 -0.29387359298E+02  0.69615354382E+03  0.69770814646E+03  0.10100000352E+00 0. -1.
</event>
<event>
 5   0  0.9391405E-03  0.5922258E+03  0.7818609E-02  0.9921668E-01
        2   -1    0    0  501    0  0.00000000000E+00  0.00000000000E+00  0.68094856789E+03  0.68094856790E+03  0.25500000920E-02 0.  1.
       -2   -1    0    0    0  501  0.00000000000E+00  0.00000000000E+00 -0.12876575883E+03  0.12876575886E+03  0.25500000920E-02 0. -1.
    10030    2    1    2    0    0  0.00000000000E+00  0.00000000000E+00  0.55218280906E+03  0.80971432675E+03  0.59222583221E+03 0.  0.
        2    1    3    3  502    0 -0.16241589080E+03 -0.20183692758E+03  0.47216413550E+03  0.53856850797E+03  0.25500000920E-02 0.  1.
       -2    1    3    3    0  502  0.16241589080E+03  0.20183692758E+03  0.80018673560E+02  0.27114581878E+03  0.25500000920E-02 0. -1.
</event>
<event>
 5   0  0.9028473E-03  0.5987474E+03  0.7818609E-02  0.9908008E-01
       -2   -1    0    0    0  501  0.00000000000E+00  0.00000000000E+00  0.13607078683E+03  0.13607078685E+03  0.25500000920E-02 0.  1.
        2   -1    0    0  501    0  0.00000000000E+00  0.00000000000E+00 -0.65866160919E+03  0.65866160919E+03  0.25500000920E-02 0. -1.
    10030    2    1    2    0    0  0.00000000000E+00  0.00000000000E+00 -0.52259082236E+03  0.79473239604E+03  0.59874737052E+03 0.  0.
        1    1    3    3  502    0 -0.59334617794E+02 -0.22832224072E+03 -0.50594472238E+03  0.55823982714E+03  0.50400001928E-02 0. -1.
       -1    1    3    3    0  502  0.59334617794E+02  0.22832224072E+03 -0.16646099982E+02  0.23649256891E+03  0.50400001928E-02 0.  1.
</event>
<event>
 5   0  0.9028473E-03  0.6007154E+03  0.7818609E-02  0.9903923E-01
        2   -1    0    0  501    0  0.00000000000E+00  0.00000000000E+00  0.70240587921E+03  0.70240587922E+03  0.25500000920E-02 0.  1.
       -2   -1    0    0    0  501  0.00000000000E+00  0.00000000000E+00 -0.12843678736E+03  0.12843678738E+03  0.25500000920E-02 0. -1.
    10030    2    1    2    0    0  0.00000000000E+00  0.00000000000E+00  0.57396909185E+03  0.83084266660E+03  0.60071542201E+03 0.  0.
        1    1    3    3  502    0 -0.23023537043E+03 -0.44318724990E+02  0.27338326165E+02  0.23605054392E+03  0.50400001928E-02 0. -1.
       -1    1    3    3    0  502  0.23023537043E+03  0.44318724990E+02  0.54663076569E+03  0.59479212268E+03  0.50400001928E-02 0.  1.
</event>
<event>
 5   0  0.9822607E-03  0.5993538E+03  0.7818609E-02  0.9906748E-01
        2   -1    0    0  501    0  0.00000000000E+00  0.00000000000E+00  0.73223921390E+03  0.73223921390E+03  0.25500000920E-02 0. -1.
       -2   -1    0    0    0  501  0.00000000000E+00  0.00000000000E+00 -0.12264603864E+03  0.12264603866E+03  0.25500000920E-02 0.  1.
    10030    2    1    2    0    0  0.00000000000E+00  0.00000000000E+00  0.60959317526E+03  0.85488525257E+03  0.59935378178E+03 0.  0.
        3    1    3    3  502    0  0.21799831098E+03 -0.14159638373E+03  0.92116024431E+02  0.27578646021E+03  0.10100000352E+00 0.  1.
       -3    1    3    3    0  502 -0.21799831098E+03  0.14159638373E+03  0.51747715083E+03  0.57909879236E+03  0.10100000352E+00 0. -1.
</event>
<event>
 5   0  0.6078658E-03  0.6007915E+03  0.7818609E-02  0.9903765E-01
        1   -1    0    0  501    0  0.00000000000E+00  0.00000000000E+00  0.39387610677E+03  0.39387610681E+03  0.50400001928E-02 0.  1.
       -1   -1    0    0    0  501  0.00000000000E+00  0.00000000000E+00 -0.22910147419E+03  0.22910147425E+03  0.50400001928E-02 0. -1.
    10030    2    1    2    0    0  0.00000000000E+00  0.00000000000E+00  0.16477463258E+03  0.62297758106E+03  0.60079146711E+03 0.  0.
        2    1    3    3  502    0 -0.12178787152E+03 -0.27150631577E+03  0.12501038076E+03  0.32276239009E+03  0.25500000920E-02 0.  1.
       -2    1    3    3    0  502  0.12178787152E+03  0.27150631577E+03  0.39764251824E+02  0.30021519096E+03  0.25500000920E-02 0. -1.
</event>
<event>
 5   0  0.9028473E-03  0.6026640E+03  0.7818609E-02  0.9899894E-01
       -2   -1    0    0    0  501  0.00000000000E+00  0.00000000000E+00  0.24604861964E+03  0.24604861965E+03  0.25500000920E-02 0.  1.
        2   -1    0    0  501    0  0.00000000000E+00  0.00000000000E+00 -0.36903676336E+03  0.36903676337E+03  0.25500000920E-02 0. -1.
    10030    2    1    2    0    0  0.00000000000E+00  0.00000000000E+00 -0.12298814372E+03  0.61508538302E+03  0.60266403984E+03 0.  0.
        1    1    3    3  502    0 -0.12346657366E+02 -0.18875461109E+02  0.24518588785E+03  0.24622112543E+03  0.50400001928E-02 0.  1.
       -1    1    3    3    0  502  0.12346657366E+02  0.18875461109E+02 -0.36817403157E+03  0.36886425760E+03  0.50400001928E-02 0. -1.
</event>
<event>
 5   0  0.6078658E-03  0.6011469E+03  0.7818609E-02  0.9903029E-01
        1   -1    0    0  501    0  0.00000000000E+00  0.00000000000E+00  0.51010662259E+03  0.51010662261E+03  0.50400001928E-02 0.  1.
       -1   -1    0    0    0  501  0.00000000000E+00  0.00000000000E+00 -0.17710886630E+03  0.17710886637E+03  0.50400001928E-02 0. -1.
    10030    2    1    2    0    0  0.00000000000E+00  0.00000000000E+00  0.33299775629E+03  0.68721548898E+03  0.60114692264E+03 0.  0.
        2    1    3    3  502    0 -0.29322455419E+02 -0.28710702966E+03  0.70484838661E+02  0.29708309504E+03  0.25500000920E-02 0. -1.
       -2    1    3    3    0  502  0.29322455419E+02  0.28710702966E+03  0.26251291763E+03  0.39013239394E+03  0.25500000920E-02 0.  1.
</event>
<event>
 5   0  0.9162342E-03  0.5998574E+03  0.7818609E-02  0.9905702E-01
        2   -1    0    0  501    0  0.00000000000E+00  0.00000000000E+00  0.29782288708E+03  0.29782288709E+03  0.25500000920E-02 0. -1.
       -2   -1    0    0    0  501  0.00000000000E+00  0.00000000000E+00 -0.30204940486E+03  0.30204940487E+03  0.25500000920E-02 0.  1.
    10030    2    1    2    0    0  0.00000000000E+00  0.00000000000E+00 -0.42265177808E+01  0.59987229196E+03  0.59985740240E+03 0.  0.
        5    1    3    3  502    0 -0.20083325551E+03 -0.11806042177E+03 -0.19096411686E+03  0.30126673171E+03  0.46999998093E+01 0.  1.
       -5    1    3    3    0  502  0.20083325551E+03  0.11806042177E+03  0.18673759908E+03  0.29860556026E+03  0.46999998093E+01 0. -1.
</event>
<event>
 5   0  0.9822607E-03  0.6009995E+03  0.7818609E-02  0.9903335E-01
       -2   -1    0    0    0  501  0.00000000000E+00  0.00000000000E+00  0.72437248276E+02  0.72437248321E+02  0.25500000920E-02 0. -1.
        2   -1    0    0  501    0  0.00000000000E+00  0.00000000000E+00 -0.12465974223E+04  0.12465974223E+04  0.25500000920E-02 0.  1.
    10030    2    1    2    0    0  0.00000000000E+00  0.00000000000E+00 -0.11741601741E+04  0.13190346707E+04  0.60099945762E+03 0.  0.
        3    1    3    3  502    0  0.22073647846E+03  0.19873124715E+03 -0.68720849914E+03  0.74864827055E+03  0.10100000352E+00 0.  1.
       -3    1    3    3    0  502 -0.22073647846E+03 -0.19873124715E+03 -0.48695167492E+03  0.57038640010E+03  0.10100000352E+00 0. -1.
</event>
<event>
 5   0  0.6078658E-03  0.5995968E+03  0.7818609E-02  0.9906243E-01
       -1   -1    0    0    0  501  0.00000000000E+00  0.00000000000E+00  0.99919503691E+02  0.99919503819E+02  0.50400001928E-02 0.  1.
        1   -1    0    0  501    0  0.00000000000E+00  0.00000000000E+00 -0.89951486440E+03  0.89951486441E+03  0.50400001928E-02 0. -1.
    10030    2    1    2    0    0  0.00000000000E+00  0.00000000000E+00 -0.79959536071E+03  0.99943436823E+03  0.59959679414E+03 0.  0.
        2    1    3    3  502    0  0.11802852682E+02  0.14121471054E+03 -0.84016696299E+03  0.85203370093E+03  0.25500000920E-02 0. -1.
       -2    1    3    3    0  502 -0.11802852682E+02 -0.14121471054E+03  0.40571602286E+02  0.14740066730E+03  0.25500000920E-02 0.  1.
</event>
<event>
 5   0  0.6078658E-03  0.5962986E+03  0.7818609E-02  0.9913115E-01
       -1   -1    0    0    0  501  0.00000000000E+00  0.00000000000E+00  0.12961666659E+03  0.12961666669E+03  0.50400001928E-02 0.  1.
        1   -1    0    0  501    0  0.00000000000E+00  0.00000000000E+00 -0.68581472305E+03  0.68581472307E+03  0.50400001928E-02 0. -1.
    10030    2    1    2    0    0  0.00000000000E+00  0.00000000000E+00 -0.55619805646E+03  0.81543138975E+03  0.59629864446E+03 0.  0.
        2    1    3    3  502    0  0.23828228197E+03  0.17863992625E+03 -0.29755147967E+03  0.42098402845E+03  0.25500000920E-02 0. -1.
       -2    1    3    3    0  502 -0.23828228197E+03 -0.17863992625E+03 -0.25864657679E+03  0.39444736131E+03  0.25500000920E-02 0.  1.
</event>
<event>
 5   0  0.3806250E-03  0.5957278E+03  0.7818609E-02  0.9914309E-01
       -3   -1    0    0    0  501  0.00000000000E+00  0.00000000000E+00  0.60141601750E+03  0.60141602598E+03  0.10100000352E+00 0. -1.
        3   -1    0    0  501    0  0.00000000000E+00  0.00000000000E+00 -0.14752333351E+03  0.14752336808E+03  0.10100000352E+00 0.  1.
    10030    2    1    2    0    0  0.00000000000E+00  0.00000000000E+00  0.45389268400E+03  0.74893939406E+03  0.59572782996E+03 0.  0.
        1    1    3    3  502    0  0.15373068022E+03 -0.24836200631E+03  0.30031789522E+03  0.41893632742E+03  0.50400001928E-02 0.  1.
       -1    1    3    3    0  502 -0.15373068022E+03  0.24836200631E+03  0.15357478877E+03  0.33000306664E+03  0.50400001928E-02 0. -1.
</event>
<event>
 5   0  0.5819446E-03  0.5986898E+03  0.7818609E-02  0.9908128E-01
        1   -1    0    0  501    0  0.00000000000E+00  0.00000000000E+00  0.67121966930E+03  0.67121966932E+03  0.50400001928E-02 0.  1.
       -1   -1    0    0    0  501  0.00000000000E+00  0.00000000000E+00 -0.13349930201E+03  0.13349930210E+03  0.50400001928E-02 0. -1.
    10030    2    1    2    0    0  0.00000000000E+00  0.00000000000E+00  0.53772036730E+03  0.80471897142E+03  0.59868976070E+03 0.  0.
        5    1    3    3  502    0 -0.39319991311E+02  0.87324998204E+02 -0.11229956168E+03  0.14766515696E+03  0.46999998093E+01 0. -1.
       -5    1    3    3    0  502  0.39319991311E+02 -0.87324998204E+02  0.65001992898E+03  0.65705381446E+03  0.46999998093E+01 0.  1.
</event>
<event>
 5   0  0.9391405E-03  0.6018322E+03  0.7818609E-02  0.9901612E-01
        2   -1    0    0  501    0  0.00000000000E+00  0.00000000000E+00  0.72504155063E+03  0.72504155063E+03  0.25500000920E-02 0.  1.
       -2   -1    0    0    0  501  0.00000000000E+00  0.00000000000E+00 -0.12489009561E+03  0.12489009564E+03  0.25500000920E-02 0. -1.
    10030    2    1    2    0    0  0.00000000000E+00  0.00000000000E+00  0.60015145502E+03  0.84993164627E+03  0.60183223108E+03 0.  0.
        2    1    3    3  502    0 -0.97850196950E+02 -0.41638129897E+02  0.69762099058E+03  0.70567941830E+03  0.25500000920E-02 0.  1.
       -2    1    3    3    0  502  0.97850196950E+02  0.41638129897E+02 -0.97469535565E+02  0.14425222797E+03  0.25500000920E-02 0. -1.
</event>
<event>
 5   0  0.9391405E-03  0.6036858E+03  0.7818609E-02  0.9897789E-01
        2   -1    0    0  501    0  0.00000000000E+00  0.00000000000E+00  0.92544021123E+03  0.92544021123E+03  0.25500000920E-02 0.  1.
       -2   -1    0    0    0  501  0.00000000000E+00  0.00000000000E+00 -0.98449501699E+02  0.98449501732E+02  0.25500000920E-02 0. -1.
    10030    2    1    2    0    0  0.00000000000E+00  0.00000000000E+00  0.82699070953E+03  0.10238897130E+04  0.60368577146E+03 0.  0.
        2    1    3    3  502    0  0.25094634919E+03  0.89516805783E+02  0.65408428588E+03  0.70626735853E+03  0.25500000920E-02 0.  1.
       -2    1    3    3    0  502 -0.25094634919E+03 -0.89516805783E+02  0.17290642365E+03  0.31762235443E+03  0.25500000920E-02 0. -1.
</event>
<event>
 5   0  0.5790967E-03  0.5986858E+03  0.7818609E-02  0.9908136E-01
       -1   -1    0    0    0  501  0.00000000000E+00  0.00000000000E+00  0.20517202352E+03  0.20517202358E+03  0.50400001928E-02 0. -1.
        1   -1    0    0  501    0  0.00000000000E+00  0.00000000000E+00 -0.43673684458E+03  0.43673684461E+03  0.50400001928E-02 0.  1.
    10030    2    1    2    0    0  0.00000000000E+00  0.00000000000E+00 -0.23156482106E+03  0.64190886819E+03  0.59868583473E+03 0.  0.
        3    1    3    3  502    0 -0.40592021386E+02  0.95552989828E+02  0.18525112805E+03  0.21235836859E+03  0.10100000352E+00 0. -1.
       -3    1    3    3    0  502  0.40592021386E+02 -0.95552989828E+02 -0.41681594912E+03  0.42955049960E+03  0.10100000352E+00 0.  1.
</event>
<event>
 5   0  0.9303190E-03  0.5998793E+03  0.7818609E-02  0.9905656E-01
       -2   -1    0    0    0  501  0.00000000000E+00  0.00000000000E+00  0.59636571060E+02  0.59636571114E+02  0.25500000920E-02 0.  1.
        2   -1    0    0  501    0  0.00000000000E+00  0.00000000000E+00 -0.15085339851E+04  0.15085339851E+04  0.25500000920E-02 0. -1.
    10030    2    1    2    0    0  0.00000000000E+00  0.00000000000E+00 -0.14488974141E+04  0.15681705562E+04  0.59987930200E+03 0.  0.
        4    1    3    3  502    0 -0.20863632892E+03 -0.29284300080E+02 -0.12825269701E+04  0.12997167883E+04  0.12699999809E+01 0. -1.
       -4    1    3    3    0  502  0.20863632892E+03  0.29284300080E+02 -0.16637044399E+03  0.26845376792E+03  0.12699999809E+01 0.  1.
</event>
<event>
 5   0  0.5765045E-03  0.6005388E+03  0.7818609E-02  0.9904289E-01
        1   -1    0    0  501    0  0.00000000000E+00  0.00000000000E+00  0.18027965269E+03  0.18027965276E+03  0.50400001928E-02 0.  1.
       -1   -1    0    0    0  501  0.00000000000E+00  0.00000000000E+00 -0.50012138698E+03  0.50012138700E+03  0.50400001928E-02 0. -1.
    10030    2    1    2    0    0  0.00000000000E+00  0.00000000000E+00 -0.31984173429E+03  0.68040103976E+03  0.60053879135E+03 0.  0.
        1    1    3    3  502    0  0.16294617340E+03 -0.22374429971E+03 -0.29179918638E+03  0.40219365022E+03  0.50400001928E-02 0. -1.
       -1    1    3    3    0  502 -0.16294617340E+03  0.22374429971E+03 -0.28042547911E+02  0.27820738954E+03  0.50400001928E-02 0.  1.
</event>
<event>
 5   0  0.9391405E-03  0.6008050E+03  0.7818609E-02  0.9903737E-01
        2   -1    0    0  501    0  0.00000000000E+00  0.00000000000E+00  0.79996846184E+03  0.79996846185E+03  0.25500000920E-02 0.  1.
       -2   -1    0    0    0  501  0.00000000000E+00  0.00000000000E+00 -0.11280654204E+03  0.11280654206E+03  0.25500000920E-02 0. -1.
    10030    2    1    2    0    0  0.00000000000E+00  0.00000000000E+00  0.68716191981E+03  0.91277500391E+03  0.60080504636E+03 0.  0.
        2    1    3    3  502    0 -0.14075970627E+03 -0.17772386632E+03  0.64300340998E+03  0.68180088942E+03  0.25500000920E-02 0.  1.
       -2    1    3    3    0  502  0.14075970627E+03  0.17772386632E+03  0.44158509827E+02  0.23097411449E+03  0.25500000920E-02 0. -1.
</event>
<event>
 5   0  0.5790967E-03  0.5978796E+03  0.7818609E-02  0.9909815E-01
        1   -1    0    0  501    0  0.00000000000E+00  0.00000000000E+00  0.47457203147E+03  0.47457203149E+03  0.50400001928E-02 0. -1.
       -1   -1    0    0    0  501  0.00000000000E+00  0.00000000000E+00 -0.18830648750E+03  0.18830648757E+03  0.50400001928E-02 0.  1.
    10030    2    1    2    0    0  0.00000000000E+00  0.00000000000E+00  0.28626554396E+03  0.66287851906E+03  0.59787956092E+03 0.  0.
        3    1    3    3  502    0 -0.29580253881E+03  0.32144718004E+02  0.17512373404E+03  0.34525462674E+03  0.10100000352E+00 0.  1.
       -3    1    3    3    0  502  0.29580253881E+03 -0.32144718004E+02  0.11114180993E+03  0.31762389232E+03  0.10100000352E+00 0. -1.
</event>
<event>
 5   0  0.3806250E-03  0.5994737E+03  0.7818609E-02  0.9906499E-01
       -3   -1    0    0    0  501  0.00000000000E+00  0.00000000000E+00  0.48934499147E+03  0.48934500189E+03  0.10100000352E+00 0.  1.
        3   -1    0    0  501    0  0.00000000000E+00  0.00000000000E+00 -0.18359675569E+03  0.18359678347E+03  0.10100000352E+00 0. -1.
    10030    2    1    2    0    0  0.00000000000E+00  0.00000000000E+00  0.30574823578E+03  0.67294178536E+03  0.59947365480E+03 0.  0.
        1    1    3    3  502    0 -0.11885756276E+03 -0.17809703705E+03  0.38833372417E+03  0.44345096255E+03  0.50400001928E-02 0.  1.
       -1    1    3    3    0  502  0.11885756276E+03  0.17809703705E+03 -0.82585488391E+02  0.22949082280E+03  0.50400001928E-02 0. -1.
</event>
<event>
 5   0  0.9028473E-03  0.5989027E+03  0.7818609E-02  0.9907685E-01
        2   -1    0    0  501    0  0.00000000000E+00  0.00000000000E+00  0.50309946343E+03  0.50309946344E+03  0.25500000920E-02 0.  1.
       -2   -1    0    0    0  501  0.00000000000E+00  0.00000000000E+00 -0.17823731361E+03  0.17823731363E+03  0.25500000920E-02 0. -1.
    10030    2    1    2    0    0  0.00000000000E+00  0.00000000000E+00  0.32486214982E+03  0.68133677706E+03  0.59890265269E+03 0.  0.
        1    1    3    3  502    0  0.19652713295E+03  0.21548916383E+02  0.41829640168E+03  0.46266526719E+03  0.50400001928E-02 0.  1.
       -1    1    3    3    0  502 -0.19652713295E+03 -0.21548916383E+02 -0.93434251862E+02  0.21867150987E+03  0.50400001928E-02 0. -1.
</event>
<event>
 5   0  0.9162342E-03  0.5955262E+03  0.7818609E-02  0.9914732E-01
       -2   -1    0    0    0  501  0.00000000000E+00  0.00000000000E+00  0.87109332535E+02  0.87109332572E+02  0.25500000920E-02 0. -1.
        2   -1    0    0  501    0  0.00000000000E+00  0.00000000000E+00 -0.10178342030E+04  0.10178342030E+04  0.25500000920E-02 0.  1.
    10030    2    1    2    0    0  0.00000000000E+00  0.00000000000E+00 -0.93072487044E+03  0.11049435356E+04  0.59552618104E+03 0.  0.
        5    1    3    3  502    0  0.25795723206E+03 -0.14741639318E+03 -0.50091861711E+03  0.58242173510E+03  0.46999998093E+01 0.  1.
       -5    1    3    3    0  502 -0.25795723206E+03  0.14741639318E+03 -0.42980625333E+03  0.52252180045E+03  0.46999998093E+01 0. -1.
</event>
<event>
 5   0  0.5765045E-03  0.6003774E+03  0.7818609E-02  0.9904623E-01
       -1   -1    0    0    0  501  0.00000000000E+00  0.00000000000E+00  0.26653993250E+03  0.26653993255E+03  0.50400001928E-02 0. -1.
        1   -1    0    0  501    0  0.00000000000E+00  0.00000000000E+00 -0.33808540035E+03  0.33808540038E+03  0.50400001928E-02 0.  1.
    10030    2    1    2    0    0  0.00000000000E+00  0.00000000000E+00 -0.71545467844E+02  0.60462533293E+03  0.60037741401E+03 0.  0.
        1    1    3    3  502    0 -0.13594450086E+03  0.15514606523E+03  0.18385757904E+03  0.27632375625E+03  0.50400001928E-02 0. -1.
       -1    1    3    3    0  502  0.13594450086E+03 -0.15514606523E+03 -0.25540304688E+03  0.32830157669E+03  0.50400001928E-02 0.  1.
</event>
<event>
 5   0  0.6078658E-03  0.6004619E+03  0.7818609E-02  0.9904448E-01
        1   -1    0    0  501    0  0.00000000000E+00  0.00000000000E+00  0.54535799965E+03  0.54535799968E+03  0.50400001928E-02 0. -1.
       -1   -1    0    0    0  501  0.00000000000E+00  0.00000000000E+00 -0.16528341879E+03  0.16528341886E+03  0.50400001928E-02 0.  1.
    10030    2    1    2    0    0  0.00000000000E+00  0.00000000000E+00  0.38007458087E+03  0.71064141854E+03  0.60046193778E+03 0.  0.
        2    1    3    3  502    0  0.26728934820E+03 -0.56436307497E+02  0.42646386490E+02  0.27649116939E+03  0.25500000920E-02 0.  1.
       -2    1    3    3    0  502 -0.26728934820E+03  0.56436307497E+02  0.33742819438E+03  0.43415024914E+03  0.25500000920E-02 0. -1.
</event>
<event>
 5   0  0.5891927E-03  0.5997701E+03  0.7818609E-02  0.9905883E-01
       -1   -1    0    0    0  501  0.00000000000E+00  0.00000000000E+00  0.89420435947E+02  0.89420436089E+02  0.50400001928E-02 0.  1.
        1   -1    0    0  501    0  0.00000000000E+00  0.00000000000E+00 -0.10057102112E+04  0.10057102112E+04  0.50400001928E-02 0. -1.
    10030    2    1    2    0    0  0.00000000000E+00  0.00000000000E+00 -0.91628977523E+03  0.10951306473E+04  0.59977010797E+03 0.  0.
        4    1    3    3  502    0 -0.10324633392E+02 -0.29745209402E+03 -0.52511117293E+03  0.60359564538E+03  0.12699999809E+01 0. -1.
       -4    1    3    3    0  502  0.10324633392E+02  0.29745209402E+03 -0.39117860230E+03  0.49153500189E+03  0.12699999809E+01 0.  1.
</event>
<event>
 5   0  0.9391405E-03  0.5995504E+03  0.7818609E-02  0.9906339E-01
       -2   -1    0    0    0  501  0.00000000000E+00  0.00000000000E+00  0.12419911484E+03  0.12419911487E+03  0.25500000920E-02 0.  1.
        2   -1    0    0  501    0  0.00000000000E+00  0.00000000000E+00 -0.72355724623E+03  0.72355724623E+03  0.25500000920E-02 0. -1.
    10030    2    1    2    0    0  0.00000000000E+00  0.00000000000E+00 -0.59935813138E+03  0.84775636110E+03  0.59955039666E+03 0.  0.
        2    1    3    3  502    0 -0.17118865538E+03  0.12909993874E+03 -0.34401546280E+01  0.21443923285E+03  0.25500000920E-02 0.  1.
       -2    1    3    3    0  502  0.17118865538E+03 -0.12909993874E+03 -0.59591797676E+03  0.63331712825E+03  0.25500000920E-02 0. -1.
</event>
<event>
 5   0  0.9391405E-03  0.5998554E+03  0.7818609E-02  0.9905706E-01
       -2   -1    0    0    0  501  0.00000000000E+00  0.00000000000E+00  0.11201751065E+03  0.11201751068E+03  0.25500000920E-02 0. -1.
        2   -1    0    0  501    0  0.00000000000E+00  0.00000000000E+00 -0.80305870591E+03  0.80305870591E+03  0.25500000920E-02 0.  1.
    10030    2    1    2    0    0  0.00000000000E+00  0.00000000000E+00 -0.69104119526E+03  0.91507621659E+03  0.59985543977E+03 0.  0.
        2    1    3    3  502    0  0.25529306337E+03  0.62687171442E+02 -0.12523364869E+03  0.29118326950E+03  0.25500000920E-02 0. -1.
       -2    1    3    3    0  502 -0.25529306337E+03 -0.62687171442E+02 -0.56580754657E+03  0.62389294709E+03  0.25500000920E-02 0.  1.
</event>
<event>
 5   0  0.9303190E-03  0.5998755E+03  0.7818609E-02  0.9905664E-01
        2   -1    0    0  501    0  0.00000000000E+00  0.00000000000E+00  0.15189507504E+04  0.15189507504E+04  0.25500000920E-02 0.  1.
       -2   -1    0    0    0  501  0.00000000000E+00  0.00000000000E+00 -0.59226847588E+02  0.59226847642E+02  0.25500000920E-02 0. -1.
    10030    2    1    2    0    0  0.00000000000E+00  0.00000000000E+00  0.14597239028E+04  0.15781775980E+04  0.59987553586E+03 0.  0.
        4    1    3    3  502    0 -0.25317298535E+02  0.17440960008E+03  0.91367026908E+02  0.19851755769E+03  0.12699999809E+01 0. -1.
       -4    1    3    3    0  502  0.25317298535E+02 -0.17440960008E+03  0.13683568759E+04  0.13796600403E+04  0.12699999809E+01 0.  1.
</event>
<event>
 5   0  0.3806250E-03  0.5968251E+03  0.7818609E-02  0.9912015E-01
        3   -1    0    0  501    0  0.00000000000E+00  0.00000000000E+00  0.23019318743E+03  0.23019320959E+03  0.10100000352E+00 0.  1.
       -3   -1    0    0    0  501  0.00000000000E+00  0.00000000000E+00 -0.38684908830E+03  0.38684910148E+03  0.10100000352E+00 0. -1.
    10030    2    1    2    0    0  0.00000000000E+00  0.00000000000E+00 -0.15665590087E+03  0.61704231107E+03  0.59682505173E+03 0.  0.
        3    1    3    3  502    0  0.26295849034E+03 -0.14094136791E+03 -0.84733683202E+02  0.31014745542E+03  0.10100000352E+00 0. -1.
       -3    1    3    3    0  502 -0.26295849034E+03  0.14094136791E+03 -0.71922217665E+02  0.30689485565E+03  0.10100000352E+00 0.  1.
</event>
<event>
 5   0  0.9162342E-03  0.6010845E+03  0.7818609E-02  0.9903159E-01
        2   -1    0    0  501    0  0.00000000000E+00  0.00000000000E+00  0.96829836464E+03  0.96829836464E+03  0.25500000920E-02 0. -1.
       -2   -1    0    0    0  501  0.00000000000E+00  0.00000000000E+00 -0.93282851204E+02  0.93282851239E+02  0.25500000920E-02 0.  1.
    10030    2    1    2    0    0  0.00000000000E+00  0.00000000000E+00  0.87501551344E+03  0.10615812159E+04  0.60108446092E+03 0.  0.
        5    1    3    3  502    0  0.24315501827E+03  0.11610064288E+03  0.20254331109E+03  0.33711957086E+03  0.46999998093E+01 0. -1.
       -5    1    3    3    0  502 -0.24315501827E+03 -0.11610064288E+03  0.67247220234E+03  0.72446164502E+03  0.46999998093E+01 0.  1.
</event>
<event>
 5   0  0.9391405E-03  0.6003161E+03  0.7818609E-02  0.9904750E-01
       -2   -1    0    0    0  501  0.00000000000E+00  0.00000000000E+00  0.16568518617E+03  0.16568518619E+03  0.25500000920E-02 0. -1.
        2   -1    0    0  501    0  0.00000000000E+00  0.00000000000E+00 -0.54377140193E+03  0.54377140194E+03  0.25500000920E-02 0.  1.
    10030    2    1    2    0    0  0.00000000000E+00  0.00000000000E+00 -0.37808621576E+03  0.70945658812E+03  0.60031613661E+03 0.  0.
        2    1    3    3  502    0  0.29227948995E+02 -0.48513625725E+02  0.15931286588E+03  0.16908114656E+03  0.25500000920E-02 0. -1.
       -2    1    3    3    0  502 -0.29227948995E+02  0.48513625725E+02 -0.53739908164E+03  0.54037544156E+03  0.25500000920E-02 0.  1.
</event>
<event>
 5   0  0.9028473E-03  0.6008721E+03  0.7818609E-02  0.9903598E-01
        2   -1    0    0  501    0  0.00000000000E+00  0.00000000000E+00  0.74583927188E+03  0.74583927188E+03  0.25500000920E-02 0.  1.
       -2   -1    0    0    0  501  0.00000000000E+00  0.00000000000E+00 -0.12102047283E+03  0.12102047286E+03  0.25500000920E-02 0. -1.
    10030    2    1    2    0    0  0.00000000000E+00  0.00000000000E+00  0.62481879904E+03  0.86685974474E+03  0.60087210404E+03 0.  0.
        1    1    3    3  502    0 -0.40247919735E+02 -0.22344469908E+03  0.28550170183E+02  0.22882862765E+03  0.50400001928E-02 0. -1.
       -1    1    3    3    0  502  0.40247919735E+02  0.22344469908E+03  0.59626862886E+03  0.63803111709E+03  0.50400001928E-02 0.  1.
</event>
<event>
 5   0  0.9303190E-03  0.6003472E+03  0.7818609E-02  0.9904686E-01
       -2   -1    0    0    0  501  0.00000000000E+00  0.00000000000E+00  0.14102163250E+03  0.14102163252E+03  0.25500000920E-02 0. -1.
        2   -1    0    0  501    0  0.00000000000E+00  0.00000000000E+00 -0.63893888274E+03  0.63893888275E+03  0.25500000920E-02 0.  1.
    10030    2    1    2    0    0  0.00000000000E+00  0.00000000000E+00 -0.49791725024E+03  0.77996051527E+03  0.60034724726E+03 0.  0.
        4    1    3    3  502    0  0.72753881234E+02 -0.21281145974E+03 -0.50723380051E+03  0.55485996964E+03  0.12699999809E+01 0.  1.
       -4    1    3    3    0  502 -0.72753881234E+02  0.21281145974E+03  0.93165502679E+01  0.22510054563E+03  0.12699999809E+01 0. -1.
</event>
<event>
 5   0  0.9303190E-03  0.6005361E+03  0.7818609E-02  0.9904294E-01
        2   -1    0    0  501    0  0.00000000000E+00  0.00000000000E+00  0.10601188547E+04  0.10601188547E+04  0.25500000920E-02 0. -1.
       -2   -1    0    0    0  501  0.00000000000E+00  0.00000000000E+00 -0.85047932314E+02  0.85047932352E+02  0.25500000920E-02 0.  1.
    10030    2    1    2    0    0  0.00000000000E+00  0.00000000000E+00  0.97507092241E+03  0.11451667871E+04  0.60053614920E+03 0.  0.
        4    1    3    3  502    0  0.49783083798E+01 -0.23330433748E+03  0.12721773239E+03  0.26578499163E+03  0.12699999809E+01 0.  1.
       -4    1    3    3    0  502 -0.49783083798E+01  0.23330433748E+03  0.84785319001E+03  0.87938179544E+03  0.12699999809E+01 0. -1.
</event>
<event>
 5   0  0.9162342E-03  0.6017690E+03  0.7818609E-02  0.9901743E-01
        2   -1    0    0  501    0  0.00000000000E+00  0.00000000000E+00  0.93615697643E+03  0.93615697643E+03  0.25500000920E-02 0. -1.
       -2   -1    0    0    0  501  0.00000000000E+00  0.00000000000E+00 -0.96705459316E+02  0.96705459349E+02  0.25500000920E-02 0.  1.
    10030    2    1    2    0    0  0.00000000000E+00  0.00000000000E+00  0.83945151711E+03  0.10328624358E+04  0.60176902684E+03 0.  0.
        5    1    3    3  502    0 -0.13940135158E+03  0.13502025173E+03  0.81429162714E+03  0.83711179016E+03  0.46999998093E+01 0. -1.
       -5    1    3    3    0  502  0.13940135158E+03 -0.13502025173E+03  0.25159889978E+02  0.19575064562E+03  0.46999998093E+01 0.  1.
</event>
<event>
 5   0  0.6078658E-03  0.5997098E+03  0.7818609E-02  0.9906008E-01
       -1   -1    0    0    0  501  0.00000000000E+00  0.00000000000E+00  0.87628409918E+02  0.87628410063E+02  0.50400001928E-02 0. -1.
        1   -1    0    0  501    0  0.00000000000E+00  0.00000000000E+00 -0.10260710374E+04  0.10260710375E+04  0.50400001928E-02 0.  1.
    10030    2    1    2    0    0  0.00000000000E+00  0.00000000000E+00 -0.93844262752E+03  0.11136994475E+04  0.59970984171E+03 0.  0.
        2    1    3    3  502    0 -0.13976958820E+03  0.22227481213E+03 -0.73815175028E+03  0.78346004132E+03  0.25500000920E-02 0.  1.
       -2    1    3    3    0  502  0.13976958820E+03 -0.22227481213E+03 -0.20029087724E+03  0.33023940620E+03  0.25500000920E-02 0. -1.
</event>
<event>
 5   0  0.9162342E-03  0.6011038E+03  0.7818609E-02  0.9903119E-01
        2   -1    0    0  501    0  0.00000000000E+00  0.00000000000E+00  0.38644693367E+03  0.38644693368E+03  0.25500000920E-02 0. -1.
       -2   -1    0    0    0  501  0.00000000000E+00  0.00000000000E+00 -0.23374865098E+03  0.23374865099E+03  0.25500000920E-02 0.  1.
    10030    2    1    2    0    0  0.00000000000E+00  0.00000000000E+00  0.15269828269E+03  0.62019558467E+03  0.60110381608E+03 0.  0.
        5    1    3    3  502    0 -0.95033373639E+02  0.23502233217E+03 -0.90153333849E+02  0.26910323730E+03  0.46999998093E+01 0.  1.
       -5    1    3    3    0  502  0.95033373639E+02 -0.23502233217E+03  0.24285161654E+03  0.35109234736E+03  0.46999998093E+01 0. -1.
</event>
<event>
 5   0  0.9822607E-03  0.6006612E+03  0.7818609E-02  0.9904035E-01
       -2   -1    0    0    0  501  0.00000000000E+00  0.00000000000E+00  0.93527461412E+02  0.93527461447E+02  0.25500000920E-02 0.  1.
        2   -1    0    0  501    0  0.00000000000E+00  0.00000000000E+00 -0.96440636796E+03  0.96440636796E+03  0.25500000920E-02 0. -1.
    10030    2    1    2    0    0  0.00000000000E+00  0.00000000000E+00 -0.87087890655E+03  0.10579338294E+04  0.60066123359E+03 0.  0.
        3    1    3    3  502    0  0.26763151397E+03  0.11599362755E+03 -0.30944535555E+03  0.42525002901E+03  0.10100000352E+00 0.  1.
       -3    1    3    3    0  502 -0.26763151397E+03 -0.11599362755E+03 -0.56143355100E+03  0.63268380040E+03  0.10100000352E+00 0. -1.
</event>
<event>
 5   0  0.9162342E-03  0.5997868E+03  0.7818609E-02  0.9905849E-01
       -2   -1    0    0    0  501  0.00000000000E+00  0.00000000000E+00  0.15792129064E+03  0.15792129067E+03  0.25500000920E-02 0. -1.
        2   -1    0    0  501    0  0.00000000000E+00  0.00000000000E+00 -0.56949918896E+03  0.56949918896E+03  0.25500000920E-02 0.  1.
    10030    2    1    2    0    0  0.00000000000E+00  0.00000000000E+00 -0.41157789831E+03  0.72742047963E+03  0.59978678529E+03 0.  0.
        5    1    3    3  502    0 -0.17111028754E+03  0.11910903245E+03 -0.46716956586E+03  0.51160061119E+03  0.46999998093E+01 0.  1.
       -5    1    3    3    0  502  0.17111028754E+03 -0.11910903245E+03  0.55591667546E+02  0.21581986843E+03  0.46999998093E+01 0. -1.
</event>
<event>
 5   0  0.5891927E-03  0.5997184E+03  0.7818609E-02  0.9905990E-01
       -1   -1    0    0    0  501  0.00000000000E+00  0.00000000000E+00  0.54342246554E+03  0.54342246556E+03  0.50400001928E-02 0.  1.
        1   -1    0    0  501    0  0.00000000000E+00  0.00000000000E+00 -0.16546158232E+03  0.16546158239E+03  0.50400001928E-02 0. -1.
    10030    2    1    2    0    0  0.00000000000E+00  0.00000000000E+00  0.37796088322E+03  0.70888404796E+03  0.59971840409E+03 0.  0.
        4    1    3    3  502    0  0.24247553460E+03 -0.13685363869E+03  0.57405122824E+02  0.28428905066E+03  0.12699999809E+01 0. -1.
       -4    1    3    3    0  502 -0.24247553460E+03  0.13685363869E+03  0.32055576040E+03  0.42459499729E+03  0.12699999809E+01 0.  1.
</event>
<event>
 5   0  0.5819446E-03  0.5980801E+03  0.7818609E-02  0.9909397E-01
       -1   -1    0    0    0  501  0.00000000000E+00  0.00000000000E+00  0.73103527792E+02  0.73103527965E+02  0.50400001928E-02 0.  1.
        1   -1    0    0  501    0  0.00000000000E+00  0.00000000000E+00 -0.12232646912E+04  0.12232646912E+04  0.50400001928E-02 0. -1.
    10030    2    1    2    0    0  0.00000000000E+00  0.00000000000E+00 -0.11501611634E+04  0.12963682192E+04  0.59808014336E+03 0.  0.
        5    1    3    3  502    0 -0.32787691893E+02  0.29104882886E+03 -0.70546585352E+03  0.76386426412E+03  0.46999998093E+01 0. -1.
       -5    1    3    3    0  502  0.32787691893E+02 -0.29104882886E+03 -0.44469530992E+03  0.53250395508E+03  0.46999998093E+01 0.  1.
</event>
<event>
 5   0  0.5819446E-03  0.5998356E+03  0.7818609E-02  0.9905747E-01
        1   -1    0    0  501    0  0.00000000000E+00  0.00000000000E+00  0.11528512641E+03  0.11528512652E+03  0.50400001928E-02 0.  1.
       -1   -1    0    0    0  501  0.00000000000E+00  0.00000000000E+00 -0.78024549036E+03  0.78024549037E+03  0.50400001928E-02 0. -1.
    10030    2    1    2    0    0  0.00000000000E+00  0.00000000000E+00 -0.66496036394E+03  0.89553061690E+03  0.59983564431E+03 0.  0.
        5    1    3    3  502    0 -0.29379307763E+03  0.10518376510E+02 -0.42085031542E+03  0.51338298247E+03  0.46999998093E+01 0. -1.
       -5    1    3    3    0  502  0.29379307763E+03 -0.10518376510E+02 -0.24411004853E+03  0.38214763442E+03  0.46999998093E+01 0.  1.
</event>
<event>
 5   0  0.3806250E-03  0.5997368E+03  0.7818609E-02  0.9905952E-01
       -3   -1    0    0    0  501  0.00000000000E+00  0.00000000000E+00  0.40552703458E+03  0.40552704715E+03  0.10100000352E+00 0.  1.
        3   -1    0    0  501    0  0.00000000000E+00  0.00000000000E+00 -0.22173869217E+03  0.22173871517E+03  0.10100000352E+00 0. -1.
    10030    2    1    2    0    0  0.00000000000E+00  0.00000000000E+00  0.18378834240E+03  0.62726576233E+03  0.59973676041E+03 0.  0.
        5    1    3    3  502    0  0.27605249589E+03 -0.11551293321E+03  0.11148179896E+03  0.31937203967E+03  0.46999998093E+01 0.  1.
       -5    1    3    3    0  502 -0.27605249589E+03  0.11551293321E+03  0.72306543446E+02  0.30789372265E+03  0.46999998093E+01 0. -1.
</event>
<event>
 5   0  0.3806250E-03  0.5986562E+03  0.7818609E-02  0.9908198E-01
       -3   -1    0    0    0  501  0.00000000000E+00  0.00000000000E+00  0.57482426214E+03  0.57482427101E+03  0.10100000352E+00 0.  1.
        3   -1    0    0  501    0  0.00000000000E+00  0.00000000000E+00 -0.15586901109E+03  0.15586904381E+03  0.10100000352E+00 0. -1.
    10030    2    1    2    0    0  0.00000000000E+00  0.00000000000E+00  0.41895525105E+03  0.73069331482E+03  0.59865617674E+03 0.  0.
        4    1    3    3  502    0 -0.29165138630E+03  0.49591897403E+02  0.26508736444E+03  0.39723143267E+03  0.12699999809E+01 0.  1.
       -4    1    3    3    0  502  0.29165138630E+03 -0.49591897403E+02  0.15386788661E+03  0.33346188215E+03  0.12699999809E+01 0. -1.
</event>
<event>
 5   0  0.9028473E-03  0.5995591E+03  0.7818609E-02  0.9906321E-01
        2   -1    0    0  501    0  0.00000000000E+00  0.00000000000E+00  0.88411519783E+03  0.88411519783E+03  0.25500000920E-02 0. -1.
       -2   -1    0    0    0  501  0.00000000000E+00  0.00000000000E+00 -0.10164713912E+03  0.10164713915E+03  0.25500000920E-02 0.  1.
    10030    2    1    2    0    0  0.00000000000E+00  0.00000000000E+00  0.78246805871E+03  0.98576233698E+03  0.59955910644E+03 0.  0.
        1    1    3    3  502    0 -0.79223886750E+02  0.42008142967E+02 -0.79079705609E+02  0.11956047914E+03  0.50400001928E-02 0.  1.
       -1    1    3    3    0  502  0.79223886750E+02 -0.42008142967E+02  0.86154776431E+03  0.86620185784E+03  0.50400001928E-02 0. -1.
</event>
<event>
 5   0  0.9028473E-03  0.5997259E+03  0.7818609E-02  0.9905975E-01
       -2   -1    0    0    0  501  0.00000000000E+00  0.00000000000E+00  0.78166019025E+03  0.78166019026E+03  0.25500000920E-02 0.  1.
        2   -1    0    0  501    0  0.00000000000E+00  0.00000000000E+00 -0.11503437970E+03  0.11503437973E+03  0.25500000920E-02 0. -1.
    10030    2    1    2    0    0  0.00000000000E+00  0.00000000000E+00  0.66662581055E+03  0.89669456999E+03  0.59972592119E+03 0.  0.
        1    1    3    3  502    0 -0.10779087224E+03  0.17003953421E+03  0.66558307883E+03  0.69536547957E+03  0.50400001928E-02 0.  1.
       -1    1    3    3    0  502  0.10779087224E+03 -0.17003953421E+03  0.10427317277E+01  0.20132909042E+03  0.50400001928E-02 0. -1.
</event>
<event>
 5   0  0.5891927E-03  0.5996364E+03  0.7818609E-02  0.9906161E-01
        1   -1    0    0  501    0  0.00000000000E+00  0.00000000000E+00  0.18979709093E+03  0.18979709100E+03  0.50400001928E-02 0.  1.
       -1   -1    0    0    0  501  0.00000000000E+00  0.00000000000E+00 -0.47361601330E+03  0.47361601332E+03  0.50400001928E-02 0. -1.
    10030    2    1    2    0    0  0.00000000000E+00  0.00000000000E+00 -0.28381892237E+03  0.66341310432E+03  0.59963636171E+03 0.  0.
        4    1    3    3  502    0 -0.26768195912E+03 -0.11694302678E+03 -0.67199288340E+02  0.29974432439E+03  0.12699999809E+01 0.  1.
       -4    1    3    3    0  502  0.26768195912E+03  0.11694302678E+03 -0.21661963403E+03  0.36366877993E+03  0.12699999809E+01 0. -1.
</event>
<event>
 5   0  0.9391405E-03  0.5975268E+03  0.7818609E-02  0.9910550E-01
       -2   -1    0    0    0  501  0.00000000000E+00  0.00000000000E+00  0.54897458340E+02  0.54897458399E+02  0.25500000920E-02 0. -1.
        2   -1    0    0  501    0  0.00000000000E+00  0.00000000000E+00 -0.16259326241E+04  0.16259326241E+04  0.25500000920E-02 0.  1.
    10030    2    1    2    0    0  0.00000000000E+00  0.00000000000E+00 -0.15710351658E+04  0.16808300825E+04  0.59752679789E+03 0.  0.
        2    1    3    3  502    0 -0.95675721672E+02 -0.24853944281E+03 -0.40463290620E+03  0.48441045316E+03  0.25500000920E-02 0. -1.
       -2    1    3    3    0  502  0.95675721672E+02  0.24853944281E+03 -0.11664022596E+04  0.11964196294E+04  0.25500000920E-02 0.  1.
</event>
<event>
 5   0  0.5819446E-03  0.5997182E+03  0.7818609E-02  0.9905991E-01
       -1   -1    0    0    0  501  0.00000000000E+00  0.00000000000E+00  0.43929061412E+03  0.43929061415E+03  0.50400001928E-02 0.  1.
        1   -1    0    0  501    0  0.00000000000E+00  0.00000000000E+00 -0.20468333853E+03  0.20468333859E+03  0.50400001928E-02 0. -1.
    10030    2    1    2    0    0  0.00000000000E+00  0.00000000000E+00  0.23460727559E+03  0.64397395274E+03  0.59971816552E+03 0.  0.
        5    1    3    3  502    0 -0.66255517185E+02  0.16590838556E+03 -0.14125121206E+03  0.22779240739E+03  0.46999998093E+01 0. -1.
       -5    1    3    3    0  502  0.66255517185E+02 -0.16590838556E+03  0.37585848765E+03  0.41618154536E+03  0.46999998093E+01 0.  1.
</event>
<event>
 5   0  0.9162342E-03  0.6003202E+03  0.7818609E-02  0.9904742E-01
       -2   -1    0    0    0  501  0.00000000000E+00  0.00000000000E+00  0.54067185958E+02  0.54067186018E+02  0.25500000920E-02 0. -1.
        2   -1    0    0  501    0  0.00000000000E+00  0.00000000000E+00 -0.16663729665E+04  0.16663729665E+04  0.25500000920E-02 0.  1.
    10030    2    1    2    0    0  0.00000000000E+00  0.00000000000E+00 -0.16123057806E+04  0.17204401526E+04  0.60032023824E+03 0.  0.
        5    1    3    3  502    0 -0.98849417540E+02  0.13755190348E+03 -0.96120647746E+02  0.19481530335E+03  0.46999998093E+01 0. -1.
       -5    1    3    3    0  502  0.98849417540E+02 -0.13755190348E+03 -0.15161851328E+04  0.15256248492E+04  0.46999998093E+01 0.  1.
</event>
<event>
 5   0  0.9162342E-03  0.6006084E+03  0.7818609E-02  0.9904145E-01
       -2   -1    0    0    0  501  0.00000000000E+00  0.00000000000E+00  0.15016710893E+03  0.15016710895E+03  0.25500000920E-02 0.  1.
        2   -1    0    0  501    0  0.00000000000E+00  0.00000000000E+00 -0.60054827442E+03  0.60054827443E+03  0.25500000920E-02 0. -1.
    10030    2    1    2    0    0  0.00000000000E+00  0.00000000000E+00 -0.45038116550E+03  0.75071538338E+03  0.60060835209E+03 0.  0.
        5    1    3    3  502    0  0.24327836688E+03  0.34880035858E+02 -0.95666496232E+01  0.24599713713E+03  0.46999998093E+01 0.  1.
       -5    1    3    3    0  502 -0.24327836688E+03 -0.34880035858E+02 -0.44081451587E+03  0.50471824625E+03  0.46999998093E+01 0. -1.
</event>
<event>
 5   0  0.5765045E-03  0.5978313E+03  0.7818609E-02  0.9909916E-01
       -1   -1    0    0    0  501  0.00000000000E+00  0.00000000000E+00  0.30862721189E+03  0.30862721193E+03  0.50400001928E-02 0. -1.
        1   -1    0    0  501    0  0.00000000000E+00  0.00000000000E+00 -0.28950970479E+03  0.28950970483E+03  0.50400001928E-02 0.  1.
    10030    2    1    2    0    0  0.00000000000E+00  0.00000000000E+00  0.19117507105E+02  0.59813691677E+03  0.59783132414E+03 0.  0.
        1    1    3    3  502    0 -0.15747277257E+03  0.12541189583E+03 -0.21151744013E+03  0.29200247468E+03  0.50400001928E-02 0.  1.
       -1    1    3    3    0  502  0.15747277257E+03 -0.12541189583E+03  0.23063494724E+03  0.30613444208E+03  0.50400001928E-02 0. -1.
</event>
<event>
 5   0  0.6078658E-03  0.5906852E+03  0.7818609E-02  0.9924922E-01
       -1   -1    0    0    0  501  0.00000000000E+00  0.00000000000E+00  0.88055853361E+03  0.88055853362E+03  0.50400001928E-02 0.  1.
        1   -1    0    0  501    0  0.00000000000E+00  0.00000000000E+00 -0.99058997011E+02  0.99058997139E+02  0.50400001928E-02 0. -1.
    10030    2    1    2    0    0  0.00000000000E+00  0.00000000000E+00  0.78149953660E+03  0.97961753076E+03  0.59068517916E+03 0.  0.
        2    1    3    3  502    0 -0.19654332086E+02  0.45342346921E+02  0.87365292913E+03  0.87504951961E+03  0.25500000920E-02 0.  1.
       -2    1    3    3    0  502  0.19654332086E+02 -0.45342346921E+02 -0.92153392531E+02  0.10456801115E+03  0.25500000920E-02 0. -1.
</event>
<event>
 5   0  0.9822607E-03  0.6018998E+03  0.7818609E-02  0.9901472E-01
        2   -1    0    0  501    0  0.00000000000E+00  0.00000000000E+00  0.14092132523E+03  0.14092132525E+03  0.25500000920E-02 0.  1.
       -2   -1    0    0    0  501  0.00000000000E+00  0.00000000000E+00 -0.64270493099E+03  0.64270493100E+03  0.25500000920E-02 0. -1.
    10030    2    1    2    0    0  0.00000000000E+00  0.00000000000E+00 -0.50178360576E+03  0.78362625625E+03  0.60189976115E+03 0.  0.
        3    1    3    3  502    0 -0.29759205414E+03  0.33931330057E+02 -0.28903731657E+03  0.41623904960E+03  0.10100000352E+00 0. -1.
       -3    1    3    3    0  502  0.29759205414E+03 -0.33931330057E+02 -0.21274628919E+03  0.36738720665E+03  0.10100000352E+00 0.  1.
</event>
<event>
 5   0  0.9028473E-03  0.6001494E+03  0.7818609E-02  0.9905096E-01
        2   -1    0    0  501    0  0.00000000000E+00  0.00000000000E+00  0.34627419840E+03  0.34627419841E+03  0.25500000920E-02 0. -1.
       -2   -1    0    0    0  501  0.00000000000E+00  0.00000000000E+00 -0.26003907390E+03  0.26003907391E+03  0.25500000920E-02 0.  1.
    10030    2    1    2    0    0  0.00000000000E+00  0.00000000000E+00  0.86235124499E+02  0.60631327232E+03  0.60014938765E+03 0.  0.
        1    1    3    3  502    0 -0.19773612743E+03  0.62163421030E+02  0.26232755056E+03  0.33433457914E+03  0.50400001928E-02 0. -1.
       -1    1    3    3    0  502  0.19773612743E+03 -0.62163421030E+02 -0.17609242606E+03  0.27197869318E+03  0.50400001928E-02 0.  1.
</event>
<event>
 5   0  0.9162342E-03  0.5941767E+03  0.7818609E-02  0.9917562E-01
        2   -1    0    0  501    0  0.00000000000E+00  0.00000000000E+00  0.15557170698E+04  0.15557170698E+04  0.25500000920E-02 0. -1.
       -2   -1    0    0    0  501  0.00000000000E+00  0.00000000000E+00 -0.56733638094E+02  0.56733638152E+02  0.25500000920E-02 0.  1.
    10030    2    1    2    0    0  0.00000000000E+00  0.00000000000E+00  0.14989834317E+04  0.16124507079E+04  0.59417670524E+03 0.  0.
        5    1    3    3  502    0 -0.13951996482E+02  0.20328446853E+03  0.16291743852E+03  0.26092798839E+03  0.46999998093E+01 0.  1.
       -5    1    3    3    0  502  0.13951996482E+02 -0.20328446853E+03  0.13360659932E+04  0.13515227195E+04  0.46999998093E+01 0. -1.
</event>
<event>
 5   0  0.9162342E-03  0.5998229E+03  0.7818609E-02  0.9905773E-01
       -2   -1    0    0    0  501  0.00000000000E+00  0.00000000000E+00  0.37234830640E+02  0.37234830727E+02  0.25500000920E-02 0. -1.
        2   -1    0    0  501    0  0.00000000000E+00  0.00000000000E+00 -0.24156652586E+04  0.24156652586E+04  0.25500000920E-02 0.  1.
    10030    2    1    2    0    0  0.00000000000E+00  0.00000000000E+00 -0.23784304280E+04  0.24529000894E+04  0.59982293019E+03 0.  0.
        5    1    3    3  502    0  0.10798539257E+03  0.19699263669E+03 -0.37690199604E+03  0.43879852841E+03  0.46999998093E+01 0. -1.
       -5    1    3    3    0  502 -0.10798539257E+03 -0.19699263669E+03 -0.20015284319E+04  0.20141015609E+04  0.46999998093E+01 0.  1.
</event>
<event>
 5   0  0.9822607E-03  0.5998271E+03  0.7818609E-02  0.9905765E-01
       -2   -1    0    0    0  501  0.00000000000E+00  0.00000000000E+00  0.80252586378E+02  0.80252586418E+02  0.25500000920E-02 0.  1.
        2   -1    0    0  501    0  0.00000000000E+00  0.00000000000E+00 -0.11208128764E+04  0.11208128764E+04  0.25500000920E-02 0. -1.
    10030    2    1    2    0    0  0.00000000000E+00  0.00000000000E+00 -0.10405602901E+04  0.12010654629E+04  0.59982708244E+03 0.  0.
        3    1    3    3  502    0 -0.11425934662E+03 -0.37267766193E+02 -0.10704866184E+04  0.10772120010E+04  0.10100000352E+00 0. -1.
       -3    1    3    3    0  502  0.11425934662E+03  0.37267766193E+02  0.29926328347E+02  0.12385346187E+03  0.10100000352E+00 0.  1.
</event>
<event>
 5   0  0.9303190E-03  0.6004700E+03  0.7818609E-02  0.9904431E-01
        2   -1    0    0  501    0  0.00000000000E+00  0.00000000000E+00  0.32668172123E+03  0.32668172124E+03  0.25500000920E-02 0.  1.
       -2   -1    0    0    0  501  0.00000000000E+00  0.00000000000E+00 -0.27592928526E+03  0.27592928527E+03  0.25500000920E-02 0. -1.
    10030    2    1    2    0    0  0.00000000000E+00  0.00000000000E+00  0.50752435974E+02  0.60261100651E+03  0.60046999543E+03 0.  0.
        4    1    3    3  502    0  0.26936684382E+03  0.12451832687E+03 -0.20350822167E+02  0.29745433118E+03  0.12699999809E+01 0.  1.
       -4    1    3    3    0  502 -0.26936684382E+03 -0.12451832687E+03  0.71103258141E+02  0.30515667532E+03  0.12699999809E+01 0. -1.
</event>
<event>
 5   0  0.5819446E-03  0.5976262E+03  0.7818609E-02  0.9910343E-01
        1   -1    0    0  501    0  0.00000000000E+00  0.00000000000E+00  0.73947327239E+03  0.73947327241E+03  0.50400001928E-02 0. -1.
       -1   -1    0    0    0  501  0.00000000000E+00  0.00000000000E+00 -0.12074712674E+03  0.12074712685E+03  0.50400001928E-02 0.  1.
    10030    2    1    2    0    0  0.00000000000E+00  0.00000000000E+00  0.61872614565E+03  0.86022039925E+03  0.59762621427E+03 0.  0.
        5    1    3    3  502    0 -0.31304113176E+02 -0.28447303072E+03  0.18585716098E+03  0.34127676011E+03  0.46999998093E+01 0. -1.
       -5    1    3    3    0  502  0.31304113176E+02  0.28447303072E+03  0.43286898467E+03  0.51894363914E+03  0.46999998093E+01 0.  1.
</event>
<event>
 5   0  0.9822607E-03  0.5964122E+03  0.7818609E-02  0.9912878E-01
       -2   -1    0    0    0  501  0.00000000000E+00  0.00000000000E+00  0.63243468041E+03  0.63243468041E+03  0.25500000920E-02 0.  1.
        2   -1    0    0  501    0  0.00000000000E+00  0.00000000000E+00 -0.14061035974E+03  0.14061035976E+03  0.25500000920E-02 0. -1.
    10030    2    1    2    0    0  0.00000000000E+00  0.00000000000E+00  0.49182432067E+03  0.77304504018E+03  0.59641216599E+03 0.  0.
        3    1    3    3  502    0 -0.17300390389E+03  0.95822169884E+02  0.53520435058E+03  0.57057510118E+03  0.10100000352E+00 0.  1.
       -3    1    3    3    0  502  0.17300390389E+03 -0.95822169884E+02 -0.43380029911E+02  0.20246993900E+03  0.10100000352E+00 0. -1.
</event>
<event>
 5   0  0.9303190E-03  0.6007861E+03  0.7818609E-02  0.9903776E-01
        2   -1    0    0  501    0  0.00000000000E+00  0.00000000000E+00  0.49791878103E+03  0.49791878104E+03  0.25500000920E-02 0.  1.
       -2   -1    0    0    0  501  0.00000000000E+00  0.00000000000E+00 -0.18122631854E+03  0.18122631855E+03  0.25500000920E-02 0. -1.
    10030    2    1    2    0    0  0.00000000000E+00  0.00000000000E+00  0.31669246249E+03  0.67914509959E+03  0.60078611044E+03 0.  0.
        4    1    3    3  502    0  0.11201503116E+03  0.26655244887E+03  0.25043825933E+03  0.38251602559E+03  0.12699999809E+01 0.  1.
       -4    1    3    3    0  502 -0.11201503116E+03 -0.26655244887E+03  0.66254203169E+02  0.29662907400E+03  0.12699999809E+01 0. -1.
</event>
<event>
 5   0  0.9028473E-03  0.5994443E+03  0.7818609E-02  0.9906560E-01
        2   -1    0    0  501    0  0.00000000000E+00  0.00000000000E+00  0.35518635471E+03  0.35518635472E+03  0.25500000920E-02 0. -1.
       -2   -1    0    0    0  501  0.00000000000E+00  0.00000000000E+00 -0.25291900054E+03  0.25291900055E+03  0.25500000920E-02 0.  1.
    10030    2    1    2    0    0  0.00000000000E+00  0.00000000000E+00  0.10226735418E+03  0.60810535528E+03  0.59944433552E+03 0.  0.
        1    1    3    3  502    0  0.47007553065E+02  0.12851008520E+03 -0.21938155295E+03  0.25855911867E+03  0.50400001928E-02 0.  1.
       -1    1    3    3    0  502 -0.47007553065E+02 -0.12851008520E+03  0.32164890713E+03  0.34954623661E+03  0.50400001928E-02 0. -1.
</event>
<event>
 5   0  0.5891927E-03  0.6006481E+03  0.7818609E-02  0.9904062E-01
       -1   -1    0    0    0  501  0.00000000000E+00  0.00000000000E+00  0.22759994308E+03  0.22759994314E+03  0.50400001928E-02 0. -1.
        1   -1    0    0  501    0  0.00000000000E+00  0.00000000000E+00 -0.39628544197E+03  0.39628544200E+03  0.50400001928E-02 0.  1.
    10030    2    1    2    0    0  0.00000000000E+00  0.00000000000E+00 -0.16868549889E+03  0.62388538514E+03  0.60064813015E+03 0.  0.
        4    1    3    3  502    0  0.27177968696E+03  0.12509905671E+03 -0.11140764997E+03  0.31926047298E+03  0.12699999809E+01 0. -1.
       -4    1    3    3    0  502 -0.27177968696E+03 -0.12509905671E+03 -0.57277848919E+02  0.30462491216E+03  0.12699999809E+01 0.  1.
</event>
<event>
 5   0  0.9822607E-03  0.6002793E+03  0.7818609E-02  0.9904827E-01
       -2   -1    0    0    0  501  0.00000000000E+00  0.00000000000E+00  0.26428018383E+03  0.26428018384E+03  0.25500000920E-02 0. -1.
        2   -1    0    0  501    0  0.00000000000E+00  0.00000000000E+00 -0.34086478841E+03  0.34086478841E+03  0.25500000920E-02 0.  1.
    10030    2    1    2    0    0  0.00000000000E+00  0.00000000000E+00 -0.76584604580E+02  0.60514497225E+03  0.60027929815E+03 0.  0.
        3    1    3    3  502    0 -0.62025182055E+02 -0.27538766834E+03  0.64506343795E+02  0.28956272149E+03  0.10100000352E+00 0. -1.
       -3    1    3    3    0  502  0.62025182055E+02  0.27538766834E+03 -0.14109094837E+03  0.31558225077E+03  0.10100000352E+00 0.  1.
</event>
<event>
 5   0  0.9162342E-03  0.6001302E+03  0.7818609E-02  0.9905136E-01
       -2   -1    0    0    0  501  0.00000000000E+00  0.00000000000E+00  0.66727236469E+02  0.66727236518E+02  0.25500000920E-02 0.  1.
        2   -1    0    0  501    0  0.00000000000E+00  0.00000000000E+00 -0.13493598915E+04  0.13493598915E+04  0.25500000920E-02 0. -1.
    10030    2    1    2    0    0  0.00000000000E+00  0.00000000000E+00 -0.12826326550E+04  0.14160871280E+04  0.60013017454E+03 0.  0.
        5    1    3    3  502    0 -0.62652876717E+02  0.25589431311E+03 -0.30256564444E+03  0.40121732470E+03  0.46999998093E+01 0.  1.
       -5    1    3    3    0  502  0.62652876717E+02 -0.25589431311E+03 -0.98006701059E+03  0.10148698033E+04  0.46999998093E+01 0. -1.
</event>
<event>
 5   0  0.5765045E-03  0.5994472E+03  0.7818609E-02  0.9906554E-01
       -1   -1    0    0    0  501  0.00000000000E+00  0.00000000000E+00  0.14481840428E+04  0.14481840429E+04  0.50400001928E-02 0.  1.
        1   -1    0    0  501    0  0.00000000000E+00  0.00000000000E+00 -0.62032334636E+02  0.62032334840E+02  0.50400001928E-02 0. -1.
    10030    2    1    2    0    0  0.00000000000E+00  0.00000000000E+00  0.13861517082E+04  0.15102163777E+04  0.59944720308E+03 0.  0.
        1    1    3    3  502    0  0.14396433993E+03  0.10096064377E+03  0.81566853276E+02  0.19383481200E+03  0.50400001928E-02 0. -1.
       -1    1    3    3    0  502 -0.14396433993E+03 -0.10096064377E+03  0.13045848549E+04  0.13163815657E+04  0.50400001928E-02 0.  1.
</event>
<event>
 5   0  0.3806250E-03  0.5992390E+03  0.7818609E-02  0.9906986E-01
       -3   -1    0    0    0  501  0.00000000000E+00  0.00000000000E+00  0.22484021730E+03  0.22484023998E+03  0.10100000352E+00 0. -1.
        3   -1    0    0  501    0  0.00000000000E+00  0.00000000000E+00 -0.39926951230E+03  0.39926952508E+03  0.10100000352E+00 0.  1.
    10030    2    1    2    0    0  0.00000000000E+00  0.00000000000E+00 -0.17442929501E+03  0.62410976506E+03  0.59923903401E+03 0.  0.
        2    1    3    3  502    0  0.12245540691E+03 -0.98496906698E+02 -0.35289999025E+03  0.38630994089E+03  0.25500000920E-02 0.  1.
       -2    1    3    3    0  502 -0.12245540691E+03  0.98496906698E+02  0.17847069524E+03  0.23779982417E+03  0.25500000920E-02 0. -1.
</event>
<event>
 5   0  0.6078658E-03  0.6001404E+03  0.7818609E-02  0.9905115E-01
       -1   -1    0    0    0  501  0.00000000000E+00  0.00000000000E+00  0.87047940926E+03  0.87047940927E+03  0.50400001928E-02 0.  1.
        1   -1    0    0  501    0  0.00000000000E+00  0.00000000000E+00 -0.10343969942E+03  0.10343969954E+03  0.50400001928E-02 0. -1.
    10030    2    1    2    0    0  0.00000000000E+00  0.00000000000E+00  0.76703970984E+03  0.97391910881E+03  0.60014041193E+03 0.  0.
        2    1    3    3  502    0 -0.20197782751E+03 -0.32809763355E+02  0.27346796150E+02  0.20644459461E+03  0.25500000920E-02 0. -1.
       -2    1    3    3    0  502  0.20197782751E+03  0.32809763355E+02  0.73969291369E+03  0.76747451420E+03  0.25500000920E-02 0.  1.
</event>
<event>
 5   0  0.9303190E-03  0.6006936E+03  0.7818609E-02  0.9903968E-01
        2   -1    0    0  501    0  0.00000000000E+00  0.00000000000E+00  0.10922066894E+04  0.10922066894E+04  0.25500000920E-02 0. -1.
       -2   -1    0    0    0  501  0.00000000000E+00  0.00000000000E+00 -0.82592613370E+02  0.82592613410E+02  0.25500000920E-02 0.  1.
    10030    2    1    2    0    0  0.00000000000E+00  0.00000000000E+00  0.10096140760E+04  0.11747993028E+04  0.60069361522E+03 0.  0.
        4    1    3    3  502    0  0.26020143907E+03 -0.12848906183E+03  0.35341265628E+03  0.45729240801E+03  0.12699999809E+01 0.  1.
       -4    1    3    3    0  502 -0.26020143907E+03  0.12848906183E+03  0.65620141972E+03  0.71750689478E+03  0.12699999809E+01 0. -1.
</event>
<event>
 5   0  0.5790967E-03  0.5993562E+03  0.7818609E-02  0.9906743E-01
        1   -1    0    0  501    0  0.00000000000E+00  0.00000000000E+00  0.69277086186E+03  0.69277086188E+03  0.50400001928E-02 0. -1.
       -1   -1    0    0    0  501  0.00000000000E+00  0.00000000000E+00 -0.12963443840E+03  0.12963443850E+03  0.50400001928E-02 0.  1.
    10030    2    1    2    0    0  0.00000000000E+00  0.00000000000E+00  0.56313642345E+03  0.82240530038E+03  0.59935619349E+03 0.  0.
        3    1    3    3  502    0  0.29676603644E+02 -0.23795918541E+03  0.52817977517E+03  0.58006823722E+03  0.10100000352E+00 0. -1.
       -3    1    3    3    0  502 -0.29676603644E+02  0.23795918541E+03  0.34956648281E+02  0.24233706316E+03  0.10100000352E+00 0.  1.
</event>
<event>
 5   0  0.9162342E-03  0.6003750E+03  0.7818609E-02  0.9904628E-01
       -2   -1    0    0    0  501  0.00000000000E+00  0.00000000000E+00  0.16864347414E+03  0.16864347416E+03  0.25500000920E-02 0. -1.
        2   -1    0    0  501    0  0.00000000000E+00  0.00000000000E+00 -0.53433746503E+03  0.53433746504E+03  0.25500000920E-02 0.  1.
    10030    2    1    2    0    0  0.00000000000E+00  0.00000000000E+00 -0.36569399089E+03  0.70298093919E+03  0.60037497108E+03 0.  0.
        5    1    3    3  502    0  0.23104509094E+03  0.13647323847E+03 -0.34030476990E+03  0.43340074444E+03  0.46999998093E+01 0.  1.
       -5    1    3    3    0  502 -0.23104509094E+03 -0.13647323847E+03 -0.25389220996E+02  0.26958019476E+03  0.46999998093E+01 0. -1.
</event>
<event>
 5   0  0.9391405E-03  0.6023843E+03  0.7818609E-02  0.9900472E-01
       -2   -1    0    0    0  501  0.00000000000E+00  0.00000000000E+00  0.78958909438E+02  0.78958909479E+02  0.25500000920E-02 0. -1.
        2   -1    0    0  501    0  0.00000000000E+00  0.00000000000E+00 -0.11489102758E+04  0.11489102758E+04  0.25500000920E-02 0.  1.
    10030    2    1    2    0    0  0.00000000000E+00  0.00000000000E+00 -0.10699513663E+04  0.12278691852E+04  0.60238427085E+03 0.  0.
        2    1    3    3  502    0 -0.14497674378E+03 -0.10366769307E+03 -0.10298851299E+04  0.10451931054E+04  0.25500000920E-02 0.  1.
       -2    1    3    3    0  502  0.14497674378E+03  0.10366769307E+03 -0.40066236393E+02  0.18267607979E+03  0.25500000920E-02 0. -1.
</event>
<event>
 5   0  0.9162342E-03  0.5978561E+03  0.7818609E-02  0.9909864E-01
       -2   -1    0    0    0  501  0.00000000000E+00  0.00000000000E+00  0.13168705552E+03  0.13168705554E+03  0.25500000920E-02 0. -1.
        2   -1    0    0  501    0  0.00000000000E+00  0.00000000000E+00 -0.67856302729E+03  0.67856302730E+03  0.25500000920E-02 0.  1.
    10030    2    1    2    0    0  0.00000000000E+00  0.00000000000E+00 -0.54687597178E+03  0.81025008284E+03  0.59785605980E+03 0.  0.
        5    1    3    3  502    0 -0.26189712969E+03  0.11793555395E+03 -0.38549897841E+03  0.48076028723E+03  0.46999998093E+01 0. -1.
       -5    1    3    3    0  502  0.26189712969E+03 -0.11793555395E+03 -0.16137699337E+03  0.32948979561E+03  0.46999998093E+01 0.  1.
</event>
<event>
 5   0  0.5790967E-03  0.5997962E+03  0.7818609E-02  0.9905829E-01
       -1   -1    0    0    0  501  0.00000000000E+00  0.00000000000E+00  0.39750103747E+03  0.39750103750E+03  0.50400001928E-02 0.  1.
        1   -1    0    0  501    0  0.00000000000E+00  0.00000000000E+00 -0.22626071463E+03  0.22626071469E+03  0.50400001928E-02 0. -1.
    10030    2    1    2    0    0  0.00000000000E+00  0.00000000000E+00  0.17124032284E+03  0.62376175219E+03  0.59979619483E+03 0.  0.
        3    1    3    3  502    0 -0.13734970465E+03  0.26275214734E+03  0.13253620612E+03  0.32476066331E+03  0.10100000352E+00 0. -1.
       -3    1    3    3    0  502  0.13734970465E+03 -0.26275214734E+03  0.38704116716E+02  0.29900108888E+03  0.10100000352E+00 0.  1.
</event>
<event>
 5   0  0.6078658E-03  0.5999717E+03  0.7818609E-02  0.9905465E-01
       -1   -1    0    0    0  501  0.00000000000E+00  0.00000000000E+00  0.22400405632E+03  0.22400405637E+03  0.50400001928E-02 0. -1.
        1   -1    0    0  501    0  0.00000000000E+00  0.00000000000E+00 -0.40174057973E+03  0.40174057977E+03  0.50400001928E-02 0.  1.
    10030    2    1    2    0    0  0.00000000000E+00  0.00000000000E+00 -0.17773652342E+03  0.62574463614E+03  0.59997173092E+03 0.  0.
        2    1    3    3  502    0  0.24420422442E+03  0.76482939191E+02  0.74400885327E+02  0.26649734512E+03  0.25500000920E-02 0. -1.
       -2    1    3    3    0  502 -0.24420422442E+03 -0.76482939191E+02 -0.25213740874E+03  0.35924729102E+03  0.25500000920E-02 0.  1.
</event>
<event>
 5   0  0.9822607E-03  0.5964337E+03  0.7818609E-02  0.9912833E-01
       -2   -1    0    0    0  501  0.00000000000E+00  0.00000000000E+00  0.77376739266E+02  0.77376739308E+02  0.25500000920E-02 0.  1.
        2   -1    0    0  501    0  0.00000000000E+00  0.00000000000E+00 -0.11493542144E+04  0.11493542144E+04  0.25500000920E-02 0. -1.
    10030    2    1    2    0    0  0.00000000000E+00  0.00000000000E+00 -0.10719774751E+04  0.12267309537E+04  0.59643367243E+03 0.  0.
        3    1    3    3  502    0  0.20032965348E+03 -0.11881403856E+02 -0.82283474483E+02  0.21689563895E+03  0.10100000352E+00 0.  1.
       -3    1    3    3    0  502 -0.20032965348E+03  0.11881403856E+02 -0.98969400066E+03  0.10098353148E+04  0.10100000352E+00 0. -1.
</event>
<event>
 5   0  0.6078658E-03  0.5994775E+03  0.7818609E-02  0.9906491E-01
       -1   -1    0    0    0  501  0.00000000000E+00  0.00000000000E+00  0.40855814515E+03  0.40855814518E+03  0.50400001928E-02 0.  1.
        1   -1    0    0  501    0  0.00000000000E+00  0.00000000000E+00 -0.21990334644E+03  0.21990334649E+03  0.50400001928E-02 0. -1.
    10030    2    1    2    0    0  0.00000000000E+00  0.00000000000E+00  0.18865479872E+03  0.62846149168E+03  0.59947745032E+03 0.  0.
        2    1    3    3  502    0 -0.22480287515E+03  0.19661627095E+03  0.12103484849E+03  0.32224792510E+03  0.25500000920E-02 0. -1.
       -2    1    3    3    0  502  0.22480287515E+03 -0.19661627095E+03  0.67619950223E+02  0.30621356657E+03  0.25500000920E-02 0.  1.
</event>
<event>
 5   0  0.9303190E-03  0.6016277E+03  0.7818609E-02  0.9902035E-01
        2   -1    0    0  501    0  0.00000000000E+00  0.00000000000E+00  0.50873869369E+03  0.50873869370E+03  0.25500000920E-02 0.  1.
       -2   -1    0    0    0  501  0.00000000000E+00  0.00000000000E+00 -0.17786922604E+03  0.17786922606E+03  0.25500000920E-02 0. -1.
    10030    2    1    2    0    0  0.00000000000E+00  0.00000000000E+00  0.33086946765E+03  0.68660791976E+03  0.60162765134E+03 0.  0.
        4    1    3    3  502    0 -0.17467033233E+03 -0.24490308773E+03  0.16579097550E+03  0.34347562917E+03  0.12699999809E+01 0. -1.
       -4    1    3    3    0  502  0.17467033233E+03  0.24490308773E+03  0.16507849215E+03  0.34313229059E+03  0.12699999809E+01 0.  1.
</event>
<event>
 5   0  0.5891927E-03  0.5994199E+03  0.7818609E-02  0.9906610E-01
       -1   -1    0    0    0  501  0.00000000000E+00  0.00000000000E+00  0.11434021592E+03  0.11434021603E+03  0.50400001928E-02 0.  1.
        1   -1    0    0  501    0  0.00000000000E+00  0.00000000000E+00 -0.78560321754E+03  0.78560321756E+03  0.50400001928E-02 0. -1.
    10030    2    1    2    0    0  0.00000000000E+00  0.00000000000E+00 -0.67126300162E+03  0.89994343359E+03  0.59941985812E+03 0.  0.
        4    1    3    3  502    0  0.18121862924E+03 -0.22881691999E+03 -0.43775751448E+03  0.52614696506E+03  0.12699999809E+01 0.  1.
       -4    1    3    3    0  502 -0.18121862924E+03  0.22881691999E+03 -0.23350548714E+03  0.37379646853E+03  0.12699999809E+01 0. -1.
</event>
<event>
 5   0  0.5765045E-03  0.6000846E+03  0.7818609E-02  0.9905231E-01
        1   -1    0    0  501    0  0.00000000000E+00  0.00000000000E+00  0.45484498852E+02  0.45484499131E+02  0.50400001928E-02 0.  1.
       -1   -1    0    0    0  501  0.00000000000E+00  0.00000000000E+00 -0.19792541824E+04  0.19792541824E+04  0.50400001928E-02 0. -1.
    10030    2    1    2    0    0  0.00000000000E+00  0.00000000000E+00 -0.19337696836E+04  0.20247386815E+04  0.60008461029E+03 0.  0.
        1    1    3    3  502    0  0.12952524307E+03 -0.24704232365E+03 -0.13398504215E+04  0.13685780395E+04  0.50400001928E-02 0. -1.
       -1    1    3    3    0  502 -0.12952524307E+03  0.24704232365E+03 -0.59391926206E+03  0.65616064202E+03  0.50400001928E-02 0.  1.
</event>
<event>
 5   0  0.5819446E-03  0.5997865E+03  0.7818609E-02  0.9905849E-01
        1   -1    0    0  501    0  0.00000000000E+00  0.00000000000E+00  0.15790394191E+04  0.15790394191E+04  0.50400001928E-02 0.  1.
       -1   -1    0    0    0  501  0.00000000000E+00  0.00000000000E+00 -0.56956125205E+02  0.56956125428E+02  0.50400001928E-02 0. -1.
    10030    2    1    2    0    0  0.00000000000E+00  0.00000000000E+00  0.15220832939E+04  0.16359955445E+04  0.59978651884E+03 0.  0.
        5    1    3    3  502    0  0.43926153672E+02  0.27068421586E+03  0.43017189211E+03  0.51016604988E+03  0.46999998093E+01 0. -1.
       -5    1    3    3    0  502 -0.43926153672E+02 -0.27068421586E+03  0.10919114018E+04  0.11258294946E+04  0.46999998093E+01 0.  1.
</event>
<event>
 5   0  0.5765045E-03  0.5999140E+03  0.7818609E-02  0.9905585E-01
       -1   -1    0    0    0  501  0.00000000000E+00  0.00000000000E+00  0.65838719730E+03  0.65838719732E+03  0.50400001928E-02 0. -1.
        1   -1    0    0  501    0  0.00000000000E+00  0.00000000000E+00 -0.13665848226E+03  0.13665848236E+03  0.50400001928E-02 0.  1.
    10030    2    1    2    0    0  0.00000000000E+00  0.00000000000E+00  0.52172871504E+03  0.79504567968E+03  0.59991397773E+03 0.  0.
        1    1    3    3  502    0  0.27110654721E+03 -0.22656184140E+02  0.42830024835E+03  0.50739842863E+03  0.50400001928E-02 0. -1.
       -1    1    3    3    0  502 -0.27110654721E+03  0.22656184140E+02  0.93428466688E+02  0.28764725104E+03  0.50400001928E-02 0.  1.
</event>
<event>
 5   0  0.9391405E-03  0.6012887E+03  0.7818609E-02  0.9902736E-01
        2   -1    0    0  501    0  0.00000000000E+00  0.00000000000E+00  0.39548933382E+03  0.39548933383E+03  0.25500000920E-02 0. -1.
       -2   -1    0    0    0  501  0.00000000000E+00  0.00000000000E+00 -0.22854481636E+03  0.22854481637E+03  0.25500000920E-02 0.  1.
    10030    2    1    2    0    0  0.00000000000E+00  0.00000000000E+00  0.16694451747E+03  0.62403415020E+03  0.60128873988E+03 0.  0.
        2    1    3    3  502    0  0.66726575954E+02 -0.43283636753E+02 -0.21742822975E+03  0.23151877731E+03  0.25500000920E-02 0.  1.
       -2    1    3    3    0  502 -0.66726575954E+02  0.43283636753E+02  0.38437274721E+03  0.39251537289E+03  0.25500000920E-02 0. -1.
</event>
<event>
 5   0  0.5891927E-03  0.6028305E+03  0.7818609E-02  0.9899551E-01
        1   -1    0    0  501    0  0.00000000000E+00  0.00000000000E+00  0.39801248729E+03  0.39801248732E+03  0.50400001928E-02 0. -1.
       -1   -1    0    0    0  501  0.00000000000E+00  0.00000000000E+00 -0.22826204220E+03  0.22826204226E+03  0.50400001928E-02 0.  1.
    10030    2    1    2    0    0  0.00000000000E+00  0.00000000000E+00  0.16975044508E+03  0.62627452958E+03  0.60283046770E+03 0.  0.
        4    1    3    3  502    0  0.82013240779E+02  0.14925755781E+03  0.34323431404E+03  0.38316497421E+03  0.12699999809E+01 0. -1.
       -4    1    3    3    0  502 -0.82013240779E+02 -0.14925755781E+03 -0.17348386895E+03  0.24310955537E+03  0.12699999809E+01 0.  1.
</event>
<event>
 5   0  0.9822607E-03  0.5995963E+03  0.7818609E-02  0.9906244E-01
       -2   -1    0    0    0  501  0.00000000000E+00  0.00000000000E+00  0.59823794424E+02  0.59823794479E+02  0.25500000920E-02 0. -1.
        2   -1    0    0  501    0  0.00000000000E+00  0.00000000000E+00 -0.15023941579E+04  0.15023941579E+04  0.25500000920E-02 0.  1.
    10030    2    1    2    0    0  0.00000000000E+00  0.00000000000E+00 -0.14425703635E+04  0.15622179524E+04  0.59959626180E+03 0.  0.
        3    1    3    3  502    0  0.23533226780E+03  0.17261235803E+03 -0.54261501788E+03  0.61612285320E+03  0.10100000352E+00 0.  1.
       -3    1    3    3    0  502 -0.23533226780E+03 -0.17261235803E+03 -0.89995534558E+03  0.94609509916E+03  0.10100000352E+00 0. -1.
</event>
<event>
 5   0  0.3806250E-03  0.5994307E+03  0.7818609E-02  0.9906588E-01
        3   -1    0    0  501    0  0.00000000000E+00  0.00000000000E+00  0.10554131688E+03  0.10554136520E+03  0.10100000352E+00 0. -1.
       -3   -1    0    0    0  501  0.00000000000E+00  0.00000000000E+00 -0.85112899855E+03  0.85112900455E+03  0.10100000352E+00 0.  1.
    10030    2    1    2    0    0  0.00000000000E+00  0.00000000000E+00 -0.74558768168E+03  0.95667036975E+03  0.59943073436E+03 0.  0.
        2    1    3    3  502    0 -0.17637419962E+02 -0.15789373597E+03 -0.77839438756E+03  0.79444278148E+03  0.25500000920E-02 0.  1.
       -2    1    3    3    0  502  0.17637419962E+02  0.15789373597E+03  0.32806705887E+02  0.16222758828E+03  0.25500000920E-02 0. -1.
</event>
<event>
 5   0  0.9303190E-03  0.6003726E+03  0.7818609E-02  0.9904633E-01
        2   -1    0    0  501    0  0.00000000000E+00  0.00000000000E+00  0.19865231660E+03  0.19865231662E+03  0.25500000920E-02 0.  1.
       -2   -1    0    0    0  501  0.00000000000E+00  0.00000000000E+00 -0.45361575378E+03  0.45361575379E+03  0.25500000920E-02 0. -1.
    10030    2    1    2    0    0  0.00000000000E+00  0.00000000000E+00 -0.25496343718E+03  0.65226807040E+03  0.60037261877E+03 0.  0.
        4    1    3    3  502    0  0.21535575504E+03 -0.83448784086E+02  0.80843884425E+02  0.24470216048E+03  0.12699999809E+01 0.  1.
       -4    1    3    3    0  502 -0.21535575504E+03  0.83448784086E+02 -0.33580732160E+03  0.40756590993E+03  0.12699999809E+01 0. -1.
</event>
<event>
 5   0  0.5765045E-03  0.6041586E+03  0.7818609E-02  0.9896816E-01
        1   -1    0    0  501    0  0.00000000000E+00  0.00000000000E+00  0.71757016596E+03  0.71757016597E+03  0.50400001928E-02 0. -1.
       -1   -1    0    0    0  501  0.00000000000E+00  0.00000000000E+00 -0.12716791409E+03  0.12716791419E+03  0.50400001928E-02 0.  1.
    10030    2    1    2    0    0  0.00000000000E+00  0.00000000000E+00  0.59040225187E+03  0.84473808016E+03  0.60415859264E+03 0.  0.
        1    1    3    3  502    0 -0.57207153317E+02  0.25995819079E+03  0.95492579434E+02  0.28278923618E+03  0.50400001928E-02 0.  1.
       -1    1    3    3    0  502  0.57207153317E+02 -0.25995819079E+03  0.49490967244E+03  0.56194884398E+03  0.50400001928E-02 0. -1.
</event>
<event>
 5   0  0.9162342E-03  0.5994961E+03  0.7818609E-02  0.9906452E-01
        2   -1    0    0  501    0  0.00000000000E+00  0.00000000000E+00  0.15005377430E+04  0.15005377430E+04  0.25500000920E-02 0. -1.
       -2   -1    0    0    0  501  0.00000000000E+00  0.00000000000E+00 -0.59877786830E+02  0.59877786884E+02  0.25500000920E-02 0.  1.
    10030    2    1    2    0    0  0.00000000000E+00  0.00000000000E+00  0.14406599561E+04  0.15604155299E+04  0.59949605219E+03 0.  0.
        5    1    3    3  502    0 -0.11627087216E+03 -0.22825492820E+03  0.31535382042E+03  0.40631188761E+03  0.46999998093E+01 0.  1.
       -5    1    3    3    0  502  0.11627087216E+03  0.22825492820E+03  0.11253061357E+04  0.11541036423E+04  0.46999998093E+01 0. -1.
</event>
<event>
 5   0  0.3806250E-03  0.6019537E+03  0.7818609E-02  0.9901361E-01
       -3   -1    0    0    0  501  0.00000000000E+00  0.00000000000E+00  0.36939729395E+03  0.36939730776E+03  0.10100000352E+00 0.  1.
        3   -1    0    0  501    0  0.00000000000E+00  0.00000000000E+00 -0.24522933619E+03  0.24522935698E+03  0.10100000352E+00 0. -1.
    10030    2    1    2    0    0  0.00000000000E+00  0.00000000000E+00  0.12416795777E+03  0.61462666475E+03  0.60195369862E+03 0.  0.
        2    1    3    3  502    0 -0.81568174642E+02  0.27998279966E+03 -0.13937028767E+02  0.29195543495E+03  0.25500000920E-02 0. -1.
       -2    1    3    3    0  502  0.81568174642E+02 -0.27998279966E+03  0.13810498653E+03  0.32267122979E+03  0.25500000920E-02 0.  1.
</event>
<event>
 5   0  0.9028473E-03  0.6001605E+03  0.7818609E-02  0.9905073E-01
       -2   -1    0    0    0  501  0.00000000000E+00  0.00000000000E+00  0.11302882754E+03  0.11302882757E+03  0.25500000920E-02 0.  1.
        2   -1    0    0  501    0  0.00000000000E+00  0.00000000000E+00 -0.79668313063E+03  0.79668313063E+03  0.25500000920E-02 0. -1.
    10030    2    1    2    0    0  0.00000000000E+00  0.00000000000E+00 -0.68365430309E+03  0.90971195820E+03  0.60016051249E+03 0.  0.
        1    1    3    3  502    0  0.24635258206E+03  0.11924349994E+03 -0.52833324052E+03  0.59501648719E+03  0.50400001928E-02 0. -1.
       -1    1    3    3    0  502 -0.24635258206E+03 -0.11924349994E+03 -0.15532106257E+03  0.31469547100E+03  0.50400001928E-02 0.  1.
</event>
<event>
 5   0  0.9822607E-03  0.5984575E+03  0.7818609E-02  0.9908611E-01
        2   -1    0    0  501    0  0.00000000000E+00  0.00000000000E+00  0.28546547987E+03  0.28546547988E+03  0.25500000920E-02 0.  1.
       -2   -1    0    0    0  501  0.00000000000E+00  0.00000000000E+00 -0.31365560604E+03  0.31365560605E+03  0.25500000920E-02 0. -1.
    10030    2    1    2    0    0  0.00000000000E+00  0.00000000000E+00 -0.28190126175E+02  0.59912108593E+03  0.59845751094E+03 0.  0.
        3    1    3    3  502    0  0.23859481990E+03  0.24591784915E+01 -0.19486189141E+03  0.30806606851E+03  0.10100000352E+00 0. -1.
       -3    1    3    3    0  502 -0.23859481990E+03 -0.24591784915E+01  0.16667176524E+03  0.29105501743E+03  0.10100000352E+00 0.  1.
</event>
<event>
 5   0  0.5891927E-03  0.5999865E+03  0.7818609E-02  0.9905434E-01
       -1   -1    0    0    0  501  0.00000000000E+00  0.00000000000E+00  0.48718452325E+02  0.48718452585E+02  0.50400001928E-02 0. -1.
        1   -1    0    0  501    0  0.00000000000E+00  0.00000000000E+00 -0.18472663230E+04  0.18472663230E+04  0.50400001928E-02 0.  1.
    10030    2    1    2    0    0  0.00000000000E+00  0.00000000000E+00 -0.17985478706E+04  0.18959847756E+04  0.59998652165E+03 0.  0.
        4    1    3    3  502    0 -0.91298015918E+02 -0.23567635547E+03 -0.14099481728E+04  0.14324224709E+04  0.12699999809E+01 0.  1.
       -4    1    3    3    0  502  0.91298015918E+02  0.23567635547E+03 -0.38859969781E+03  0.46356230463E+03  0.12699999809E+01 0. -1.
</event>
<event>
 5   0  0.3806250E-03  0.6005870E+03  0.7818609E-02  0.9904189E-01
       -4   -1    0    0    0  501  0.00000000000E+00  0.00000000000E+00  0.10266613250E+03  0.10267398728E+03  0.12699999809E+01 0. -1.
        4   -1    0    0  501    0  0.00000000000E+00  0.00000000000E+00 -0.87830218792E+03  0.87830310611E+03  0.12699999809E+01 0.  1.
    10030    2    1    2    0    0  0.00000000000E+00  0.00000000000E+00 -0.77563605542E+03  0.98097709339E+03  0.60058701892E+03 0.  0.
        4    1    3    3  502    0  0.27693170562E+03  0.23931539107E+02 -0.20222670582E+03  0.34374575137E+03  0.12699999809E+01 0. -1.
       -4    1    3    3    0  502 -0.27693170562E+03 -0.23931539107E+02 -0.57340934960E+03  0.63723134202E+03  0.12699999809E+01 0.  1.
</event>
<event>
 5   0  0.9028473E-03  0.6019555E+03  0.7818609E-02  0.9901357E-01
        2   -1    0    0  501    0  0.00000000000E+00  0.00000000000E+00  0.84634409905E+03  0.84634409905E+03  0.25500000920E-02 0.  1.
       -2   -1    0    0    0  501  0.00000000000E+00  0.00000000000E+00 -0.10703400000E+03  0.10703400003E+03  0.25500000920E-02 0. -1.
    10030    2    1    2    0    0  0.00000000000E+00  0.00000000000E+00  0.73931009905E+03  0.95337809908E+03  0.60195546118E+03 0.  0.
        1    1    3    3  502    0  0.20620258182E+03 -0.24813256522E+02  0.71466360612E+03  0.74423065805E+03  0.50400001928E-02 0.  1.
       -1    1    3    3    0  502 -0.20620258182E+03  0.24813256522E+02  0.24646492929E+02  0.20914744102E+03  0.50400001928E-02 0. -1.
</event>
<event>
 5   0  0.9822607E-03  0.6008598E+03  0.7818609E-02  0.9903624E-01
       -2   -1    0    0    0  501  0.00000000000E+00  0.00000000000E+00  0.19924505332E+03  0.19924505334E+03  0.25500000920E-02 0. -1.
        2   -1    0    0  501    0  0.00000000000E+00  0.00000000000E+00 -0.45300064760E+03  0.45300064761E+03  0.25500000920E-02 0.  1.
    10030    2    1    2    0    0  0.00000000000E+00  0.00000000000E+00 -0.25375559428E+03  0.65224570094E+03  0.60085984453E+03 0.  0.
        3    1    3    3  502    0 -0.28634651867E+03 -0.36944925747E+02 -0.21704053240E+03  0.36120058028E+03  0.10100000352E+00 0.  1.
       -3    1    3    3    0  502  0.28634651867E+03  0.36944925747E+02 -0.36715061880E+02  0.29104512066E+03  0.10100000352E+00 0. -1.
</event>
<event>
 5   0  0.5819446E-03  0.5990162E+03  0.7818609E-02  0.9907449E-01
       -1   -1    0    0    0  501  0.00000000000E+00  0.00000000000E+00  0.98091795428E+02  0.98091795558E+02  0.50400001928E-02 0.  1.
        1   -1    0    0  501    0  0.00000000000E+00  0.00000000000E+00 -0.91450162850E+03  0.91450162851E+03  0.50400001928E-02 0. -1.
    10030    2    1    2    0    0  0.00000000000E+00  0.00000000000E+00 -0.81640983307E+03  0.10125934241E+04  0.59901621592E+03 0.  0.
        5    1    3    3  502    0 -0.18542955508E+03  0.59141839591E+01 -0.80559530988E+03  0.82669522242E+03  0.46999998093E+01 0. -1.
       -5    1    3    3    0  502  0.18542955508E+03 -0.59141839591E+01 -0.10814523190E+02  0.18589820165E+03  0.46999998093E+01 0.  1.
</event>
<event>
 5   0  0.9822607E-03  0.5995065E+03  0.7818609E-02  0.9906431E-01
        2   -1    0    0  501    0  0.00000000000E+00  0.00000000000E+00  0.14341983199E+04  0.14341983199E+04  0.25500000920E-02 0. -1.
       -2   -1    0    0    0  501  0.00000000000E+00  0.00000000000E+00 -0.62649634213E+02  0.62649634265E+02  0.25500000920E-02 0.  1.
    10030    2    1    2    0    0  0.00000000000E+00  0.00000000000E+00  0.13715486857E+04  0.14968479541E+04  0.59950646425E+03 0.  0.
        3    1    3    3  502    0 -0.88795485987E+02  0.36137777459E+02  0.13948894368E+04  0.13981799342E+04  0.10100000352E+00 0. -1.
       -3    1    3    3    0  502  0.88795485987E+02 -0.36137777459E+02 -0.23340751155E+02  0.98668019930E+02  0.10100000352E+00 0.  1.
</event>
<event>
 5   0  0.6078658E-03  0.5992952E+03  0.7818609E-02  0.9906869E-01
        1   -1    0    0  501    0  0.00000000000E+00  0.00000000000E+00  0.15844400101E+04  0.15844400101E+04  0.50400001928E-02 0.  1.
       -1   -1    0    0    0  501  0.00000000000E+00  0.00000000000E+00 -0.56669033802E+02  0.56669034026E+02  0.50400001928E-02 0. -1.
    10030    2    1    2    0    0  0.00000000000E+00  0.00000000000E+00  0.15277709763E+04  0.16411090441E+04  0.59929520164E+03 0.  0.
        2    1    3    3  502    0  0.90224149233E+01  0.26462740377E+03  0.37973183360E+03  0.46293123923E+03  0.25500000920E-02 0. -1.
       -2    1    3    3    0  502 -0.90224149233E+01 -0.26462740377E+03  0.11480391427E+04  0.11781778049E+04  0.25500000920E-02 0.  1.
</event>
<event>
 5   0  0.5891927E-03  0.6000540E+03  0.7818609E-02  0.9905294E-01
        1   -1    0    0  501    0  0.00000000000E+00  0.00000000000E+00  0.40552997665E+03  0.40552997669E+03  0.50400001928E-02 0.  1.
       -1   -1    0    0    0  501  0.00000000000E+00  0.00000000000E+00 -0.22197171951E+03  0.22197171957E+03  0.50400001928E-02 0. -1.
    10030    2    1    2    0    0  0.00000000000E+00  0.00000000000E+00  0.18355825715E+03  0.62750169625E+03  0.60005395177E+03 0.  0.
        4    1    3    3  502    0 -0.54918922643E+02 -0.51917249067E+02  0.39541028699E+03  0.40256974151E+03  0.12699999809E+01 0.  1.
       -4    1    3    3    0  502  0.54918922643E+02  0.51917249067E+02 -0.21185202985E+03  0.22493195475E+03  0.12699999809E+01 0. -1.
</event>
<event>
 5   0  0.9822607E-03  0.6005960E+03  0.7818609E-02  0.9904170E-01
        2   -1    0    0  501    0  0.00000000000E+00  0.00000000000E+00  0.82593464558E+03  0.82593464558E+03  0.25500000920E-02 0.  1.
       -2   -1    0    0    0  501  0.00000000000E+00  0.00000000000E+00 -0.10918406277E+03  0.10918406280E+03  0.25500000920E-02 0. -1.
    10030    2    1    2    0    0  0.00000000000E+00  0.00000000000E+00  0.71675058280E+03  0.93511870838E+03  0.60059603796E+03 0.  0.
        3    1    3    3  502    0  0.13897130322E+03  0.24927787762E+03  0.50382136630E+03  0.57904098537E+03  0.10100000352E+00 0.  1.
       -3    1    3    3    0  502 -0.13897130322E+03 -0.24927787762E+03  0.21292921650E+03  0.35607772302E+03  0.10100000352E+00 0. -1.
</event>
<event>
 5   0  0.5790967E-03  0.5999359E+03  0.7818609E-02  0.9905539E-01
        1   -1    0    0  501    0  0.00000000000E+00  0.00000000000E+00  0.54418529387E+03  0.54418529389E+03  0.50400001928E-02 0. -1.
       -1   -1    0    0    0  501  0.00000000000E+00  0.00000000000E+00 -0.16534950919E+03  0.16534950927E+03  0.50400001928E-02 0.  1.
    10030    2    1    2    0    0  0.00000000000E+00  0.00000000000E+00  0.37883578468E+03  0.70953480315E+03  0.59993590086E+03 0.  0.
        3    1    3    3  502    0 -0.19064196568E+03  0.60615368320E+02 -0.74938330157E+02  0.21362196863E+03  0.10100000352E+00 0.  1.
       -3    1    3    3    0  502  0.19064196568E+03 -0.60615368320E+02  0.45377411483E+03  0.49591283453E+03  0.10100000352E+00 0. -1.
</event>
<event>
 5   0  0.5765045E-03  0.5988316E+03  0.7818609E-02  0.9907833E-01
       -1   -1    0    0    0  501  0.00000000000E+00  0.00000000000E+00  0.25252298167E+03  0.25252298172E+03  0.50400001928E-02 0.  1.
        1   -1    0    0  501    0  0.00000000000E+00  0.00000000000E+00 -0.35501648088E+03  0.35501648091E+03  0.50400001928E-02 0. -1.
    10030    2    1    2    0    0  0.00000000000E+00  0.00000000000E+00 -0.10249349921E+03  0.60753946263E+03  0.59883159676E+03 0.  0.
        1    1    3    3  502    0  0.22181405312E+03 -0.17183047280E+03 -0.15727790430E+03  0.32165746493E+03  0.50400001928E-02 0. -1.
       -1    1    3    3    0  502 -0.22181405312E+03  0.17183047280E+03  0.54784405087E+02  0.28588199770E+03  0.50400001928E-02 0.  1.
</event>
<event>
 5   0  0.6078658E-03  0.6006234E+03  0.7818609E-02  0.9904113E-01
        1   -1    0    0  501    0  0.00000000000E+00  0.00000000000E+00  0.39243584048E+03  0.39243584051E+03  0.50400001928E-02 0.  1.
       -1   -1    0    0    0  501  0.00000000000E+00  0.00000000000E+00 -0.22981368533E+03  0.22981368538E+03  0.50400001928E-02 0. -1.
    10030    2    1    2    0    0  0.00000000000E+00  0.00000000000E+00  0.16262215515E+03  0.62224952590E+03  0.60062343205E+03 0.  0.
        2    1    3    3  502    0 -0.12409499767E+03 -0.20272242009E+03  0.27147161927E+03  0.36082237754E+03  0.25500000920E-02 0.  1.
       -2    1    3    3    0  502  0.12409499767E+03  0.20272242009E+03 -0.10884946412E+03  0.26142714836E+03  0.25500000920E-02 0. -1.
</event>
<event>
 5   0  0.9391405E-03  0.5988978E+03  0.7818609E-02  0.9907695E-01
       -2   -1    0    0    0  501  0.00000000000E+00  0.00000000000E+00  0.10508335120E+03  0.10508335123E+03  0.25500000920E-02 0.  1.
        2   -1    0    0  501    0  0.00000000000E+00  0.00000000000E+00 -0.85331932559E+03  0.85331932559E+03  0.25500000920E-02 0. -1.
    10030    2    1    2    0    0  0.00000000000E+00  0.00000000000E+00 -0.74823597439E+03  0.95840267682E+03  0.59889783567E+03 0.  0.
        2    1    3    3  502    0  0.16104866360E+03  0.26937686135E+02  0.27571863521E+02  0.16559745966E+03  0.25500000920E-02 0.  1.
       -2    1    3    3    0  502 -0.16104866360E+03 -0.26937686135E+02 -0.77580783791E+03  0.79280521716E+03  0.25500000920E-02 0. -1.
</event>
<event>
 5   0  0.9391405E-03  0.6002257E+03  0.7818609E-02  0.9904938E-01
       -2   -1    0    0    0  501  0.00000000000E+00  0.00000000000E+00  0.57680736058E+03  0.57680736059E+03  0.25500000920E-02 0. -1.
        2   -1    0    0  501    0  0.00000000000E+00  0.00000000000E+00 -0.15614872682E+03  0.15614872684E+03  0.25500000920E-02 0.  1.
    10030    2    1    2    0    0  0.00000000000E+00  0.00000000000E+00  0.42065863376E+03  0.73295608742E+03  0.60022574081E+03 0.  0.
        2    1    3    3  502    0  0.26442170155E+03 -0.14152913975E+03  0.19704186740E+03  0.35885210208E+03  0.25500000920E-02 0.  1.
       -2    1    3    3    0  502 -0.26442170155E+03  0.14152913975E+03  0.22361676636E+03  0.37410398535E+03  0.25500000920E-02 0. -1.
</event>
<event>
 5   0  0.9391405E-03  0.5999335E+03  0.7818609E-02  0.9905544E-01
        2   -1    0    0  501    0  0.00000000000E+00  0.00000000000E+00  0.77067148468E+02  0.77067148511E+02  0.25500000920E-02 0.  1.
       -2   -1    0    0    0  501  0.00000000000E+00  0.00000000000E+00 -0.11675541102E+04  0.11675541102E+04  0.25500000920E-02 0. -1.
    10030    2    1    2    0    0  0.00000000000E+00  0.00000000000E+00 -0.10904869618E+04  0.12446212588E+04  0.59993354961E+03 0.  0.
        2    1    3    3  502    0  0.19594095109E+03  0.18248264046E+02 -0.10149199901E+04  0.10338222486E+04  0.25500000920E-02 0. -1.
       -2    1    3    3    0  502 -0.19594095109E+03 -0.18248264046E+02 -0.75566971673E+02  0.21079901012E+03  0.25500000920E-02 0.  1.
</event>
<event>
 5   0  0.3806250E-03  0.6006222E+03  0.7818609E-02  0.9904116E-01
       -4   -1    0    0    0  501  0.00000000000E+00  0.00000000000E+00  0.19423697312E+03  0.19424112496E+03  0.12699999809E+01 0.  1.
        4   -1    0    0  501    0  0.00000000000E+00  0.00000000000E+00 -0.46430303812E+03  0.46430477502E+03  0.12699999809E+01 0. -1.
    10030    2    1    2    0    0  0.00000000000E+00  0.00000000000E+00 -0.27006606500E+03  0.65854589998E+03  0.60062219649E+03 0.  0.
        1    1    3    3  502    0  0.77563950267E+02  0.12417173157E+03 -0.42252601415E+03  0.44717224641E+03  0.50400001928E-02 0. -1.
       -1    1    3    3    0  502 -0.77563950267E+02 -0.12417173157E+03  0.15245994916E+03  0.21137365357E+03  0.50400001928E-02 0.  1.
</event>
<event>
 5   0  0.5891927E-03  0.6001609E+03  0.7818609E-02  0.9905072E-01
        1   -1    0    0  501    0  0.00000000000E+00  0.00000000000E+00  0.34386436228E+03  0.34386436232E+03  0.50400001928E-02 0. -1.
       -1   -1    0    0    0  501  0.00000000000E+00  0.00000000000E+00 -0.26187154107E+03  0.26187154112E+03  0.50400001928E-02 0.  1.
    10030    2    1    2    0    0  0.00000000000E+00  0.00000000000E+00  0.81992821215E+02  0.60573590344E+03  0.60016094673E+03 0.  0.
        4    1    3    3  502    0 -0.25318592286E+03  0.15747393160E+03  0.68363812507E+01  0.29824402706E+03  0.12699999809E+01 0. -1.
       -4    1    3    3    0  502  0.25318592286E+03 -0.15747393160E+03  0.75156439964E+02  0.30749187638E+03  0.12699999809E+01 0.  1.
</event>
<event>
 5   0  0.5790967E-03  0.5999455E+03  0.7818609E-02  0.9905519E-01
        1   -1    0    0  501    0  0.00000000000E+00  0.00000000000E+00  0.19232344220E+03  0.19232344227E+03  0.50400001928E-02 0. -1.
       -1   -1    0    0    0  501  0.00000000000E+00  0.00000000000E+00 -0.46787661690E+03  0.46787661693E+03  0.50400001928E-02 0.  1.
    10030    2    1    2    0    0  0.00000000000E+00  0.00000000000E+00 -0.27555317470E+03  0.66020005919E+03  0.59994546925E+03 0.  0.
        3    1    3    3  502    0 -0.18618740883E+03 -0.30543629619E+01  0.12102082005E+03  0.22208360909E+03  0.10100000352E+00 0. -1.
       -3    1    3    3    0  502  0.18618740883E+03  0.30543629619E+01 -0.39657399475E+03  0.43811645011E+03  0.10100000352E+00 0.  1.
</event>
<event>
 5   0  0.9162342E-03  0.6022270E+03  0.7818609E-02  0.9900796E-01
       -2   -1    0    0    0  501  0.00000000000E+00  0.00000000000E+00  0.25744808662E+03  0.25744808663E+03  0.25500000920E-02 0. -1.
        2   -1    0    0  501    0  0.00000000000E+00  0.00000000000E+00 -0.35218497431E+03  0.35218497432E+03  0.25500000920E-02 0.  1.
    10030    2    1    2    0    0  0.00000000000E+00  0.00000000000E+00 -0.94736887696E+02  0.60963306095E+03  0.60222702623E+03 0.  0.
        5    1    3    3  502    0  0.17389862269E+03  0.11411435629E+03  0.17298819945E+03  0.27057314063E+03  0.46999998093E+01 0. -1.
       -5    1    3    3    0  502 -0.17389862269E+03 -0.11411435629E+03 -0.26772508714E+03  0.33905992032E+03  0.46999998093E+01 0.  1.
</event>
<event>
 5   0  0.6078658E-03  0.6003679E+03  0.7818609E-02  0.9904643E-01
       -1   -1    0    0    0  501  0.00000000000E+00  0.00000000000E+00  0.10149129402E+03  0.10149129415E+03  0.50400001928E-02 0.  1.
        1   -1    0    0  501    0  0.00000000000E+00  0.00000000000E+00 -0.88786350349E+03  0.88786350350E+03  0.50400001928E-02 0. -1.
    10030    2    1    2    0    0  0.00000000000E+00  0.00000000000E+00 -0.78637220947E+03  0.98935479765E+03  0.60036794036E+03 0.  0.
        2    1    3    3  502    0 -0.95163877903E+02 -0.16208247049E+03 -0.77889491410E+03  0.80125163220E+03  0.25500000920E-02 0. -1.
       -2    1    3    3    0  502  0.95163877903E+02  0.16208247049E+03 -0.74772953701E+01  0.18810316544E+03  0.25500000920E-02 0.  1.
</event>
<event>
 5   0  0.9162342E-03  0.5991947E+03  0.7818609E-02  0.9907078E-01
       -2   -1    0    0    0  501  0.00000000000E+00  0.00000000000E+00  0.69756254612E+02  0.69756254659E+02  0.25500000920E-02 0. -1.
        2   -1    0    0  501    0  0.00000000000E+00  0.00000000000E+00 -0.12867460748E+04  0.12867460748E+04  0.25500000920E-02 0.  1.
    10030    2    1    2    0    0  0.00000000000E+00  0.00000000000E+00 -0.12169898202E+04  0.13565023295E+04  0.59919474915E+03 0.  0.
        5    1    3    3  502    0 -0.22252384283E+02  0.23999326029E+03 -0.20577593023E+03  0.31695071707E+03  0.46999998093E+01 0. -1.
       -5    1    3    3    0  502  0.22252384283E+02 -0.23999326029E+03 -0.10112138900E+04  0.10395516124E+04  0.46999998093E+01 0.  1.
</event>
<event>
 5   0  0.5891927E-03  0.5996732E+03  0.7818609E-02  0.9906084E-01
       -1   -1    0    0    0  501  0.00000000000E+00  0.00000000000E+00  0.24318057612E+03  0.24318057617E+03  0.50400001928E-02 0. -1.
        1   -1    0    0  501    0  0.00000000000E+00  0.00000000000E+00 -0.36969227745E+03  0.36969227748E+03  0.50400001928E-02 0.  1.
    10030    2    1    2    0    0  0.00000000000E+00  0.00000000000E+00 -0.12651170133E+03  0.61287285365E+03  0.59967318113E+03 0.  0.
        4    1    3    3  502    0 -0.19012726592E+03 -0.15417911057E+03 -0.24021674926E+03  0.34296541357E+03  0.12699999809E+01 0.  1.
       -4    1    3    3    0  502  0.19012726592E+03  0.15417911057E+03  0.11370504793E+03  0.26990744007E+03  0.12699999809E+01 0. -1.
</event>
<event>
 5   0  0.5819446E-03  0.5995858E+03  0.7818609E-02  0.9906266E-01
        1   -1    0    0  501    0  0.00000000000E+00  0.00000000000E+00  0.86780257139E+03  0.86780257140E+03  0.50400001928E-02 0.  1.
       -1   -1    0    0    0  501  0.00000000000E+00  0.00000000000E+00 -0.10356706921E+03  0.10356706934E+03  0.50400001928E-02 0. -1.
    10030    2    1    2    0    0  0.00000000000E+00  0.00000000000E+00  0.76423550218E+03  0.97136964074E+03  0.59958575380E+03 0.  0.
        5    1    3    3  502    0  0.69937225733E+02 -0.45728800402E+02  0.84849290128E+03  0.85261048096E+03  0.46999998093E+01 0.  1.
       -5    1    3    3    0  502 -0.69937225733E+02  0.45728800402E+02 -0.84257399102E+02  0.11875915978E+03  0.46999998093E+01 0. -1.
</event>
<event>
 5   0  0.5790967E-03  0.5984085E+03  0.7818609E-02  0.9908713E-01
        1   -1    0    0  501    0  0.00000000000E+00  0.00000000000E+00  0.10316391855E+04  0.10316391855E+04  0.50400001928E-02 0. -1.
       -1   -1    0    0    0  501  0.00000000000E+00  0.00000000000E+00 -0.86777621144E+02  0.86777621290E+02  0.50400001928E-02 0.  1.
    10030    2    1    2    0    0  0.00000000000E+00  0.00000000000E+00  0.94486156435E+03  0.11184168068E+04  0.59840853766E+03 0.  0.
        3    1    3    3  502    0  0.27337719910E+03 -0.86027333562E+02  0.31179163381E+03  0.42349714075E+03  0.10100000352E+00 0.  1.
       -3    1    3    3    0  502 -0.27337719910E+03  0.86027333562E+02  0.63306993054E+03  0.69491966605E+03  0.10100000352E+00 0. -1.
</event>
<event>
 5   0  0.5765045E-03  0.6002654E+03  0.7818609E-02  0.9904856E-01
       -1   -1    0    0    0  501  0.00000000000E+00  0.00000000000E+00  0.28415913504E+03  0.28415913508E+03  0.50400001928E-02 0.  1.
        1   -1    0    0  501    0  0.00000000000E+00  0.00000000000E+00 -0.31700416131E+03  0.31700416135E+03  0.50400001928E-02 0. -1.
    10030    2    1    2    0    0  0.00000000000E+00  0.00000000000E+00 -0.32845026279E+02  0.60116329643E+03  0.60026536901E+03 0.  0.
        1    1    3    3  502    0 -0.44184358047E+02 -0.12337448837E+02 -0.31347226703E+03  0.31681119355E+03  0.50400001928E-02 0. -1.
       -1    1    3    3    0  502  0.44184358047E+02  0.12337448837E+02  0.28062724075E+03  0.28435210288E+03  0.50400001928E-02 0.  1.
</event>
<event>
 5   0  0.9303190E-03  0.6001072E+03  0.7818609E-02  0.9905184E-01
       -2   -1    0    0    0  501  0.00000000000E+00  0.00000000000E+00  0.10966999732E+03  0.10966999735E+03  0.25500000920E-02 0.  1.
        2   -1    0    0  501    0  0.00000000000E+00  0.00000000000E+00 -0.82093706298E+03  0.82093706298E+03  0.25500000920E-02 0. -1.
    10030    2    1    2    0    0  0.00000000000E+00  0.00000000000E+00 -0.71126706566E+03  0.93060706033E+03  0.60010720879E+03 0.  0.
        4    1    3    3  502    0  0.43133227346E+02 -0.29693442073E+03 -0.35537828784E+03  0.46510844530E+03  0.12699999809E+01 0.  1.
       -4    1    3    3    0  502 -0.43133227346E+02  0.29693442073E+03 -0.35588877782E+03  0.46549861503E+03  0.12699999809E+01 0. -1.
</event>
<event>
 5   0  0.9391405E-03  0.6026438E+03  0.7818609E-02  0.9899936E-01
       -2   -1    0    0    0  501  0.00000000000E+00  0.00000000000E+00  0.83411864246E+02  0.83411864285E+02  0.25500000920E-02 0.  1.
        2   -1    0    0  501    0  0.00000000000E+00  0.00000000000E+00 -0.10885128680E+04  0.10885128680E+04  0.25500000920E-02 0. -1.
    10030    2    1    2    0    0  0.00000000000E+00  0.00000000000E+00 -0.10051010037E+04  0.11719247322E+04  0.60264380059E+03 0.  0.
        2    1    3    3  502    0  0.48084327906E+02 -0.10289483017E+03 -0.10452945140E+04  0.10514466556E+04  0.25500000920E-02 0. -1.
       -2    1    3    3    0  502 -0.48084327906E+02  0.10289483017E+03  0.40193510287E+02  0.12047807660E+03  0.25500000920E-02 0.  1.
</event>
<event>
 5   0  0.5790967E-03  0.5998755E+03  0.7818609E-02  0.9905664E-01
       -1   -1    0    0    0  501  0.00000000000E+00  0.00000000000E+00  0.31537142007E+03  0.31537142011E+03  0.50400001928E-02 0.  1.
        1   -1    0    0  501    0  0.00000000000E+00  0.00000000000E+00 -0.28525937762E+03  0.28525937767E+03  0.50400001928E-02 0. -1.
    10030    2    1    2    0    0  0.00000000000E+00  0.00000000000E+00  0.30112042447E+02  0.60063079777E+03  0.59987550386E+03 0.  0.
        3    1    3    3  502    0 -0.21472936681E+03  0.13406856455E+03  0.17612983660E+03  0.30839067838E+03  0.10100000352E+00 0. -1.
       -3    1    3    3    0  502  0.21472936681E+03 -0.13406856455E+03 -0.14601779416E+03  0.29224011939E+03  0.10100000352E+00 0.  1.
</event>
<event>
 5   0  0.9822607E-03  0.5991688E+03  0.7818609E-02  0.9907132E-01
       -2   -1    0    0    0  501  0.00000000000E+00  0.00000000000E+00  0.69773434520E+02  0.69773434567E+02  0.25500000920E-02 0. -1.
        2   -1    0    0  501    0  0.00000000000E+00  0.00000000000E+00 -0.12863179914E+04  0.12863179914E+04  0.25500000920E-02 0.  1.
    10030    2    1    2    0    0  0.00000000000E+00  0.00000000000E+00 -0.12165445569E+04  0.13560914260E+04  0.59916883824E+03 0.  0.
        3    1    3    3  502    0 -0.18965859118E+03  0.42492340708E+02 -0.92288193796E+02  0.21515831646E+03  0.10100000352E+00 0. -1.
       -3    1    3    3    0  502  0.18965859118E+03 -0.42492340708E+02 -0.11242563631E+04  0.11409331095E+04  0.10100000352E+00 0.  1.
</event>
<event>
 5   0  0.5765045E-03  0.6007417E+03  0.7818609E-02  0.9903868E-01
        1   -1    0    0  501    0  0.00000000000E+00  0.00000000000E+00  0.20636745196E+04  0.20636745196E+04  0.50400001928E-02 0. -1.
       -1   -1    0    0    0  501  0.00000000000E+00  0.00000000000E+00 -0.43719424016E+02  0.43719424307E+02  0.50400001928E-02 0.  1.
    10030    2    1    2    0    0  0.00000000000E+00  0.00000000000E+00  0.20199550955E+04  0.21073939439E+04  0.60074174706E+03 0.  0.
        1    1    3    3  502    0  0.56306025556E+02 -0.18913420395E+02  0.20428670822E+04  0.20437304131E+04  0.50400001928E-02 0. -1.
       -1    1    3    3    0  502 -0.56306025556E+02  0.18913420395E+02 -0.22911986679E+02  0.63663530721E+02  0.50400001928E-02 0.  1.
</event>
<event>
 5   0  0.5891927E-03  0.6022680E+03  0.7818609E-02  0.9900712E-01
       -1   -1    0    0    0  501  0.00000000000E+00  0.00000000000E+00  0.49298462433E+03  0.49298462435E+03  0.50400001928E-02 0. -1.
        1   -1    0    0  501    0  0.00000000000E+00  0.00000000000E+00 -0.18394424048E+03  0.18394424055E+03  0.50400001928E-02 0.  1.
    10030    2    1    2    0    0  0.00000000000E+00  0.00000000000E+00  0.30904038385E+03  0.67692886490E+03  0.60226798793E+03 0.  0.
        4    1    3    3  502    0  0.10601994176E+03  0.27694795799E+03  0.21335066970E+03  0.36532248855E+03  0.12699999809E+01 0.  1.
       -4    1    3    3    0  502 -0.10601994176E+03 -0.27694795799E+03  0.95689714152E+02  0.31160637634E+03  0.12699999809E+01 0. -1.
</event>
<event>
 5   0  0.5819446E-03  0.6002026E+03  0.7818609E-02  0.9904986E-01
       -1   -1    0    0    0  501  0.00000000000E+00  0.00000000000E+00  0.43541582268E+03  0.43541582271E+03  0.50400001928E-02 0.  1.
        1   -1    0    0  501    0  0.00000000000E+00  0.00000000000E+00 -0.20683857071E+03  0.20683857078E+03  0.50400001928E-02 0. -1.
    10030    2    1    2    0    0  0.00000000000E+00  0.00000000000E+00  0.22857725197E+03  0.64225439349E+03  0.60020258733E+03 0.  0.
        5    1    3    3  502    0 -0.14423499282E+03 -0.20015220536E+03  0.29705977479E+03  0.38617513936E+03  0.46999998093E+01 0.  1.
       -5    1    3    3    0  502  0.14423499282E+03  0.20015220536E+03 -0.68482522823E+02  0.25607925413E+03  0.46999998093E+01 0. -1.
</event>
<event>
 5   0  0.9822607E-03  0.6019396E+03  0.7818609E-02  0.9901390E-01
       -2   -1    0    0    0  501  0.00000000000E+00  0.00000000000E+00  0.70691823369E+02  0.70691823415E+02  0.25500000920E-02 0. -1.
        2   -1    0    0  501    0  0.00000000000E+00  0.00000000000E+00 -0.12813763204E+04  0.12813763204E+04  0.25500000920E-02 0.  1.
    10030    2    1    2    0    0  0.00000000000E+00  0.00000000000E+00 -0.12106844970E+04  0.13520681438E+04  0.60193962668E+03 0.  0.
        3    1    3    3  502    0  0.71888157054E+02 -0.19304685838E+03 -0.10982140453E+04  0.11173670374E+04  0.10100000352E+00 0.  1.
       -3    1    3    3    0  502 -0.71888157054E+02  0.19304685838E+03 -0.11247045169E+03  0.23470110643E+03  0.10100000352E+00 0. -1.
</event>
<event>
 5   0  0.5891927E-03  0.5999895E+03  0.7818609E-02  0.9905428E-01
        1   -1    0    0  501    0  0.00000000000E+00  0.00000000000E+00  0.46463040800E+03  0.46463040803E+03  0.50400001928E-02 0. -1.
       -1   -1    0    0    0  501  0.00000000000E+00  0.00000000000E+00 -0.19369555667E+03  0.19369555673E+03  0.50400001928E-02 0.  1.
    10030    2    1    2    0    0  0.00000000000E+00  0.00000000000E+00  0.27093485134E+03  0.65832596477E+03  0.59998948509E+03 0.  0.
        4    1    3    3  502    0 -0.44587448743E+02  0.24331831585E+03  0.32168434668E+03  0.40580078267E+03  0.12699999809E+01 0. -1.
       -4    1    3    3    0  502  0.44587448743E+02 -0.24331831585E+03 -0.50749495346E+02  0.25252518210E+03  0.12699999809E+01 0.  1.
</event>
<event>
 5   0  0.9028473E-03  0.5999339E+03  0.7818609E-02  0.9905543E-01
       -2   -1    0    0    0  501  0.00000000000E+00  0.00000000000E+00  0.10963777510E+03  0.10963777513E+03  0.25500000920E-02 0.  1.
        2   -1    0    0  501    0  0.00000000000E+00  0.00000000000E+00 -0.82070404701E+03  0.82070404702E+03  0.25500000920E-02 0. -1.
    10030    2    1    2    0    0  0.00000000000E+00  0.00000000000E+00 -0.71106627192E+03  0.93034182215E+03  0.59993388217E+03 0.  0.
        1    1    3    3  502    0 -0.26917049047E+03  0.13007372100E+03 -0.31728796540E+03  0.43593987985E+03  0.50400001928E-02 0.  1.
       -1    1    3    3    0  502  0.26917049047E+03 -0.13007372100E+03 -0.39377830652E+03  0.49440194229E+03  0.50400001928E-02 0. -1.
</event>
<event>
 5   0  0.5891927E-03  0.5987745E+03  0.7818609E-02  0.9907952E-01
        1   -1    0    0  501    0  0.00000000000E+00  0.00000000000E+00  0.33057971092E+03  0.33057971096E+03  0.50400001928E-02 0. -1.
       -1   -1    0    0    0  501  0.00000000000E+00  0.00000000000E+00 -0.27113797328E+03  0.27113797333E+03  0.50400001928E-02 0.  1.
    10030    2    1    2    0    0  0.00000000000E+00  0.00000000000E+00  0.59441737641E+02  0.60171768429E+03  0.59877445788E+03 0.  0.
        4    1    3    3  502    0  0.91350367537E+02  0.20040558328E+03 -0.17406599903E+03  0.28072739869E+03  0.12699999809E+01 0. -1.
       -4    1    3    3    0  502 -0.91350367537E+02 -0.20040558328E+03  0.23350773667E+03  0.32099028559E+03  0.12699999809E+01 0.  1.
</event>
<event>
 5   0  0.5819446E-03  0.6000733E+03  0.7818609E-02  0.9905254E-01
       -1   -1    0    0    0  501  0.00000000000E+00  0.00000000000E+00  0.13085824213E+03  0.13085824223E+03  0.50400001928E-02 0. -1.
        1   -1    0    0  501    0  0.00000000000E+00  0.00000000000E+00 -0.68793519072E+03  0.68793519074E+03  0.50400001928E-02 0.  1.
    10030    2    1    2    0    0  0.00000000000E+00  0.00000000000E+00 -0.55707694859E+03  0.81879343297E+03  0.60007329488E+03 0.  0.
        5    1    3    3  502    0 -0.18868231122E+03  0.11916959502E+03 -0.55210914454E+03  0.59552414260E+03  0.46999998093E+01 0.  1.
       -5    1    3    3    0  502  0.18868231122E+03 -0.11916959502E+03 -0.49678040554E+01  0.22326929037E+03  0.46999998093E+01 0. -1.
</event>
<event>
 5   0  0.3806250E-03  0.5981436E+03  0.7818609E-02  0.9909265E-01
       -3   -1    0    0    0  501  0.00000000000E+00  0.00000000000E+00  0.45701679914E+03  0.45701681030E+03  0.10100000352E+00 0.  1.
        3   -1    0    0  501    0  0.00000000000E+00  0.00000000000E+00 -0.19571258745E+03  0.19571261351E+03  0.10100000352E+00 0. -1.
    10030    2    1    2    0    0  0.00000000000E+00  0.00000000000E+00  0.26130421170E+03  0.65272942381E+03  0.59814363631E+03 0.  0.
        1    1    3    3  502    0  0.27267778037E+03  0.10326217401E+03  0.58038669682E+02  0.29729570413E+03  0.50400001928E-02 0.  1.
       -1    1    3    3    0  502 -0.27267778037E+03 -0.10326217401E+03  0.20326554201E+03  0.35543371968E+03  0.50400001928E-02 0. -1.
</event>
<event>
 5   0  0.3806250E-03  0.6001557E+03  0.7818609E-02  0.9905083E-01
       -3   -1    0    0    0  501  0.00000000000E+00  0.00000000000E+00  0.33194264152E+03  0.33194265689E+03  0.10100000352E+00 0. -1.
        3   -1    0    0  501    0  0.00000000000E+00  0.00000000000E+00 -0.27127185292E+03  0.27127187173E+03  0.10100000352E+00 0.  1.
    10030    2    1    2    0    0  0.00000000000E+00  0.00000000000E+00  0.60670788601E+02  0.60321452862E+03  0.60015566559E+03 0.  0.
        5    1    3    3  502    0 -0.11204648374E+03  0.10514534246E+02  0.30988901346E+03  0.32972452231E+03  0.46999998093E+01 0. -1.
       -5    1    3    3    0  502  0.11204648374E+03 -0.10514534246E+02 -0.24921822486E+03  0.27349000631E+03  0.46999998093E+01 0.  1.
</event>
<event>
 5   0  0.3806250E-03  0.5993834E+03  0.7818609E-02  0.9906686E-01
        4   -1    0    0  501    0  0.00000000000E+00  0.00000000000E+00  0.25093593132E+03  0.25093914507E+03  0.12699999809E+01 0. -1.
       -4   -1    0    0    0  501  0.00000000000E+00  0.00000000000E+00 -0.35791388150E+03  0.35791613469E+03  0.12699999809E+01 0.  1.
    10030    2    1    2    0    0  0.00000000000E+00  0.00000000000E+00 -0.10697795018E+03  0.60885527976E+03  0.59938340807E+03 0.  0.
        3    1    3    3  502    0 -0.17893221256E+03 -0.22824381818E+03 -0.13020145044E+03  0.31790628356E+03  0.10100000352E+00 0. -1.
       -3    1    3    3    0  502  0.17893221256E+03  0.22824381818E+03  0.23223500257E+02  0.29094899620E+03  0.10100000352E+00 0.  1.
</event>
<event>
 5   0  0.3806250E-03  0.6000762E+03  0.7818609E-02  0.9905248E-01
       -3   -1    0    0    0  501  0.00000000000E+00  0.00000000000E+00  0.60181116181E+03  0.60181117029E+03  0.10100000352E+00 0. -1.
        3   -1    0    0  501    0  0.00000000000E+00  0.00000000000E+00 -0.14958653937E+03  0.14958657347E+03  0.10100000352E+00 0.  1.
    10030    2    1    2    0    0  0.00000000000E+00  0.00000000000E+00  0.45222462244E+03  0.75139774376E+03  0.60007621198E+03 0.  0.
        3    1    3    3  502    0  0.33777018588E+02  0.92489242624E+02  0.58100427318E+03  0.58928865816E+03  0.10100000352E+00 0. -1.
       -3    1    3    3    0  502 -0.33777018588E+02 -0.92489242624E+02 -0.12877965074E+03  0.16210908559E+03  0.10100000352E+00 0.  1.
</event>
<event>
 5   0  0.6078658E-03  0.5993664E+03  0.7818609E-02  0.9906721E-01
        1   -1    0    0  501    0  0.00000000000E+00  0.00000000000E+00  0.24034885511E+03  0.24034885517E+03  0.50400001928E-02 0.  1.
       -1   -1    0    0    0  501  0.00000000000E+00  0.00000000000E+00 -0.37366527326E+03  0.37366527329E+03  0.50400001928E-02 0. -1.
    10030    2    1    2    0    0  0.00000000000E+00  0.00000000000E+00 -0.13331641815E+03  0.61401412846E+03  0.59936640096E+03 0.  0.
        2    1    3    3  502    0  0.13244711847E+02 -0.14623547490E+03  0.20097291096E+03  0.24889826729E+03  0.25500000920E-02 0.  1.
       -2    1    3    3    0  502 -0.13244711847E+02  0.14623547490E+03 -0.33428932911E+03  0.36511586117E+03  0.25500000920E-02 0. -1.
</event>
<event>
 5   0  0.3806250E-03  0.6058458E+03  0.7818609E-02  0.9893352E-01
       -3   -1    0    0    0  501  0.00000000000E+00  0.00000000000E+00  0.51302277536E+02  0.51302376956E+02  0.10100000352E+00 0. -1.
        3   -1    0    0  501    0  0.00000000000E+00  0.00000000000E+00 -0.17886572235E+04  0.17886572263E+04  0.10100000352E+00 0.  1.
    10030    2    1    2    0    0  0.00000000000E+00  0.00000000000E+00 -0.17373549459E+04  0.18399596033E+04  0.60584580013E+03 0.  0.
        1    1    3    3  502    0 -0.18599491678E+03  0.49670869300E+02 -0.15837433032E+03  0.24928644740E+03  0.50400001928E-02 0. -1.
       -1    1    3    3    0  502  0.18599491678E+03 -0.49670869300E+02 -0.15789806156E+04  0.15906731559E+04  0.50400001928E-02 0.  1.
</event>
<event>
 5   0  0.5819446E-03  0.6010147E+03  0.7818609E-02  0.9903303E-01
        1   -1    0    0  501    0  0.00000000000E+00  0.00000000000E+00  0.32529129088E+03  0.32529129092E+03  0.50400001928E-02 0.  1.
       -1   -1    0    0    0  501  0.00000000000E+00  0.00000000000E+00 -0.27761170702E+03  0.27761170706E+03  0.50400001928E-02 0. -1.
    10030    2    1    2    0    0  0.00000000000E+00  0.00000000000E+00  0.47679583861E+02  0.60290299798E+03  0.60101471051E+03 0.  0.
        5    1    3    3  502    0  0.77067113432E+01  0.80458401037E+02  0.31414431167E+03  0.32440975055E+03  0.46999998093E+01 0.  1.
       -5    1    3    3    0  502 -0.77067113432E+01 -0.80458401037E+02 -0.26646472781E+03  0.27849324743E+03  0.46999998093E+01 0. -1.
</event>
<event>
 5   0  0.9391405E-03  0.5999472E+03  0.7818609E-02  0.9905516E-01
       -2   -1    0    0    0  501  0.00000000000E+00  0.00000000000E+00  0.27600976760E+03  0.27600976761E+03  0.25500000920E-02 0.  1.
        2   -1    0    0  501    0  0.00000000000E+00  0.00000000000E+00 -0.32601805043E+03  0.32601805044E+03  0.25500000920E-02 0. -1.
    10030    2    1    2    0    0  0.00000000000E+00  0.00000000000E+00 -0.50008282831E+02  0.60202781805E+03  0.59994721880E+03 0.  0.
        2    1    3    3  502    0 -0.22659934656E+03 -0.11678171759E+03 -0.18366297251E+03  0.31419312676E+03  0.25500000920E-02 0. -1.
       -2    1    3    3    0  502  0.22659934656E+03  0.11678171759E+03  0.13365468968E+03  0.28783469128E+03  0.25500000920E-02 0.  1.
</event>
<event>
 5   0  0.5891927E-03  0.5994523E+03  0.7818609E-02  0.9906543E-01
       -1   -1    0    0    0  501  0.00000000000E+00  0.00000000000E+00  0.28551472863E+03  0.28551472867E+03  0.50400001928E-02 0.  1.
        1   -1    0    0  501    0  0.00000000000E+00  0.00000000000E+00 -0.31464492042E+03  0.31464492046E+03  0.50400001928E-02 0. -1.
    10030    2    1    2    0    0  0.00000000000E+00  0.00000000000E+00 -0.29130191790E+02  0.60015964913E+03  0.59945228031E+03 0.  0.
        4    1    3    3  502    0 -0.11213193900E+03  0.11182176685E+03  0.24020810836E+03  0.28771379444E+03  0.12699999809E+01 0.  1.
       -4    1    3    3    0  502  0.11213193900E+03 -0.11182176685E+03 -0.26933830016E+03  0.31244585469E+03  0.12699999809E+01 0. -1.
</event>
<event>
 5   0  0.5765045E-03  0.6013593E+03  0.7818609E-02  0.9902590E-01
        1   -1    0    0  501    0  0.00000000000E+00  0.00000000000E+00  0.19831572396E+03  0.19831572402E+03  0.50400001928E-02 0. -1.
       -1   -1    0    0    0  501  0.00000000000E+00  0.00000000000E+00 -0.45588039143E+03  0.45588039146E+03  0.50400001928E-02 0.  1.
    10030    2    1    2    0    0  0.00000000000E+00  0.00000000000E+00 -0.25756466747E+03  0.65419611548E+03  0.60135929325E+03 0.  0.
        1    1    3    3  502    0  0.13823615418E+03 -0.26214865174E+03 -0.18400782199E+03  0.34884097883E+03  0.50400001928E-02 0.  1.
       -1    1    3    3    0  502 -0.13823615418E+03  0.26214865174E+03 -0.73556845475E+02  0.30535513665E+03  0.50400001928E-02 0. -1.
</event>
<event>
 5   0  0.5765045E-03  0.5987470E+03  0.7818609E-02  0.9908009E-01
       -1   -1    0    0    0  501  0.00000000000E+00  0.00000000000E+00  0.37561047174E+03  0.37561047178E+03  0.50400001928E-02 0. -1.
        1   -1    0    0  501    0  0.00000000000E+00  0.00000000000E+00 -0.23861019671E+03  0.23861019677E+03  0.50400001928E-02 0.  1.
    10030    2    1    2    0    0  0.00000000000E+00  0.00000000000E+00  0.13700027503E+03  0.61422066854E+03  0.59874698689E+03 0.  0.
        1    1    3    3  502    0 -0.11184804592E+03  0.25300467556E+03  0.18592734461E+03  0.33330215830E+03  0.50400001928E-02 0. -1.
       -1    1    3    3    0  502  0.11184804592E+03 -0.25300467556E+03 -0.48927069583E+02  0.28091851024E+03  0.50400001928E-02 0.  1.
</event>
<event>
 5   0  0.3806250E-03  0.5914406E+03  0.7818609E-02  0.9923325E-01
       -3   -1    0    0    0  501  0.00000000000E+00  0.00000000000E+00  0.17016642101E+03  0.17016645099E+03  0.10100000352E+00 0. -1.
        3   -1    0    0  501    0  0.00000000000E+00  0.00000000000E+00 -0.51391157050E+03  0.51391158042E+03  0.10100000352E+00 0.  1.
    10030    2    1    2    0    0  0.00000000000E+00  0.00000000000E+00 -0.34374514948E+03  0.68407803141E+03  0.59144063545E+03 0.  0.
        4    1    3    3  502    0 -0.48013948304E+02 -0.85599424160E+02 -0.49452115041E+03  0.50416800944E+03  0.12699999809E+01 0.  1.
       -4    1    3    3    0  502  0.48013948304E+02  0.85599424160E+02  0.15077600092E+03  0.17991002196E+03  0.12699999809E+01 0. -1.
</event>
<event>
 5   0  0.9303190E-03  0.6001842E+03  0.7818609E-02  0.9905024E-01
       -2   -1    0    0    0  501  0.00000000000E+00  0.00000000000E+00  0.55860469770E+02  0.55860469828E+02  0.25500000920E-02 0.  1.
        2   -1    0    0  501    0  0.00000000000E+00  0.00000000000E+00 -0.16121467976E+04  0.16121467976E+04  0.25500000920E-02 0. -1.
    10030    2    1    2    0    0  0.00000000000E+00  0.00000000000E+00 -0.15562863279E+04  0.16680072675E+04  0.60018423006E+03 0.  0.
        4    1    3    3  502    0 -0.25884954552E+03 -0.10457857524E+03 -0.10840261580E+04  0.11193989859E+04  0.12699999809E+01 0. -1.
       -4    1    3    3    0  502  0.25884954552E+03  0.10457857524E+03 -0.47226016990E+03  0.54860828155E+03  0.12699999809E+01 0.  1.
</event>
<event>
 5   0  0.5765045E-03  0.5994286E+03  0.7818609E-02  0.9906592E-01
       -1   -1    0    0    0  501  0.00000000000E+00  0.00000000000E+00  0.64642395956E+03  0.64642395958E+03  0.50400001928E-02 0.  1.
        1   -1    0    0  501    0  0.00000000000E+00  0.00000000000E+00 -0.13896247554E+03  0.13896247563E+03  0.50400001928E-02 0. -1.
    10030    2    1    2    0    0  0.00000000000E+00  0.00000000000E+00  0.50746148402E+03  0.78538643521E+03  0.59942864033E+03 0.  0.
        1    1    3    3  502    0  0.74022850729E+02  0.22633402825E+03  0.49218522251E+03  0.54676573417E+03  0.50400001928E-02 0.  1.
       -1    1    3    3    0  502 -0.74022850729E+02 -0.22633402825E+03  0.15276261508E+02  0.23862070104E+03  0.50400001928E-02 0. -1.
</event>
<event>
 5   0  0.9303190E-03  0.5981507E+03  0.7818609E-02  0.9909250E-01
        2   -1    0    0  501    0  0.00000000000E+00  0.00000000000E+00  0.20486980357E+04  0.20486980357E+04  0.25500000920E-02 0. -1.
       -2   -1    0    0    0  501  0.00000000000E+00  0.00000000000E+00 -0.43659952156E+02  0.43659952231E+02  0.25500000920E-02 0.  1.
    10030    2    1    2    0    0  0.00000000000E+00  0.00000000000E+00  0.20050380836E+04  0.20923579880E+04  0.59815067768E+03 0.  0.
        4    1    3    3  502    0 -0.13925310019E+03 -0.21555068305E+03  0.15397955530E+04  0.15610334657E+04  0.12699999809E+01 0. -1.
       -4    1    3    3    0  502  0.13925310019E+03  0.21555068305E+03  0.46524253052E+03  0.53132452229E+03  0.12699999809E+01 0.  1.
</event>
<event>
 5   0  0.9822607E-03  0.5981968E+03  0.7818609E-02  0.9909154E-01
       -2   -1    0    0    0  501  0.00000000000E+00  0.00000000000E+00  0.74307122427E+02  0.74307122471E+02  0.25500000920E-02 0. -1.
        2   -1    0    0  501    0  0.00000000000E+00  0.00000000000E+00 -0.12039203772E+04  0.12039203772E+04  0.25500000920E-02 0.  1.
    10030    2    1    2    0    0  0.00000000000E+00  0.00000000000E+00 -0.11296132548E+04  0.12782274997E+04  0.59819682010E+03 0.  0.
        3    1    3    3  502    0 -0.26201406082E+03 -0.14090952269E+03 -0.49884254061E+03  0.58081903565E+03  0.10100000352E+00 0.  1.
       -3    1    3    3    0  502  0.26201406082E+03  0.14090952269E+03 -0.63077071420E+03  0.69740846406E+03  0.10100000352E+00 0. -1.
</event>
<event>
 5   0  0.9028473E-03  0.5994473E+03  0.7818609E-02  0.9906553E-01
       -2   -1    0    0    0  501  0.00000000000E+00  0.00000000000E+00  0.10230577340E+03  0.10230577343E+03  0.25500000920E-02 0. -1.
        2   -1    0    0  501    0  0.00000000000E+00  0.00000000000E+00 -0.87809567613E+03  0.87809567613E+03  0.25500000920E-02 0.  1.
    10030    2    1    2    0    0  0.00000000000E+00  0.00000000000E+00 -0.77578990273E+03  0.98040144956E+03  0.59944726967E+03 0.  0.
        1    1    3    3  502    0  0.15048332349E+03 -0.74869154509E+02 -0.79376370958E+03  0.81136394276E+03  0.50400001928E-02 0.  1.
       -1    1    3    3    0  502 -0.15048332349E+03  0.74869154509E+02  0.17973806850E+02  0.16903750679E+03  0.50400001928E-02 0. -1.
</event>
<event>
 5   0  0.9303190E-03  0.6003321E+03  0.7818609E-02  0.9904717E-01
        2   -1    0    0  501    0  0.00000000000E+00  0.00000000000E+00  0.10393834910E+04  0.10393834910E+04  0.25500000920E-02 0. -1.
       -2   -1    0    0    0  501  0.00000000000E+00  0.00000000000E+00 -0.86685665149E+02  0.86685665186E+02  0.25500000920E-02 0.  1.
    10030    2    1    2    0    0  0.00000000000E+00  0.00000000000E+00  0.95269782586E+03  0.11260691562E+04  0.60033207239E+03 0.  0.
        4    1    3    3  502    0 -0.11708742917E+03  0.27526338229E+03  0.52300332890E+03  0.60250600880E+03  0.12699999809E+01 0. -1.
       -4    1    3    3    0  502  0.11708742917E+03 -0.27526338229E+03  0.42969449697E+03  0.52356314740E+03  0.12699999809E+01 0.  1.
</event>
<event>
 5   0  0.5765045E-03  0.5997461E+03  0.7818609E-02  0.9905933E-01
       -1   -1    0    0    0  501  0.00000000000E+00  0.00000000000E+00  0.45622958036E+03  0.45622958038E+03  0.50400001928E-02 0.  1.
        1   -1    0    0  501    0  0.00000000000E+00  0.00000000000E+00 -0.19710221375E+03  0.19710221382E+03  0.50400001928E-02 0. -1.
    10030    2    1    2    0    0  0.00000000000E+00  0.00000000000E+00  0.25912736660E+03  0.65333179420E+03  0.59974614729E+03 0.  0.
        1    1    3    3  502    0 -0.76674538019E+02 -0.19408894022E+03 -0.10502404277E+03  0.23362266817E+03  0.50400001928E-02 0. -1.
       -1    1    3    3    0  502  0.76674538019E+02  0.19408894022E+03  0.36415140938E+03  0.41970912603E+03  0.50400001928E-02 0.  1.
</event>
<event>
 5   0  0.9822607E-03  0.5997852E+03  0.7818609E-02  0.9905852E-01
        2   -1    0    0  501    0  0.00000000000E+00  0.00000000000E+00  0.28812587886E+03  0.28812587887E+03  0.25500000920E-02 0.  1.
       -2   -1    0    0    0  501  0.00000000000E+00  0.00000000000E+00 -0.31213987724E+03  0.31213987725E+03  0.25500000920E-02 0. -1.
    10030    2    1    2    0    0  0.00000000000E+00  0.00000000000E+00 -0.24013998379E+02  0.60026575612E+03  0.59978521643E+03 0.  0.
        3    1    3    3  502    0  0.95150522788E+01 -0.15336894271E+03 -0.26974584798E+03  0.31044387820E+03  0.10100000352E+00 0. -1.
       -3    1    3    3    0  502 -0.95150522788E+01  0.15336894271E+03  0.24573184960E+03  0.28982187791E+03  0.10100000352E+00 0.  1.
</event>
<event>
 5   0  0.5765045E-03  0.5993242E+03  0.7818609E-02  0.9906809E-01
       -1   -1    0    0    0  501  0.00000000000E+00  0.00000000000E+00  0.10921226698E+04  0.10921226698E+04  0.50400001928E-02 0.  1.
        1   -1    0    0  501    0  0.00000000000E+00  0.00000000000E+00 -0.82222799873E+02  0.82222800027E+02  0.50400001928E-02 0. -1.
    10030    2    1    2    0    0  0.00000000000E+00  0.00000000000E+00  0.10098998699E+04  0.11743454698E+04  0.59932423216E+03 0.  0.
        1    1    3    3  502    0  0.20980808299E+03  0.10768257041E+03  0.86722247622E+03  0.89871563409E+03  0.50400001928E-02 0.  1.
       -1    1    3    3    0  502 -0.20980808299E+03 -0.10768257041E+03  0.14267739371E+03  0.27562983576E+03  0.50400001928E-02 0. -1.
</event>
<event>
 5   0  0.9303190E-03  0.6003412E+03  0.7818609E-02  0.9904699E-01
       -2   -1    0    0    0  501  0.00000000000E+00  0.00000000000E+00  0.82133127644E+03  0.82133127645E+03  0.25500000920E-02 0.  1.
        2   -1    0    0  501    0  0.00000000000E+00  0.00000000000E+00 -0.10970284152E+03  0.10970284155E+03  0.25500000920E-02 0. -1.
    10030    2    1    2    0    0  0.00000000000E+00  0.00000000000E+00  0.71162843492E+03  0.93103411800E+03  0.60034115258E+03 0.  0.
        4    1    3    3  502    0 -0.27874423608E+03 -0.10602697377E+03  0.40864977406E+03  0.50590149145E+03  0.12699999809E+01 0. -1.
       -4    1    3    3    0  502  0.27874423608E+03  0.10602697377E+03  0.30297866086E+03  0.42513262655E+03  0.12699999809E+01 0.  1.
</event>
<event>
 5   0  0.9391405E-03  0.6000196E+03  0.7818609E-02  0.9905365E-01
        2   -1    0    0  501    0  0.00000000000E+00  0.00000000000E+00  0.22725151565E+04  0.22725151565E+04  0.25500000920E-02 0. -1.
       -2   -1    0    0    0  501  0.00000000000E+00  0.00000000000E+00 -0.39606279376E+02  0.39606279458E+02  0.25500000920E-02 0.  1.
    10030    2    1    2    0    0  0.00000000000E+00  0.00000000000E+00  0.22329088771E+04  0.23121214360E+04  0.60001956725E+03 0.  0.
        2    1    3    3  502    0  0.96054264152E+02  0.19184214507E+03  0.30837643320E+03  0.37566721290E+03  0.25500000920E-02 0.  1.
       -2    1    3    3    0  502 -0.96054264152E+02 -0.19184214507E+03  0.19245324439E+04  0.19364542231E+04  0.25500000920E-02 0. -1.
</event>
<event>
 5   0  0.9028473E-03  0.6010026E+03  0.7818609E-02  0.9903328E-01
        2   -1    0    0  501    0  0.00000000000E+00  0.00000000000E+00  0.28240821725E+03  0.28240821726E+03  0.25500000920E-02 0. -1.
       -2   -1    0    0    0  501  0.00000000000E+00  0.00000000000E+00 -0.31975359299E+03  0.31975359300E+03  0.25500000920E-02 0.  1.
    10030    2    1    2    0    0  0.00000000000E+00  0.00000000000E+00 -0.37345375747E+02  0.60216181026E+03  0.60100263614E+03 0.  0.
        1    1    3    3  502    0  0.54138949307E+01  0.12839944735E+03  0.25348574530E+03  0.28420195536E+03  0.50400001928E-02 0. -1.
       -1    1    3    3    0  502 -0.54138949307E+01 -0.12839944735E+03 -0.29083112104E+03  0.31795985490E+03  0.50400001928E-02 0.  1.
</event>
<event>
 5   0  0.9028473E-03  0.6009019E+03  0.7818609E-02  0.9903537E-01
        2   -1    0    0  501    0  0.00000000000E+00  0.00000000000E+00  0.55791500383E+03  0.55791500383E+03  0.25500000920E-02 0.  1.
       -2   -1    0    0    0  501  0.00000000000E+00  0.00000000000E+00 -0.16180021922E+03  0.16180021924E+03  0.25500000920E-02 0. -1.
    10030    2    1    2    0    0  0.00000000000E+00  0.00000000000E+00  0.39611478461E+03  0.71971522307E+03  0.60090188861E+03 0.  0.
        1    1    3    3  502    0 -0.27054794012E+03 -0.12299063388E+03  0.14519596494E+03  0.33076389190E+03  0.50400001928E-02 0.  1.
       -1    1    3    3    0  502  0.27054794012E+03  0.12299063388E+03  0.25091881967E+03  0.38895133117E+03  0.50400001928E-02 0. -1.
</event>
<event>
 5   0  0.3806250E-03  0.6031865E+03  0.7818609E-02  0.9898817E-01
        3   -1    0    0  501    0  0.00000000000E+00  0.00000000000E+00  0.72870709493E+02  0.72870779486E+02  0.10100000352E+00 0. -1.
       -3   -1    0    0    0  501  0.00000000000E+00  0.00000000000E+00 -0.12482168914E+04  0.12482168954E+04  0.10100000352E+00 0.  1.
    10030    2    1    2    0    0  0.00000000000E+00  0.00000000000E+00 -0.11753461819E+04  0.13210876749E+04  0.60318653635E+03 0.  0.
        4    1    3    3  502    0 -0.19905591263E+03 -0.13401489827E+03 -0.98778527072E+03  0.10165159139E+04  0.12699999809E+01 0.  1.
       -4    1    3    3    0  502  0.19905591263E+03  0.13401489827E+03 -0.18756091115E+03  0.30457176101E+03  0.12699999809E+01 0. -1.
</event>
<event>
 5   0  0.9391405E-03  0.5987793E+03  0.7818609E-02  0.9907942E-01
        2   -1    0    0  501    0  0.00000000000E+00  0.00000000000E+00  0.56083275180E+03  0.56083275181E+03  0.25500000920E-02 0. -1.
       -2   -1    0    0    0  501  0.00000000000E+00  0.00000000000E+00 -0.15982331216E+03  0.15982331218E+03  0.25500000920E-02 0.  1.
    10030    2    1    2    0    0  0.00000000000E+00  0.00000000000E+00  0.40100943964E+03  0.72065606399E+03  0.59877925138E+03 0.  0.
        2    1    3    3  502    0  0.22411818200E+03  0.85937083801E+02 -0.14858734013E+02  0.24048892669E+03  0.25500000920E-02 0.  1.
       -2    1    3    3    0  502 -0.22411818200E+03 -0.85937083801E+02  0.41586817366E+03  0.48016713730E+03  0.25500000920E-02 0. -1.
</event>
<event>
 5   0  0.6078658E-03  0.5996138E+03  0.7818609E-02  0.9906208E-01
        1   -1    0    0  501    0  0.00000000000E+00  0.00000000000E+00  0.21284033050E+03  0.21284033056E+03  0.50400001928E-02 0.  1.
       -1   -1    0    0    0  501  0.00000000000E+00  0.00000000000E+00 -0.42230798641E+03  0.42230798644E+03  0.50400001928E-02 0. -1.
    10030    2    1    2    0    0  0.00000000000E+00  0.00000000000E+00 -0.20946765590E+03  0.63514831700E+03  0.59961378046E+03 0.  0.
        2    1    3    3  502    0  0.10793692227E+03 -0.11268727693E+03  0.16643603628E+03  0.22814415563E+03  0.25500000920E-02 0.  1.
       -2    1    3    3    0  502 -0.10793692227E+03  0.11268727693E+03 -0.37590369218E+03  0.40700416137E+03  0.25500000920E-02 0. -1.
</event>
<event>
 5   0  0.6078658E-03  0.5994416E+03  0.7818609E-02  0.9906565E-01
       -1   -1    0    0    0  501  0.00000000000E+00  0.00000000000E+00  0.13433491420E+03  0.13433491429E+03  0.50400001928E-02 0. -1.
        1   -1    0    0  501    0  0.00000000000E+00  0.00000000000E+00 -0.66872074093E+03  0.66872074095E+03  0.50400001928E-02 0.  1.
    10030    2    1    2    0    0  0.00000000000E+00  0.00000000000E+00 -0.53438582673E+03  0.80305565524E+03  0.59944155145E+03 0.  0.
        2    1    3    3  502    0 -0.23064432545E+03  0.87796605521E+02 -0.39340196317E+02  0.24990538180E+03  0.25500000920E-02 0. -1.
       -2    1    3    3    0  502  0.23064432545E+03 -0.87796605521E+02 -0.49504563042E+03  0.55315027344E+03  0.25500000920E-02 0.  1.
</event>
<event>
 5   0  0.5891927E-03  0.5992637E+03  0.7818609E-02  0.9906935E-01
        1   -1    0    0  501    0  0.00000000000E+00  0.00000000000E+00  0.68468320035E+03  0.68468320037E+03  0.50400001928E-02 0. -1.
       -1   -1    0    0    0  501  0.00000000000E+00  0.00000000000E+00 -0.13112524465E+03  0.13112524475E+03  0.50400001928E-02 0.  1.
    10030    2    1    2    0    0  0.00000000000E+00  0.00000000000E+00  0.55355795570E+03  0.81580844511E+03  0.59926372225E+03 0.  0.
        4    1    3    3  502    0  0.14414141698E+03  0.16446358868E+03  0.55561555909E+03  0.59710575487E+03  0.12699999809E+01 0. -1.
       -4    1    3    3    0  502 -0.14414141698E+03 -0.16446358868E+03 -0.20576033946E+01  0.21870269025E+03  0.12699999809E+01 0.  1.
</event>
<event>
 5   0  0.5819446E-03  0.5985478E+03  0.7818609E-02  0.9908423E-01
        1   -1    0    0  501    0  0.00000000000E+00  0.00000000000E+00  0.36278944812E+03  0.36278944816E+03  0.50400001928E-02 0.  1.
       -1   -1    0    0    0  501  0.00000000000E+00  0.00000000000E+00 -0.24687839628E+03  0.24687839633E+03  0.50400001928E-02 0. -1.
    10030    2    1    2    0    0  0.00000000000E+00  0.00000000000E+00  0.11591105185E+03  0.60966784449E+03  0.59854783323E+03 0.  0.
        5    1    3    3  502    0 -0.76932701449E+02  0.23105405028E+03  0.23507739916E+03  0.33850862367E+03  0.46999998093E+01 0.  1.
       -5    1    3    3    0  502  0.76932701449E+02 -0.23105405028E+03 -0.11916634731E+03  0.27115922082E+03  0.46999998093E+01 0. -1.
</event>
<event>
 5   0  0.5819446E-03  0.6083356E+03  0.7818609E-02  0.9888262E-01
       -1   -1    0    0    0  501  0.00000000000E+00  0.00000000000E+00  0.55338099744E+03  0.55338099746E+03  0.50400001928E-02 0. -1.
        1   -1    0    0  501    0  0.00000000000E+00  0.00000000000E+00 -0.16718690681E+03  0.16718690688E+03  0.50400001928E-02 0.  1.
    10030    2    1    2    0    0  0.00000000000E+00  0.00000000000E+00  0.38619409064E+03  0.72056790435E+03  0.60833562211E+03 0.  0.
        5    1    3    3  502    0 -0.21652304981E+03  0.74311044967E+02 -0.44072207837E+02  0.23317120749E+03  0.46999998093E+01 0.  1.
       -5    1    3    3    0  502  0.21652304981E+03 -0.74311044967E+02  0.43026629847E+03  0.48739669685E+03  0.46999998093E+01 0. -1.
</event>
<event>
 5   0  0.9822607E-03  0.5996865E+03  0.7818609E-02  0.9906057E-01
        2   -1    0    0  501    0  0.00000000000E+00  0.00000000000E+00  0.22503656691E+03  0.22503656693E+03  0.25500000920E-02 0.  1.
       -2   -1    0    0    0  501  0.00000000000E+00  0.00000000000E+00 -0.39951714754E+03  0.39951714755E+03  0.25500000920E-02 0. -1.
    10030    2    1    2    0    0  0.00000000000E+00  0.00000000000E+00 -0.17448058063E+03  0.62455371448E+03  0.59968647579E+03 0.  0.
        3    1    3    3  502    0  0.88084104140E+02  0.28366471659E+03 -0.44534091982E+02  0.30034609435E+03  0.10100000352E+00 0.  1.
       -3    1    3    3    0  502 -0.88084104140E+02 -0.28366471659E+03 -0.12994648864E+03  0.32420762013E+03  0.10100000352E+00 0. -1.
</event>
<event>
 5   0  0.9822607E-03  0.6008055E+03  0.7818609E-02  0.9903736E-01
        2   -1    0    0  501    0  0.00000000000E+00  0.00000000000E+00  0.23593210934E+04  0.23593210934E+04  0.25500000920E-02 0.  1.
       -2   -1    0    0    0  501  0.00000000000E+00  0.00000000000E+00 -0.38249055063E+02  0.38249055148E+02  0.25500000920E-02 0. -1.
    10030    2    1    2    0    0  0.00000000000E+00  0.00000000000E+00  0.23210720384E+04  0.23975701486E+04  0.60080546774E+03 0.  0.
        3    1    3    3  502    0  0.27235784255E+03 -0.10988367773E+03  0.90850944084E+03  0.95479978599E+03  0.10100000352E+00 0. -1.
       -3    1    3    3    0  502 -0.27235784255E+03  0.10988367773E+03  0.14125625975E+04  0.14427703626E+04  0.10100000352E+00 0.  1.
</event>
<event>
 5   0  0.5819446E-03  0.5998697E+03  0.7818609E-02  0.9905676E-01
       -1   -1    0    0    0  501  0.00000000000E+00  0.00000000000E+00  0.80127373715E+02  0.80127373873E+02  0.50400001928E-02 0.  1.
        1   -1    0    0  501    0  0.00000000000E+00  0.00000000000E+00 -0.11227239504E+04  0.11227239504E+04  0.50400001928E-02 0. -1.
    10030    2    1    2    0    0  0.00000000000E+00  0.00000000000E+00 -0.10425965767E+04  0.12028513243E+04  0.59986972470E+03 0.  0.
        5    1    3    3  502    0 -0.28401319733E+03  0.40265124331E+02 -0.34586952541E+03  0.44936910786E+03  0.46999998093E+01 0.  1.
       -5    1    3    3    0  502  0.28401319733E+03 -0.40265124331E+02 -0.69672705127E+03  0.75348221642E+03  0.46999998093E+01 0. -1.
</event>
<event>
 5   0  0.9028473E-03  0.6000708E+03  0.7818609E-02  0.9905259E-01
        2   -1    0    0  501    0  0.00000000000E+00  0.00000000000E+00  0.15489984066E+03  0.15489984068E+03  0.25500000920E-02 0.  1.
       -2   -1    0    0    0  501  0.00000000000E+00  0.00000000000E+00 -0.58115773308E+03  0.58115773308E+03  0.25500000920E-02 0. -1.
    10030    2    1    2    0    0  0.00000000000E+00  0.00000000000E+00 -0.42625789242E+03  0.73605757377E+03  0.60007079670E+03 0.  0.
        1    1    3    3  502    0 -0.23199479447E+02 -0.29353785824E+03 -0.14246734278E+03  0.32710798500E+03  0.50400001928E-02 0.  1.
       -1    1    3    3    0  502  0.23199479447E+02  0.29353785824E+03 -0.28379054963E+03  0.40894958877E+03  0.50400001928E-02 0. -1.
</event>
<event>
 5   0  0.6078658E-03  0.5980911E+03  0.7818609E-02  0.9909374E-01
       -1   -1    0    0    0  501  0.00000000000E+00  0.00000000000E+00  0.82852047602E+03  0.82852047603E+03  0.50400001928E-02 0. -1.
        1   -1    0    0  501    0  0.00000000000E+00  0.00000000000E+00 -0.10793726279E+03  0.10793726291E+03  0.50400001928E-02 0.  1.
    10030    2    1    2    0    0  0.00000000000E+00  0.00000000000E+00  0.72058321323E+03  0.93645773894E+03  0.59809107135E+03 0.  0.
        2    1    3    3  502    0  0.28937105252E+03 -0.22938175504E+02  0.47283439511E+03  0.55482801943E+03  0.25500000920E-02 0. -1.
       -2    1    3    3    0  502 -0.28937105252E+03  0.22938175504E+02  0.24774881811E+03  0.38162971951E+03  0.25500000920E-02 0.  1.
</event>
<event>
 5   0  0.9822607E-03  0.6051294E+03  0.7818609E-02  0.9894821E-01
        2   -1    0    0  501    0  0.00000000000E+00  0.00000000000E+00  0.93853548907E+03  0.93853548907E+03  0.25500000920E-02 0. -1.
       -2   -1    0    0    0  501  0.00000000000E+00  0.00000000000E+00 -0.97540681299E+02  0.97540681333E+02  0.25500000920E-02 0.  1.
    10030    2    1    2    0    0  0.00000000000E+00  0.00000000000E+00  0.84099480777E+03  0.10360761704E+04  0.60512937806E+03 0.  0.
        3    1    3    3  502    0  0.78189647995E+02 -0.10330811285E+03 -0.47642596852E+02  0.13804352382E+03  0.10100000352E+00 0.  1.
       -3    1    3    3    0  502 -0.78189647995E+02  0.10330811285E+03  0.88863740462E+03  0.89803264658E+03  0.10100000352E+00 0. -1.
</event>
<event>
 5   0  0.9303190E-03  0.6026063E+03  0.7818609E-02  0.9900014E-01
        2   -1    0    0  501    0  0.00000000000E+00  0.00000000000E+00  0.24399078867E+03  0.24399078868E+03  0.25500000920E-02 0.  1.
       -2   -1    0    0    0  501  0.00000000000E+00  0.00000000000E+00 -0.37207789617E+03  0.37207789618E+03  0.25500000920E-02 0. -1.
    10030    2    1    2    0    0  0.00000000000E+00  0.00000000000E+00 -0.12808710750E+03  0.61606868486E+03  0.60260627059E+03 0.  0.
        4    1    3    3  502    0  0.15091296059E+02  0.14168433777E+03  0.20736761751E+03  0.25160512809E+03  0.12699999809E+01 0.  1.
       -4    1    3    3    0  502 -0.15091296059E+02 -0.14168433777E+03 -0.33545472501E+03  0.36446355678E+03  0.12699999809E+01 0. -1.
</event>
<event>
 5   0  0.9162342E-03  0.5999108E+03  0.7818609E-02  0.9905591E-01
       -2   -1    0    0    0  501  0.00000000000E+00  0.00000000000E+00  0.10181648803E+03  0.10181648806E+03  0.25500000920E-02 0.  1.
        2   -1    0    0  501    0  0.00000000000E+00  0.00000000000E+00 -0.88368057057E+03  0.88368057058E+03  0.25500000920E-02 0. -1.
    10030    2    1    2    0    0  0.00000000000E+00  0.00000000000E+00 -0.78186408254E+03  0.98549705864E+03  0.59991083423E+03 0.  0.
        5    1    3    3  502    0 -0.40595418871E+02 -0.24688849430E+03 -0.11926227892E+03  0.27721381247E+03  0.46999998093E+01 0.  1.
       -5    1    3    3    0  502  0.40595418871E+02  0.24688849430E+03 -0.66260180362E+03  0.70828324617E+03  0.46999998093E+01 0. -1.
</event>
<event>
 5   0  0.5765045E-03  0.6001281E+03  0.7818609E-02  0.9905140E-01
        1   -1    0    0  501    0  0.00000000000E+00  0.00000000000E+00  0.97433251357E+03  0.97433251358E+03  0.50400001928E-02 0. -1.
       -1   -1    0    0    0  501  0.00000000000E+00  0.00000000000E+00 -0.92410376914E+02  0.92410377052E+02  0.50400001928E-02 0.  1.
    10030    2    1    2    0    0  0.00000000000E+00  0.00000000000E+00  0.88192213665E+03  0.10667428906E+04  0.60012810265E+03 0.  0.
        1    1    3    3  502    0 -0.81321285584E+02 -0.17567619357E+03  0.84848819215E+03  0.87029161131E+03  0.50400001928E-02 0. -1.
       -1    1    3    3    0  502  0.81321285584E+02  0.17567619357E+03  0.33433944506E+02  0.19645127932E+03  0.50400001928E-02 0.  1.
</event>
<event>
 5   0  0.3806250E-03  0.5994620E+03  0.7818609E-02  0.9906523E-01
        3   -1    0    0  501    0  0.00000000000E+00  0.00000000000E+00  0.45123634790E+03  0.45123635921E+03  0.10100000352E+00 0. -1.
       -3   -1    0    0    0  501  0.00000000000E+00  0.00000000000E+00 -0.19909445830E+03  0.19909448392E+03  0.10100000352E+00 0.  1.
    10030    2    1    2    0    0  0.00000000000E+00  0.00000000000E+00  0.25214188960E+03  0.65033084312E+03  0.59946198630E+03 0.  0.
        3    1    3    3  502    0  0.18146900453E+03  0.48796519285E+02 -0.12725329365E+03  0.22694825588E+03  0.10100000352E+00 0.  1.
       -3    1    3    3    0  502 -0.18146900453E+03 -0.48796519285E+02  0.37939518325E+03  0.42338258724E+03  0.10100000352E+00 0. -1.
</event>
<event>
 5   0  0.5765045E-03  0.5996999E+03  0.7818609E-02  0.9906029E-01
       -1   -1    0    0    0  501  0.00000000000E+00  0.00000000000E+00  0.15168660396E+03  0.15168660404E+03  0.50400001928E-02 0.  1.
        1   -1    0    0  501    0  0.00000000000E+00  0.00000000000E+00 -0.59273520783E+03  0.59273520785E+03  0.50400001928E-02 0. -1.
    10030    2    1    2    0    0  0.00000000000E+00  0.00000000000E+00 -0.44104860387E+03  0.74442181190E+03  0.59969989416E+03 0.  0.
        1    1    3    3  502    0  0.22568511191E+03  0.16676992892E+03 -0.35168244555E+03  0.44991834977E+03  0.50400001928E-02 0. -1.
       -1    1    3    3    0  502 -0.22568511191E+03 -0.16676992892E+03 -0.89366158326E+02  0.29450346213E+03  0.50400001928E-02 0.  1.
</event>
<event>
 5   0  0.5891927E-03  0.5997890E+03  0.7818609E-02  0.9905844E-01
        1   -1    0    0  501    0  0.00000000000E+00  0.00000000000E+00  0.62558540161E+03  0.62558540163E+03  0.50400001928E-02 0.  1.
       -1   -1    0    0    0  501  0.00000000000E+00  0.00000000000E+00 -0.14376408397E+03  0.14376408406E+03  0.50400001928E-02 0. -1.
    10030    2    1    2    0    0  0.00000000000E+00  0.00000000000E+00  0.48182131764E+03  0.76934948569E+03  0.59978900373E+03 0.  0.
        4    1    3    3  502    0  0.13205404803E+03  0.34675838584E+02  0.58340462138E+03  0.59916879970E+03  0.12699999809E+01 0.  1.
       -4    1    3    3    0  502 -0.13205404803E+03 -0.34675838584E+02 -0.10158330374E+03  0.17018068599E+03  0.12699999809E+01 0. -1.
</event>
<event>
 5   0  0.5790967E-03  0.6003080E+03  0.7818609E-02  0.9904767E-01
       -1   -1    0    0    0  501  0.00000000000E+00  0.00000000000E+00  0.52318645364E+03  0.52318645367E+03  0.50400001928E-02 0.  1.
        1   -1    0    0  501    0  0.00000000000E+00  0.00000000000E+00 -0.17219943437E+03  0.17219943444E+03  0.50400001928E-02 0. -1.
    10030    2    1    2    0    0  0.00000000000E+00  0.00000000000E+00  0.35098701927E+03  0.69538588811E+03  0.60030795903E+03 0.  0.
        3    1    3    3  502    0 -0.22533211043E+03 -0.19374360073E+03  0.22438296903E+03  0.37236926539E+03  0.10100000352E+00 0.  1.
       -3    1    3    3    0  502  0.22533211043E+03  0.19374360073E+03  0.12660405024E+03  0.32301662272E+03  0.10100000352E+00 0. -1.
</event>
<event>
 5   0  0.9822607E-03  0.5999064E+03  0.7818609E-02  0.9905600E-01
        2   -1    0    0  501    0  0.00000000000E+00  0.00000000000E+00  0.29947268139E+04  0.29947268139E+04  0.25500000920E-02 0.  1.
       -2   -1    0    0    0  501  0.00000000000E+00  0.00000000000E+00 -0.30043445077E+02  0.30043445185E+02  0.25500000920E-02 0. -1.
    10030    2    1    2    0    0  0.00000000000E+00  0.00000000000E+00  0.29646833689E+04  0.30247702591E+04  0.59990636176E+03 0.  0.
        3    1    3    3  502    0 -0.21597304325E+03 -0.27491039880E+02  0.25226686874E+04  0.25320460954E+04  0.10100000352E+00 0.  1.
       -3    1    3    3    0  502  0.21597304325E+03  0.27491039880E+02  0.44201468151E+03  0.49272416376E+03  0.10100000352E+00 0. -1.
</event>
<event>
 5   0  0.6078658E-03  0.6004739E+03  0.7818609E-02  0.9904423E-01
       -1   -1    0    0    0  501  0.00000000000E+00  0.00000000000E+00  0.65500171651E+03  0.65500171653E+03  0.50400001928E-02 0.  1.
        1   -1    0    0  501    0  0.00000000000E+00  0.00000000000E+00 -0.13762134799E+03  0.13762134808E+03  0.50400001928E-02 0. -1.
    10030    2    1    2    0    0  0.00000000000E+00  0.00000000000E+00  0.51738036852E+03  0.79262306461E+03  0.60047387689E+03 0.  0.
        2    1    3    3  502    0 -0.41951174346E+02 -0.18279890541E+03 -0.50783071564E+02  0.19430455788E+03  0.25500000920E-02 0. -1.
       -2    1    3    3    0  502  0.41951174346E+02  0.18279890541E+03  0.56816344008E+03  0.59831850673E+03  0.25500000920E-02 0.  1.
</event>
<event>
 5   0  0.6078658E-03  0.6003584E+03  0.7818609E-02  0.9904663E-01
       -1   -1    0    0    0  501  0.00000000000E+00  0.00000000000E+00  0.11963574692E+04  0.11963574692E+04  0.50400001928E-02 0.  1.
        1   -1    0    0  501    0  0.00000000000E+00  0.00000000000E+00 -0.75318243669E+02  0.75318243837E+02  0.50400001928E-02 0. -1.
    10030    2    1    2    0    0  0.00000000000E+00  0.00000000000E+00  0.11210392256E+04  0.12716757131E+04  0.60035837130E+03 0.  0.
        2    1    3    3  502    0  0.29349220179E+03 -0.24845548376E+02  0.43787323843E+03  0.52771957205E+03  0.25500000920E-02 0. -1.
       -2    1    3    3    0  502 -0.29349220179E+03  0.24845548376E+02  0.68316598714E+03  0.74395614103E+03  0.25500000920E-02 0.  1.
</event>
<event>
 5   0  0.5790967E-03  0.5999036E+03  0.7818609E-02  0.9905606E-01
       -1   -1    0    0    0  501  0.00000000000E+00  0.00000000000E+00  0.36424929676E+03  0.36424929679E+03  0.50400001928E-02 0.  1.
        1   -1    0    0  501    0  0.00000000000E+00  0.00000000000E+00 -0.24700416260E+03  0.24700416265E+03  0.50400001928E-02 0. -1.
    10030    2    1    2    0    0  0.00000000000E+00  0.00000000000E+00  0.11724513416E+03  0.61125345945E+03  0.59990363410E+03 0.  0.
        3    1    3    3  502    0  0.23054060655E+03  0.22288036203E+02 -0.13557543969E+03  0.26837741685E+03  0.10100000352E+00 0. -1.
       -3    1    3    3    0  502 -0.23054060655E+03 -0.22288036203E+02  0.25282057385E+03  0.34287604260E+03  0.10100000352E+00 0.  1.
</event>
<event>
 5   0  0.5891927E-03  0.6000626E+03  0.7818609E-02  0.9905276E-01
        1   -1    0    0  501    0  0.00000000000E+00  0.00000000000E+00  0.94360271141E+02  0.94360271276E+02  0.50400001928E-02 0. -1.
       -1   -1    0    0    0  501  0.00000000000E+00  0.00000000000E+00 -0.95399035235E+03  0.95399035236E+03  0.50400001928E-02 0.  1.
    10030    2    1    2    0    0  0.00000000000E+00  0.00000000000E+00 -0.85963008120E+03  0.10483506236E+04  0.60006262470E+03 0.  0.
        4    1    3    3  502    0 -0.10681376312E+03  0.23406597590E+03 -0.69945920030E+03  0.74527903959E+03  0.12699999809E+01 0.  1.
       -4    1    3    3    0  502  0.10681376312E+03 -0.23406597590E+03 -0.16017088091E+03  0.30307158405E+03  0.12699999809E+01 0. -1.
</event>
<event>
 5   0  0.9391405E-03  0.6007992E+03  0.7818609E-02  0.9903749E-01
        2   -1    0    0  501    0  0.00000000000E+00  0.00000000000E+00  0.79359032960E+03  0.79359032960E+03  0.25500000920E-02 0.  1.
       -2   -1    0    0    0  501  0.00000000000E+00  0.00000000000E+00 -0.11371096093E+03  0.11371096096E+03  0.25500000920E-02 0. -1.
    10030    2    1    2    0    0  0.00000000000E+00  0.00000000000E+00  0.67987936866E+03  0.90730129056E+03  0.60079919766E+03 0.  0.
        2    1    3    3  502    0  0.12389852084E+03 -0.23825790293E+03  0.13664397643E+03  0.30131254218E+03  0.25500000920E-02 0.  1.
       -2    1    3    3    0  502 -0.12389852084E+03  0.23825790293E+03  0.54323539223E+03  0.60598874838E+03  0.25500000920E-02 0. -1.
</event>
<event>
 5   0  0.9162342E-03  0.5999056E+03  0.7818609E-02  0.9905602E-01
        2   -1    0    0  501    0  0.00000000000E+00  0.00000000000E+00  0.77751487060E+03  0.77751487060E+03  0.25500000920E-02 0. -1.
       -2   -1    0    0    0  501  0.00000000000E+00  0.00000000000E+00 -0.11571700590E+03  0.11571700593E+03  0.25500000920E-02 0.  1.
    10030    2    1    2    0    0  0.00000000000E+00  0.00000000000E+00  0.66179786470E+03  0.89323187653E+03  0.59990563552E+03 0.  0.
        5    1    3    3  502    0 -0.15237740129E+03 -0.11805439813E+03 -0.11216843607E+02  0.19314145313E+03  0.46999998093E+01 0.  1.
       -5    1    3    3    0  502  0.15237740129E+03  0.11805439813E+03  0.67301470830E+03  0.70009042340E+03  0.46999998093E+01 0. -1.
</event>
<event>
 5   0  0.9822607E-03  0.6011851E+03  0.7818609E-02  0.9902950E-01
        2   -1    0    0  501    0  0.00000000000E+00  0.00000000000E+00  0.88050040287E+03  0.88050040287E+03  0.25500000920E-02 0. -1.
       -2   -1    0    0    0  501  0.00000000000E+00  0.00000000000E+00 -0.10261876972E+03  0.10261876975E+03  0.25500000920E-02 0.  1.
    10030    2    1    2    0    0  0.00000000000E+00  0.00000000000E+00  0.77788163315E+03  0.98311917262E+03  0.60118505668E+03 0.  0.
        3    1    3    3  502    0  0.19895643201E+03 -0.79669507379E+02  0.44264423915E+02  0.21883839167E+03  0.10100000352E+00 0.  1.
       -3    1    3    3    0  502 -0.19895643201E+03  0.79669507379E+02  0.73361720924E+03  0.76428078095E+03  0.10100000352E+00 0. -1.
</event>
<event>
 5   0  0.9162342E-03  0.5991877E+03  0.7818609E-02  0.9907093E-01
        2   -1    0    0  501    0  0.00000000000E+00  0.00000000000E+00  0.22412676484E+03  0.22412676485E+03  0.25500000920E-02 0. -1.
       -2   -1    0    0    0  501  0.00000000000E+00  0.00000000000E+00 -0.40047196823E+03  0.40047196824E+03  0.25500000920E-02 0.  1.
    10030    2    1    2    0    0  0.00000000000E+00  0.00000000000E+00 -0.17634520340E+03  0.62459873309E+03  0.59918773904E+03 0.  0.
        5    1    3    3  502    0  0.31149254633E+02 -0.12277154501E+03 -0.37114638203E+03  0.39219237018E+03  0.46999998093E+01 0.  1.
       -5    1    3    3    0  502 -0.31149254633E+02  0.12277154501E+03  0.19480117864E+03  0.23240636292E+03  0.46999998093E+01 0. -1.
</event>
<event>
 5   0  0.5891927E-03  0.6001765E+03  0.7818609E-02  0.9905040E-01
       -1   -1    0    0    0  501  0.00000000000E+00  0.00000000000E+00  0.71709408623E+02  0.71709408801E+02  0.50400001928E-02 0.  1.
        1   -1    0    0  501    0  0.00000000000E+00  0.00000000000E+00 -0.12558039912E+04  0.12558039912E+04  0.50400001928E-02 0. -1.
    10030    2    1    2    0    0  0.00000000000E+00  0.00000000000E+00 -0.11840945825E+04  0.13275134000E+04  0.60017651296E+03 0.  0.
        4    1    3    3  502    0  0.11795477503E+03 -0.18025472614E+03 -0.10541445617E+04  0.10759309760E+04  0.12699999809E+01 0. -1.
       -4    1    3    3    0  502 -0.11795477503E+03  0.18025472614E+03 -0.12995002089E+03  0.25158242402E+03  0.12699999809E+01 0.  1.
</event>
<event>
 5   0  0.5790967E-03  0.5998216E+03  0.7818609E-02  0.9905776E-01
       -1   -1    0    0    0  501  0.00000000000E+00  0.00000000000E+00  0.17245930898E+03  0.17245930905E+03  0.50400001928E-02 0. -1.
        1   -1    0    0  501    0  0.00000000000E+00  0.00000000000E+00 -0.52155189888E+03  0.52155189890E+03  0.50400001928E-02 0.  1.
    10030    2    1    2    0    0  0.00000000000E+00  0.00000000000E+00 -0.34909258990E+03  0.69401120795E+03  0.59982157384E+03 0.  0.
        3    1    3    3  502    0 -0.27414204018E+03 -0.16608784428E+01 -0.33835850835E+02  0.27622724651E+03  0.10100000352E+00 0. -1.
       -3    1    3    3    0  502  0.27414204018E+03  0.16608784428E+01 -0.31525673907E+03  0.41778396145E+03  0.10100000352E+00 0.  1.
</event>
<event>
 5   0  0.5790967E-03  0.5997140E+03  0.7818609E-02  0.9906000E-01
        1   -1    0    0  501    0  0.00000000000E+00  0.00000000000E+00  0.36065497890E+03  0.36065497893E+03  0.50400001928E-02 0. -1.
       -1   -1    0    0    0  501  0.00000000000E+00  0.00000000000E+00 -0.24930815531E+03  0.24930815536E+03  0.50400001928E-02 0.  1.
    10030    2    1    2    0    0  0.00000000000E+00  0.00000000000E+00  0.11134682358E+03  0.60996313430E+03  0.59971402358E+03 0.  0.
        3    1    3    3  502    0  0.37458922730E+02  0.29298260592E+03  0.10825056121E+03  0.31457935798E+03  0.10100000352E+00 0. -1.
       -3    1    3    3    0  502 -0.37458922730E+02 -0.29298260592E+03  0.30962623702E+01  0.29538377631E+03  0.10100000352E+00 0.  1.
</event>
<event>
 5   0  0.5819446E-03  0.6071245E+03  0.7818609E-02  0.9890734E-01
        1   -1    0    0  501    0  0.00000000000E+00  0.00000000000E+00  0.10366883973E+03  0.10366883985E+03  0.50400001928E-02 0.  1.
       -1   -1    0    0    0  501  0.00000000000E+00  0.00000000000E+00 -0.88888841470E+03  0.88888841471E+03  0.50400001928E-02 0. -1.
    10030    2    1    2    0    0  0.00000000000E+00  0.00000000000E+00 -0.78521957497E+03  0.99255725456E+03  0.60712447048E+03 0.  0.
        5    1    3    3  502    0  0.13391842163E+02 -0.28794927011E+03 -0.54799635610E+03  0.61920612069E+03  0.46999998093E+01 0. -1.
       -5    1    3    3    0  502 -0.13391842163E+02  0.28794927011E+03 -0.23722321887E+03  0.37335113387E+03  0.46999998093E+01 0.  1.
</event>
<event>
 5   0  0.9391405E-03  0.5929987E+03  0.7818609E-02  0.9920039E-01
       -2   -1    0    0    0  501  0.00000000000E+00  0.00000000000E+00  0.76335750055E+02  0.76335750098E+02  0.25500000920E-02 0. -1.
        2   -1    0    0  501    0  0.00000000000E+00  0.00000000000E+00 -0.11516474610E+04  0.11516474610E+04  0.25500000920E-02 0.  1.
    10030    2    1    2    0    0  0.00000000000E+00  0.00000000000E+00 -0.10753117110E+04  0.12279832111E+04  0.59299872771E+03 0.  0.
        2    1    3    3  502    0 -0.17009792661E+03  0.98903552434E+02 -0.99696644374E+03  0.10161974745E+04  0.25500000920E-02 0.  1.
       -2    1    3    3    0  502  0.17009792661E+03 -0.98903552434E+02 -0.78345267248E+02  0.21178573660E+03  0.25500000920E-02 0. -1.
</event>
<event>
 5   0  0.9822607E-03  0.5998351E+03  0.7818609E-02  0.9905748E-01
       -2   -1    0    0    0  501  0.00000000000E+00  0.00000000000E+00  0.71758132939E+03  0.71758132940E+03  0.25500000920E-02 0. -1.
        2   -1    0    0  501    0  0.00000000000E+00  0.00000000000E+00 -0.12535239464E+03  0.12535239467E+03  0.25500000920E-02 0.  1.
    10030    2    1    2    0    0  0.00000000000E+00  0.00000000000E+00  0.59222893475E+03  0.84293372406E+03  0.59983510401E+03 0.  0.
        3    1    3    3  502    0  0.59585981980E+02  0.91772062997E+02  0.68853108843E+03  0.69717119184E+03  0.10100000352E+00 0. -1.
       -3    1    3    3    0  502 -0.59585981980E+02 -0.91772062997E+02 -0.96302153681E+02  0.14576253222E+03  0.10100000352E+00 0.  1.
</event>
<event>
 5   0  0.9822607E-03  0.5998628E+03  0.7818609E-02  0.9905691E-01
       -2   -1    0    0    0  501  0.00000000000E+00  0.00000000000E+00  0.20809845342E+03  0.20809845344E+03  0.25500000920E-02 0. -1.
        2   -1    0    0  501    0  0.00000000000E+00  0.00000000000E+00 -0.43228987324E+03  0.43228987325E+03  0.25500000920E-02 0.  1.
    10030    2    1    2    0    0  0.00000000000E+00  0.00000000000E+00 -0.22419141982E+03  0.64038832669E+03  0.59986283118E+03 0.  0.
        3    1    3    3  502    0 -0.27814174963E+03  0.10493505753E+03 -0.15459262464E+03  0.33507176691E+03  0.10100000352E+00 0.  1.
       -3    1    3    3    0  502  0.27814174963E+03 -0.10493505753E+03 -0.69598795174E+02  0.30531655978E+03  0.10100000352E+00 0. -1.
</event>
<event>
 5   0  0.6078658E-03  0.5984582E+03  0.7818609E-02  0.9908610E-01
       -1   -1    0    0    0  501  0.00000000000E+00  0.00000000000E+00  0.14312506348E+03  0.14312506357E+03  0.50400001928E-02 0. -1.
        1   -1    0    0  501    0  0.00000000000E+00  0.00000000000E+00 -0.62559313380E+03  0.62559313382E+03  0.50400001928E-02 0.  1.
    10030    2    1    2    0    0  0.00000000000E+00  0.00000000000E+00 -0.48246807031E+03  0.76871819739E+03  0.59845820917E+03 0.  0.
        2    1    3    3  502    0  0.46867161016E+01  0.64084510261E+02 -0.61662674239E+03  0.61996558711E+03  0.25500000920E-02 0.  1.
       -2    1    3    3    0  502 -0.46867161016E+01 -0.64084510261E+02  0.13415867208E+03  0.14875261028E+03  0.25500000920E-02 0. -1.
</event>
<event>
 5   0  0.9303190E-03  0.6002310E+03  0.7818609E-02  0.9904927E-01
       -2   -1    0    0    0  501  0.00000000000E+00  0.00000000000E+00  0.39270263105E+02  0.39270263188E+02  0.25500000920E-02 0. -1.
        2   -1    0    0  501    0  0.00000000000E+00  0.00000000000E+00 -0.22935756874E+04  0.22935756874E+04  0.25500000920E-02 0.  1.
    10030    2    1    2    0    0  0.00000000000E+00  0.00000000000E+00 -0.22543054243E+04  0.23328459506E+04  0.60023102484E+03 0.  0.
        4    1    3    3  502    0 -0.22653941409E+03  0.13952751756E+03 -0.16668092716E+04  0.16879107782E+04  0.12699999809E+01 0.  1.
       -4    1    3    3    0  502  0.22653941409E+03 -0.13952751756E+03 -0.58749615275E+03  0.64493517247E+03  0.12699999809E+01 0. -1.
</event>
<event>
 5   0  0.9028473E-03  0.6005487E+03  0.7818609E-02  0.9904268E-01
        2   -1    0    0  501    0  0.00000000000E+00  0.00000000000E+00  0.60303143084E+03  0.60303143085E+03  0.25500000920E-02 0. -1.
       -2   -1    0    0    0  501  0.00000000000E+00  0.00000000000E+00 -0.14951906078E+03  0.14951906080E+03  0.25500000920E-02 0.  1.
    10030    2    1    2    0    0  0.00000000000E+00  0.00000000000E+00  0.45351237006E+03  0.75255049165E+03  0.60054872632E+03 0.  0.
        1    1    3    3  502    0  0.37958021811E+02  0.18416774990E+03  0.52011688193E+03  0.55306432032E+03  0.50400001928E-02 0. -1.
       -1    1    3    3    0  502 -0.37958021811E+02 -0.18416774990E+03 -0.66604511870E+02  0.19948617132E+03  0.50400001928E-02 0.  1.
</event>
<event>
 5   0  0.9822607E-03  0.5994072E+03  0.7818609E-02  0.9906637E-01
        2   -1    0    0  501    0  0.00000000000E+00  0.00000000000E+00  0.26348559773E+03  0.26348559774E+03  0.25500000920E-02 0. -1.
       -2   -1    0    0    0  501  0.00000000000E+00  0.00000000000E+00 -0.34090001630E+03  0.34090001631E+03  0.25500000920E-02 0.  1.
    10030    2    1    2    0    0  0.00000000000E+00  0.00000000000E+00 -0.77414418570E+02  0.60438561405E+03  0.59940718904E+03 0.  0.
        3    1    3    3  502    0  0.24714543976E+03 -0.16310254554E+03 -0.85339850216E+02  0.30816587902E+03  0.10100000352E+00 0. -1.
       -3    1    3    3    0  502 -0.24714543976E+03  0.16310254554E+03  0.79254316460E+01  0.29621973503E+03  0.10100000352E+00 0.  1.
</event>
<event>
 5   0  0.3806250E-03  0.5999032E+03  0.7818609E-02  0.9905607E-01
       -3   -1    0    0    0  501  0.00000000000E+00  0.00000000000E+00  0.11545784476E+03  0.11545788894E+03  0.10100000352E+00 0.  1.
        3   -1    0    0  501    0  0.00000000000E+00  0.00000000000E+00 -0.77925359244E+03  0.77925359899E+03  0.10100000352E+00 0. -1.
    10030    2    1    2    0    0  0.00000000000E+00  0.00000000000E+00 -0.66379574768E+03  0.89471148793E+03  0.59990320219E+03 0.  0.
        4    1    3    3  502    0 -0.13914486797E+03  0.20962935281E+03 -0.57543274016E+03  0.62803679127E+03  0.12699999809E+01 0. -1.
       -4    1    3    3    0  502  0.13914486797E+03 -0.20962935281E+03 -0.88363007520E+02  0.26667469666E+03  0.12699999809E+01 0.  1.
</event>
<event>
 5   0  0.9822607E-03  0.6070486E+03  0.7818609E-02  0.9890890E-01
       -2   -1    0    0    0  501  0.00000000000E+00  0.00000000000E+00  0.57933633954E+02  0.57933634010E+02  0.25500000920E-02 0.  1.
        2   -1    0    0  501    0  0.00000000000E+00  0.00000000000E+00 -0.15902159189E+04  0.15902159189E+04  0.25500000920E-02 0. -1.
    10030    2    1    2    0    0  0.00000000000E+00  0.00000000000E+00 -0.15322822849E+04  0.16481495529E+04  0.60704855490E+03 0.  0.
        3    1    3    3  502    0  0.42156468773E+02 -0.39935199020E+02  0.42711808341E+02  0.72085343538E+02  0.10100000352E+00 0.  1.
       -3    1    3    3    0  502 -0.42156468773E+02  0.39935199020E+02 -0.15749940933E+04  0.15760642094E+04  0.10100000352E+00 0. -1.
</event>
<event>
 5   0  0.9162342E-03  0.6005080E+03  0.7818609E-02  0.9904353E-01
        2   -1    0    0  501    0  0.00000000000E+00  0.00000000000E+00  0.67655847364E+03  0.67655847365E+03  0.25500000920E-02 0.  1.
       -2   -1    0    0    0  501  0.00000000000E+00  0.00000000000E+00 -0.13325155725E+03  0.13325155728E+03  0.25500000920E-02 0. -1.
    10030    2    1    2    0    0  0.00000000000E+00  0.00000000000E+00  0.54330691639E+03  0.80981003092E+03  0.60050801892E+03 0.  0.
        5    1    3    3  502    0 -0.99080997953E+02 -0.72459199232E+02  0.64112185920E+03  0.65278381418E+03  0.46999998093E+01 0.  1.
       -5    1    3    3    0  502  0.99080997953E+02  0.72459199232E+02 -0.97814942817E+02  0.15702621674E+03  0.46999998093E+01 0. -1.
</event>
<event>
 5   0  0.5790967E-03  0.6000960E+03  0.7818609E-02  0.9905207E-01
       -1   -1    0    0    0  501  0.00000000000E+00  0.00000000000E+00  0.47831670917E+02  0.47831671183E+02  0.50400001928E-02 0.  1.
        1   -1    0    0  501    0  0.00000000000E+00  0.00000000000E+00 -0.18822004061E+04  0.18822004061E+04  0.50400001928E-02 0. -1.
    10030    2    1    2    0    0  0.00000000000E+00  0.00000000000E+00 -0.18343687351E+04  0.19300320772E+04  0.60009596128E+03 0.  0.
        3    1    3    3  502    0 -0.27357882434E+03 -0.99001004548E+02 -0.11531365944E+04  0.11892731341E+04  0.10100000352E+00 0. -1.
       -3    1    3    3    0  502  0.27357882434E+03  0.99001004548E+02 -0.68123214077E+03  0.74075894315E+03  0.10100000352E+00 0.  1.
</event>
<event>
 5   0  0.3806250E-03  0.5995509E+03  0.7818609E-02  0.9906338E-01
        3   -1    0    0  501    0  0.00000000000E+00  0.00000000000E+00  0.13196671473E+03  0.13196675338E+03  0.10100000352E+00 0.  1.
       -3   -1    0    0    0  501  0.00000000000E+00  0.00000000000E+00 -0.68096941551E+03  0.68096942300E+03  0.10100000352E+00 0. -1.
    10030    2    1    2    0    0  0.00000000000E+00  0.00000000000E+00 -0.54900270078E+03  0.81293617638E+03  0.59955088308E+03 0.  0.
        4    1    3    3  502    0 -0.19892405767E+02  0.11960879108E+03 -0.64623236097E+03  0.65751034058E+03  0.12699999809E+01 0. -1.
       -4    1    3    3    0  502  0.19892405767E+02 -0.11960879108E+03  0.97229660190E+02  0.15542583579E+03  0.12699999809E+01 0.  1.
</event>
<event>
 5   0  0.6078658E-03  0.5992397E+03  0.7818609E-02  0.9906985E-01
       -1   -1    0    0    0  501  0.00000000000E+00  0.00000000000E+00  0.58660197463E+03  0.58660197465E+03  0.50400001928E-02 0.  1.
        1   -1    0    0  501    0  0.00000000000E+00  0.00000000000E+00 -0.15303742963E+03  0.15303742971E+03  0.50400001928E-02 0. -1.
    10030    2    1    2    0    0  0.00000000000E+00  0.00000000000E+00  0.43356454500E+03  0.73963940436E+03  0.59923971313E+03 0.  0.
        2    1    3    3  502    0 -0.67167118057E+02  0.27211319138E+03  0.86068900961E+02  0.29319765754E+03  0.25500000920E-02 0. -1.
       -2    1    3    3    0  502  0.67167118057E+02 -0.27211319138E+03  0.34749564404E+03  0.44644174682E+03  0.25500000920E-02 0.  1.
</event>
<event>
 5   0  0.5891927E-03  0.6007637E+03  0.7818609E-02  0.9903823E-01
        1   -1    0    0  501    0  0.00000000000E+00  0.00000000000E+00  0.94872396575E+03  0.94872396576E+03  0.50400001928E-02 0.  1.
       -1   -1    0    0    0  501  0.00000000000E+00  0.00000000000E+00 -0.95105922972E+02  0.95105923106E+02  0.50400001928E-02 0. -1.
    10030    2    1    2    0    0  0.00000000000E+00  0.00000000000E+00  0.85361804278E+03  0.10438298889E+04  0.60076374220E+03 0.  0.
        4    1    3    3  502    0  0.80824597633E+02  0.15224327513E+03 -0.62078111560E+00  0.17237351500E+03  0.12699999809E+01 0. -1.
       -4    1    3    3    0  502 -0.80824597633E+02 -0.15224327513E+03  0.85423882389E+03  0.87145637387E+03  0.12699999809E+01 0.  1.
</event>
<event>
 5   0  0.9822607E-03  0.5993331E+03  0.7818609E-02  0.9906791E-01
       -2   -1    0    0    0  501  0.00000000000E+00  0.00000000000E+00  0.73221234574E+02  0.73221234618E+02  0.25500000920E-02 0.  1.
        2   -1    0    0  501    0  0.00000000000E+00  0.00000000000E+00 -0.12264207828E+04  0.12264207828E+04  0.25500000920E-02 0. -1.
    10030    2    1    2    0    0  0.00000000000E+00  0.00000000000E+00 -0.11531995483E+04  0.12996420174E+04  0.59933310890E+03 0.  0.
        3    1    3    3  502    0 -0.17814073510E+03  0.21853691493E+03 -0.35644264389E+03  0.45447098177E+03  0.10100000352E+00 0. -1.
       -3    1    3    3    0  502  0.17814073510E+03 -0.21853691493E+03 -0.79675690437E+03  0.84517103568E+03  0.10100000352E+00 0.  1.
</event>
<event>
 5   0  0.9822607E-03  0.6002496E+03  0.7818609E-02  0.9904888E-01
       -2   -1    0    0    0  501  0.00000000000E+00  0.00000000000E+00  0.79087318138E+02  0.79087318179E+02  0.25500000920E-02 0. -1.
        2   -1    0    0  501    0  0.00000000000E+00  0.00000000000E+00 -0.11389297860E+04  0.11389297860E+04  0.25500000920E-02 0.  1.
    10030    2    1    2    0    0  0.00000000000E+00  0.00000000000E+00 -0.10598424678E+04  0.12180171041E+04  0.60024962256E+03 0.  0.
        3    1    3    3  502    0  0.13960527584E+03 -0.17934913832E+03 -0.92765763803E+03  0.95509394828E+03  0.10100000352E+00 0.  1.
       -3    1    3    3    0  502 -0.13960527584E+03  0.17934913832E+03 -0.13218482980E+03  0.26292315586E+03  0.10100000352E+00 0. -1.
</event>
<event>
 5   0  0.9028473E-03  0.6006286E+03  0.7818609E-02  0.9904103E-01
        2   -1    0    0  501    0  0.00000000000E+00  0.00000000000E+00  0.25695606489E+03  0.25695606490E+03  0.25500000920E-02 0. -1.
       -2   -1    0    0    0  501  0.00000000000E+00  0.00000000000E+00 -0.35098872037E+03  0.35098872038E+03  0.25500000920E-02 0.  1.
    10030    2    1    2    0    0  0.00000000000E+00  0.00000000000E+00 -0.94032655476E+02  0.60794478528E+03  0.60062860542E+03 0.  0.
        1    1    3    3  502    0  0.23021415104E+03  0.16464960555E+03  0.54609013174E+02  0.28825369433E+03  0.50400001928E-02 0. -1.
       -1    1    3    3    0  502 -0.23021415104E+03 -0.16464960555E+03 -0.14864166865E+03  0.31969109095E+03  0.50400001928E-02 0.  1.
</event>
<event>
 5   0  0.5765045E-03  0.6002528E+03  0.7818609E-02  0.9904882E-01
       -1   -1    0    0    0  501  0.00000000000E+00  0.00000000000E+00  0.27579450265E+03  0.27579450269E+03  0.50400001928E-02 0.  1.
        1   -1    0    0  501    0  0.00000000000E+00  0.00000000000E+00 -0.32660502624E+03  0.32660502628E+03  0.50400001928E-02 0. -1.
    10030    2    1    2    0    0  0.00000000000E+00  0.00000000000E+00 -0.50810523588E+02  0.60239952897E+03  0.60025284939E+03 0.  0.
        1    1    3    3  502    0  0.27353499252E+03  0.10825054290E+03 -0.85084718095E+02  0.30623354070E+03  0.50400001928E-02 0. -1.
       -1    1    3    3    0  502 -0.27353499252E+03 -0.10825054290E+03  0.34274194507E+02  0.29616598827E+03  0.50400001928E-02 0.  1.
</event>
<event>
 5   0  0.9391405E-03  0.5981104E+03  0.7818609E-02  0.9909334E-01
       -2   -1    0    0    0  501  0.00000000000E+00  0.00000000000E+00  0.51305576579E+02  0.51305576642E+02  0.25500000920E-02 0.  1.
        2   -1    0    0  501    0  0.00000000000E+00  0.00000000000E+00 -0.17431633198E+04  0.17431633198E+04  0.25500000920E-02 0. -1.
    10030    2    1    2    0    0  0.00000000000E+00  0.00000000000E+00 -0.16918577433E+04  0.17944688965E+04  0.59811035522E+03 0.  0.
        2    1    3    3  502    0 -0.29228067350E+03 -0.26417294338E+02 -0.10184912591E+04  0.10599293894E+04  0.25500000920E-02 0.  1.
       -2    1    3    3    0  502  0.29228067350E+03  0.26417294338E+02 -0.67336648412E+03  0.73453950709E+03  0.25500000920E-02 0. -1.
</event>
<event>
 5   0  0.9822607E-03  0.6007062E+03  0.7818609E-02  0.9903942E-01
       -2   -1    0    0    0  501  0.00000000000E+00  0.00000000000E+00  0.52945473497E+02  0.52945473559E+02  0.25500000920E-02 0. -1.
        2   -1    0    0  501    0  0.00000000000E+00  0.00000000000E+00 -0.17038661085E+04  0.17038661085E+04  0.25500000920E-02 0.  1.
    10030    2    1    2    0    0  0.00000000000E+00  0.00000000000E+00 -0.16509206350E+04  0.17568115821E+04  0.60070624418E+03 0.  0.
        3    1    3    3  502    0  0.46904680494E+02  0.22667846015E+03 -0.13851850152E+04  0.14043933601E+04  0.10100000352E+00 0.  1.
       -3    1    3    3    0  502 -0.46904680494E+02 -0.22667846015E+03 -0.26573561986E+03  0.35241822202E+03  0.10100000352E+00 0. -1.
</event>
<event>
 5   0  0.5765045E-03  0.6068227E+03  0.7818609E-02  0.9891351E-01
        1   -1    0    0  501    0  0.00000000000E+00  0.00000000000E+00  0.31385620061E+03  0.31385620065E+03  0.50400001928E-02 0. -1.
       -1   -1    0    0    0  501  0.00000000000E+00  0.00000000000E+00 -0.29331407344E+03  0.29331407349E+03  0.50400001928E-02 0.  1.
    10030    2    1    2    0    0  0.00000000000E+00  0.00000000000E+00  0.20542127169E+02  0.60717027414E+03  0.60682267823E+03 0.  0.
        1    1    3    3  502    0 -0.11049379149E+03 -0.18910745146E+03 -0.19982048139E+03  0.29647720142E+03  0.50400001928E-02 0.  1.
       -1    1    3    3    0  502  0.11049379149E+03  0.18910745146E+03  0.22036260856E+03  0.31069307271E+03  0.50400001928E-02 0. -1.
</event>
<event>
 5   0  0.9303190E-03  0.6005533E+03  0.7818609E-02  0.9904259E-01
        2   -1    0    0  501    0  0.00000000000E+00  0.00000000000E+00  0.68843809434E+03  0.68843809434E+03  0.25500000920E-02 0. -1.
       -2   -1    0    0    0  501  0.00000000000E+00  0.00000000000E+00 -0.13097194549E+03  0.13097194551E+03  0.25500000920E-02 0.  1.
    10030    2    1    2    0    0  0.00000000000E+00  0.00000000000E+00  0.55746614885E+03  0.81941003985E+03  0.60055333343E+03 0.  0.
        4    1    3    3  502    0 -0.10875576263E+03  0.15690201276E+03 -0.37502889280E+02  0.19456139678E+03  0.12699999809E+01 0.  1.
       -4    1    3    3    0  502  0.10875576263E+03 -0.15690201276E+03  0.59496903813E+03  0.62484864307E+03  0.12699999809E+01 0. -1.
</event>
<event>
 5   0  0.5819446E-03  0.6014222E+03  0.7818609E-02  0.9902460E-01
        1   -1    0    0  501    0  0.00000000000E+00  0.00000000000E+00  0.74106207147E+03  0.74106207149E+03  0.50400001928E-02 0. -1.
       -1   -1    0    0    0  501  0.00000000000E+00  0.00000000000E+00 -0.12202374298E+03  0.12202374308E+03  0.50400001928E-02 0.  1.
    10030    2    1    2    0    0  0.00000000000E+00  0.00000000000E+00  0.61903832849E+03  0.86308581457E+03  0.60142220708E+03 0.  0.
        5    1    3    3  502    0 -0.11354866021E+03  0.12402455411E+03 -0.48185094164E+02  0.17498366082E+03  0.46999998093E+01 0.  1.
       -5    1    3    3    0  502  0.11354866021E+03 -0.12402455411E+03  0.66722342266E+03  0.68810215375E+03  0.46999998093E+01 0. -1.
</event>
<event>
 5   0  0.9162342E-03  0.5998753E+03  0.7818609E-02  0.9905665E-01
       -2   -1    0    0    0  501  0.00000000000E+00  0.00000000000E+00  0.50859821518E+03  0.50859821519E+03  0.25500000920E-02 0. -1.
        2   -1    0    0  501    0  0.00000000000E+00  0.00000000000E+00 -0.17688342534E+03  0.17688342536E+03  0.25500000920E-02 0.  1.
    10030    2    1    2    0    0  0.00000000000E+00  0.00000000000E+00  0.33171478984E+03  0.68548164055E+03  0.59987530182E+03 0.  0.
        5    1    3    3  502    0  0.64058066829E+02 -0.16509594189E+03  0.44243117583E+03  0.47657899796E+03  0.46999998093E+01 0. -1.
       -5    1    3    3    0  502 -0.64058066829E+02  0.16509594189E+03 -0.11071638599E+03  0.20890264258E+03  0.46999998093E+01 0.  1.
</event>
<event>
 5   0  0.9303190E-03  0.6001100E+03  0.7818609E-02  0.9905178E-01
       -2   -1    0    0    0  501  0.00000000000E+00  0.00000000000E+00  0.15590941277E+03  0.15590941279E+03  0.25500000920E-02 0. -1.
        2   -1    0    0  501    0  0.00000000000E+00  0.00000000000E+00 -0.57746992855E+03  0.57746992856E+03  0.25500000920E-02 0.  1.
    10030    2    1    2    0    0  0.00000000000E+00  0.00000000000E+00 -0.42156051578E+03  0.73337934135E+03  0.60010998147E+03 0.  0.
        4    1    3    3  502    0  0.32009045823E+02 -0.15008216846E+03 -0.52588166607E+03  0.54781600553E+03  0.12699999809E+01 0.  1.
       -4    1    3    3    0  502 -0.32009045823E+02  0.15008216846E+03  0.10432115029E+03  0.18556333582E+03  0.12699999809E+01 0. -1.
</event>
<event>
 5   0  0.9822607E-03  0.6000692E+03  0.7818609E-02  0.9905262E-01
        2   -1    0    0  501    0  0.00000000000E+00  0.00000000000E+00  0.10971872782E+04  0.10971872782E+04  0.25500000920E-02 0. -1.
       -2   -1    0    0    0  501  0.00000000000E+00  0.00000000000E+00 -0.82046854390E+02  0.82046854430E+02  0.25500000920E-02 0.  1.
    10030    2    1    2    0    0  0.00000000000E+00  0.00000000000E+00  0.10151404238E+04  0.11792341326E+04  0.60006921226E+03 0.  0.
        3    1    3    3  502    0  0.11910756694E+03  0.19776959773E+03  0.13098965972E+03  0.26543874518E+03  0.10100000352E+00 0.  1.
       -3    1    3    3    0  502 -0.11910756694E+03 -0.19776959773E+03  0.88415076404E+03  0.91379538741E+03  0.10100000352E+00 0. -1.
</event>
<event>
 5   0  0.9822607E-03  0.5971260E+03  0.7818609E-02  0.9911387E-01
        2   -1    0    0  501    0  0.00000000000E+00  0.00000000000E+00  0.71935726747E+03  0.71935726747E+03  0.25500000920E-02 0.  1.
       -2   -1    0    0    0  501  0.00000000000E+00  0.00000000000E+00 -0.12391596868E+03  0.12391596870E+03  0.25500000920E-02 0. -1.
    10030    2    1    2    0    0  0.00000000000E+00  0.00000000000E+00  0.59544129879E+03  0.84327323618E+03  0.59712595869E+03 0.  0.
        3    1    3    3  502    0  0.26713944351E+03  0.33118717251E+02  0.48010770774E+03  0.55042143213E+03  0.10100000352E+00 0.  1.
       -3    1    3    3    0  502 -0.26713944351E+03 -0.33118717251E+02  0.11533359105E+03  0.29285180405E+03  0.10100000352E+00 0. -1.
</event>
<event>
 5   0  0.3806250E-03  0.6004664E+03  0.7818609E-02  0.9904439E-01
       -3   -1    0    0    0  501  0.00000000000E+00  0.00000000000E+00  0.62091531573E+02  0.62091613717E+02  0.10100000352E+00 0.  1.
        3   -1    0    0  501    0  0.00000000000E+00  0.00000000000E+00 -0.14517263970E+04  0.14517264005E+04  0.10100000352E+00 0. -1.
    10030    2    1    2    0    0  0.00000000000E+00  0.00000000000E+00 -0.13896348654E+04  0.15138180142E+04  0.60046641954E+03 0.  0.
        5    1    3    3  502    0 -0.14367416595E+03 -0.22677783042E+02 -0.32771994234E+02  0.14917319267E+03  0.46999998093E+01 0.  1.
       -5    1    3    3    0  502  0.14367416595E+03  0.22677783042E+02 -0.13568628712E+04  0.13646448216E+04  0.46999998093E+01 0. -1.
</event>
<event>
 5   0  0.9303190E-03  0.5978599E+03  0.7818609E-02  0.9909856E-01
        2   -1    0    0  501    0  0.00000000000E+00  0.00000000000E+00  0.61304789017E+03  0.61304789018E+03  0.25500000920E-02 0.  1.
       -2   -1    0    0    0  501  0.00000000000E+00  0.00000000000E+00 -0.14576203714E+03  0.14576203716E+03  0.25500000920E-02 0. -1.
    10030    2    1    2    0    0  0.00000000000E+00  0.00000000000E+00  0.46728585303E+03  0.75880992734E+03  0.59785988106E+03 0.  0.
        4    1    3    3  502    0  0.12856365095E+03 -0.22628435272E+03  0.47003075689E+02  0.26446951177E+03  0.12699999809E+01 0.  1.
       -4    1    3    3    0  502 -0.12856365095E+03  0.22628435272E+03  0.42028277734E+03  0.49434041557E+03  0.12699999809E+01 0. -1.
</event>
<event>
 5   0  0.9822607E-03  0.6005410E+03  0.7818609E-02  0.9904284E-01
       -2   -1    0    0    0  501  0.00000000000E+00  0.00000000000E+00  0.62446879319E+02  0.62446879372E+02  0.25500000920E-02 0.  1.
        2   -1    0    0  501    0  0.00000000000E+00  0.00000000000E+00 -0.14438250101E+04  0.14438250101E+04  0.25500000920E-02 0. -1.
    10030    2    1    2    0    0  0.00000000000E+00  0.00000000000E+00 -0.13813781307E+04  0.15062718894E+04  0.60054097680E+03 0.  0.
        3    1    3    3  502    0  0.21131290813E+03  0.65082193233E+01 -0.15586840316E+03  0.26266037266E+03  0.10100000352E+00 0.  1.
       -3    1    3    3    0  502 -0.21131290813E+03 -0.65082193233E+01 -0.12255097276E+04  0.12436115168E+04  0.10100000352E+00 0. -1.
</event>
<event>
 5   0  0.3806250E-03  0.5999172E+03  0.7818609E-02  0.9905578E-01
       -3   -1    0    0    0  501  0.00000000000E+00  0.00000000000E+00  0.26283036851E+03  0.26283038791E+03  0.10100000352E+00 0. -1.
        3   -1    0    0  501    0  0.00000000000E+00  0.00000000000E+00 -0.34233160383E+03  0.34233161873E+03  0.10100000352E+00 0.  1.
    10030    2    1    2    0    0  0.00000000000E+00  0.00000000000E+00 -0.79501235323E+02  0.60516200665E+03  0.59991716751E+03 0.  0.
        4    1    3    3  502    0  0.14407882346E+03  0.10154701641E+03 -0.28457191841E+03  0.33474362363E+03  0.12699999809E+01 0.  1.
       -4    1    3    3    0  502 -0.14407882346E+03 -0.10154701641E+03  0.20507068309E+03  0.27041838302E+03  0.12699999809E+01 0. -1.
</event>
<event>
 5   0  0.5819446E-03  0.5895611E+03  0.7818609E-02  0.9927303E-01
       -1   -1    0    0    0  501  0.00000000000E+00  0.00000000000E+00  0.18991373466E+03  0.18991373473E+03  0.50400001928E-02 0.  1.
        1   -1    0    0  501    0  0.00000000000E+00  0.00000000000E+00 -0.45755285953E+03  0.45755285956E+03  0.50400001928E-02 0. -1.
    10030    2    1    2    0    0  0.00000000000E+00  0.00000000000E+00 -0.26763912487E+03  0.64746659429E+03  0.58956109909E+03 0.  0.
        5    1    3    3  502    0 -0.20492300256E+03  0.17278132153E+03 -0.26844272267E+03  0.37938161184E+03  0.46999998093E+01 0. -1.
       -5    1    3    3    0  502  0.20492300256E+03 -0.17278132153E+03  0.80359779602E+00  0.26808498245E+03  0.46999998093E+01 0.  1.
</event>
<event>
 5   0  0.9028473E-03  0.6001450E+03  0.7818609E-02  0.9905105E-01
        2   -1    0    0  501    0  0.00000000000E+00  0.00000000000E+00  0.73076216552E+03  0.73076216552E+03  0.25500000920E-02 0.  1.
       -2   -1    0    0    0  501  0.00000000000E+00  0.00000000000E+00 -0.12321863557E+03  0.12321863560E+03  0.25500000920E-02 0. -1.
    10030    2    1    2    0    0  0.00000000000E+00  0.00000000000E+00  0.60754352995E+03  0.85398080112E+03  0.60014503905E+03 0.  0.
        1    1    3    3  502    0 -0.90347897606E+02 -0.24835481512E+00  0.71094825441E+03  0.71666604828E+03  0.50400001928E-02 0.  1.
       -1    1    3    3    0  502  0.90347897606E+02  0.24835481512E+00 -0.10340472446E+03  0.13731475284E+03  0.50400001928E-02 0. -1.
</event>
<event>
 5   0  0.5765045E-03  0.6018559E+03  0.7818609E-02  0.9901563E-01
        1   -1    0    0  501    0  0.00000000000E+00  0.00000000000E+00  0.51984717351E+03  0.51984717353E+03  0.50400001928E-02 0.  1.
       -1   -1    0    0    0  501  0.00000000000E+00  0.00000000000E+00 -0.17420049290E+03  0.17420049297E+03  0.50400001928E-02 0. -1.
    10030    2    1    2    0    0  0.00000000000E+00  0.00000000000E+00  0.34564668060E+03  0.69404766650E+03  0.60185590931E+03 0.  0.
        1    1    3    3  502    0 -0.15018761509E+03  0.26067265885E+03  0.18106506786E+03  0.35112834352E+03  0.50400001928E-02 0.  1.
       -1    1    3    3    0  502  0.15018761509E+03 -0.26067265885E+03  0.16458161274E+03  0.34291932298E+03  0.50400001928E-02 0. -1.
</event>
<event>
 5   0  0.9303190E-03  0.5996631E+03  0.7818609E-02  0.9906105E-01
       -2   -1    0    0    0  501  0.00000000000E+00  0.00000000000E+00  0.12990022229E+03  0.12990022232E+03  0.25500000920E-02 0.  1.
        2   -1    0    0  501    0  0.00000000000E+00  0.00000000000E+00 -0.69206162691E+03  0.69206162691E+03  0.25500000920E-02 0. -1.
    10030    2    1    2    0    0  0.00000000000E+00  0.00000000000E+00 -0.56216140461E+03  0.82196184923E+03  0.59966310271E+03 0.  0.
        4    1    3    3  502    0 -0.29212928537E+03  0.43150103252E+02 -0.20991088347E+03  0.36230600696E+03  0.12699999809E+01 0.  1.
       -4    1    3    3    0  502  0.29212928537E+03 -0.43150103252E+02 -0.35225052115E+03  0.45965584227E+03  0.12699999809E+01 0. -1.
</event>
<event>
 5   0  0.9303190E-03  0.5948411E+03  0.7818609E-02  0.9916167E-01
        2   -1    0    0  501    0  0.00000000000E+00  0.00000000000E+00  0.41017999169E+03  0.41017999170E+03  0.25500000920E-02 0.  1.
       -2   -1    0    0    0  501  0.00000000000E+00  0.00000000000E+00 -0.21565897095E+03  0.21565897096E+03  0.25500000920E-02 0. -1.
    10030    2    1    2    0    0  0.00000000000E+00  0.00000000000E+00  0.19452102074E+03  0.62583896266E+03  0.59484113818E+03 0.  0.
        4    1    3    3  502    0 -0.18380695911E+03 -0.95159469898E+02  0.32197198151E+03  0.38276349448E+03  0.12699999809E+01 0.  1.
       -4    1    3    3    0  502  0.18380695911E+03  0.95159469898E+02 -0.12745096077E+03  0.24307546818E+03  0.12699999809E+01 0. -1.
</event>
<event>
 5   0  0.5819446E-03  0.6042699E+03  0.7818609E-02  0.9896587E-01
       -1   -1    0    0    0  501  0.00000000000E+00  0.00000000000E+00  0.10793556341E+03  0.10793556353E+03  0.50400001928E-02 0. -1.
        1   -1    0    0  501    0  0.00000000000E+00  0.00000000000E+00 -0.84574087711E+03  0.84574087712E+03  0.50400001928E-02 0.  1.
    10030    2    1    2    0    0  0.00000000000E+00  0.00000000000E+00 -0.73780531370E+03  0.95367644065E+03  0.60426986731E+03 0.  0.
        5    1    3    3  502    0  0.99567121301E+02  0.24723202451E+03 -0.14444901945E+03  0.30319118524E+03  0.46999998093E+01 0. -1.
       -5    1    3    3    0  502 -0.99567121301E+02 -0.24723202451E+03 -0.59335629424E+03  0.65048525541E+03  0.46999998093E+01 0.  1.
</event>
<event>
 5   0  0.9303190E-03  0.6024371E+03  0.7818609E-02  0.9900363E-01
       -2   -1    0    0    0  501  0.00000000000E+00  0.00000000000E+00  0.52129787632E+02  0.52129787694E+02  0.25500000920E-02 0. -1.
        2   -1    0    0  501    0  0.00000000000E+00  0.00000000000E+00 -0.17405136601E+04  0.17405136601E+04  0.25500000920E-02 0.  1.
    10030    2    1    2    0    0  0.00000000000E+00  0.00000000000E+00 -0.16883838725E+04  0.17926434478E+04  0.60243707566E+03 0.  0.
        4    1    3    3  502    0  0.24679318859E+03 -0.56168943177E+02 -0.35824712646E+03  0.43863931039E+03  0.12699999809E+01 0. -1.
       -4    1    3    3    0  502 -0.24679318859E+03  0.56168943177E+02 -0.13301367461E+04  0.13540041374E+04  0.12699999809E+01 0.  1.
</event>
<event>
 5   0  0.9028473E-03  0.5996884E+03  0.7818609E-02  0.9906053E-01
       -2   -1    0    0    0  501  0.00000000000E+00  0.00000000000E+00  0.14604367499E+03  0.14604367502E+03  0.25500000920E-02 0. -1.
        2   -1    0    0  501    0  0.00000000000E+00  0.00000000000E+00 -0.61561415358E+03  0.61561415358E+03  0.25500000920E-02 0.  1.
    10030    2    1    2    0    0  0.00000000000E+00  0.00000000000E+00 -0.46957047859E+03  0.76165782860E+03  0.59968843036E+03 0.  0.
        1    1    3    3  502    0  0.27548625221E+01 -0.59362065712E+02  0.13848945196E+03  0.15070093710E+03  0.50400001928E-02 0. -1.
       -1    1    3    3    0  502 -0.27548625221E+01  0.59362065712E+02 -0.60805993055E+03  0.61095689150E+03  0.50400001928E-02 0.  1.
</event>
<event>
 5   0  0.5891927E-03  0.5974756E+03  0.7818609E-02  0.9910657E-01
        1   -1    0    0  501    0  0.00000000000E+00  0.00000000000E+00  0.11300940694E+04  0.11300940694E+04  0.50400001928E-02 0. -1.
       -1   -1    0    0    0  501  0.00000000000E+00  0.00000000000E+00 -0.78970651978E+02  0.78970652139E+02  0.50400001928E-02 0.  1.
    10030    2    1    2    0    0  0.00000000000E+00  0.00000000000E+00  0.10511234174E+04  0.12090647215E+04  0.59747557459E+03 0.  0.
        4    1    3    3  502    0  0.19113311949E+02 -0.23997683480E+03  0.88351094260E+03  0.91572233702E+03  0.12699999809E+01 0. -1.
       -4    1    3    3    0  502 -0.19113311949E+02  0.23997683480E+03  0.16761247479E+03  0.29334238450E+03  0.12699999809E+01 0.  1.
</event>
<event>
 5   0  0.5819446E-03  0.5997459E+03  0.7818609E-02  0.9905933E-01
       -1   -1    0    0    0  501  0.00000000000E+00  0.00000000000E+00  0.50404066900E+03  0.50404066902E+03  0.50400001928E-02 0.  1.
        1   -1    0    0  501    0  0.00000000000E+00  0.00000000000E+00 -0.17840579234E+03  0.17840579241E+03  0.50400001928E-02 0. -1.
    10030    2    1    2    0    0  0.00000000000E+00  0.00000000000E+00  0.32563487666E+03  0.68244646144E+03  0.59974586270E+03 0.  0.
        5    1    3    3  502    0 -0.15373910083E+03 -0.13409083472E+03  0.41285787006E+03  0.46053205529E+03  0.46999998093E+01 0.  1.
       -5    1    3    3    0  502  0.15373910083E+03  0.13409083472E+03 -0.87222993404E+02  0.22191440615E+03  0.46999998093E+01 0. -1.
</event>
<event>
 5   0  0.5790967E-03  0.6000976E+03  0.7818609E-02  0.9905204E-01
        1   -1    0    0  501    0  0.00000000000E+00  0.00000000000E+00  0.45911678669E+03  0.45911678671E+03  0.50400001928E-02 0.  1.
       -1   -1    0    0    0  501  0.00000000000E+00  0.00000000000E+00 -0.19609233623E+03  0.19609233630E+03  0.50400001928E-02 0. -1.
    10030    2    1    2    0    0  0.00000000000E+00  0.00000000000E+00  0.26302445045E+03  0.65520912301E+03  0.60009760318E+03 0.  0.
        3    1    3    3  502    0  0.57697472680E+02 -0.22190910586E+03 -0.79798897058E+02  0.24277669531E+03  0.10100000352E+00 0.  1.
       -3    1    3    3    0  502 -0.57697472680E+02  0.22190910586E+03  0.34282334751E+03  0.41243242770E+03  0.10100000352E+00 0. -1.
</event>
<event>
 5   0  0.9303190E-03  0.5933672E+03  0.7818609E-02  0.9919263E-01
       -2   -1    0    0    0  501  0.00000000000E+00  0.00000000000E+00  0.24333843000E+03  0.24333843001E+03  0.25500000920E-02 0. -1.
        2   -1    0    0  501    0  0.00000000000E+00  0.00000000000E+00 -0.36172326136E+03  0.36172326137E+03  0.25500000920E-02 0.  1.
    10030    2    1    2    0    0  0.00000000000E+00  0.00000000000E+00 -0.11838483136E+03  0.60506169138E+03  0.59336724049E+03 0.  0.
        4    1    3    3  502    0  0.10603738017E+03 -0.22534169056E+03  0.10522039543E+03  0.27036225331E+03  0.12699999809E+01 0. -1.
       -4    1    3    3    0  502 -0.10603738017E+03  0.22534169056E+03 -0.22360522679E+03  0.33469943807E+03  0.12699999809E+01 0.  1.
</event>
<event>
 5   0  0.9028473E-03  0.6003208E+03  0.7818609E-02  0.9904741E-01
       -2   -1    0    0    0  501  0.00000000000E+00  0.00000000000E+00  0.10087713102E+04  0.10087713102E+04  0.25500000920E-02 0.  1.
        2   -1    0    0  501    0  0.00000000000E+00  0.00000000000E+00 -0.89312887304E+02  0.89312887340E+02  0.25500000920E-02 0. -1.
    10030    2    1    2    0    0  0.00000000000E+00  0.00000000000E+00  0.91945842286E+03  0.10980841975E+04  0.60032084209E+03 0.  0.
        1    1    3    3  502    0 -0.56538055773E+02 -0.22955249919E+03  0.12143122805E+03  0.26577517718E+03  0.50400001928E-02 0. -1.
       -1    1    3    3    0  502  0.56538055773E+02  0.22955249919E+03  0.79802719481E+03  0.83230902033E+03  0.50400001928E-02 0.  1.
</event>
<event>
 5   0  0.9391405E-03  0.5968125E+03  0.7818609E-02  0.9912041E-01
        2   -1    0    0  501    0  0.00000000000E+00  0.00000000000E+00  0.35839616193E+03  0.35839616194E+03  0.25500000920E-02 0. -1.
       -2   -1    0    0    0  501  0.00000000000E+00  0.00000000000E+00 -0.24845769185E+03  0.24845769186E+03  0.25500000920E-02 0.  1.
    10030    2    1    2    0    0  0.00000000000E+00  0.00000000000E+00  0.10993847009E+03  0.60685385380E+03  0.59681247697E+03 0.  0.
        2    1    3    3  502    0  0.15253899442E+03  0.24729145897E+03  0.12412135530E+03  0.31595461912E+03  0.25500000920E-02 0. -1.
       -2    1    3    3    0  502 -0.15253899442E+03 -0.24729145897E+03 -0.14182885210E+02  0.29089923468E+03  0.25500000920E-02 0.  1.
</event>
<event>
 5   0  0.9162342E-03  0.6002970E+03  0.7818609E-02  0.9904790E-01
       -2   -1    0    0    0  501  0.00000000000E+00  0.00000000000E+00  0.13609930511E+03  0.13609930513E+03  0.25500000920E-02 0.  1.
        2   -1    0    0  501    0  0.00000000000E+00  0.00000000000E+00 -0.66193677250E+03  0.66193677250E+03  0.25500000920E-02 0. -1.
    10030    2    1    2    0    0  0.00000000000E+00  0.00000000000E+00 -0.52583746739E+03  0.79803607763E+03  0.60029704238E+03 0.  0.
        5    1    3    3  502    0 -0.24487861495E+03  0.43396132390E+02 -0.39601816002E+02  0.25187130483E+03  0.46999998093E+01 0.  1.
       -5    1    3    3    0  502  0.24487861495E+03 -0.43396132390E+02 -0.48623565139E+03  0.54616477280E+03  0.46999998093E+01 0. -1.
</event>
<event>
 5   0  0.9391405E-03  0.5996559E+03  0.7818609E-02  0.9906120E-01
       -2   -1    0    0    0  501  0.00000000000E+00  0.00000000000E+00  0.81992002690E+02  0.81992002730E+02  0.25500000920E-02 0. -1.
        2   -1    0    0  501    0  0.00000000000E+00  0.00000000000E+00 -0.10964094210E+04  0.10964094211E+04  0.25500000920E-02 0.  1.
    10030    2    1    2    0    0  0.00000000000E+00  0.00000000000E+00 -0.10144174184E+04  0.11784014238E+04  0.59965591542E+03 0.  0.
        2    1    3    3  502    0  0.24476647786E+03 -0.16685266679E+03 -0.59825090735E+03  0.66757365830E+03  0.25500000920E-02 0.  1.
       -2    1    3    3    0  502 -0.24476647786E+03  0.16685266679E+03 -0.41616651101E+03  0.51082776548E+03  0.25500000920E-02 0. -1.
</event>
<event>
 5   0  0.5790967E-03  0.5998959E+03  0.7818609E-02  0.9905622E-01
       -1   -1    0    0    0  501  0.00000000000E+00  0.00000000000E+00  0.19112529687E+03  0.19112529693E+03  0.50400001928E-02 0. -1.
        1   -1    0    0  501    0  0.00000000000E+00  0.00000000000E+00 -0.47073185107E+03  0.47073185110E+03  0.50400001928E-02 0.  1.
    10030    2    1    2    0    0  0.00000000000E+00  0.00000000000E+00 -0.27960655421E+03  0.66185714803E+03  0.59989587367E+03 0.  0.
        3    1    3    3  502    0 -0.66117224885E+02  0.16153437397E+03  0.12932612879E+03  0.21723282254E+03  0.10100000352E+00 0. -1.
       -3    1    3    3    0  502  0.66117224885E+02 -0.16153437397E+03 -0.40893268299E+03  0.44462432549E+03  0.10100000352E+00 0.  1.
</event>
<event>
 5   0  0.9028473E-03  0.6036149E+03  0.7818609E-02  0.9897935E-01
       -2   -1    0    0    0  501  0.00000000000E+00  0.00000000000E+00  0.18323071773E+03  0.18323071775E+03  0.25500000920E-02 0.  1.
        2   -1    0    0  501    0  0.00000000000E+00  0.00000000000E+00 -0.49712044577E+03  0.49712044578E+03  0.25500000920E-02 0. -1.
    10030    2    1    2    0    0  0.00000000000E+00  0.00000000000E+00 -0.31388972804E+03  0.68035116353E+03  0.60361489739E+03 0.  0.
        1    1    3    3  502    0  0.65599632505E+02  0.10096943860E+03 -0.46887553079E+03  0.48408925078E+03  0.50400001928E-02 0. -1.
       -1    1    3    3    0  502 -0.65599632505E+02 -0.10096943860E+03  0.15498580276E+03  0.19626191275E+03  0.50400001928E-02 0.  1.
</event>
<event>
 5   0  0.6078658E-03  0.5998837E+03  0.7818609E-02  0.9905647E-01
        1   -1    0    0  501    0  0.00000000000E+00  0.00000000000E+00  0.16440170596E+04  0.16440170596E+04  0.50400001928E-02 0. -1.
       -1   -1    0    0    0  501  0.00000000000E+00  0.00000000000E+00 -0.54722732961E+02  0.54722733193E+02  0.50400001928E-02 0.  1.
    10030    2    1    2    0    0  0.00000000000E+00  0.00000000000E+00  0.15892943266E+04  0.16987397928E+04  0.59988367785E+03 0.  0.
        2    1    3    3  502    0  0.29410008787E+03  0.17646384641E+02  0.95380364404E+03  0.99827233157E+03  0.25500000920E-02 0. -1.
       -2    1    3    3    0  502 -0.29410008787E+03 -0.17646384641E+02  0.63549068258E+03  0.70046746122E+03  0.25500000920E-02 0.  1.
</event>
<event>
 5   0  0.5891927E-03  0.6010178E+03  0.7818609E-02  0.9903297E-01
       -1   -1    0    0    0  501  0.00000000000E+00  0.00000000000E+00  0.46886890792E+03  0.46886890794E+03  0.50400001928E-02 0.  1.
        1   -1    0    0  501    0  0.00000000000E+00  0.00000000000E+00 -0.19260308033E+03  0.19260308039E+03  0.50400001928E-02 0. -1.
    10030    2    1    2    0    0  0.00000000000E+00  0.00000000000E+00  0.27626582759E+03  0.66147198834E+03  0.60101778997E+03 0.  0.
        4    1    3    3  502    0 -0.16079758662E+03 -0.10516449613E+03  0.39243398235E+03  0.43694562421E+03  0.12699999809E+01 0.  1.
       -4    1    3    3    0  502  0.16079758662E+03  0.10516449613E+03 -0.11616815477E+03  0.22452636413E+03  0.12699999809E+01 0. -1.
</event>
<event>
 5   0  0.9822607E-03  0.5993147E+03  0.7818609E-02  0.9906829E-01
       -2   -1    0    0    0  501  0.00000000000E+00  0.00000000000E+00  0.78369940433E+02  0.78369940475E+02  0.25500000920E-02 0.  1.
        2   -1    0    0  501    0  0.00000000000E+00  0.00000000000E+00 -0.11457777308E+04  0.11457777308E+04  0.25500000920E-02 0. -1.
    10030    2    1    2    0    0  0.00000000000E+00  0.00000000000E+00 -0.10674077904E+04  0.12241476713E+04  0.59931471713E+03 0.  0.
        3    1    3    3  502    0 -0.10077714345E+02  0.28291496779E+03 -0.73437710271E+03  0.78705284354E+03  0.10100000352E+00 0. -1.
       -3    1    3    3    0  502  0.10077714345E+02 -0.28291496779E+03 -0.33303068769E+03  0.43709482778E+03  0.10100000352E+00 0.  1.
</event>
<event>
 5   0  0.9162342E-03  0.6004081E+03  0.7818609E-02  0.9904560E-01
        2   -1    0    0  501    0  0.00000000000E+00  0.00000000000E+00  0.10972184143E+04  0.10972184143E+04  0.25500000920E-02 0. -1.
       -2   -1    0    0    0  501  0.00000000000E+00  0.00000000000E+00 -0.82137233566E+02  0.82137233606E+02  0.25500000920E-02 0.  1.
    10030    2    1    2    0    0  0.00000000000E+00  0.00000000000E+00  0.10150811807E+04  0.11793556479E+04  0.60040814516E+03 0.  0.
        5    1    3    3  502    0 -0.16804295745E+03  0.73816429615E+02  0.97407982986E+03  0.99123201410E+03  0.46999998093E+01 0. -1.
       -5    1    3    3    0  502  0.16804295745E+03 -0.73816429615E+02  0.41001350883E+02  0.18812363382E+03  0.46999998093E+01 0.  1.
</event>
<event>
 5   0  0.3806250E-03  0.5997379E+03  0.7818609E-02  0.9905950E-01
        3   -1    0    0  501    0  0.00000000000E+00  0.00000000000E+00  0.83718255072E+02  0.83718315996E+02  0.10100000352E+00 0. -1.
       -3   -1    0    0    0  501  0.00000000000E+00  0.00000000000E+00 -0.10740949382E+04  0.10740949429E+04  0.10100000352E+00 0.  1.
    10030    2    1    2    0    0  0.00000000000E+00  0.00000000000E+00 -0.99037668312E+03  0.11578132589E+04  0.59973791618E+03 0.  0.
        4    1    3    3  502    0  0.67171072483E+02 -0.20220664672E+03 -0.90252738995E+03  0.92733854846E+03  0.12699999809E+01 0.  1.
       -4    1    3    3    0  502 -0.67171072483E+02  0.20220664672E+03 -0.87849293169E+02  0.23047471047E+03  0.12699999809E+01 0. -1.
</event>
<event>
 5   0  0.5819446E-03  0.6007395E+03  0.7818609E-02  0.9903873E-01
        1   -1    0    0  501    0  0.00000000000E+00  0.00000000000E+00  0.16761429636E+04  0.16761429636E+04  0.50400001928E-02 0. -1.
       -1   -1    0    0    0  501  0.00000000000E+00  0.00000000000E+00 -0.53827144602E+02  0.53827144838E+02  0.50400001928E-02 0.  1.
    10030    2    1    2    0    0  0.00000000000E+00  0.00000000000E+00  0.16223158190E+04  0.17299701085E+04  0.60073951056E+03 0.  0.
        5    1    3    3  502    0  0.23982145278E+03 -0.15736887085E+03  0.10674479294E+04  0.11053264055E+04  0.46999998093E+01 0. -1.
       -5    1    3    3    0  502 -0.23982145278E+03  0.15736887085E+03  0.55486788963E+03  0.62464370297E+03  0.46999998093E+01 0.  1.
</event>
<event>
 5   0  0.9162342E-03  0.5991026E+03  0.7818609E-02  0.9907270E-01
        2   -1    0    0  501    0  0.00000000000E+00  0.00000000000E+00  0.44330165020E+03  0.44330165021E+03  0.25500000920E-02 0.  1.
       -2   -1    0    0    0  501  0.00000000000E+00  0.00000000000E+00 -0.20241519894E+03  0.20241519896E+03  0.25500000920E-02 0. -1.
    10030    2    1    2    0    0  0.00000000000E+00  0.00000000000E+00  0.24088645126E+03  0.64571684917E+03  0.59910263470E+03 0.  0.
        5    1    3    3  502    0 -0.14208810119E+03 -0.16942137221E+01  0.40461857940E+03  0.42887082397E+03  0.46999998093E+01 0.  1.
       -5    1    3    3    0  502  0.14208810119E+03  0.16942137221E+01 -0.16373212814E+03  0.21684602520E+03  0.46999998093E+01 0. -1.
</event>
<event>
 5   0  0.9028473E-03  0.6001391E+03  0.7818609E-02  0.9905118E-01
        2   -1    0    0  501    0  0.00000000000E+00  0.00000000000E+00  0.24734924278E+03  0.24734924279E+03  0.25500000920E-02 0. -1.
       -2   -1    0    0    0  501  0.00000000000E+00  0.00000000000E+00 -0.36402667827E+03  0.36402667828E+03  0.25500000920E-02 0.  1.
    10030    2    1    2    0    0  0.00000000000E+00  0.00000000000E+00 -0.11667743549E+03  0.61137592108E+03  0.60013906132E+03 0.  0.
        1    1    3    3  502    0 -0.16438149143E+03  0.38005607598E+02 -0.31113009195E+03  0.35393168136E+03  0.50400001928E-02 0.  1.
       -1    1    3    3    0  502  0.16438149143E+03 -0.38005607598E+02  0.19445265645E+03  0.25744423971E+03  0.50400001928E-02 0. -1.
</event>
<event>
 5   0  0.5891927E-03  0.5965692E+03  0.7818609E-02  0.9912550E-01
        1   -1    0    0  501    0  0.00000000000E+00  0.00000000000E+00  0.13489739630E+04  0.13489739630E+04  0.50400001928E-02 0. -1.
       -1   -1    0    0    0  501  0.00000000000E+00  0.00000000000E+00 -0.65956568598E+02  0.65956568790E+02  0.50400001928E-02 0.  1.
    10030    2    1    2    0    0  0.00000000000E+00  0.00000000000E+00  0.12830173944E+04  0.14149305318E+04  0.59656917075E+03 0.  0.
        4    1    3    3  502    0 -0.12922147716E+03 -0.22065000402E+03  0.27724578092E+03  0.37716236606E+03  0.12699999809E+01 0.  1.
       -4    1    3    3    0  502  0.12922147716E+03  0.22065000402E+03  0.10057716135E+04  0.10377681658E+04  0.12699999809E+01 0. -1.
</event>
<event>
 5   0  0.3806250E-03  0.5998043E+03  0.7818609E-02  0.9905812E-01
       -3   -1    0    0    0  501  0.00000000000E+00  0.00000000000E+00  0.87121079861E+03  0.87121080446E+03  0.10100000352E+00 0. -1.
        3   -1    0    0  501    0  0.00000000000E+00  0.00000000000E+00 -0.10323709970E+03  0.10323714911E+03  0.10100000352E+00 0.  1.
    10030    2    1    2    0    0  0.00000000000E+00  0.00000000000E+00  0.76797369890E+03  0.97444795357E+03  0.59980431143E+03 0.  0.
        3    1    3    3  502    0 -0.55326890065E+02 -0.15135971008E+03  0.79488938636E+03  0.81106101703E+03  0.10100000352E+00 0. -1.
       -3    1    3    3    0  502  0.55326890065E+02  0.15135971008E+03 -0.26915687457E+02  0.16338693654E+03  0.10100000352E+00 0.  1.
</event>
<event>
 5   0  0.5819446E-03  0.5999713E+03  0.7818609E-02  0.9905466E-01
        1   -1    0    0  501    0  0.00000000000E+00  0.00000000000E+00  0.23677581060E+03  0.23677581066E+03  0.50400001928E-02 0.  1.
       -1   -1    0    0    0  501  0.00000000000E+00  0.00000000000E+00 -0.38007000357E+03  0.38007000360E+03  0.50400001928E-02 0. -1.
    10030    2    1    2    0    0  0.00000000000E+00  0.00000000000E+00 -0.14329419297E+03  0.61684581426E+03  0.59997127667E+03 0.  0.
        5    1    3    3  502    0 -0.14474601264E+03 -0.13951099887E+03 -0.30051663942E+03  0.36158963971E+03  0.46999998093E+01 0. -1.
       -5    1    3    3    0  502  0.14474601264E+03  0.13951099887E+03  0.15722244645E+03  0.25525617455E+03  0.46999998093E+01 0.  1.
</event>
<event>
 5   0  0.9162342E-03  0.6003466E+03  0.7818609E-02  0.9904687E-01
        2   -1    0    0  501    0  0.00000000000E+00  0.00000000000E+00  0.31395669170E+03  0.31395669171E+03  0.25500000920E-02 0. -1.
       -2   -1    0    0    0  501  0.00000000000E+00  0.00000000000E+00 -0.28699498399E+03  0.28699498400E+03  0.25500000920E-02 0.  1.
    10030    2    1    2    0    0  0.00000000000E+00  0.00000000000E+00  0.26961707712E+02  0.60095167572E+03  0.60034655230E+03 0.  0.
        5    1    3    3  502    0 -0.18923481079E+03 -0.45627934550E+02  0.24216283308E+03  0.31073565896E+03  0.46999998093E+01 0. -1.
       -5    1    3    3    0  502  0.18923481079E+03  0.45627934550E+02 -0.21520112536E+03  0.29021601676E+03  0.46999998093E+01 0.  1.
</event>
<event>
 5   0  0.9391405E-03  0.6004242E+03  0.7818609E-02  0.9904526E-01
        2   -1    0    0  501    0  0.00000000000E+00  0.00000000000E+00  0.17868075728E+04  0.17868075728E+04  0.25500000920E-02 0.  1.
       -2   -1    0    0    0  501  0.00000000000E+00  0.00000000000E+00 -0.50440411267E+02  0.50440411332E+02  0.25500000920E-02 0. -1.
    10030    2    1    2    0    0  0.00000000000E+00  0.00000000000E+00  0.17363671615E+04  0.18372479841E+04  0.60042421300E+03 0.  0.
        2    1    3    3  502    0  0.15657210582E+03 -0.40166756186E+01  0.84484346961E+02  0.17795663205E+03  0.25500000920E-02 0. -1.
       -2    1    3    3    0  502 -0.15657210582E+03  0.40166756186E+01  0.16518828146E+04  0.16592913521E+04  0.25500000920E-02 0.  1.
</event>
<event>
 5   0  0.9822607E-03  0.6040963E+03  0.7818609E-02  0.9896944E-01
        2   -1    0    0  501    0  0.00000000000E+00  0.00000000000E+00  0.35869948232E+03  0.35869948233E+03  0.25500000920E-02 0. -1.
       -2   -1    0    0    0  501  0.00000000000E+00  0.00000000000E+00 -0.25434408082E+03  0.25434408084E+03  0.25500000920E-02 0.  1.
    10030    2    1    2    0    0  0.00000000000E+00  0.00000000000E+00  0.10435540150E+03  0.61304356316E+03  0.60409631725E+03 0.  0.
        3    1    3    3  502    0 -0.29154086102E+03 -0.15433395370E+02  0.13077686725E+03  0.31990133251E+03  0.10100000352E+00 0. -1.
       -3    1    3    3    0  502  0.29154086102E+03  0.15433395370E+02 -0.26421465751E+02  0.29314223065E+03  0.10100000352E+00 0.  1.
</event>
<event>
 5   0  0.5765045E-03  0.5976033E+03  0.7818609E-02  0.9910391E-01
       -1   -1    0    0    0  501  0.00000000000E+00  0.00000000000E+00  0.15488210214E+03  0.15488210222E+03  0.50400001928E-02 0.  1.
        1   -1    0    0  501    0  0.00000000000E+00  0.00000000000E+00 -0.57645403451E+03  0.57645403453E+03  0.50400001928E-02 0. -1.
    10030    2    1    2    0    0  0.00000000000E+00  0.00000000000E+00 -0.42157193237E+03  0.73133613675E+03  0.59760325531E+03 0.  0.
        1    1    3    3  502    0 -0.17286316268E+03  0.20967389668E+03 -0.58733340426E+02  0.27801874265E+03  0.50400001928E-02 0.  1.
       -1    1    3    3    0  502  0.17286316268E+03 -0.20967389668E+03 -0.36283859195E+03  0.45331739410E+03  0.50400001928E-02 0. -1.
</event>
<event>
 5   0  0.9822607E-03  0.6011456E+03  0.7818609E-02  0.9903032E-01
        2   -1    0    0  501    0  0.00000000000E+00  0.00000000000E+00  0.47382685012E+03  0.47382685013E+03  0.25500000920E-02 0.  1.
       -2   -1    0    0    0  501  0.00000000000E+00  0.00000000000E+00 -0.19066879358E+03  0.19066879359E+03  0.25500000920E-02 0. -1.
    10030    2    1    2    0    0  0.00000000000E+00  0.00000000000E+00  0.28315805655E+03  0.66449564372E+03  0.60114555271E+03 0.  0.
        3    1    3    3  502    0  0.20387691473E+03 -0.22000613333E+03  0.16299860532E+03  0.34137523431E+03  0.10100000352E+00 0.  1.
       -3    1    3    3    0  502 -0.20387691473E+03  0.22000613333E+03  0.12015945122E+03  0.32312040942E+03  0.10100000352E+00 0. -1.
</event>
<event>
 5   0  0.9162342E-03  0.6006323E+03  0.7818609E-02  0.9904095E-01
       -2   -1    0    0    0  501  0.00000000000E+00  0.00000000000E+00  0.81720431251E+02  0.81720431290E+02  0.25500000920E-02 0. -1.
        2   -1    0    0  501    0  0.00000000000E+00  0.00000000000E+00 -0.11036381971E+04  0.11036381971E+04  0.25500000920E-02 0.  1.
    10030    2    1    2    0    0  0.00000000000E+00  0.00000000000E+00 -0.10219177659E+04  0.11853586284E+04  0.60063229830E+03 0.  0.
        5    1    3    3  502    0  0.21581277566E+02 -0.25569796725E+03 -0.81872960966E+03  0.85801367456E+03  0.46999998093E+01 0.  1.
       -5    1    3    3    0  502 -0.21581277566E+02  0.25569796725E+03 -0.20318815622E+03  0.32734495387E+03  0.46999998093E+01 0. -1.
</event>
<event>
 5   0  0.5891927E-03  0.6003962E+03  0.7818609E-02  0.9904584E-01
       -1   -1    0    0    0  501  0.00000000000E+00  0.00000000000E+00  0.50263943620E+03  0.50263943623E+03  0.50400001928E-02 0.  1.
        1   -1    0    0  501    0  0.00000000000E+00  0.00000000000E+00 -0.17929136441E+03  0.17929136448E+03  0.50400001928E-02 0. -1.
    10030    2    1    2    0    0  0.00000000000E+00  0.00000000000E+00  0.32334807179E+03  0.68193080071E+03  0.60039623702E+03 0.  0.
        4    1    3    3  502    0  0.11229096617E+03  0.20934683493E+03  0.37012355042E+03  0.43980497252E+03  0.12699999809E+01 0.  1.
       -4    1    3    3    0  502 -0.11229096617E+03 -0.20934683493E+03 -0.46775478629E+02  0.24212582819E+03  0.12699999809E+01 0. -1.
</event>
<event>
 5   0  0.3806250E-03  0.5894536E+03  0.7818609E-02  0.9927531E-01
        4   -1    0    0  501    0  0.00000000000E+00  0.00000000000E+00  0.65338925335E+02  0.65351266735E+02  0.12699999809E+01 0.  1.
       -4   -1    0    0    0  501  0.00000000000E+00  0.00000000000E+00 -0.13292971833E+04  0.13292977900E+04  0.12699999809E+01 0. -1.
    10030    2    1    2    0    0  0.00000000000E+00  0.00000000000E+00 -0.12639582580E+04  0.13946490567E+04  0.58945357196E+03 0.  0.
        3    1    3    3  502    0 -0.28461128300E+03  0.62338383130E+02 -0.73710562759E+03  0.79259975578E+03  0.10100000352E+00 0. -1.
       -3    1    3    3    0  502  0.28461128300E+03 -0.62338383130E+02 -0.52685263037E+03  0.60204930093E+03  0.10100000352E+00 0.  1.
</event>
<event>
 5   0  0.9303190E-03  0.6004273E+03  0.7818609E-02  0.9904520E-01
       -2   -1    0    0    0  501  0.00000000000E+00  0.00000000000E+00  0.19713260991E+03  0.19713260993E+03  0.25500000920E-02 0. -1.
        2   -1    0    0  501    0  0.00000000000E+00  0.00000000000E+00 -0.45719604272E+03  0.45719604273E+03  0.25500000920E-02 0.  1.
    10030    2    1    2    0    0  0.00000000000E+00  0.00000000000E+00 -0.26006343281E+03  0.65432865266E+03  0.60042734499E+03 0.  0.
        4    1    3    3  502    0 -0.24763521366E+03  0.26945184097E+02 -0.31263722538E+03  0.39974102815E+03  0.12699999809E+01 0.  1.
       -4    1    3    3    0  502  0.24763521366E+03 -0.26945184097E+02  0.52573792567E+02  0.25458762452E+03  0.12699999809E+01 0. -1.
</event>
<event>
 5   0  0.9303190E-03  0.6000508E+03  0.7818609E-02  0.9905301E-01
       -2   -1    0    0    0  501  0.00000000000E+00  0.00000000000E+00  0.13885264290E+03  0.13885264292E+03  0.25500000920E-02 0. -1.
        2   -1    0    0  501    0  0.00000000000E+00  0.00000000000E+00 -0.64827893000E+03  0.64827893001E+03  0.25500000920E-02 0.  1.
    10030    2    1    2    0    0  0.00000000000E+00  0.00000000000E+00 -0.50942628711E+03  0.78713157293E+03  0.60005080711E+03 0.  0.
        4    1    3    3  502    0  0.17331392861E+03  0.22537008893E+03 -0.12899996611E+03  0.31220505920E+03  0.12699999809E+01 0. -1.
       -4    1    3    3    0  502 -0.17331392861E+03 -0.22537008893E+03 -0.38042632100E+03  0.47492651373E+03  0.12699999809E+01 0.  1.
</event>
<event>
 5   0  0.9391405E-03  0.5992849E+03  0.7818609E-02  0.9906891E-01
        2   -1    0    0  501    0  0.00000000000E+00  0.00000000000E+00  0.12456706445E+04  0.12456706445E+04  0.25500000920E-02 0.  1.
       -2   -1    0    0    0  501  0.00000000000E+00  0.00000000000E+00 -0.72078116967E+02  0.72078117013E+02  0.25500000920E-02 0. -1.
    10030    2    1    2    0    0  0.00000000000E+00  0.00000000000E+00  0.11735925276E+04  0.13177487616E+04  0.59928488869E+03 0.  0.
        2    1    3    3  502    0 -0.61016570868E+02 -0.27646893557E+03  0.80254887360E+03  0.85102455240E+03  0.25500000920E-02 0.  1.
       -2    1    3    3    0  502  0.61016570868E+02  0.27646893557E+03  0.37104365398E+03  0.46672420916E+03  0.25500000920E-02 0. -1.
</event>
<event>
 5   0  0.9028473E-03  0.6013374E+03  0.7818609E-02  0.9902635E-01
       -2   -1    0    0    0  501  0.00000000000E+00  0.00000000000E+00  0.14178657961E+03  0.14178657963E+03  0.25500000920E-02 0. -1.
        2   -1    0    0  501    0  0.00000000000E+00  0.00000000000E+00 -0.63758978002E+03  0.63758978002E+03  0.25500000920E-02 0.  1.
    10030    2    1    2    0    0  0.00000000000E+00  0.00000000000E+00 -0.49580320041E+03  0.77937635965E+03  0.60133742312E+03 0.  0.
        1    1    3    3  502    0  0.25239206060E+03  0.78776874409E+02 -0.43344422500E+03  0.50772181794E+03  0.50400001928E-02 0.  1.
       -1    1    3    3    0  502 -0.25239206060E+03 -0.78776874409E+02 -0.62358975409E+02  0.27165454171E+03  0.50400001928E-02 0. -1.
</event>
<event>
 5   0  0.9303190E-03  0.5995472E+03  0.7818609E-02  0.9906346E-01
       -2   -1    0    0    0  501  0.00000000000E+00  0.00000000000E+00  0.88607874472E+02  0.88607874509E+02  0.25500000920E-02 0.  1.
        2   -1    0    0  501    0  0.00000000000E+00  0.00000000000E+00 -0.10141787172E+04  0.10141787172E+04  0.25500000920E-02 0. -1.
    10030    2    1    2    0    0  0.00000000000E+00  0.00000000000E+00 -0.92557084272E+03  0.11027865917E+04  0.59954723079E+03 0.  0.
        4    1    3    3  502    0 -0.42243016664E+02  0.23501838831E+03 -0.79613457141E+03  0.83117385906E+03  0.12699999809E+01 0. -1.
       -4    1    3    3    0  502  0.42243016664E+02 -0.23501838831E+03 -0.12943627131E+03  0.27161273264E+03  0.12699999809E+01 0.  1.
</event>
<event>
 5   0  0.9822607E-03  0.5993129E+03  0.7818609E-02  0.9906833E-01
       -2   -1    0    0    0  501  0.00000000000E+00  0.00000000000E+00  0.87546681012E+02  0.87546681049E+02  0.25500000920E-02 0.  1.
        2   -1    0    0  501    0  0.00000000000E+00  0.00000000000E+00 -0.10256697202E+04  0.10256697202E+04  0.25500000920E-02 0. -1.
    10030    2    1    2    0    0  0.00000000000E+00  0.00000000000E+00 -0.93812303915E+03  0.11132164012E+04  0.59931287267E+03 0.  0.
        3    1    3    3  502    0  0.11734041771E+03 -0.16370343042E+03 -0.56940322304E+02  0.20930790063E+03  0.10100000352E+00 0.  1.
       -3    1    3    3    0  502 -0.11734041771E+03  0.16370343042E+03 -0.88118271684E+03  0.90390850058E+03  0.10100000352E+00 0. -1.
</event>
<event>
 5   0  0.3806250E-03  0.5997536E+03  0.7818609E-02  0.9905917E-01
        3   -1    0    0  501    0  0.00000000000E+00  0.00000000000E+00  0.43959759778E+03  0.43959760938E+03  0.10100000352E+00 0.  1.
       -3   -1    0    0    0  501  0.00000000000E+00  0.00000000000E+00 -0.20456457124E+03  0.20456459617E+03  0.10100000352E+00 0. -1.
    10030    2    1    2    0    0  0.00000000000E+00  0.00000000000E+00  0.23503302654E+03  0.64416220556E+03  0.59975363567E+03 0.  0.
        3    1    3    3  502    0  0.16131659180E+03 -0.36359382256E+02  0.38620172726E+03  0.42011526015E+03  0.10100000352E+00 0.  1.
       -3    1    3    3    0  502 -0.16131659180E+03  0.36359382256E+02 -0.15116870072E+03  0.22404694541E+03  0.10100000352E+00 0. -1.
</event>
<event>
 5   0  0.5765045E-03  0.6008815E+03  0.7818609E-02  0.9903579E-01
       -1   -1    0    0    0  501  0.00000000000E+00  0.00000000000E+00  0.11185062431E+03  0.11185062443E+03  0.50400001928E-02 0.  1.
        1   -1    0    0  501    0  0.00000000000E+00  0.00000000000E+00 -0.80701072341E+03  0.80701072343E+03  0.50400001928E-02 0. -1.
    10030    2    1    2    0    0  0.00000000000E+00  0.00000000000E+00 -0.69516009910E+03  0.91886134786E+03  0.60088153009E+03 0.  0.
        1    1    3    3  502    0  0.85812081445E+02 -0.27849903955E+03 -0.45931788054E+03  0.54396538839E+03  0.50400001928E-02 0. -1.
       -1    1    3    3    0  502 -0.85812081445E+02  0.27849903955E+03 -0.23584221856E+03  0.37489595947E+03  0.50400001928E-02 0.  1.
</event>
<event>
 5   0  0.5765045E-03  0.6011900E+03  0.7818609E-02  0.9902940E-01
        1   -1    0    0  501    0  0.00000000000E+00  0.00000000000E+00  0.13845586719E+04  0.13845586719E+04  0.50400001928E-02 0. -1.
       -1   -1    0    0    0  501  0.00000000000E+00  0.00000000000E+00 -0.65260755748E+02  0.65260755943E+02  0.50400001928E-02 0.  1.
    10030    2    1    2    0    0  0.00000000000E+00  0.00000000000E+00  0.13192979162E+04  0.14498194279E+04  0.60118997149E+03 0.  0.
        1    1    3    3  502    0  0.10325546300E+02  0.17054776665E+03  0.12560670297E+04  0.12676346243E+04  0.50400001928E-02 0. -1.
       -1    1    3    3    0  502 -0.10325546300E+02 -0.17054776665E+03  0.63230886448E+02  0.18218480354E+03  0.50400001928E-02 0.  1.
</event>
<event>
 5   0  0.5891927E-03  0.5893243E+03  0.7818609E-02  0.9927806E-01
       -1   -1    0    0    0  501  0.00000000000E+00  0.00000000000E+00  0.39637234592E+03  0.39637234595E+03  0.50400001928E-02 0.  1.
        1   -1    0    0  501    0  0.00000000000E+00  0.00000000000E+00 -0.21905108861E+03  0.21905108867E+03  0.50400001928E-02 0. -1.
    10030    2    1    2    0    0  0.00000000000E+00  0.00000000000E+00  0.17732125731E+03  0.61542343462E+03  0.58932433820E+03 0.  0.
        4    1    3    3  502    0  0.21821281599E+03  0.55550692609E+02  0.28713404779E+03  0.36489763881E+03  0.12699999809E+01 0.  1.
       -4    1    3    3    0  502 -0.21821281599E+03 -0.55550692609E+02 -0.10981279048E+03  0.25052579581E+03  0.12699999809E+01 0. -1.
</event>
<event>
 5   0  0.5765045E-03  0.6003358E+03  0.7818609E-02  0.9904710E-01
       -1   -1    0    0    0  501  0.00000000000E+00  0.00000000000E+00  0.15575021124E+03  0.15575021132E+03  0.50400001928E-02 0. -1.
        1   -1    0    0  501    0  0.00000000000E+00  0.00000000000E+00 -0.57849535164E+03  0.57849535166E+03  0.50400001928E-02 0.  1.
    10030    2    1    2    0    0  0.00000000000E+00  0.00000000000E+00 -0.42274514040E+03  0.73424556298E+03  0.60033581688E+03 0.  0.
        1    1    3    3  502    0 -0.24735869663E+03  0.76591790689E+02 -0.39705254757E+03  0.47402885224E+03  0.50400001928E-02 0.  1.
       -1    1    3    3    0  502  0.24735869663E+03 -0.76591790689E+02 -0.25692592836E+02  0.26021671075E+03  0.50400001928E-02 0. -1.
</event>
<event>
 5   0  0.9028473E-03  0.6020996E+03  0.7818609E-02  0.9901060E-01
       -2   -1    0    0    0  501  0.00000000000E+00  0.00000000000E+00  0.94664563501E+02  0.94664563535E+02  0.25500000920E-02 0. -1.
        2   -1    0    0  501    0  0.00000000000E+00  0.00000000000E+00 -0.95739074213E+03  0.95739074213E+03  0.25500000920E-02 0.  1.
    10030    2    1    2    0    0  0.00000000000E+00  0.00000000000E+00 -0.86272617862E+03  0.10520553057E+04  0.60209958221E+03 0.  0.
        1    1    3    3  502    0  0.10702866209E+03  0.22308024502E+03 -0.13170536038E+03  0.28029668604E+03  0.50400001928E-02 0. -1.
       -1    1    3    3    0  502 -0.10702866209E+03 -0.22308024502E+03 -0.73102081825E+03  0.77175861962E+03  0.50400001928E-02 0.  1.
</event>
<event>
 5   0  0.9303190E-03  0.5992185E+03  0.7818609E-02  0.9907029E-01
       -2   -1    0    0    0  501  0.00000000000E+00  0.00000000000E+00  0.65240703128E+03  0.65240703128E+03  0.25500000920E-02 0. -1.
        2   -1    0    0  501    0  0.00000000000E+00  0.00000000000E+00 -0.13759155290E+03  0.13759155292E+03  0.25500000920E-02 0.  1.
    10030    2    1    2    0    0  0.00000000000E+00  0.00000000000E+00  0.51481547838E+03  0.78999858421E+03  0.59921847958E+03 0.  0.
        4    1    3    3  502    0  0.10630928558E+03  0.27477470841E+03  0.32915094585E+03  0.44175192432E+03  0.12699999809E+01 0. -1.
       -4    1    3    3    0  502 -0.10630928558E+03 -0.27477470841E+03  0.18566453253E+03  0.34824665989E+03  0.12699999809E+01 0.  1.
</event>
<event>
 5   0  0.9391405E-03  0.6020965E+03  0.7818609E-02  0.9901066E-01
        2   -1    0    0  501    0  0.00000000000E+00  0.00000000000E+00  0.12278100587E+04  0.12278100587E+04  0.25500000920E-02 0. -1.
       -2   -1    0    0    0  501  0.00000000000E+00  0.00000000000E+00 -0.73814387965E+02  0.73814388009E+02  0.25500000920E-02 0.  1.
    10030    2    1    2    0    0  0.00000000000E+00  0.00000000000E+00  0.11539956707E+04  0.13016244467E+04  0.60209649741E+03 0.  0.
        2    1    3    3  502    0  0.85400279278E+02  0.10305037021E+03 -0.59624256351E+01  0.13397065734E+03  0.25500000920E-02 0.  1.
       -2    1    3    3    0  502 -0.85400279278E+02 -0.10305037021E+03  0.11599580963E+04  0.11676537893E+04  0.25500000920E-02 0. -1.
</event>
<event>
 5   0  0.5819446E-03  0.6002228E+03  0.7818609E-02  0.9904944E-01
        1   -1    0    0  501    0  0.00000000000E+00  0.00000000000E+00  0.23231655268E+03  0.23231655274E+03  0.50400001928E-02 0. -1.
       -1   -1    0    0    0  501  0.00000000000E+00  0.00000000000E+00 -0.38769022623E+03  0.38769022626E+03  0.50400001928E-02 0.  1.
    10030    2    1    2    0    0  0.00000000000E+00  0.00000000000E+00 -0.15537367354E+03  0.62000677900E+03  0.60022281494E+03 0.  0.
        5    1    3    3  502    0  0.17608715301E+03  0.24192657581E+03 -0.10100553702E+03  0.31584705483E+03  0.46999998093E+01 0. -1.
       -5    1    3    3    0  502 -0.17608715301E+03 -0.24192657581E+03 -0.54368136518E+02  0.30415972417E+03  0.46999998093E+01 0.  1.
</event>
<event>
 5   0  0.5790967E-03  0.6005938E+03  0.7818609E-02  0.9904175E-01
       -1   -1    0    0    0  501  0.00000000000E+00  0.00000000000E+00  0.14155980313E+03  0.14155980322E+03  0.50400001928E-02 0. -1.
        1   -1    0    0  501    0  0.00000000000E+00  0.00000000000E+00 -0.63703271498E+03  0.63703271500E+03  0.50400001928E-02 0.  1.
    10030    2    1    2    0    0  0.00000000000E+00  0.00000000000E+00 -0.49547291185E+03  0.77859251822E+03  0.60059379205E+03 0.  0.
        3    1    3    3  502    0  0.10193726054E+03 -0.20655577445E+01  0.11843448131E+03  0.15627606400E+03  0.10100000352E+00 0. -1.
       -3    1    3    3    0  502 -0.10193726054E+03  0.20655577445E+01 -0.61390739316E+03  0.62231645422E+03  0.10100000352E+00 0.  1.
</event>
<event>
 5   0  0.9028473E-03  0.5994981E+03  0.7818609E-02  0.9906448E-01
       -2   -1    0    0    0  501  0.00000000000E+00  0.00000000000E+00  0.21467174770E+03  0.21467174771E+03  0.25500000920E-02 0.  1.
        2   -1    0    0  501    0  0.00000000000E+00  0.00000000000E+00 -0.41854364693E+03  0.41854364693E+03  0.25500000920E-02 0. -1.
    10030    2    1    2    0    0  0.00000000000E+00  0.00000000000E+00 -0.20387189923E+03  0.63321539465E+03  0.59949811069E+03 0.  0.
        1    1    3    3  502    0 -0.22167741453E+02 -0.22486634545E+03 -0.30997340238E+03  0.38358805024E+03  0.50400001928E-02 0. -1.
       -1    1    3    3    0  502  0.22167741453E+02  0.22486634545E+03  0.10610150316E+03  0.24962734440E+03  0.50400001928E-02 0.  1.
</event>
<event>
 5   0  0.5891927E-03  0.6013614E+03  0.7818609E-02  0.9902586E-01
       -1   -1    0    0    0  501  0.00000000000E+00  0.00000000000E+00  0.21943106557E+03  0.21943106562E+03  0.50400001928E-02 0.  1.
        1   -1    0    0  501    0  0.00000000000E+00  0.00000000000E+00 -0.41201501825E+03  0.41201501828E+03  0.50400001928E-02 0. -1.
    10030    2    1    2    0    0  0.00000000000E+00  0.00000000000E+00 -0.19258395268E+03  0.63144608390E+03  0.60136143711E+03 0.  0.
        4    1    3    3  502    0  0.34871499558E+02 -0.25050022759E+03 -0.26703335504E+03  0.36779724185E+03  0.12699999809E+01 0. -1.
       -4    1    3    3    0  502 -0.34871499558E+02  0.25050022759E+03  0.74449402360E+02  0.26364884206E+03  0.12699999809E+01 0.  1.
</event>
<event>
 5   0  0.5765045E-03  0.5999959E+03  0.7818609E-02  0.9905415E-01
        1   -1    0    0  501    0  0.00000000000E+00  0.00000000000E+00  0.51817692208E+03  0.51817692211E+03  0.50400001928E-02 0.  1.
       -1   -1    0    0    0  501  0.00000000000E+00  0.00000000000E+00 -0.17368349353E+03  0.17368349361E+03  0.50400001928E-02 0. -1.
    10030    2    1    2    0    0  0.00000000000E+00  0.00000000000E+00  0.34449342855E+03  0.69186041571E+03  0.59999592708E+03 0.  0.
        1    1    3    3  502    0  0.11141884606E+03  0.54537538068E+02  0.48721694156E+03  0.50276122611E+03  0.50400001928E-02 0.  1.
       -1    1    3    3    0  502 -0.11141884606E+03 -0.54537538068E+02 -0.14272351301E+03  0.18909918960E+03  0.50400001928E-02 0. -1.
</event>
<event>
 5   0  0.5765045E-03  0.6008009E+03  0.7818609E-02  0.9903746E-01
       -1   -1    0    0    0  501  0.00000000000E+00  0.00000000000E+00  0.24435871154E+03  0.24435871159E+03  0.50400001928E-02 0.  1.
        1   -1    0    0  501    0  0.00000000000E+00  0.00000000000E+00 -0.36929497647E+03  0.36929497650E+03  0.50400001928E-02 0. -1.
    10030    2    1    2    0    0  0.00000000000E+00  0.00000000000E+00 -0.12493626493E+03  0.61365368809E+03  0.60080094758E+03 0.  0.
        1    1    3    3  502    0  0.22159341087E+03  0.64411707315E+02 -0.25890490654E+03  0.34682021054E+03  0.50400001928E-02 0. -1.
       -1    1    3    3    0  502 -0.22159341087E+03 -0.64411707315E+02  0.13396864161E+03  0.26683347755E+03  0.50400001928E-02 0.  1.
</event>
<event>
 5   0  0.3806250E-03  0.6043418E+03  0.7818609E-02  0.9896439E-01
        3   -1    0    0  501    0  0.00000000000E+00  0.00000000000E+00  0.96554111982E+03  0.96554112510E+03  0.10100000352E+00 0. -1.
       -3   -1    0    0    0  501  0.00000000000E+00  0.00000000000E+00 -0.94565862528E+02  0.94565916463E+02  0.10100000352E+00 0.  1.
    10030    2    1    2    0    0  0.00000000000E+00  0.00000000000E+00  0.87097525729E+03  0.10601070416E+04  0.60434182444E+03 0.  0.
        4    1    3    3  502    0 -0.38997693941E+02  0.26833268646E+03  0.66940485902E+03  0.72223800020E+03  0.12699999809E+01 0. -1.
       -4    1    3    3    0  502  0.38997693941E+02 -0.26833268646E+03  0.20157039828E+03  0.33786904137E+03  0.12699999809E+01 0.  1.
</event>
<event>
 5   0  0.5819446E-03  0.5998338E+03  0.7818609E-02  0.9905751E-01
        1   -1    0    0  501    0  0.00000000000E+00  0.00000000000E+00  0.32025653574E+03  0.32025653578E+03  0.50400001928E-02 0.  1.
       -1   -1    0    0    0  501  0.00000000000E+00  0.00000000000E+00 -0.28086908634E+03  0.28086908639E+03  0.50400001928E-02 0. -1.
    10030    2    1    2    0    0  0.00000000000E+00  0.00000000000E+00  0.39387449398E+02  0.60112562217E+03  0.59983384571E+03 0.  0.
        5    1    3    3  502    0  0.19921551623E+03  0.29340015231E+02 -0.20300187093E+03  0.28597116638E+03  0.46999998093E+01 0. -1.
       -5    1    3    3    0  502 -0.19921551623E+03 -0.29340015231E+02  0.24238932032E+03  0.31515445579E+03  0.46999998093E+01 0.  1.
</event>
<event>
 5   0  0.5790967E-03  0.6001319E+03  0.7818609E-02  0.9905132E-01
        1   -1    0    0  501    0  0.00000000000E+00  0.00000000000E+00  0.31616149089E+03  0.31616149093E+03  0.50400001928E-02 0. -1.
       -1   -1    0    0    0  501  0.00000000000E+00  0.00000000000E+00 -0.28478983815E+03  0.28478983820E+03  0.50400001928E-02 0.  1.
    10030    2    1    2    0    0  0.00000000000E+00  0.00000000000E+00  0.31371652734E+02  0.60095132913E+03  0.60013191832E+03 0.  0.
        3    1    3    3  502    0 -0.10047693573E+03 -0.19518139885E+03 -0.18916175671E+03  0.28978194125E+03  0.10100000352E+00 0.  1.
       -3    1    3    3    0  502  0.10047693573E+03  0.19518139885E+03  0.22053340944E+03  0.31116938788E+03  0.10100000352E+00 0. -1.
</event>
<event>
 5   0  0.9303190E-03  0.5998296E+03  0.7818609E-02  0.9905760E-01
        2   -1    0    0  501    0  0.00000000000E+00  0.00000000000E+00  0.76170533946E+03  0.76170533947E+03  0.25500000920E-02 0. -1.
       -2   -1    0    0    0  501  0.00000000000E+00  0.00000000000E+00 -0.11808883592E+03  0.11808883595E+03  0.25500000920E-02 0.  1.
    10030    2    1    2    0    0  0.00000000000E+00  0.00000000000E+00  0.64361650354E+03  0.87979417541E+03  0.59982963203E+03 0.  0.
        4    1    3    3  502    0  0.29082656303E+03 -0.15206165798E+02  0.42692314820E+03  0.51679425753E+03  0.12699999809E+01 0. -1.
       -4    1    3    3    0  502 -0.29082656303E+03  0.15206165798E+02  0.21669335534E+03  0.36299991789E+03  0.12699999809E+01 0.  1.
</event>
<event>
 5   0  0.9028473E-03  0.5981634E+03  0.7818609E-02  0.9909224E-01
        2   -1    0    0  501    0  0.00000000000E+00  0.00000000000E+00  0.21482376145E+04  0.21482376145E+04  0.25500000920E-02 0. -1.
       -2   -1    0    0    0  501  0.00000000000E+00  0.00000000000E+00 -0.41638724929E+02  0.41638725007E+02  0.25500000920E-02 0.  1.
    10030    2    1    2    0    0  0.00000000000E+00  0.00000000000E+00  0.21065988895E+04  0.21898763395E+04  0.59816343987E+03 0.  0.
        1    1    3    3  502    0 -0.23445365639E+03 -0.18424684912E+03  0.11379356174E+04  0.11763557658E+04  0.50400001928E-02 0. -1.
       -1    1    3    3    0  502  0.23445365639E+03  0.18424684912E+03  0.96866327218E+03  0.10135205737E+04  0.50400001928E-02 0.  1.
</event>
<event>
 5   0  0.5891927E-03  0.6027705E+03  0.7818609E-02  0.9899675E-01
       -1   -1    0    0    0  501  0.00000000000E+00  0.00000000000E+00  0.13595247452E+03  0.13595247461E+03  0.50400001928E-02 0.  1.
        1   -1    0    0  501    0  0.00000000000E+00  0.00000000000E+00 -0.66812379957E+03  0.66812379959E+03  0.50400001928E-02 0. -1.
    10030    2    1    2    0    0  0.00000000000E+00  0.00000000000E+00 -0.53217132505E+03  0.80407627420E+03  0.60277054964E+03 0.  0.
        4    1    3    3  502    0  0.13081194993E+03  0.19397230925E+03 -0.12651343754E+02  0.23430469991E+03  0.12699999809E+01 0.  1.
       -4    1    3    3    0  502 -0.13081194993E+03 -0.19397230925E+03 -0.51951998130E+03  0.56977157429E+03  0.12699999809E+01 0. -1.
</event>
<event>
 5   0  0.9162342E-03  0.5994403E+03  0.7818609E-02  0.9906568E-01
       -2   -1    0    0    0  501  0.00000000000E+00  0.00000000000E+00  0.13330467103E+03  0.13330467106E+03  0.25500000920E-02 0.  1.
        2   -1    0    0  501    0  0.00000000000E+00  0.00000000000E+00 -0.67388608985E+03  0.67388608986E+03  0.25500000920E-02 0. -1.
    10030    2    1    2    0    0  0.00000000000E+00  0.00000000000E+00 -0.54058141882E+03  0.80719076092E+03  0.59944028404E+03 0.  0.
        5    1    3    3  502    0 -0.24612755265E+03 -0.16848610850E+03 -0.30940474914E+03  0.42979033228E+03  0.46999998093E+01 0. -1.
       -5    1    3    3    0  502  0.24612755265E+03  0.16848610850E+03 -0.23117666968E+03  0.37740042864E+03  0.46999998093E+01 0.  1.
</event>
<event>
 5   0  0.6078658E-03  0.6000772E+03  0.7818609E-02  0.9905246E-01
       -1   -1    0    0    0  501  0.00000000000E+00  0.00000000000E+00  0.27306303375E+03  0.27306303380E+03  0.50400001928E-02 0. -1.
        1   -1    0    0  501    0  0.00000000000E+00  0.00000000000E+00 -0.32967901320E+03  0.32967901324E+03  0.50400001928E-02 0.  1.
    10030    2    1    2    0    0  0.00000000000E+00  0.00000000000E+00 -0.56615979449E+02  0.60274204703E+03  0.60007716682E+03 0.  0.
        2    1    3    3  502    0  0.18356902635E+03  0.23538506220E+03  0.21488807810E+01  0.29851018850E+03  0.25500000920E-02 0. -1.
       -2    1    3    3    0  502 -0.18356902635E+03 -0.23538506220E+03 -0.58764860230E+02  0.30423185853E+03  0.25500000920E-02 0.  1.
</event>
<event>
 5   0  0.5765045E-03  0.6001943E+03  0.7818609E-02  0.9905003E-01
       -1   -1    0    0    0  501  0.00000000000E+00  0.00000000000E+00  0.65310802082E+02  0.65310802276E+02  0.50400001928E-02 0. -1.
        1   -1    0    0  501    0  0.00000000000E+00  0.00000000000E+00 -0.13789190202E+04  0.13789190202E+04  0.50400001928E-02 0.  1.
    10030    2    1    2    0    0  0.00000000000E+00  0.00000000000E+00 -0.13136082181E+04  0.14442298224E+04  0.60019432640E+03 0.  0.
        1    1    3    3  502    0  0.20798826380E+03  0.88645765543E+02 -0.18196265163E+03  0.29021991014E+03  0.50400001928E-02 0. -1.
       -1    1    3    3    0  502 -0.20798826380E+03 -0.88645765543E+02 -0.11316455664E+04  0.11540099123E+04  0.50400001928E-02 0.  1.
</event>
<event>
 5   0  0.5765045E-03  0.5995131E+03  0.7818609E-02  0.9906417E-01
       -1   -1    0    0    0  501  0.00000000000E+00  0.00000000000E+00  0.37485513503E+03  0.37485513506E+03  0.50400001928E-02 0. -1.
        1   -1    0    0  501    0  0.00000000000E+00  0.00000000000E+00 -0.23970320109E+03  0.23970320115E+03  0.50400001928E-02 0.  1.
    10030    2    1    2    0    0  0.00000000000E+00  0.00000000000E+00  0.13515193394E+03  0.61455833621E+03  0.59951305520E+03 0.  0.
        1    1    3    3  502    0 -0.67981014403E+02  0.12915006563E+02  0.36655577773E+03  0.37302996384E+03  0.50400001928E-02 0. -1.
       -1    1    3    3    0  502  0.67981014403E+02 -0.12915006563E+02 -0.23140384379E+03  0.24152837237E+03  0.50400001928E-02 0.  1.
</event>
<event>
 5   0  0.5790967E-03  0.6009249E+03  0.7818609E-02  0.9903489E-01
       -1   -1    0    0    0  501  0.00000000000E+00  0.00000000000E+00  0.15119642912E+03  0.15119642920E+03  0.50400001928E-02 0. -1.
        1   -1    0    0  501    0  0.00000000000E+00  0.00000000000E+00 -0.59708877162E+03  0.59708877164E+03  0.50400001928E-02 0.  1.
    10030    2    1    2    0    0  0.00000000000E+00  0.00000000000E+00 -0.44589234250E+03  0.74828520085E+03  0.60092492102E+03 0.  0.
        3    1    3    3  502    0  0.96222448135E+01  0.25447904920E+02 -0.59555180292E+03  0.59617291419E+03  0.10100000352E+00 0.  1.
       -3    1    3    3    0  502 -0.96222448135E+01 -0.25447904920E+02  0.14965946041E+03  0.15211228666E+03  0.10100000352E+00 0. -1.
</event>
<event>
 5   0  0.9162342E-03  0.5997686E+03  0.7818609E-02  0.9905886E-01
        2   -1    0    0  501    0  0.00000000000E+00  0.00000000000E+00  0.16992404791E+04  0.16992404791E+04  0.25500000920E-02 0.  1.
       -2   -1    0    0    0  501  0.00000000000E+00  0.00000000000E+00 -0.52923994819E+02  0.52923994881E+02  0.25500000920E-02 0. -1.
    10030    2    1    2    0    0  0.00000000000E+00  0.00000000000E+00  0.16463164843E+04  0.17521644740E+04  0.59976860327E+03 0.  0.
        5    1    3    3  502    0 -0.15489630311E+03  0.24247859950E+03  0.57665418169E+03  0.64446944938E+03  0.46999998093E+01 0.  1.
       -5    1    3    3    0  502  0.15489630311E+03 -0.24247859950E+03  0.10696623026E+04  0.11076950246E+04  0.46999998093E+01 0. -1.
</event>
<event>
 5   0  0.9028473E-03  0.6013464E+03  0.7818609E-02  0.9902617E-01
        2   -1    0    0  501    0  0.00000000000E+00  0.00000000000E+00  0.35771356440E+03  0.35771356440E+03  0.25500000920E-02 0. -1.
       -2   -1    0    0    0  501  0.00000000000E+00  0.00000000000E+00 -0.25272835474E+03  0.25272835475E+03  0.25500000920E-02 0.  1.
    10030    2    1    2    0    0  0.00000000000E+00  0.00000000000E+00  0.10498520966E+03  0.61044191915E+03  0.60134635811E+03 0.  0.
        1    1    3    3  502    0 -0.12243226236E+02 -0.44096788829E+02  0.35415727616E+03  0.35710194575E+03  0.50400001928E-02 0. -1.
       -1    1    3    3    0  502  0.12243226236E+02  0.44096788829E+02 -0.24917206650E+03  0.25333997340E+03  0.50400001928E-02 0.  1.
</event>
<event>
 5   0  0.5891927E-03  0.5994703E+03  0.7818609E-02  0.9906506E-01
        1   -1    0    0  501    0  0.00000000000E+00  0.00000000000E+00  0.54081133789E+03  0.54081133791E+03  0.50400001928E-02 0.  1.
       -1   -1    0    0    0  501  0.00000000000E+00  0.00000000000E+00 -0.16612291117E+03  0.16612291125E+03  0.50400001928E-02 0. -1.
    10030    2    1    2    0    0  0.00000000000E+00  0.00000000000E+00  0.37468842672E+03  0.70693424916E+03  0.59947027909E+03 0.  0.
        4    1    3    3  502    0  0.53455852185E+02  0.14226364918E+03  0.49200351770E+03  0.51494227671E+03  0.12699999809E+01 0.  1.
       -4    1    3    3    0  502 -0.53455852185E+02 -0.14226364918E+03 -0.11731509098E+03  0.19199197245E+03  0.12699999809E+01 0. -1.
</event>
<event>
 5   0  0.5790967E-03  0.5992426E+03  0.7818609E-02  0.9906979E-01
       -1   -1    0    0    0  501  0.00000000000E+00  0.00000000000E+00  0.12799139506E+03  0.12799139516E+03  0.50400001928E-02 0.  1.
        1   -1    0    0  501    0  0.00000000000E+00  0.00000000000E+00 -0.70139801000E+03  0.70139801002E+03  0.50400001928E-02 0. -1.
    10030    2    1    2    0    0  0.00000000000E+00  0.00000000000E+00 -0.57340661494E+03  0.82938940517E+03  0.59924255470E+03 0.  0.
        3    1    3    3  502    0 -0.23974095648E+03 -0.11188690975E+03 -0.92054192327E+02  0.28012210072E+03  0.10100000352E+00 0.  1.
       -3    1    3    3    0  502  0.23974095648E+03  0.11188690975E+03 -0.48135242261E+03  0.54926730445E+03  0.10100000352E+00 0. -1.
</event>
<event>
 5   0  0.9162342E-03  0.5969601E+03  0.7818609E-02  0.9911733E-01
        2   -1    0    0  501    0  0.00000000000E+00  0.00000000000E+00  0.22482284511E+03  0.22482284513E+03  0.25500000920E-02 0.  1.
       -2   -1    0    0    0  501  0.00000000000E+00  0.00000000000E+00 -0.39626906417E+03  0.39626906418E+03  0.25500000920E-02 0. -1.
    10030    2    1    2    0    0  0.00000000000E+00  0.00000000000E+00 -0.17144621905E+03  0.62109190931E+03  0.59696009396E+03 0.  0.
        5    1    3    3  502    0  0.50962282887E+02  0.85760557312E+02 -0.37836961281E+03  0.39132809938E+03  0.46999998093E+01 0. -1.
       -5    1    3    3    0  502 -0.50962282887E+02 -0.85760557312E+02  0.20692339376E+03  0.22976380992E+03  0.46999998093E+01 0.  1.
</event>
<event>
 5   0  0.5790967E-03  0.6009732E+03  0.7818609E-02  0.9903389E-01
       -1   -1    0    0    0  501  0.00000000000E+00  0.00000000000E+00  0.26557282023E+03  0.26557282028E+03  0.50400001928E-02 0.  1.
        1   -1    0    0  501    0  0.00000000000E+00  0.00000000000E+00 -0.33999039063E+03  0.33999039067E+03  0.50400001928E-02 0. -1.
    10030    2    1    2    0    0  0.00000000000E+00  0.00000000000E+00 -0.74417570402E+02  0.60556321095E+03  0.60097323374E+03 0.  0.
        3    1    3    3  502    0  0.29991473223E+03 -0.11801628617E+02 -0.51603256288E+02  0.30455053982E+03  0.10100000352E+00 0. -1.
       -3    1    3    3    0  502 -0.29991473223E+03  0.11801628617E+02 -0.22814314114E+02  0.30101267112E+03  0.10100000352E+00 0.  1.
</event>
<event>
 5   0  0.5765045E-03  0.6004364E+03  0.7818609E-02  0.9904501E-01
       -1   -1    0    0    0  501  0.00000000000E+00  0.00000000000E+00  0.10890182783E+03  0.10890182795E+03  0.50400001928E-02 0. -1.
        1   -1    0    0  501    0  0.00000000000E+00  0.00000000000E+00 -0.82763489733E+03  0.82763489734E+03  0.50400001928E-02 0.  1.
    10030    2    1    2    0    0  0.00000000000E+00  0.00000000000E+00 -0.71873306950E+03  0.93653672529E+03  0.60043635186E+03 0.  0.
        1    1    3    3  502    0 -0.27188360943E+02 -0.99930242500E+02 -0.79889160747E+03  0.80557622907E+03  0.50400001928E-02 0.  1.
       -1    1    3    3    0  502  0.27188360943E+02  0.99930242500E+02  0.80158537967E+02  0.13096049622E+03  0.50400001928E-02 0. -1.
</event>
<event>
 5   0  0.9303190E-03  0.5998540E+03  0.7818609E-02  0.9905709E-01
        2   -1    0    0  501    0  0.00000000000E+00  0.00000000000E+00  0.15401999424E+04  0.15401999424E+04  0.25500000920E-02 0.  1.
       -2   -1    0    0    0  501  0.00000000000E+00  0.00000000000E+00 -0.58405543039E+02  0.58405543094E+02  0.25500000920E-02 0. -1.
    10030    2    1    2    0    0  0.00000000000E+00  0.00000000000E+00  0.14817943994E+04  0.15986054855E+04  0.59985402915E+03 0.  0.
        4    1    3    3  502    0  0.11944209264E+03 -0.25962350396E+03  0.49834168856E+03  0.57447091202E+03  0.12699999809E+01 0. -1.
       -4    1    3    3    0  502 -0.11944209264E+03  0.25962350396E+03  0.98345271082E+03  0.10241345735E+04  0.12699999809E+01 0.  1.
</event>
<event>
 5   0  0.9391405E-03  0.5996120E+03  0.7818609E-02  0.9906211E-01
       -2   -1    0    0    0  501  0.00000000000E+00  0.00000000000E+00  0.10996736317E+03  0.10996736319E+03  0.25500000920E-02 0. -1.
        2   -1    0    0  501    0  0.00000000000E+00  0.00000000000E+00 -0.81736655673E+03  0.81736655673E+03  0.25500000920E-02 0.  1.
    10030    2    1    2    0    0  0.00000000000E+00  0.00000000000E+00 -0.70739919356E+03  0.92733391993E+03  0.59961202456E+03 0.  0.
        2    1    3    3  502    0  0.53826028890E+02  0.12512334814E+03  0.59351331541E+02  0.14857884842E+03  0.25500000920E-02 0. -1.
       -2    1    3    3    0  502 -0.53826028890E+02 -0.12512334814E+03 -0.76675052510E+03  0.77875507150E+03  0.25500000920E-02 0.  1.
</event>
<event>
 5   0  0.6078658E-03  0.5998677E+03  0.7818609E-02  0.9905681E-01
       -1   -1    0    0    0  501  0.00000000000E+00  0.00000000000E+00  0.24809147119E+03  0.24809147124E+03  0.50400001928E-02 0.  1.
        1   -1    0    0  501    0  0.00000000000E+00  0.00000000000E+00 -0.36260949231E+03  0.36260949235E+03  0.50400001928E-02 0. -1.
    10030    2    1    2    0    0  0.00000000000E+00  0.00000000000E+00 -0.11451802113E+03  0.61070096359E+03  0.59986772689E+03 0.  0.
        2    1    3    3  502    0 -0.45319254377E+02 -0.28057956593E+03 -0.15481011016E+03  0.32364316438E+03  0.25500000920E-02 0. -1.
       -2    1    3    3    0  502  0.45319254377E+02  0.28057956593E+03  0.40292089036E+02  0.28705779920E+03  0.25500000920E-02 0.  1.
</event>
<event>
 5   0  0.9391405E-03  0.6010747E+03  0.7818609E-02  0.9903179E-01
        2   -1    0    0  501    0  0.00000000000E+00  0.00000000000E+00  0.50169845473E+03  0.50169845473E+03  0.25500000920E-02 0. -1.
       -2   -1    0    0    0  501  0.00000000000E+00  0.00000000000E+00 -0.18003386499E+03  0.18003386501E+03  0.25500000920E-02 0.  1.
    10030    2    1    2    0    0  0.00000000000E+00  0.00000000000E+00  0.32166458973E+03  0.68173231975E+03  0.60107474369E+03 0.  0.
        2    1    3    3  502    0  0.12314238268E+03  0.18928969987E+03 -0.64092197147E+02  0.23473910333E+03  0.25500000920E-02 0.  1.
       -2    1    3    3    0  502 -0.12314238268E+03 -0.18928969987E+03  0.38575678688E+03  0.44699321641E+03  0.25500000920E-02 0. -1.
</event>
<event>
 5   0  0.6078658E-03  0.6001149E+03  0.7818609E-02  0.9905168E-01
       -1   -1    0    0    0  501  0.00000000000E+00  0.00000000000E+00  0.83874682718E+03  0.83874682719E+03  0.50400001928E-02 0.  1.
        1   -1    0    0  501    0  0.00000000000E+00  0.00000000000E+00 -0.10734402717E+03  0.10734402729E+03  0.50400001928E-02 0. -1.
    10030    2    1    2    0    0  0.00000000000E+00  0.00000000000E+00  0.73140280000E+03  0.94609085448E+03  0.60011486324E+03 0.  0.
        2    1    3    3  502    0  0.29497122683E+03  0.20752430501E+02  0.28537987972E+03  0.41095056124E+03  0.25500000920E-02 0.  1.
       -2    1    3    3    0  502 -0.29497122683E+03 -0.20752430501E+02  0.44602292028E+03  0.53514029324E+03  0.25500000920E-02 0. -1.
</event>
<event>
 5   0  0.5819446E-03  0.6000345E+03  0.7818609E-02  0.9905334E-01
       -1   -1    0    0    0  501  0.00000000000E+00  0.00000000000E+00  0.19202603500E+03  0.19202603507E+03  0.50400001928E-02 0. -1.
        1   -1    0    0  501    0  0.00000000000E+00  0.00000000000E+00 -0.46874035748E+03  0.46874035750E+03  0.50400001928E-02 0.  1.
    10030    2    1    2    0    0  0.00000000000E+00  0.00000000000E+00 -0.27671432248E+03  0.66076639257E+03  0.60003450674E+03 0.  0.
        5    1    3    3  502    0  0.69123613563E+02  0.25050951920E+02  0.18190994302E+03  0.19626243021E+03  0.46999998093E+01 0. -1.
       -5    1    3    3    0  502 -0.69123613563E+02 -0.25050951920E+02 -0.45862426550E+03  0.46450396236E+03  0.46999998093E+01 0.  1.
</event>
<event>
 5   0  0.5765045E-03  0.5986393E+03  0.7818609E-02  0.9908233E-01
        1   -1    0    0  501    0  0.00000000000E+00  0.00000000000E+00  0.84809338872E+03  0.84809338874E+03  0.50400001928E-02 0.  1.
       -1   -1    0    0    0  501  0.00000000000E+00  0.00000000000E+00 -0.10563959468E+03  0.10563959480E+03  0.50400001928E-02 0. -1.
    10030    2    1    2    0    0  0.00000000000E+00  0.00000000000E+00  0.74245379404E+03  0.95373298354E+03  0.59863926334E+03 0.  0.
        1    1    3    3  502    0 -0.20328621958E+03  0.18034908587E+03  0.57111180256E+03  0.63247116210E+03  0.50400001928E-02 0.  1.
       -1    1    3    3    0  502  0.20328621958E+03 -0.18034908587E+03  0.17134199148E+03  0.32126182144E+03  0.50400001928E-02 0. -1.
</event>
<event>
 5   0  0.9391405E-03  0.6000825E+03  0.7818609E-02  0.9905235E-01
       -2   -1    0    0    0  501  0.00000000000E+00  0.00000000000E+00  0.47046771315E+02  0.47046771384E+02  0.25500000920E-02 0. -1.
        2   -1    0    0  501    0  0.00000000000E+00  0.00000000000E+00 -0.19135157579E+04  0.19135157579E+04  0.25500000920E-02 0.  1.
    10030    2    1    2    0    0  0.00000000000E+00  0.00000000000E+00 -0.18664689865E+04  0.19605625292E+04  0.60008245546E+03 0.  0.
        2    1    3    3  502    0  0.55513093299E+02  0.18486062706E+03 -0.18271564897E+03  0.26578217275E+03  0.25500000920E-02 0. -1.
       -2    1    3    3    0  502 -0.55513093299E+02 -0.18486062706E+03 -0.16837533376E+04  0.16947803565E+04  0.25500000920E-02 0.  1.
</event>
<event>
 5   0  0.9303190E-03  0.6028486E+03  0.7818609E-02  0.9899514E-01
        2   -1    0    0  501    0  0.00000000000E+00  0.00000000000E+00  0.12729292356E+04  0.12729292356E+04  0.25500000920E-02 0. -1.
       -2   -1    0    0    0  501  0.00000000000E+00  0.00000000000E+00 -0.71376015485E+02  0.71376015531E+02  0.25500000920E-02 0.  1.
    10030    2    1    2    0    0  0.00000000000E+00  0.00000000000E+00  0.12015532201E+04  0.13443052511E+04  0.60284862732E+03 0.  0.
        4    1    3    3  502    0  0.21833513423E+03 -0.65332709007E+02  0.10406786797E+04  0.10653414106E+04  0.12699999809E+01 0. -1.
       -4    1    3    3    0  502 -0.21833513423E+03  0.65332709007E+02  0.16087454039E+03  0.27896384058E+03  0.12699999809E+01 0.  1.
</event>
<event>
 5   0  0.9028473E-03  0.6010617E+03  0.7818609E-02  0.9903206E-01
        2   -1    0    0  501    0  0.00000000000E+00  0.00000000000E+00  0.11821565040E+04  0.11821565040E+04  0.25500000920E-02 0.  1.
       -2   -1    0    0    0  501  0.00000000000E+00  0.00000000000E+00 -0.76401715410E+02  0.76401715452E+02  0.25500000920E-02 0. -1.
    10030    2    1    2    0    0  0.00000000000E+00  0.00000000000E+00  0.11057547886E+04  0.12585582195E+04  0.60106167677E+03 0.  0.
        1    1    3    3  502    0 -0.17100109830E+03 -0.12515795101E+03  0.99909209381E+03  0.10213182169E+04  0.50400001928E-02 0.  1.
       -1    1    3    3    0  502  0.17100109830E+03  0.12515795101E+03  0.10666269482E+03  0.23724000255E+03  0.50400001928E-02 0. -1.
</event>
<event>
 5   0  0.9028473E-03  0.6001459E+03  0.7818609E-02  0.9905103E-01
       -2   -1    0    0    0  501  0.00000000000E+00  0.00000000000E+00  0.51071193750E+02  0.51071193813E+02  0.25500000920E-02 0. -1.
        2   -1    0    0  501    0  0.00000000000E+00  0.00000000000E+00 -0.17631029670E+04  0.17631029670E+04  0.25500000920E-02 0.  1.
    10030    2    1    2    0    0  0.00000000000E+00  0.00000000000E+00 -0.17120317733E+04  0.18141741608E+04  0.60014589322E+03 0.  0.
        1    1    3    3  502    0 -0.26731650826E+03  0.69989921921E+02 -0.50236287656E+03  0.57334558909E+03  0.50400001928E-02 0. -1.
       -1    1    3    3    0  502  0.26731650826E+03 -0.69989921921E+02 -0.12096688967E+04  0.12408285717E+04  0.50400001928E-02 0.  1.
</event>
<event>
 5   0  0.3806250E-03  0.5985886E+03  0.7818609E-02  0.9908339E-01
        4   -1    0    0  501    0  0.00000000000E+00  0.00000000000E+00  0.87319566386E+02  0.87328801513E+02  0.12699999809E+01 0.  1.
       -4   -1    0    0    0  501  0.00000000000E+00  0.00000000000E+00 -0.10257897191E+04  0.10257905053E+04  0.12699999809E+01 0. -1.
    10030    2    1    2    0    0  0.00000000000E+00  0.00000000000E+00 -0.93847015273E+03  0.11131193068E+04  0.59858864307E+03 0.  0.
        3    1    3    3  502    0 -0.17914224312E+03 -0.24466055121E+02 -0.91276000953E+03  0.93049523176E+03  0.10100000352E+00 0. -1.
       -3    1    3    3    0  502  0.17914224312E+03  0.24466055121E+02 -0.25710143199E+02  0.18262407505E+03  0.10100000352E+00 0.  1.
</event>
<event>
 5   0  0.9162342E-03  0.6002758E+03  0.7818609E-02  0.9904834E-01
       -2   -1    0    0    0  501  0.00000000000E+00  0.00000000000E+00  0.10530483788E+03  0.10530483791E+03  0.25500000920E-02 0.  1.
        2   -1    0    0  501    0  0.00000000000E+00  0.00000000000E+00 -0.85544755800E+03  0.85544755801E+03  0.25500000920E-02 0. -1.
    10030    2    1    2    0    0  0.00000000000E+00  0.00000000000E+00 -0.75014272012E+03  0.96075239592E+03  0.60027582469E+03 0.  0.
        5    1    3    3  502    0  0.13810754361E+03  0.23338632158E+02 -0.79986436773E+03  0.81204894071E+03  0.46999998093E+01 0. -1.
       -5    1    3    3    0  502 -0.13810754361E+03 -0.23338632158E+02  0.49721647605E+02  0.14870345521E+03  0.46999998093E+01 0.  1.
</event>
<event>
 5   0  0.9028473E-03  0.5993950E+03  0.7818609E-02  0.9906662E-01
        2   -1    0    0  501    0  0.00000000000E+00  0.00000000000E+00  0.22951785837E+04  0.22951785837E+04  0.25500000920E-02 0. -1.
       -2   -1    0    0    0  501  0.00000000000E+00  0.00000000000E+00 -0.39133599580E+02  0.39133599663E+02  0.25500000920E-02 0.  1.
    10030    2    1    2    0    0  0.00000000000E+00  0.00000000000E+00  0.22560449841E+04  0.23343121833E+04  0.59939502753E+03 0.  0.
        1    1    3    3  502    0  0.11762429674E+02 -0.19242878159E+03  0.20216382116E+04  0.20308097521E+04  0.50400001928E-02 0. -1.
       -1    1    3    3    0  502 -0.11762429674E+02  0.19242878159E+03  0.23440677252E+03  0.30350243123E+03  0.50400001928E-02 0.  1.
</event>
<event>
 5   0  0.9162342E-03  0.5970728E+03  0.7818609E-02  0.9911498E-01
        2   -1    0    0  501    0  0.00000000000E+00  0.00000000000E+00  0.46786486189E+03  0.46786486190E+03  0.25500000920E-02 0.  1.
       -2   -1    0    0    0  501  0.00000000000E+00  0.00000000000E+00 -0.19049084098E+03  0.19049084100E+03  0.25500000920E-02 0. -1.
    10030    2    1    2    0    0  0.00000000000E+00  0.00000000000E+00  0.27737402091E+03  0.65835570290E+03  0.59707276279E+03 0.  0.
        5    1    3    3  502    0 -0.12045599546E+03  0.26173112810E+02  0.43844911101E+03  0.45547161450E+03  0.46999998093E+01 0.  1.
       -5    1    3    3    0  502  0.12045599546E+03 -0.26173112810E+02 -0.16107509010E+03  0.20288408840E+03  0.46999998093E+01 0. -1.
</event>
<event>
 5   0  0.9303190E-03  0.5999483E+03  0.7818609E-02  0.9905513E-01
       -2   -1    0    0    0  501  0.00000000000E+00  0.00000000000E+00  0.87636456564E+02  0.87636456601E+02  0.25500000920E-02 0.  1.
        2   -1    0    0  501    0  0.00000000000E+00  0.00000000000E+00 -0.10267930589E+04  0.10267930589E+04  0.25500000920E-02 0. -1.
    10030    2    1    2    0    0  0.00000000000E+00  0.00000000000E+00 -0.93915660235E+03  0.11144295155E+04  0.59994834888E+03 0.  0.
        4    1    3    3  502    0 -0.25648881932E+03  0.15401073348E+03 -0.42900590188E+03  0.52302341938E+03  0.12699999809E+01 0.  1.
       -4    1    3    3    0  502  0.25648881932E+03 -0.15401073348E+03 -0.51015070047E+03  0.59140609614E+03  0.12699999809E+01 0. -1.
</event>
<event>
 5   0  0.5765045E-03  0.6010897E+03  0.7818609E-02  0.9903148E-01
        1   -1    0    0  501    0  0.00000000000E+00  0.00000000000E+00  0.10955961994E+03  0.10955962006E+03  0.50400001928E-02 0. -1.
       -1   -1    0    0    0  501  0.00000000000E+00  0.00000000000E+00 -0.82445703434E+03  0.82445703436E+03  0.50400001928E-02 0.  1.
    10030    2    1    2    0    0  0.00000000000E+00  0.00000000000E+00 -0.71489741440E+03  0.93401665441E+03  0.60108967518E+03 0.  0.
        1    1    3    3  502    0  0.14362918203E+02  0.28085346550E+03 -0.52220488867E+03  0.59311289674E+03  0.50400001928E-02 0.  1.
       -1    1    3    3    0  502 -0.14362918203E+02 -0.28085346550E+03 -0.19269252573E+03  0.34090375768E+03  0.50400001928E-02 0. -1.
</event>
<event>
 5   0  0.9822607E-03  0.5991355E+03  0.7818609E-02  0.9907201E-01
       -2   -1    0    0    0  501  0.00000000000E+00  0.00000000000E+00  0.72575289339E+02  0.72575289384E+02  0.25500000920E-02 0. -1.
        2   -1    0    0  501    0  0.00000000000E+00  0.00000000000E+00 -0.12365205224E+04  0.12365205224E+04  0.25500000920E-02 0.  1.
    10030    2    1    2    0    0  0.00000000000E+00  0.00000000000E+00 -0.11639452331E+04  0.13090958118E+04  0.59913549293E+03 0.  0.
        3    1    3    3  502    0 -0.22593303422E+03 -0.13774176734E+03 -0.88882189099E+03  0.92737419337E+03  0.10100000352E+00 0. -1.
       -3    1    3    3    0  502  0.22593303422E+03  0.13774176734E+03 -0.27512334211E+03  0.38172161846E+03  0.10100000352E+00 0.  1.
</event>
<event>
 5   0  0.9028473E-03  0.5991976E+03  0.7818609E-02  0.9907072E-01
        2   -1    0    0  501    0  0.00000000000E+00  0.00000000000E+00  0.10569184231E+04  0.10569184231E+04  0.25500000920E-02 0. -1.
       -2   -1    0    0    0  501  0.00000000000E+00  0.00000000000E+00 -0.84925617067E+02  0.84925617105E+02  0.25500000920E-02 0.  1.
    10030    2    1    2    0    0  0.00000000000E+00  0.00000000000E+00  0.97199280603E+03  0.11418440402E+04  0.59919762781E+03 0.  0.
        1    1    3    3  502    0 -0.16084748862E+03 -0.20536549729E+03  0.20519964333E+03  0.33189425382E+03  0.50400001928E-02 0.  1.
       -1    1    3    3    0  502  0.16084748862E+03  0.20536549729E+03  0.76679316270E+03  0.80994978639E+03  0.50400001928E-02 0. -1.
</event>
<event>
 5   0  0.5891927E-03  0.5991343E+03  0.7818609E-02  0.9907204E-01
        1   -1    0    0  501    0  0.00000000000E+00  0.00000000000E+00  0.11601337282E+04  0.11601337282E+04  0.50400001928E-02 0. -1.
       -1   -1    0    0    0  501  0.00000000000E+00  0.00000000000E+00 -0.77353570629E+02  0.77353570793E+02  0.50400001928E-02 0.  1.
    10030    2    1    2    0    0  0.00000000000E+00  0.00000000000E+00  0.10827801576E+04  0.12374872990E+04  0.59913433016E+03 0.  0.
        4    1    3    3  502    0  0.16548815427E+03  0.14753075499E+03  0.95750299938E+03  0.98283531662E+03  0.12699999809E+01 0. -1.
       -4    1    3    3    0  502 -0.16548815427E+03 -0.14753075499E+03  0.12527715820E+03  0.25465198240E+03  0.12699999809E+01 0.  1.
</event>
<event>
 5   0  0.9822607E-03  0.5999733E+03  0.7818609E-02  0.9905461E-01
        2   -1    0    0  501    0  0.00000000000E+00  0.00000000000E+00  0.10148545782E+04  0.10148545782E+04  0.25500000920E-02 0. -1.
       -2   -1    0    0    0  501  0.00000000000E+00  0.00000000000E+00 -0.88674770047E+02  0.88674770084E+02  0.25500000920E-02 0.  1.
    10030    2    1    2    0    0  0.00000000000E+00  0.00000000000E+00  0.92617980815E+03  0.11035293483E+04  0.59997332065E+03 0.  0.
        3    1    3    3  502    0 -0.23761873742E+03 -0.17142943271E+03  0.34472613242E+03  0.45242328780E+03  0.10100000352E+00 0. -1.
       -3    1    3    3    0  502  0.23761873742E+03  0.17142943271E+03  0.58145367573E+03  0.65110606048E+03  0.10100000352E+00 0.  1.
</event>
<event>
 5   0  0.9028473E-03  0.6004904E+03  0.7818609E-02  0.9904389E-01
       -2   -1    0    0    0  501  0.00000000000E+00  0.00000000000E+00  0.13338638811E+03  0.13338638814E+03  0.25500000920E-02 0. -1.
        2   -1    0    0  501    0  0.00000000000E+00  0.00000000000E+00 -0.67583485462E+03  0.67583485463E+03  0.25500000920E-02 0.  1.
    10030    2    1    2    0    0  0.00000000000E+00  0.00000000000E+00 -0.54244846651E+03  0.80922124277E+03  0.60049036705E+03 0.  0.
        1    1    3    3  502    0  0.13796929444E+03  0.26331982833E+03 -0.21445981053E+03  0.36655950207E+03  0.50400001928E-02 0. -1.
       -1    1    3    3    0  502 -0.13796929444E+03 -0.26331982833E+03 -0.32798865598E+03  0.44266174069E+03  0.50400001928E-02 0.  1.
</event>
<event>
 5   0  0.6078658E-03  0.5995952E+03  0.7818609E-02  0.9906246E-01
        1   -1    0    0  501    0  0.00000000000E+00  0.00000000000E+00  0.67203969795E+03  0.67203969797E+03  0.50400001928E-02 0.  1.
       -1   -1    0    0    0  501  0.00000000000E+00  0.00000000000E+00 -0.13374000563E+03  0.13374000573E+03  0.50400001928E-02 0. -1.
    10030    2    1    2    0    0  0.00000000000E+00  0.00000000000E+00  0.53829969232E+03  0.80577970370E+03  0.59959517355E+03 0.  0.
        2    1    3    3  502    0 -0.10942767567E+03  0.22182833469E+03  0.41497750388E+02  0.25080727575E+03  0.25500000920E-02 0. -1.
       -2    1    3    3    0  502  0.10942767567E+03 -0.22182833469E+03  0.49680194193E+03  0.55497242795E+03  0.25500000920E-02 0.  1.
</event>
<event>
 5   0  0.9162342E-03  0.6016377E+03  0.7818609E-02  0.9902014E-01
       -2   -1    0    0    0  501  0.00000000000E+00  0.00000000000E+00  0.26434416952E+03  0.26434416953E+03  0.25500000920E-02 0. -1.
        2   -1    0    0  501    0  0.00000000000E+00  0.00000000000E+00 -0.34232637736E+03  0.34232637737E+03  0.25500000920E-02 0.  1.
    10030    2    1    2    0    0  0.00000000000E+00  0.00000000000E+00 -0.77982207846E+02  0.60667054690E+03  0.60163770472E+03 0.  0.
        5    1    3    3  502    0 -0.22179951619E+03  0.17716273944E+03 -0.13926252082E+03  0.31622428960E+03  0.46999998093E+01 0.  1.
       -5    1    3    3    0  502  0.22179951619E+03 -0.17716273944E+03  0.61280312971E+02  0.29044625731E+03  0.46999998093E+01 0. -1.
</event>
<event>
 5   0  0.5765045E-03  0.5991250E+03  0.7818609E-02  0.9907223E-01
        1   -1    0    0  501    0  0.00000000000E+00  0.00000000000E+00  0.10600982354E+04  0.10600982354E+04  0.50400001928E-02 0.  1.
       -1   -1    0    0    0  501  0.00000000000E+00  0.00000000000E+00 -0.84650354685E+02  0.84650354835E+02  0.50400001928E-02 0. -1.
    10030    2    1    2    0    0  0.00000000000E+00  0.00000000000E+00  0.97544788069E+03  0.11447485902E+04  0.59912500104E+03 0.  0.
        1    1    3    3  502    0 -0.85308121709E+02  0.32184848597E+02 -0.57493612303E+02  0.10779079548E+03  0.50400001928E-02 0. -1.
       -1    1    3    3    0  502  0.85308121709E+02 -0.32184848597E+02  0.10329414930E+04  0.10369577947E+04  0.50400001928E-02 0.  1.
</event>
<event>
 5   0  0.9028473E-03  0.6003813E+03  0.7818609E-02  0.9904615E-01
        2   -1    0    0  501    0  0.00000000000E+00  0.00000000000E+00  0.88976256261E+03  0.88976256262E+03  0.25500000920E-02 0.  1.
       -2   -1    0    0    0  501  0.00000000000E+00  0.00000000000E+00 -0.10127917486E+03  0.10127917490E+03  0.25500000920E-02 0. -1.
    10030    2    1    2    0    0  0.00000000000E+00  0.00000000000E+00  0.78848338775E+03  0.99104173752E+03  0.60038127281E+03 0.  0.
        1    1    3    3  502    0 -0.20142103641E+03  0.37365135793E+02  0.75644563461E+03  0.78369419127E+03  0.50400001928E-02 0.  1.
       -1    1    3    3    0  502  0.20142103641E+03 -0.37365135793E+02  0.32037753140E+02  0.20734754625E+03  0.50400001928E-02 0. -1.
</event>
<event>
 5   0  0.9391405E-03  0.5978116E+03  0.7818609E-02  0.9909957E-01
        2   -1    0    0  501    0  0.00000000000E+00  0.00000000000E+00  0.14805053282E+04  0.14805053282E+04  0.25500000920E-02 0. -1.
       -2   -1    0    0    0  501  0.00000000000E+00  0.00000000000E+00 -0.60347422769E+02  0.60347422823E+02  0.25500000920E-02 0.  1.
    10030    2    1    2    0    0  0.00000000000E+00  0.00000000000E+00  0.14201579054E+04  0.15408527510E+04  0.59781161245E+03 0.  0.
        2    1    3    3  502    0  0.29148520848E+03  0.65291215053E+02  0.68206703664E+03  0.74460863009E+03  0.25500000920E-02 0. -1.
       -2    1    3    3    0  502 -0.29148520848E+03 -0.65291215053E+02  0.73809086876E+03  0.79624412091E+03  0.25500000920E-02 0.  1.
</event>
<event>
 5   0  0.5819446E-03  0.5988251E+03  0.7818609E-02  0.9907847E-01
       -1   -1    0    0    0  501  0.00000000000E+00  0.00000000000E+00  0.60066090179E+02  0.60066090390E+02  0.50400001928E-02 0. -1.
        1   -1    0    0  501    0  0.00000000000E+00  0.00000000000E+00 -0.14924873779E+04  0.14924873779E+04  0.50400001928E-02 0.  1.
    10030    2    1    2    0    0  0.00000000000E+00  0.00000000000E+00 -0.14324212877E+04  0.15525534683E+04  0.59882512173E+03 0.  0.
        5    1    3    3  502    0  0.10250247567E+03 -0.24062378650E+02 -0.14428051376E+04  0.14466494083E+04  0.46999998093E+01 0.  1.
       -5    1    3    3    0  502 -0.10250247567E+03  0.24062378650E+02  0.10383849847E+02  0.10590405998E+03  0.46999998093E+01 0. -1.
</event>
<event>
 5   0  0.5790967E-03  0.6009250E+03  0.7818609E-02  0.9903489E-01
        1   -1    0    0  501    0  0.00000000000E+00  0.00000000000E+00  0.91788101477E+03  0.91788101479E+03  0.50400001928E-02 0. -1.
       -1   -1    0    0    0  501  0.00000000000E+00  0.00000000000E+00 -0.98354484053E+02  0.98354484182E+02  0.50400001928E-02 0.  1.
    10030    2    1    2    0    0  0.00000000000E+00  0.00000000000E+00  0.81952653072E+03  0.10162354990E+04  0.60092499932E+03 0.  0.
        3    1    3    3  502    0 -0.24307596635E+03 -0.11255784272E+03  0.17960635954E+03  0.32251146951E+03  0.10100000352E+00 0.  1.
       -3    1    3    3    0  502  0.24307596635E+03  0.11255784272E+03  0.63992017118E+03  0.69372402946E+03  0.10100000352E+00 0. -1.
</event>
<event>
 5   0  0.9028473E-03  0.5993571E+03  0.7818609E-02  0.9906741E-01
        2   -1    0    0  501    0  0.00000000000E+00  0.00000000000E+00  0.32936212226E+03  0.32936212227E+03  0.25500000920E-02 0.  1.
       -2   -1    0    0    0  501  0.00000000000E+00  0.00000000000E+00 -0.27267015443E+03  0.27267015444E+03  0.25500000920E-02 0. -1.
    10030    2    1    2    0    0  0.00000000000E+00  0.00000000000E+00  0.56691967830E+02  0.60203227671E+03  0.59935705800E+03 0.  0.
        1    1    3    3  502    0  0.26336934079E+03 -0.13321156667E+03 -0.23832868400E+02  0.29610257818E+03  0.50400001928E-02 0. -1.
       -1    1    3    3    0  502 -0.26336934079E+03  0.13321156667E+03  0.80524836230E+02  0.30592969852E+03  0.50400001928E-02 0.  1.
</event>
<event>
 5   0  0.9162342E-03  0.6009829E+03  0.7818609E-02  0.9903369E-01
        2   -1    0    0  501    0  0.00000000000E+00  0.00000000000E+00  0.11527610605E+04  0.11527610605E+04  0.25500000920E-02 0.  1.
       -2   -1    0    0    0  501  0.00000000000E+00  0.00000000000E+00 -0.78329422601E+02  0.78329422643E+02  0.25500000920E-02 0. -1.
    10030    2    1    2    0    0  0.00000000000E+00  0.00000000000E+00  0.10744316379E+04  0.12310904831E+04  0.60098288925E+03 0.  0.
        5    1    3    3  502    0  0.34161886269E+02 -0.29593003959E+03  0.61737837357E+03  0.68550694304E+03  0.46999998093E+01 0.  1.
       -5    1    3    3    0  502 -0.34161886269E+02  0.29593003959E+03  0.45705326433E+03  0.54558354011E+03  0.46999998093E+01 0. -1.
</event>
<event>
 5   0  0.5819446E-03  0.5995054E+03  0.7818609E-02  0.9906433E-01
       -1   -1    0    0    0  501  0.00000000000E+00  0.00000000000E+00  0.15663658491E+03  0.15663658499E+03  0.50400001928E-02 0.  1.
        1   -1    0    0  501    0  0.00000000000E+00  0.00000000000E+00 -0.57363155802E+03  0.57363155805E+03  0.50400001928E-02 0. -1.
    10030    2    1    2    0    0  0.00000000000E+00  0.00000000000E+00 -0.41699497312E+03  0.73026814303E+03  0.59950542377E+03 0.  0.
        5    1    3    3  502    0 -0.13927907683E+03  0.26496997930E+03 -0.19035419292E+03  0.35477395611E+03  0.46999998093E+01 0. -1.
       -5    1    3    3    0  502  0.13927907683E+03 -0.26496997930E+03 -0.22664078019E+03  0.37549418693E+03  0.46999998093E+01 0.  1.
</event>
<event>
 5   0  0.9028473E-03  0.5998907E+03  0.7818609E-02  0.9905633E-01
       -2   -1    0    0    0  501  0.00000000000E+00  0.00000000000E+00  0.13916991416E+03  0.13916991418E+03  0.25500000920E-02 0. -1.
        2   -1    0    0  501    0  0.00000000000E+00  0.00000000000E+00 -0.64645592609E+03  0.64645592609E+03  0.25500000920E-02 0.  1.
    10030    2    1    2    0    0  0.00000000000E+00  0.00000000000E+00 -0.50728601193E+03  0.78562584027E+03  0.59989070922E+03 0.  0.
        1    1    3    3  502    0 -0.91910151060E+02  0.88483362401E+02  0.10186483359E+03  0.16325815642E+03  0.50400001928E-02 0. -1.
       -1    1    3    3    0  502  0.91910151060E+02 -0.88483362401E+02 -0.60915084551E+03  0.62236768385E+03  0.50400001928E-02 0.  1.
</event>
<event>
 5   0  0.5891927E-03  0.5970258E+03  0.7818609E-02  0.9911596E-01
       -1   -1    0    0    0  501  0.00000000000E+00  0.00000000000E+00  0.26520194454E+03  0.26520194459E+03  0.50400001928E-02 0.  1.
        1   -1    0    0  501    0  0.00000000000E+00  0.00000000000E+00 -0.33600789328E+03  0.33600789332E+03  0.50400001928E-02 0. -1.
    10030    2    1    2    0    0  0.00000000000E+00  0.00000000000E+00 -0.70805948747E+02  0.60120983791E+03  0.59702578405E+03 0.  0.
        4    1    3    3  502    0  0.32932777603E+02 -0.70634992111E+02  0.25477348937E+03  0.26643012918E+03  0.12699999809E+01 0.  1.
       -4    1    3    3    0  502 -0.32932777603E+02  0.70634992111E+02 -0.32557943812E+03  0.33477970873E+03  0.12699999809E+01 0. -1.
</event>
<event>
 5   0  0.9822607E-03  0.5997720E+03  0.7818609E-02  0.9905879E-01
       -2   -1    0    0    0  501  0.00000000000E+00  0.00000000000E+00  0.10885770965E+03  0.10885770968E+03  0.25500000920E-02 0.  1.
        2   -1    0    0  501    0  0.00000000000E+00  0.00000000000E+00 -0.82613909998E+03  0.82613909998E+03  0.25500000920E-02 0. -1.
    10030    2    1    2    0    0  0.00000000000E+00  0.00000000000E+00 -0.71728139033E+03  0.93499680967E+03  0.59977199100E+03 0.  0.
        3    1    3    3  502    0 -0.10160746920E+03 -0.21124792154E+03 -0.67069068222E+02  0.24381967161E+03  0.10100000352E+00 0.  1.
       -3    1    3    3    0  502  0.10160746920E+03  0.21124792154E+03 -0.65021232210E+03  0.69117713806E+03  0.10100000352E+00 0. -1.
</event>
<event>
 5   0  0.3806250E-03  0.5993401E+03  0.7818609E-02  0.9906776E-01
       -3   -1    0    0    0  501  0.00000000000E+00  0.00000000000E+00  0.25636625479E+03  0.25636627469E+03  0.10100000352E+00 0. -1.
        3   -1    0    0  501    0  0.00000000000E+00  0.00000000000E+00 -0.35028842696E+03  0.35028844152E+03  0.10100000352E+00 0.  1.
    10030    2    1    2    0    0  0.00000000000E+00  0.00000000000E+00 -0.93922172168E+02  0.60665471621E+03  0.59934011236E+03 0.  0.
        3    1    3    3  502    0 -0.29786382658E+03 -0.88206906327E+01 -0.14928876184E+02  0.29836813723E+03  0.10100000352E+00 0.  1.
       -3    1    3    3    0  502  0.29786382658E+03  0.88206906327E+01 -0.78993295985E+02  0.30828657898E+03  0.10100000352E+00 0. -1.
</event>
<event>
 5   0  0.9303190E-03  0.5995615E+03  0.7818609E-02  0.9906316E-01
       -2   -1    0    0    0  501  0.00000000000E+00  0.00000000000E+00  0.19216076898E+03  0.19216076900E+03  0.25500000920E-02 0. -1.
        2   -1    0    0  501    0  0.00000000000E+00  0.00000000000E+00 -0.46767341883E+03  0.46767341883E+03  0.25500000920E-02 0.  1.
    10030    2    1    2    0    0  0.00000000000E+00  0.00000000000E+00 -0.27551264984E+03  0.65983418783E+03  0.59956145241E+03 0.  0.
        4    1    3    3  502    0 -0.81102107645E+01  0.21588849472E+03 -0.36647891931E+03  0.42541982660E+03  0.12699999809E+01 0.  1.
       -4    1    3    3    0  502  0.81102107645E+01 -0.21588849472E+03  0.90966269466E+02  0.23441436123E+03  0.12699999809E+01 0. -1.
</event>
<event>
 5   0  0.9391405E-03  0.5998160E+03  0.7818609E-02  0.9905788E-01
        2   -1    0    0  501    0  0.00000000000E+00  0.00000000000E+00  0.17457103316E+04  0.17457103316E+04  0.25500000920E-02 0. -1.
       -2   -1    0    0    0  501  0.00000000000E+00  0.00000000000E+00 -0.51523333552E+02  0.51523333615E+02  0.25500000920E-02 0.  1.
    10030    2    1    2    0    0  0.00000000000E+00  0.00000000000E+00  0.16941869981E+04  0.17972336653E+04  0.59981602433E+03 0.  0.
        2    1    3    3  502    0  0.29773177619E+03  0.29369798235E+02  0.78438397166E+03  0.83950283537E+03  0.25500000920E-02 0.  1.
       -2    1    3    3    0  502 -0.29773177619E+03 -0.29369798235E+02  0.90980302643E+03  0.95773082988E+03  0.25500000920E-02 0. -1.
</event>
<event>
 5   0  0.9391405E-03  0.5993194E+03  0.7818609E-02  0.9906819E-01
       -2   -1    0    0    0  501  0.00000000000E+00  0.00000000000E+00  0.78516707948E+02  0.78516707990E+02  0.25500000920E-02 0.  1.
        2   -1    0    0  501    0  0.00000000000E+00  0.00000000000E+00 -0.11436539235E+04  0.11436539235E+04  0.25500000920E-02 0. -1.
    10030    2    1    2    0    0  0.00000000000E+00  0.00000000000E+00 -0.10651372156E+04  0.12221706315E+04  0.59931941779E+03 0.  0.
        2    1    3    3  502    0 -0.28898900568E+03  0.47330296730E+02 -0.40293268164E+03  0.49810596095E+03  0.25500000920E-02 0.  1.
       -2    1    3    3    0  502  0.28898900568E+03 -0.47330296730E+02 -0.66220453394E+03  0.72406467057E+03  0.25500000920E-02 0. -1.
</event>
<event>
 5   0  0.9028473E-03  0.6001774E+03  0.7818609E-02  0.9905038E-01
       -2   -1    0    0    0  501  0.00000000000E+00  0.00000000000E+00  0.40334291549E+02  0.40334291630E+02  0.25500000920E-02 0.  1.
        2   -1    0    0  501    0  0.00000000000E+00  0.00000000000E+00 -0.22326718415E+04  0.22326718415E+04  0.25500000920E-02 0. -1.
    10030    2    1    2    0    0  0.00000000000E+00  0.00000000000E+00 -0.21923375500E+04  0.22730061332E+04  0.60017743071E+03 0.  0.
        1    1    3    3  502    0  0.24530000063E+03 -0.17132195325E+03 -0.10089856796E+04  0.10524140837E+04  0.50400001928E-02 0. -1.
       -1    1    3    3    0  502 -0.24530000063E+03  0.17132195325E+03 -0.11833518704E+04  0.12205920495E+04  0.50400001928E-02 0.  1.
</event>
<event>
 5   0  0.5819446E-03  0.6016442E+03  0.7818609E-02  0.9902001E-01
       -1   -1    0    0    0  501  0.00000000000E+00  0.00000000000E+00  0.12836482617E+03  0.12836482627E+03  0.50400001928E-02 0.  1.
        1   -1    0    0  501    0  0.00000000000E+00  0.00000000000E+00 -0.70497462427E+03  0.70497462429E+03  0.50400001928E-02 0. -1.
    10030    2    1    2    0    0  0.00000000000E+00  0.00000000000E+00 -0.57660979810E+03  0.83333945056E+03  0.60164423092E+03 0.  0.
        5    1    3    3  502    0  0.27988165717E+03 -0.60992714133E+02 -0.16122212205E+03  0.32873776150E+03  0.46999998093E+01 0.  1.
       -5    1    3    3    0  502 -0.27988165717E+03  0.60992714133E+02 -0.41538767604E+03  0.50460168906E+03  0.46999998093E+01 0. -1.
</event>
<event>
 5   0  0.5765045E-03  0.5997355E+03  0.7818609E-02  0.9905955E-01
        1   -1    0    0  501    0  0.00000000000E+00  0.00000000000E+00  0.96915152697E+03  0.96915152698E+03  0.50400001928E-02 0. -1.
       -1   -1    0    0    0  501  0.00000000000E+00  0.00000000000E+00 -0.92782867147E+02  0.92782867284E+02  0.50400001928E-02 0.  1.
    10030    2    1    2    0    0  0.00000000000E+00  0.00000000000E+00  0.87636865982E+03  0.10619343943E+04  0.59973546652E+03 0.  0.
        1    1    3    3  502    0 -0.19295991307E+03  0.17092609660E+03  0.70945787419E+03  0.75483755460E+03  0.50400001928E-02 0. -1.
       -1    1    3    3    0  502  0.19295991307E+03 -0.17092609660E+03  0.16691078563E+03  0.30709683967E+03  0.50400001928E-02 0.  1.
</event>
<event>
 5   0  0.9028473E-03  0.5989173E+03  0.7818609E-02  0.9907655E-01
       -2   -1    0    0    0  501  0.00000000000E+00  0.00000000000E+00  0.11959086191E+03  0.11959086193E+03  0.25500000920E-02 0.  1.
        2   -1    0    0  501    0  0.00000000000E+00  0.00000000000E+00 -0.74985242444E+03  0.74985242444E+03  0.25500000920E-02 0. -1.
    10030    2    1    2    0    0  0.00000000000E+00  0.00000000000E+00 -0.63026156253E+03  0.86944328637E+03  0.59891734907E+03 0.  0.
        1    1    3    3  502    0  0.13931959669E+03 -0.10004522311E+03  0.41218854685E+02  0.17640292145E+03  0.50400001928E-02 0.  1.
       -1    1    3    3    0  502 -0.13931959669E+03  0.10004522311E+03 -0.67148041722E+03  0.69304036493E+03  0.50400001928E-02 0. -1.
</event>
<event>
 5   0  0.6078658E-03  0.5998861E+03  0.7818609E-02  0.9905642E-01
        1   -1    0    0  501    0  0.00000000000E+00  0.00000000000E+00  0.26381392355E+03  0.26381392360E+03  0.50400001928E-02 0. -1.
       -1   -1    0    0    0  501  0.00000000000E+00  0.00000000000E+00 -0.34102003930E+03  0.34102003934E+03  0.50400001928E-02 0.  1.
    10030    2    1    2    0    0  0.00000000000E+00  0.00000000000E+00 -0.77206115755E+02  0.60483396294E+03  0.59988610453E+03 0.  0.
        2    1    3    3  502    0 -0.53384726234E+01 -0.23878879978E+03 -0.22153060192E+03  0.32576739829E+03  0.25500000920E-02 0.  1.
       -2    1    3    3    0  502  0.53384726234E+01  0.23878879978E+03  0.14432448617E+03  0.27906656465E+03  0.25500000920E-02 0. -1.
</event>
<event>
 5   0  0.5790967E-03  0.6003005E+03  0.7818609E-02  0.9904783E-01
        1   -1    0    0  501    0  0.00000000000E+00  0.00000000000E+00  0.25365062778E+03  0.25365062783E+03  0.50400001928E-02 0. -1.
       -1   -1    0    0    0  501  0.00000000000E+00  0.00000000000E+00 -0.35517420075E+03  0.35517420079E+03  0.50400001928E-02 0.  1.
    10030    2    1    2    0    0  0.00000000000E+00  0.00000000000E+00 -0.10152357297E+03  0.60882482862E+03  0.60030045484E+03 0.  0.
        3    1    3    3  502    0 -0.32819458624E+02 -0.12997617797E+03  0.22160190306E+03  0.25899485969E+03  0.10100000352E+00 0. -1.
       -3    1    3    3    0  502  0.32819458624E+02  0.12997617797E+03 -0.32312547603E+03  0.34982996894E+03  0.10100000352E+00 0.  1.
</event>
<event>
 5   0  0.5891927E-03  0.5999999E+03  0.7818609E-02  0.9905406E-01
        1   -1    0    0  501    0  0.00000000000E+00  0.00000000000E+00  0.55340606059E+03  0.55340606062E+03  0.50400001928E-02 0.  1.
       -1   -1    0    0    0  501  0.00000000000E+00  0.00000000000E+00 -0.16262915515E+03  0.16262915523E+03  0.50400001928E-02 0. -1.
    10030    2    1    2    0    0  0.00000000000E+00  0.00000000000E+00  0.39077690544E+03  0.71603521585E+03  0.59999986709E+03 0.  0.
        4    1    3    3  502    0 -0.46147973654E+01  0.24094660693E+03  0.40860789438E+03  0.47438232260E+03  0.12699999809E+01 0.  1.
       -4    1    3    3    0  502  0.46147973654E+01 -0.24094660693E+03 -0.17830988935E+02  0.24165289325E+03  0.12699999809E+01 0. -1.
</event>
<event>
 5   0  0.9028473E-03  0.5923137E+03  0.7818609E-02  0.9921482E-01
        2   -1    0    0  501    0  0.00000000000E+00  0.00000000000E+00  0.33399884178E+03  0.33399884179E+03  0.25500000920E-02 0. -1.
       -2   -1    0    0    0  501  0.00000000000E+00  0.00000000000E+00 -0.26260232092E+03  0.26260232094E+03  0.25500000920E-02 0.  1.
    10030    2    1    2    0    0  0.00000000000E+00  0.00000000000E+00  0.71396520854E+02  0.59660116272E+03  0.59231367043E+03 0.  0.
        1    1    3    3  502    0  0.48623131448E+02 -0.27779889854E+03 -0.55357631374E+02  0.28740373053E+03  0.50400001928E-02 0.  1.
       -1    1    3    3    0  502 -0.48623131448E+02  0.27779889854E+03  0.12675415223E+03  0.30919743220E+03  0.50400001928E-02 0. -1.
</event>
<event>
 5   0  0.6078658E-03  0.6000840E+03  0.7818609E-02  0.9905232E-01
       -1   -1    0    0    0  501  0.00000000000E+00  0.00000000000E+00  0.15827321894E+03  0.15827321902E+03  0.50400001928E-02 0.  1.
        1   -1    0    0  501    0  0.00000000000E+00  0.00000000000E+00 -0.56879609646E+03  0.56879609648E+03  0.50400001928E-02 0. -1.
    10030    2    1    2    0    0  0.00000000000E+00  0.00000000000E+00 -0.41052287752E+03  0.72706931550E+03  0.60008395793E+03 0.  0.
        2    1    3    3  502    0  0.42504919818E+02 -0.25799898362E+03 -0.38355815664E+03  0.46420577688E+03  0.25500000920E-02 0.  1.
       -2    1    3    3    0  502 -0.42504919818E+02  0.25799898362E+03 -0.26964720884E+02  0.26286353862E+03  0.25500000920E-02 0. -1.
</event>
<event>
 5   0  0.5790967E-03  0.6012506E+03  0.7818609E-02  0.9902815E-01
        1   -1    0    0  501    0  0.00000000000E+00  0.00000000000E+00  0.39277659688E+03  0.39277659691E+03  0.50400001928E-02 0.  1.
       -1   -1    0    0    0  501  0.00000000000E+00  0.00000000000E+00 -0.23009410647E+03  0.23009410653E+03  0.50400001928E-02 0. -1.
    10030    2    1    2    0    0  0.00000000000E+00  0.00000000000E+00  0.16268249041E+03  0.62287070344E+03  0.60125063037E+03 0.  0.
        3    1    3    3  502    0 -0.24202345287E+03 -0.69835107951E+02 -0.88642076021E+02  0.26703880221E+03  0.10100000352E+00 0. -1.
       -3    1    3    3    0  502  0.24202345287E+03  0.69835107951E+02  0.25132456643E+03  0.35583190123E+03  0.10100000352E+00 0.  1.
</event>
<event>
 5   0  0.5819446E-03  0.5995881E+03  0.7818609E-02  0.9906261E-01
       -1   -1    0    0    0  501  0.00000000000E+00  0.00000000000E+00  0.99939385825E+03  0.99939385826E+03  0.50400001928E-02 0.  1.
        1   -1    0    0  501    0  0.00000000000E+00  0.00000000000E+00 -0.89930995564E+02  0.89930995705E+02  0.50400001928E-02 0. -1.
    10030    2    1    2    0    0  0.00000000000E+00  0.00000000000E+00  0.90946286269E+03  0.10893248540E+04  0.59958814103E+03 0.  0.
        5    1    3    3  502    0  0.56523625808E+02 -0.46829775738E+02 -0.73283848030E+02  0.10382947823E+03  0.46999998093E+01 0. -1.
       -5    1    3    3    0  502 -0.56523625808E+02  0.46829775738E+02  0.98274671071E+03  0.98549537573E+03  0.46999998093E+01 0.  1.
</event>
<event>
 5   0  0.9028473E-03  0.5992368E+03  0.7818609E-02  0.9906991E-01
        2   -1    0    0  501    0  0.00000000000E+00  0.00000000000E+00  0.16055691821E+04  0.16055691821E+04  0.25500000920E-02 0.  1.
       -2   -1    0    0    0  501  0.00000000000E+00  0.00000000000E+00 -0.55912382613E+02  0.55912382671E+02  0.25500000920E-02 0. -1.
    10030    2    1    2    0    0  0.00000000000E+00  0.00000000000E+00  0.15496567995E+04  0.16614815648E+04  0.59923684290E+03 0.  0.
        1    1    3    3  502    0  0.23830318520E+03  0.37593167613E+02  0.12674701050E+04  0.12902256087E+04  0.50400001928E-02 0.  1.
       -1    1    3    3    0  502 -0.23830318520E+03 -0.37593167613E+02  0.28218669450E+03  0.37125595606E+03  0.50400001928E-02 0. -1.
</event>
<event>
 5   0  0.3806250E-03  0.6009553E+03  0.7818609E-02  0.9903426E-01
       -3   -1    0    0    0  501  0.00000000000E+00  0.00000000000E+00  0.67900940732E+03  0.67900941483E+03  0.10100000352E+00 0.  1.
        3   -1    0    0  501    0  0.00000000000E+00  0.00000000000E+00 -0.13296841155E+03  0.13296844991E+03  0.10100000352E+00 0. -1.
    10030    2    1    2    0    0  0.00000000000E+00  0.00000000000E+00  0.54604099577E+03  0.81197786474E+03  0.60095530929E+03 0.  0.
        2    1    3    3  502    0 -0.13453361718E+03 -0.15515781952E+03 -0.23350594081E+02  0.20668452617E+03  0.25500000920E-02 0. -1.
       -2    1    3    3    0  502  0.13453361718E+03  0.15515781952E+03  0.56939158985E+03  0.60529333856E+03  0.25500000920E-02 0.  1.
</event>
<event>
 5   0  0.5790967E-03  0.6005526E+03  0.7818609E-02  0.9904260E-01
       -1   -1    0    0    0  501  0.00000000000E+00  0.00000000000E+00  0.21300088861E+03  0.21300088867E+03  0.50400001928E-02 0. -1.
        1   -1    0    0  501    0  0.00000000000E+00  0.00000000000E+00 -0.42331216498E+03  0.42331216501E+03  0.50400001928E-02 0.  1.
    10030    2    1    2    0    0  0.00000000000E+00  0.00000000000E+00 -0.21031127636E+03  0.63631305368E+03  0.60055263659E+03 0.  0.
        3    1    3    3  502    0  0.11992008126E+03  0.16895264121E+03  0.12513424840E+03  0.24204216819E+03  0.10100000352E+00 0. -1.
       -3    1    3    3    0  502 -0.11992008126E+03 -0.16895264121E+03 -0.33544552476E+03  0.39427088549E+03  0.10100000352E+00 0.  1.
</event>
<event>
 5   0  0.3806250E-03  0.6065172E+03  0.7818609E-02  0.9891976E-01
       -3   -1    0    0    0  501  0.00000000000E+00  0.00000000000E+00  0.98920295235E+03  0.98920295751E+03  0.10100000352E+00 0.  1.
        3   -1    0    0  501    0  0.00000000000E+00  0.00000000000E+00 -0.92969541429E+02  0.92969596291E+02  0.10100000352E+00 0. -1.
    10030    2    1    2    0    0  0.00000000000E+00  0.00000000000E+00  0.89623341092E+03  0.10821725538E+04  0.60651719625E+03 0.  0.
        1    1    3    3  502    0 -0.39858805152E+02  0.34563998323E+02  0.98095193663E+03  0.98236963325E+03  0.50400001928E-02 0.  1.
       -1    1    3    3    0  502  0.39858805152E+02 -0.34563998323E+02 -0.84718525704E+02  0.99802920553E+02  0.50400001928E-02 0. -1.
</event>
<event>
 5   0  0.9391405E-03  0.5998327E+03  0.7818609E-02  0.9905753E-01
        2   -1    0    0  501    0  0.00000000000E+00  0.00000000000E+00  0.14414979750E+04  0.14414979750E+04  0.25500000920E-02 0.  1.
       -2   -1    0    0    0  501  0.00000000000E+00  0.00000000000E+00 -0.62400227872E+02  0.62400227924E+02  0.25500000920E-02 0. -1.
    10030    2    1    2    0    0  0.00000000000E+00  0.00000000000E+00  0.13790977471E+04  0.15038982029E+04  0.59983265052E+03 0.  0.
        2    1    3    3  502    0  0.25609923409E+03  0.22206814047E+02  0.10769073905E+04  0.11071628101E+04  0.25500000920E-02 0.  1.
       -2    1    3    3    0  502 -0.25609923409E+03 -0.22206814047E+02  0.30219035660E+03  0.39673539282E+03  0.25500000920E-02 0. -1.
</event>
<event>
 5   0  0.6078658E-03  0.6001485E+03  0.7818609E-02  0.9905098E-01
        1   -1    0    0  501    0  0.00000000000E+00  0.00000000000E+00  0.67359947082E+03  0.67359947084E+03  0.50400001928E-02 0.  1.
       -1   -1    0    0    0  501  0.00000000000E+00  0.00000000000E+00 -0.13367668639E+03  0.13367668648E+03  0.50400001928E-02 0. -1.
    10030    2    1    2    0    0  0.00000000000E+00  0.00000000000E+00  0.53992278443E+03  0.80727615732E+03  0.60014846582E+03 0.  0.
        2    1    3    3  502    0  0.23511985058E+03 -0.18358665817E+03  0.31373780009E+03  0.43291663448E+03  0.25500000920E-02 0.  1.
       -2    1    3    3    0  502 -0.23511985058E+03  0.18358665817E+03  0.22618498434E+03  0.37435952284E+03  0.25500000920E-02 0. -1.
</event>
<event>
 5   0  0.9162342E-03  0.6000094E+03  0.7818609E-02  0.9905387E-01
       -2   -1    0    0    0  501  0.00000000000E+00  0.00000000000E+00  0.40260693088E+02  0.40260693169E+02  0.25500000920E-02 0. -1.
        2   -1    0    0  501    0  0.00000000000E+00  0.00000000000E+00 -0.22355006770E+04  0.22355006770E+04  0.25500000920E-02 0.  1.
    10030    2    1    2    0    0  0.00000000000E+00  0.00000000000E+00 -0.21952399839E+04  0.22757613702E+04  0.60000935576E+03 0.  0.
        5    1    3    3  502    0 -0.74333905842E+02  0.24873055607E+03 -0.52757327327E+03  0.58800345896E+03  0.46999998093E+01 0. -1.
       -5    1    3    3    0  502  0.74333905842E+02 -0.24873055607E+03 -0.16676667106E+04  0.16877579112E+04  0.46999998093E+01 0.  1.
</event>
<event>
 5   0  0.9303190E-03  0.6009907E+03  0.7818609E-02  0.9903353E-01
       -2   -1    0    0    0  501  0.00000000000E+00  0.00000000000E+00  0.35760900934E+02  0.35760901025E+02  0.25500000920E-02 0.  1.
        2   -1    0    0  501    0  0.00000000000E+00  0.00000000000E+00 -0.25250330994E+04  0.25250330994E+04  0.25500000920E-02 0. -1.
    10030    2    1    2    0    0  0.00000000000E+00  0.00000000000E+00 -0.24892721985E+04  0.25607940005E+04  0.60099071088E+03 0.  0.
        4    1    3    3  502    0 -0.26037449003E+02 -0.21814053817E+03 -0.37106144485E+03  0.43122088528E+03  0.12699999809E+01 0.  1.
       -4    1    3    3    0  502  0.26037449003E+02  0.21814053817E+03 -0.21182107536E+04  0.21295731152E+04  0.12699999809E+01 0. -1.
</event>
<event>
 5   0  0.9303190E-03  0.6003565E+03  0.7818609E-02  0.9904667E-01
       -2   -1    0    0    0  501  0.00000000000E+00  0.00000000000E+00  0.23846684618E+03  0.23846684620E+03  0.25500000920E-02 0. -1.
        2   -1    0    0  501    0  0.00000000000E+00  0.00000000000E+00 -0.37785961270E+03  0.37785961271E+03  0.25500000920E-02 0.  1.
    10030    2    1    2    0    0  0.00000000000E+00  0.00000000000E+00 -0.13939276652E+03  0.61632645891E+03  0.60035652790E+03 0.  0.
        4    1    3    3  502    0  0.27190657147E+03 -0.12090323381E+03 -0.11017364669E+03  0.31731785465E+03  0.12699999809E+01 0.  1.
       -4    1    3    3    0  502 -0.27190657147E+03  0.12090323381E+03 -0.29219119832E+02  0.29900860426E+03  0.12699999809E+01 0. -1.
</event>
<event>
 5   0  0.5819446E-03  0.6000394E+03  0.7818609E-02  0.9905324E-01
        1   -1    0    0  501    0  0.00000000000E+00  0.00000000000E+00  0.49801530641E+03  0.49801530643E+03  0.50400001928E-02 0.  1.
       -1   -1    0    0    0  501  0.00000000000E+00  0.00000000000E+00 -0.18074105284E+03  0.18074105291E+03  0.50400001928E-02 0. -1.
    10030    2    1    2    0    0  0.00000000000E+00  0.00000000000E+00  0.31727425357E+03  0.67875635934E+03  0.60003936818E+03 0.  0.
        5    1    3    3  502    0  0.11392911726E+03  0.14122766105E+03 -0.11158297279E+03  0.21306793710E+03  0.46999998093E+01 0. -1.
       -5    1    3    3    0  502 -0.11392911726E+03 -0.14122766105E+03  0.42885722636E+03  0.46568842224E+03  0.46999998093E+01 0.  1.
</event>
<event>
 5   0  0.5819446E-03  0.6001291E+03  0.7818609E-02  0.9905138E-01
        1   -1    0    0  501    0  0.00000000000E+00  0.00000000000E+00  0.26435915949E+03  0.26435915954E+03  0.50400001928E-02 0. -1.
       -1   -1    0    0    0  501  0.00000000000E+00  0.00000000000E+00 -0.34059247780E+03  0.34059247784E+03  0.50400001928E-02 0.  1.
    10030    2    1    2    0    0  0.00000000000E+00  0.00000000000E+00 -0.76233318311E+02  0.60495163738E+03  0.60012912339E+03 0.  0.
        5    1    3    3  502    0 -0.19496644528E+03  0.29302311195E+02 -0.26608905417E+03  0.33120388732E+03  0.46999998093E+01 0.  1.
       -5    1    3    3    0  502  0.19496644528E+03 -0.29302311195E+02  0.18985573586E+03  0.27374775006E+03  0.46999998093E+01 0. -1.
</event>
<event>
 5   0  0.5819446E-03  0.6008788E+03  0.7818609E-02  0.9903585E-01
       -1   -1    0    0    0  501  0.00000000000E+00  0.00000000000E+00  0.15695036566E+03  0.15695036574E+03  0.50400001928E-02 0.  1.
        1   -1    0    0  501    0  0.00000000000E+00  0.00000000000E+00 -0.57511064558E+03  0.57511064560E+03  0.50400001928E-02 0. -1.
    10030    2    1    2    0    0  0.00000000000E+00  0.00000000000E+00 -0.41816027991E+03  0.73206101134E+03  0.60087877698E+03 0.  0.
        5    1    3    3  502    0  0.17774872258E+03 -0.24122060281E+03 -0.23520299256E+03  0.38095212994E+03  0.46999998093E+01 0. -1.
       -5    1    3    3    0  502 -0.17774872258E+03  0.24122060281E+03 -0.18295728735E+03  0.35110888140E+03  0.46999998093E+01 0.  1.
</event>
<event>
 5   0  0.9303190E-03  0.5994177E+03  0.7818609E-02  0.9906615E-01
       -2   -1    0    0    0  501  0.00000000000E+00  0.00000000000E+00  0.86997966568E+02  0.86997966605E+02  0.25500000920E-02 0. -1.
        2   -1    0    0  501    0  0.00000000000E+00  0.00000000000E+00 -0.10324999615E+04  0.10324999615E+04  0.25500000920E-02 0.  1.
    10030    2    1    2    0    0  0.00000000000E+00  0.00000000000E+00 -0.94550199492E+03  0.11194979281E+04  0.59941770796E+03 0.  0.
        4    1    3    3  502    0  0.20392227778E+03  0.10840568156E+03 -0.11599855729E+03  0.25844412425E+03  0.12699999809E+01 0. -1.
       -4    1    3    3    0  502 -0.20392227778E+03 -0.10840568156E+03 -0.82950343763E+03  0.86105380384E+03  0.12699999809E+01 0.  1.
</event>
<event>
 5   0  0.9162342E-03  0.5997793E+03  0.7818609E-02  0.9905864E-01
       -2   -1    0    0    0  501  0.00000000000E+00  0.00000000000E+00  0.13088973480E+03  0.13088973483E+03  0.25500000920E-02 0.  1.
        2   -1    0    0  501    0  0.00000000000E+00  0.00000000000E+00 -0.68709583128E+03  0.68709583128E+03  0.25500000920E-02 0. -1.
    10030    2    1    2    0    0  0.00000000000E+00  0.00000000000E+00 -0.55620609648E+03  0.81798556611E+03  0.59977926323E+03 0.  0.
        5    1    3    3  502    0  0.57263389442E+02  0.12098853992E+03  0.87831562440E+02  0.16016802403E+03  0.46999998093E+01 0.  1.
       -5    1    3    3    0  502 -0.57263389442E+02 -0.12098853992E+03 -0.64403765892E+03  0.65781754208E+03  0.46999998093E+01 0. -1.
</event>
<event>
 5   0  0.5790967E-03  0.6049802E+03  0.7818609E-02  0.9895127E-01
        1   -1    0    0  501    0  0.00000000000E+00  0.00000000000E+00  0.19095848267E+03  0.19095848274E+03  0.50400001928E-02 0. -1.
       -1   -1    0    0    0  501  0.00000000000E+00  0.00000000000E+00 -0.47916305390E+03  0.47916305392E+03  0.50400001928E-02 0.  1.
    10030    2    1    2    0    0  0.00000000000E+00  0.00000000000E+00 -0.28820457122E+03  0.67012153666E+03  0.60498016416E+03 0.  0.
        3    1    3    3  502    0  0.11342396480E+02 -0.24957076757E+02  0.18957967424E+03  0.19155147800E+03  0.10100000352E+00 0. -1.
       -3    1    3    3    0  502 -0.11342396480E+02  0.24957076757E+02 -0.47778424546E+03  0.47857005866E+03  0.10100000352E+00 0.  1.
</event>
<event>
 5   0  0.9303190E-03  0.5997189E+03  0.7818609E-02  0.9905989E-01
        2   -1    0    0  501    0  0.00000000000E+00  0.00000000000E+00  0.22274302185E+04  0.22274302185E+04  0.25500000920E-02 0. -1.
       -2   -1    0    0    0  501  0.00000000000E+00  0.00000000000E+00 -0.40367451169E+02  0.40367451250E+02  0.25500000920E-02 0.  1.
    10030    2    1    2    0    0  0.00000000000E+00  0.00000000000E+00  0.21870627673E+04  0.22677976698E+04  0.59971886971E+03 0.  0.
        4    1    3    3  502    0 -0.15594110726E+03  0.24291755024E+03  0.78661717722E+03  0.83791095085E+03  0.12699999809E+01 0.  1.
       -4    1    3    3    0  502  0.15594110726E+03 -0.24291755024E+03  0.14004455901E+04  0.14298867189E+04  0.12699999809E+01 0. -1.
</event>
<event>
 5   0  0.9028473E-03  0.5979893E+03  0.7818609E-02  0.9909586E-01
       -2   -1    0    0    0  501  0.00000000000E+00  0.00000000000E+00  0.60561002948E+02  0.60561003002E+02  0.25500000920E-02 0.  1.
        2   -1    0    0  501    0  0.00000000000E+00  0.00000000000E+00 -0.14761611570E+04  0.14761611570E+04  0.25500000920E-02 0. -1.
    10030    2    1    2    0    0  0.00000000000E+00  0.00000000000E+00 -0.14156001540E+04  0.15367221600E+04  0.59798929831E+03 0.  0.
        1    1    3    3  502    0  0.23989145737E+03 -0.37213916716E+02 -0.25925858020E+03  0.35517291331E+03  0.50400001928E-02 0.  1.
       -1    1    3    3    0  502 -0.23989145737E+03  0.37213916716E+02 -0.11563415738E+04  0.11815492467E+04  0.50400001928E-02 0. -1.
</event>
<event>
 5   0  0.3806250E-03  0.6011427E+03  0.7818609E-02  0.9903038E-01
       -3   -1    0    0    0  501  0.00000000000E+00  0.00000000000E+00  0.44198473677E+02  0.44198589077E+02  0.10100000352E+00 0. -1.
        3   -1    0    0  501    0  0.00000000000E+00  0.00000000000E+00 -0.20440300756E+04  0.20440300781E+04  0.10100000352E+00 0.  1.
    10030    2    1    2    0    0  0.00000000000E+00  0.00000000000E+00 -0.19998316019E+04  0.20882286671E+04  0.60114268717E+03 0.  0.
        1    1    3    3  502    0 -0.21118832349E+03 -0.15327903427E+03 -0.15180563208E+04  0.15403213831E+04  0.50400001928E-02 0.  1.
       -1    1    3    3    0  502  0.21118832349E+03  0.15327903427E+03 -0.48177528113E+03  0.54790728400E+03  0.50400001928E-02 0. -1.
</event>
<event>
 5   0  0.5765045E-03  0.6010149E+03  0.7818609E-02  0.9903303E-01
       -1   -1    0    0    0  501  0.00000000000E+00  0.00000000000E+00  0.11434371784E+03  0.11434371795E+03  0.50400001928E-02 0.  1.
        1   -1    0    0  501    0  0.00000000000E+00  0.00000000000E+00 -0.78976561136E+03  0.78976561137E+03  0.50400001928E-02 0. -1.
    10030    2    1    2    0    0  0.00000000000E+00  0.00000000000E+00 -0.67542189352E+03  0.90410932933E+03  0.60101492921E+03 0.  0.
        1    1    3    3  502    0  0.72679418063E+02  0.28650260158E+03 -0.25616297764E+03  0.39113362124E+03  0.50400001928E-02 0.  1.
       -1    1    3    3    0  502 -0.72679418063E+02 -0.28650260158E+03 -0.41925891588E+03  0.51297570809E+03  0.50400001928E-02 0. -1.
</event>
<event>
 5   0  0.9822607E-03  0.5987665E+03  0.7818609E-02  0.9907968E-01
       -2   -1    0    0    0  501  0.00000000000E+00  0.00000000000E+00  0.42813570012E+02  0.42813570088E+02  0.25500000920E-02 0. -1.
        2   -1    0    0  501    0  0.00000000000E+00  0.00000000000E+00 -0.20935028859E+04  0.20935028859E+04  0.25500000920E-02 0.  1.
    10030    2    1    2    0    0  0.00000000000E+00  0.00000000000E+00 -0.20506893159E+04  0.21363164560E+04  0.59876650694E+03 0.  0.
        3    1    3    3  502    0 -0.37453552456E+02 -0.18775436714E+03 -0.18465410992E+04  0.18564397411E+04  0.10100000352E+00 0.  1.
       -3    1    3    3    0  502  0.37453552456E+02  0.18775436714E+03 -0.20414821663E+03  0.27987671486E+03  0.10100000352E+00 0. -1.
</event>
<event>
 5   0  0.5790967E-03  0.5998143E+03  0.7818609E-02  0.9905791E-01
       -1   -1    0    0    0  501  0.00000000000E+00  0.00000000000E+00  0.14460123969E+03  0.14460123977E+03  0.50400001928E-02 0.  1.
        1   -1    0    0  501    0  0.00000000000E+00  0.00000000000E+00 -0.62201607868E+03  0.62201607870E+03  0.50400001928E-02 0. -1.
    10030    2    1    2    0    0  0.00000000000E+00  0.00000000000E+00 -0.47741483899E+03  0.76661731847E+03  0.59981429167E+03 0.  0.
        3    1    3    3  502    0 -0.36062268435E+02  0.22783929450E+03 -0.48366469265E+03  0.53585704851E+03  0.10100000352E+00 0. -1.
       -3    1    3    3    0  502  0.36062268435E+02 -0.22783929450E+03  0.62498536577E+01  0.23076026996E+03  0.10100000352E+00 0.  1.
</event>
<event>
 5   0  0.5819446E-03  0.5996899E+03  0.7818609E-02  0.9906050E-01
        1   -1    0    0  501    0  0.00000000000E+00  0.00000000000E+00  0.21236872211E+03  0.21236872217E+03  0.50400001928E-02 0. -1.
       -1   -1    0    0    0  501  0.00000000000E+00  0.00000000000E+00 -0.42335330241E+03  0.42335330244E+03  0.50400001928E-02 0.  1.
    10030    2    1    2    0    0  0.00000000000E+00  0.00000000000E+00 -0.21098458030E+03  0.63572202460E+03  0.59968991941E+03 0.  0.
        5    1    3    3  502    0  0.24316348769E+02 -0.26980777958E+03 -0.24165183533E+03  0.36304988949E+03  0.46999998093E+01 0.  1.
       -5    1    3    3    0  502 -0.24316348769E+02  0.26980777958E+03  0.30667255029E+02  0.27267213512E+03  0.46999998093E+01 0. -1.
</event>
<event>
 5   0  0.3806250E-03  0.5999956E+03  0.7818609E-02  0.9905415E-01
        3   -1    0    0  501    0  0.00000000000E+00  0.00000000000E+00  0.78024915512E+03  0.78024916165E+03  0.10100000352E+00 0. -1.
       -3   -1    0    0    0  501  0.00000000000E+00  0.00000000000E+00 -0.11534603913E+03  0.11534608335E+03  0.10100000352E+00 0.  1.
    10030    2    1    2    0    0  0.00000000000E+00  0.00000000000E+00  0.66490311599E+03  0.89559524500E+03  0.59999557433E+03 0.  0.
        1    1    3    3  502    0  0.31753214760E+02 -0.29679954026E+03  0.28766055706E+03  0.41454412294E+03  0.50400001928E-02 0.  1.
       -1    1    3    3    0  502 -0.31753214760E+02  0.29679954026E+03  0.37724255893E+03  0.48105112207E+03  0.50400001928E-02 0. -1.
</event>
<event>
 5   0  0.5765045E-03  0.5997008E+03  0.7818609E-02  0.9906027E-01
       -1   -1    0    0    0  501  0.00000000000E+00  0.00000000000E+00  0.62873041791E+03  0.62873041793E+03  0.50400001928E-02 0. -1.
        1   -1    0    0  501    0  0.00000000000E+00  0.00000000000E+00 -0.14300290259E+03  0.14300290268E+03  0.50400001928E-02 0.  1.
    10030    2    1    2    0    0  0.00000000000E+00  0.00000000000E+00  0.48572751532E+03  0.77173332061E+03  0.59970084125E+03 0.  0.
        1    1    3    3  502    0  0.61995513607E+02  0.28476080521E+03  0.15206810620E+03  0.32872004630E+03  0.50400001928E-02 0.  1.
       -1    1    3    3    0  502 -0.61995513607E+02 -0.28476080521E+03  0.33365940911E+03  0.44301327430E+03  0.50400001928E-02 0. -1.
</event>
<event>
 5   0  0.5765045E-03  0.6002087E+03  0.7818609E-02  0.9904973E-01
        1   -1    0    0  501    0  0.00000000000E+00  0.00000000000E+00  0.35676598995E+03  0.35676598998E+03  0.50400001928E-02 0.  1.
       -1   -1    0    0    0  501  0.00000000000E+00  0.00000000000E+00 -0.25244169191E+03  0.25244169196E+03  0.50400001928E-02 0. -1.
    10030    2    1    2    0    0  0.00000000000E+00  0.00000000000E+00  0.10432429803E+03  0.60920768195E+03  0.60020866420E+03 0.  0.
        1    1    3    3  502    0 -0.14925509054E+03  0.29846514055E+02 -0.21035580467E+03  0.25964872624E+03  0.50400001928E-02 0. -1.
       -1    1    3    3    0  502  0.14925509054E+03 -0.29846514055E+02  0.31468010270E+03  0.34955895571E+03  0.50400001928E-02 0.  1.
</event>
<event>
 5   0  0.3806250E-03  0.6000829E+03  0.7818609E-02  0.9905234E-01
        3   -1    0    0  501    0  0.00000000000E+00  0.00000000000E+00  0.29559571269E+02  0.29559743818E+02  0.10100000352E+00 0. -1.
       -3   -1    0    0    0  501  0.00000000000E+00  0.00000000000E+00 -0.30455316060E+04  0.30455316077E+04  0.10100000352E+00 0.  1.
    10030    2    1    2    0    0  0.00000000000E+00  0.00000000000E+00 -0.30159720348E+04  0.30750913515E+04  0.60008291573E+03 0.  0.
        1    1    3    3  502    0  0.17087000407E+03  0.13685418139E+03 -0.25594246852E+04  0.25687702008E+04  0.50400001928E-02 0.  1.
       -1    1    3    3    0  502 -0.17087000407E+03 -0.13685418139E+03 -0.45654734954E+03  0.50632115070E+03  0.50400001928E-02 0. -1.
</event>
<event>
 5   0  0.9822607E-03  0.6000236E+03  0.7818609E-02  0.9905357E-01
        2   -1    0    0  501    0  0.00000000000E+00  0.00000000000E+00  0.16792586136E+03  0.16792586138E+03  0.25500000920E-02 0.  1.
       -2   -1    0    0    0  501  0.00000000000E+00  0.00000000000E+00 -0.53599298281E+03  0.53599298282E+03  0.25500000920E-02 0. -1.
    10030    2    1    2    0    0  0.00000000000E+00  0.00000000000E+00 -0.36806712145E+03  0.70391884419E+03  0.60002361063E+03 0.  0.
        3    1    3    3  502    0  0.22852435005E+03  0.16034238167E+03 -0.55125489393E+02  0.28455559687E+03  0.10100000352E+00 0.  1.
       -3    1    3    3    0  502 -0.22852435005E+03 -0.16034238167E+03 -0.31294163206E+03  0.41936324732E+03  0.10100000352E+00 0. -1.
</event>
<event>
 5   0  0.3806250E-03  0.5998853E+03  0.7818609E-02  0.9905644E-01
       -3   -1    0    0    0  501  0.00000000000E+00  0.00000000000E+00  0.32602341337E+03  0.32602342902E+03  0.10100000352E+00 0. -1.
        3   -1    0    0  501    0  0.00000000000E+00  0.00000000000E+00 -0.27594820980E+03  0.27594822829E+03  0.10100000352E+00 0.  1.
    10030    2    1    2    0    0  0.00000000000E+00  0.00000000000E+00  0.50075203568E+02  0.60197165730E+03  0.59988528085E+03 0.  0.
        3    1    3    3  502    0  0.16533828401E+03  0.48024930634E+00  0.27616505054E+03  0.32187594526E+03  0.10100000352E+00 0. -1.
       -3    1    3    3    0  502 -0.16533828401E+03 -0.48024930634E+00 -0.22608984697E+03  0.28009571204E+03  0.10100000352E+00 0.  1.
</event>
<event>
 5   0  0.5765045E-03  0.6026535E+03  0.7818609E-02  0.9899916E-01
       -1   -1    0    0    0  501  0.00000000000E+00  0.00000000000E+00  0.17471774456E+03  0.17471774463E+03  0.50400001928E-02 0.  1.
        1   -1    0    0  501    0  0.00000000000E+00  0.00000000000E+00 -0.51968276028E+03  0.51968276030E+03  0.50400001928E-02 0. -1.
    10030    2    1    2    0    0  0.00000000000E+00  0.00000000000E+00 -0.34496501572E+03  0.69440050493E+03  0.60265346525E+03 0.  0.
        1    1    3    3  502    0  0.69900605037E+02  0.26741409866E+01 -0.51019759589E+03  0.51497071033E+03  0.50400001928E-02 0. -1.
       -1    1    3    3    0  502 -0.69900605037E+02 -0.26741409866E+01  0.16523258017E+03  0.17942979460E+03  0.50400001928E-02 0.  1.
</event>
<event>
 5   0  0.6078658E-03  0.6001260E+03  0.7818609E-02  0.9905145E-01
       -1   -1    0    0    0  501  0.00000000000E+00  0.00000000000E+00  0.81468424958E+02  0.81468425114E+02  0.50400001928E-02 0.  1.
        1   -1    0    0  501    0  0.00000000000E+00  0.00000000000E+00 -0.11051866798E+04  0.11051866798E+04  0.50400001928E-02 0. -1.
    10030    2    1    2    0    0  0.00000000000E+00  0.00000000000E+00 -0.10237182548E+04  0.11866551049E+04  0.60012604738E+03 0.  0.
        2    1    3    3  502    0  0.26709532257E+02 -0.27665851988E+03 -0.73543431848E+03  0.78620415449E+03  0.25500000920E-02 0. -1.
       -2    1    3    3    0  502 -0.26709532257E+02  0.27665851988E+03 -0.28828393636E+03  0.40045095044E+03  0.25500000920E-02 0.  1.
</event>
<event>
 5   0  0.5790967E-03  0.5998676E+03  0.7818609E-02  0.9905681E-01
       -1   -1    0    0    0  501  0.00000000000E+00  0.00000000000E+00  0.92150936009E+02  0.92150936147E+02  0.50400001928E-02 0.  1.
        1   -1    0    0  501    0  0.00000000000E+00  0.00000000000E+00 -0.97622750710E+03  0.97622750712E+03  0.50400001928E-02 0. -1.
    10030    2    1    2    0    0  0.00000000000E+00  0.00000000000E+00 -0.88407657109E+03  0.10683784433E+04  0.59986758078E+03 0.  0.
        3    1    3    3  502    0 -0.57261922802E+02  0.29298125341E+03 -0.39031722644E+03  0.49139036428E+03  0.10100000352E+00 0.  1.
       -3    1    3    3    0  502  0.57261922802E+02 -0.29298125341E+03 -0.49375934466E+03  0.57698807898E+03  0.10100000352E+00 0. -1.
</event>
<event>
 5   0  0.9303190E-03  0.6001837E+03  0.7818609E-02  0.9905025E-01
       -2   -1    0    0    0  501  0.00000000000E+00  0.00000000000E+00  0.11342058885E+03  0.11342058888E+03  0.25500000920E-02 0.  1.
        2   -1    0    0  501    0  0.00000000000E+00  0.00000000000E+00 -0.79399279089E+03  0.79399279089E+03  0.25500000920E-02 0. -1.
    10030    2    1    2    0    0  0.00000000000E+00  0.00000000000E+00 -0.68057220204E+03  0.90741337977E+03  0.60018373820E+03 0.  0.
        4    1    3    3  502    0  0.26579949606E+03  0.13243301027E+03 -0.27498279180E+03  0.40472833234E+03  0.12699999809E+01 0.  1.
       -4    1    3    3    0  502 -0.26579949606E+03 -0.13243301027E+03 -0.40558941024E+03  0.50268504743E+03  0.12699999809E+01 0. -1.
</event>
<event>
 5   0  0.9822607E-03  0.5985210E+03  0.7818609E-02  0.9908479E-01
        2   -1    0    0  501    0  0.00000000000E+00  0.00000000000E+00  0.82442672551E+03  0.82442672552E+03  0.25500000920E-02 0. -1.
       -2   -1    0    0    0  501  0.00000000000E+00  0.00000000000E+00 -0.10862925386E+03  0.10862925389E+03  0.25500000920E-02 0.  1.
    10030    2    1    2    0    0  0.00000000000E+00  0.00000000000E+00  0.71579747165E+03  0.93305597941E+03  0.59852104415E+03 0.  0.
        3    1    3    3  502    0  0.66425057394E+02  0.25165367572E+03  0.12764548220E+03  0.28988832347E+03  0.10100000352E+00 0.  1.
       -3    1    3    3    0  502 -0.66425057394E+02 -0.25165367572E+03  0.58815198945E+03  0.64316765594E+03  0.10100000352E+00 0. -1.
</event>
<event>
 5   0  0.5891927E-03  0.6002778E+03  0.7818609E-02  0.9904830E-01
        1   -1    0    0  501    0  0.00000000000E+00  0.00000000000E+00  0.93078030906E+03  0.93078030907E+03  0.50400001928E-02 0. -1.
       -1   -1    0    0    0  501  0.00000000000E+00  0.00000000000E+00 -0.96782613079E+02  0.96782613210E+02  0.50400001928E-02 0.  1.
    10030    2    1    2    0    0  0.00000000000E+00  0.00000000000E+00  0.83399769598E+03  0.10275629223E+04  0.60027777100E+03 0.  0.
        4    1    3    3  502    0  0.29180567833E+03  0.66611721165E+02  0.37894951397E+03  0.48289959862E+03  0.12699999809E+01 0.  1.
       -4    1    3    3    0  502 -0.29180567833E+03 -0.66611721165E+02  0.45504818201E+03  0.54466332367E+03  0.12699999809E+01 0. -1.
</event>
<event>
 5   0  0.3806250E-03  0.6012069E+03  0.7818609E-02  0.9902905E-01
        4   -1    0    0  501    0  0.00000000000E+00  0.00000000000E+00  0.63541474535E+03  0.63541601452E+03  0.12699999809E+01 0.  1.
       -4   -1    0    0    0  501  0.00000000000E+00  0.00000000000E+00 -0.14220590016E+03  0.14221157104E+03  0.12699999809E+01 0. -1.
    10030    2    1    2    0    0  0.00000000000E+00  0.00000000000E+00  0.49320884519E+03  0.77762758556E+03  0.60120686694E+03 0.  0.
        5    1    3    3  502    0 -0.18464062369E+03 -0.18025941399E+03  0.44595737191E+03  0.51525302892E+03  0.46999998093E+01 0.  1.
       -5    1    3    3    0  502  0.18464062369E+03  0.18025941399E+03  0.47251473283E+02  0.26237455665E+03  0.46999998093E+01 0. -1.
</event>
<event>
 5   0  0.6078658E-03  0.5989463E+03  0.7818609E-02  0.9907595E-01
        1   -1    0    0  501    0  0.00000000000E+00  0.00000000000E+00  0.16037893521E+03  0.16037893529E+03  0.50400001928E-02 0. -1.
       -1   -1    0    0    0  501  0.00000000000E+00  0.00000000000E+00 -0.55920162246E+03  0.55920162248E+03  0.50400001928E-02 0.  1.
    10030    2    1    2    0    0  0.00000000000E+00  0.00000000000E+00 -0.39882268725E+03  0.71958055777E+03  0.59894627743E+03 0.  0.
        2    1    3    3  502    0  0.23939659866E+03  0.79430033964E+02 -0.54502716542E+01  0.25228865851E+03  0.25500000920E-02 0. -1.
       -2    1    3    3    0  502 -0.23939659866E+03 -0.79430033964E+02 -0.39337241560E+03  0.46729189925E+03  0.25500000920E-02 0.  1.
</event>
<event>
 5   0  0.5765045E-03  0.5986311E+03  0.7818609E-02  0.9908250E-01
        1   -1    0    0  501    0  0.00000000000E+00  0.00000000000E+00  0.15519521472E+04  0.15519521472E+04  0.50400001928E-02 0. -1.
       -1   -1    0    0    0  501  0.00000000000E+00  0.00000000000E+00 -0.57727166165E+02  0.57727166385E+02  0.50400001928E-02 0.  1.
    10030    2    1    2    0    0  0.00000000000E+00  0.00000000000E+00  0.14942249810E+04  0.16096793135E+04  0.59863110398E+03 0.  0.
        1    1    3    3  502    0 -0.13974953233E+03  0.18571023380E+03  0.23996807967E+03  0.33407020521E+03  0.50400001928E-02 0.  1.
       -1    1    3    3    0  502  0.13974953233E+03 -0.18571023380E+03  0.12542569013E+04  0.12756091083E+04  0.50400001928E-02 0. -1.
</event>
<event>
 5   0  0.5819446E-03  0.5994947E+03  0.7818609E-02  0.9906455E-01
       -1   -1    0    0    0  501  0.00000000000E+00  0.00000000000E+00  0.13157156419E+03  0.13157156429E+03  0.50400001928E-02 0.  1.
        1   -1    0    0  501    0  0.00000000000E+00  0.00000000000E+00 -0.68288667807E+03  0.68288667808E+03  0.50400001928E-02 0. -1.
    10030    2    1    2    0    0  0.00000000000E+00  0.00000000000E+00 -0.55131511388E+03  0.81445824237E+03  0.59949468202E+03 0.  0.
        5    1    3    3  502    0 -0.21604410803E+02  0.22499060605E+03 -0.54305477109E+03  0.58823303017E+03  0.46999998093E+01 0. -1.
       -5    1    3    3    0  502  0.21604410803E+02 -0.22499060605E+03 -0.82603427852E+01  0.22622521220E+03  0.46999998093E+01 0.  1.
</event>
<event>
 5   0  0.5891927E-03  0.6040820E+03  0.7818609E-02  0.9896973E-01
        1   -1    0    0  501    0  0.00000000000E+00  0.00000000000E+00  0.44946784962E+03  0.44946784964E+03  0.50400001928E-02 0. -1.
       -1   -1    0    0    0  501  0.00000000000E+00  0.00000000000E+00 -0.20297060772E+03  0.20297060778E+03  0.50400001928E-02 0.  1.
    10030    2    1    2    0    0  0.00000000000E+00  0.00000000000E+00  0.24649724189E+03  0.65243845743E+03  0.60408198986E+03 0.  0.
        4    1    3    3  502    0 -0.14489871578E+03 -0.21092520698E+03 -0.50038141973E+02  0.26074989804E+03  0.12699999809E+01 0.  1.
       -4    1    3    3    0  502  0.14489871578E+03  0.21092520698E+03  0.29653538387E+03  0.39168855939E+03  0.12699999809E+01 0. -1.
</event>
<event>
 5   0  0.9303190E-03  0.5978208E+03  0.7818609E-02  0.9909937E-01
        2   -1    0    0  501    0  0.00000000000E+00  0.00000000000E+00  0.41368768549E+03  0.41368768550E+03  0.25500000920E-02 0.  1.
       -2   -1    0    0    0  501  0.00000000000E+00  0.00000000000E+00 -0.21597800646E+03  0.21597800648E+03  0.25500000920E-02 0. -1.
    10030    2    1    2    0    0  0.00000000000E+00  0.00000000000E+00  0.19770967903E+03  0.62966569198E+03  0.59782084814E+03 0.  0.
        4    1    3    3  502    0  0.14930205018E+03  0.11618022973E+03 -0.14489627609E+03  0.23829706606E+03  0.12699999809E+01 0. -1.
       -4    1    3    3    0  502 -0.14930205018E+03 -0.11618022973E+03  0.34260595512E+03  0.39136862592E+03  0.12699999809E+01 0.  1.
</event>
<event>
 5   0  0.3806250E-03  0.6022569E+03  0.7818609E-02  0.9900735E-01
        3   -1    0    0  501    0  0.00000000000E+00  0.00000000000E+00  0.38903519387E+03  0.38903520698E+03  0.10100000352E+00 0. -1.
       -3   -1    0    0    0  501  0.00000000000E+00  0.00000000000E+00 -0.23308513588E+03  0.23308515776E+03  0.10100000352E+00 0.  1.
    10030    2    1    2    0    0  0.00000000000E+00  0.00000000000E+00  0.15595005799E+03  0.62212036474E+03  0.60225686184E+03 0.  0.
        4    1    3    3  502    0 -0.59904079802E+02 -0.22185479085E+02 -0.22600261108E+03  0.23486057007E+03  0.12699999809E+01 0.  1.
       -4    1    3    3    0  502  0.59904079802E+02  0.22185479085E+02  0.38195266907E+03  0.38725979467E+03  0.12699999809E+01 0. -1.
</event>
<event>
 5   0  0.9303190E-03  0.6002037E+03  0.7818609E-02  0.9904983E-01
       -2   -1    0    0    0  501  0.00000000000E+00  0.00000000000E+00  0.61815415182E+02  0.61815415234E+02  0.25500000920E-02 0. -1.
        2   -1    0    0  501    0  0.00000000000E+00  0.00000000000E+00 -0.14569363916E+04  0.14569363916E+04  0.25500000920E-02 0.  1.
    10030    2    1    2    0    0  0.00000000000E+00  0.00000000000E+00 -0.13951209764E+04  0.15187518068E+04  0.60020372535E+03 0.  0.
        4    1    3    3  502    0 -0.24144623349E+03 -0.18163061054E+02 -0.24893561471E+03  0.34727040419E+03  0.12699999809E+01 0. -1.
       -4    1    3    3    0  502  0.24144623349E+03  0.18163061054E+02 -0.11461853617E+04  0.11714814026E+04  0.12699999809E+01 0.  1.
</event>
<event>
 5   0  0.5765045E-03  0.6002835E+03  0.7818609E-02  0.9904818E-01
       -1   -1    0    0    0  501  0.00000000000E+00  0.00000000000E+00  0.28066288764E+03  0.28066288769E+03  0.50400001928E-02 0.  1.
        1   -1    0    0  501    0  0.00000000000E+00  0.00000000000E+00 -0.32097253689E+03  0.32097253693E+03  0.50400001928E-02 0. -1.
    10030    2    1    2    0    0  0.00000000000E+00  0.00000000000E+00 -0.40309649251E+02  0.60163542462E+03  0.60028352996E+03 0.  0.
        1    1    3    3  502    0 -0.11496015796E+03  0.63447462467E+02  0.25034865332E+03  0.28269394521E+03  0.50400001928E-02 0.  1.
       -1    1    3    3    0  502  0.11496015796E+03 -0.63447462467E+02 -0.29065830257E+03  0.31894147942E+03  0.50400001928E-02 0. -1.
</event>
<event>
 5   0  0.5891927E-03  0.6000747E+03  0.7818609E-02  0.9905251E-01
        1   -1    0    0  501    0  0.00000000000E+00  0.00000000000E+00  0.27045200998E+03  0.27045201003E+03  0.50400001928E-02 0. -1.
       -1   -1    0    0    0  501  0.00000000000E+00  0.00000000000E+00 -0.33285904504E+03  0.33285904508E+03  0.50400001928E-02 0.  1.
    10030    2    1    2    0    0  0.00000000000E+00  0.00000000000E+00 -0.62407035067E+02  0.60331105511E+03  0.60007465468E+03 0.  0.
        4    1    3    3  502    0 -0.19422213099E+03  0.10384753427E+03 -0.23605284233E+03  0.32284532490E+03  0.12699999809E+01 0.  1.
       -4    1    3    3    0  502  0.19422213099E+03 -0.10384753427E+03  0.17364580727E+03  0.28046573020E+03  0.12699999809E+01 0. -1.
</event>
<event>
 5   0  0.9303190E-03  0.5999538E+03  0.7818609E-02  0.9905502E-01
       -2   -1    0    0    0  501  0.00000000000E+00  0.00000000000E+00  0.43651990636E+03  0.43651990637E+03  0.25500000920E-02 0. -1.
        2   -1    0    0  501    0  0.00000000000E+00  0.00000000000E+00 -0.20614440364E+03  0.20614440366E+03  0.25500000920E-02 0.  1.
    10030    2    1    2    0    0  0.00000000000E+00  0.00000000000E+00  0.23037550272E+03  0.64266431002E+03  0.59995378416E+03 0.  0.
        4    1    3    3  502    0  0.19861639177E+02 -0.26623920021E+03 -0.31321578890E+02  0.26881304032E+03  0.12699999809E+01 0.  1.
       -4    1    3    3    0  502 -0.19861639177E+02  0.26623920021E+03  0.26169708161E+03  0.37385126971E+03  0.12699999809E+01 0. -1.
</event>
<event>
 5   0  0.9303190E-03  0.6051585E+03  0.7818609E-02  0.9894761E-01
        2   -1    0    0  501    0  0.00000000000E+00  0.00000000000E+00  0.53952691229E+03  0.53952691229E+03  0.25500000920E-02 0.  1.
       -2   -1    0    0    0  501  0.00000000000E+00  0.00000000000E+00 -0.16969349117E+03  0.16969349119E+03  0.25500000920E-02 0. -1.
    10030    2    1    2    0    0  0.00000000000E+00  0.00000000000E+00  0.36983342111E+03  0.70922040348E+03  0.60515850927E+03 0.  0.
        4    1    3    3  502    0 -0.14996238192E+03  0.10937949231E+03 -0.95129785301E+02  0.20857583340E+03  0.12699999809E+01 0. -1.
       -4    1    3    3    0  502  0.14996238192E+03 -0.10937949231E+03  0.46496320641E+03  0.50064457008E+03  0.12699999809E+01 0.  1.
</event>
<event>
 5   0  0.9162342E-03  0.6005079E+03  0.7818609E-02  0.9904353E-01
       -2   -1    0    0    0  501  0.00000000000E+00  0.00000000000E+00  0.61618695017E+02  0.61618695070E+02  0.25500000920E-02 0. -1.
        2   -1    0    0  501    0  0.00000000000E+00  0.00000000000E+00 -0.14630697181E+04  0.14630697181E+04  0.25500000920E-02 0.  1.
    10030    2    1    2    0    0  0.00000000000E+00  0.00000000000E+00 -0.14014510230E+04  0.15246884131E+04  0.60050794096E+03 0.  0.
        5    1    3    3  502    0  0.15434773221E+03 -0.81702760025E+02 -0.13207392036E+04  0.13322434827E+04  0.46999998093E+01 0.  1.
       -5    1    3    3    0  502 -0.15434773221E+03  0.81702760025E+02 -0.80711819459E+02  0.19244493039E+03  0.46999998093E+01 0. -1.
</event>
<event>
 5   0  0.9028473E-03  0.6021501E+03  0.7818609E-02  0.9900955E-01
       -2   -1    0    0    0  501  0.00000000000E+00  0.00000000000E+00  0.15942266311E+03  0.15942266313E+03  0.25500000920E-02 0.  1.
        2   -1    0    0  501    0  0.00000000000E+00  0.00000000000E+00 -0.56859038003E+03  0.56859038004E+03  0.25500000920E-02 0. -1.
    10030    2    1    2    0    0  0.00000000000E+00  0.00000000000E+00 -0.40916771692E+03  0.72801304317E+03  0.60215012285E+03 0.  0.
        1    1    3    3  502    0 -0.29886733127E+03 -0.23904693504E+02 -0.17140557344E+03  0.34535921401E+03  0.50400001928E-02 0.  1.
       -1    1    3    3    0  502  0.29886733127E+03  0.23904693504E+02 -0.23776214348E+03  0.38265382916E+03  0.50400001928E-02 0. -1.
</event>
<event>
 5   0  0.5819446E-03  0.6004575E+03  0.7818609E-02  0.9904457E-01
       -1   -1    0    0    0  501  0.00000000000E+00  0.00000000000E+00  0.15535515296E+03  0.15535515305E+03  0.50400001928E-02 0.  1.
        1   -1    0    0  501    0  0.00000000000E+00  0.00000000000E+00 -0.58020157506E+03  0.58020157508E+03  0.50400001928E-02 0. -1.
    10030    2    1    2    0    0  0.00000000000E+00  0.00000000000E+00 -0.42484642209E+03  0.73555672813E+03  0.60045750718E+03 0.  0.
        5    1    3    3  502    0  0.14895478584E+03  0.11815348487E+03 -0.49700021525E+03  0.53214573020E+03  0.46999998093E+01 0. -1.
       -5    1    3    3    0  502 -0.14895478584E+03 -0.11815348487E+03  0.72153793159E+02  0.20341099792E+03  0.46999998093E+01 0.  1.
</event>
<event>
 5   0  0.9162342E-03  0.6001852E+03  0.7818609E-02  0.9905022E-01
        2   -1    0    0  501    0  0.00000000000E+00  0.00000000000E+00  0.16919440818E+03  0.16919440820E+03  0.25500000920E-02 0.  1.
       -2   -1    0    0    0  501  0.00000000000E+00  0.00000000000E+00 -0.53226098183E+03  0.53226098184E+03  0.25500000920E-02 0. -1.
    10030    2    1    2    0    0  0.00000000000E+00  0.00000000000E+00 -0.36306657365E+03  0.70145539004E+03  0.60018524417E+03 0.  0.
        5    1    3    3  502    0  0.19475043849E+03  0.20330016980E+03 -0.30284963854E+03  0.41351987364E+03  0.46999998093E+01 0. -1.
       -5    1    3    3    0  502 -0.19475043849E+03 -0.20330016980E+03 -0.60216935111E+02  0.28793551640E+03  0.46999998093E+01 0.  1.
</event>
<event>
 5   0  0.3806250E-03  0.6004272E+03  0.7818609E-02  0.9904520E-01
        4   -1    0    0  501    0  0.00000000000E+00  0.00000000000E+00  0.11582025400E+03  0.11582721673E+03  0.12699999809E+01 0.  1.
       -4   -1    0    0    0  501  0.00000000000E+00  0.00000000000E+00 -0.77814232779E+03  0.77814336417E+03  0.12699999809E+01 0. -1.
    10030    2    1    2    0    0  0.00000000000E+00  0.00000000000E+00 -0.66232207379E+03  0.89397058090E+03  0.60042723962E+03 0.  0.
        4    1    3    3  502    0 -0.15495760669E+03  0.85114697208E+02 -0.69241341776E+03  0.71462880263E+03  0.12699999809E+01 0. -1.
       -4    1    3    3    0  502  0.15495760669E+03 -0.85114697208E+02  0.30091343967E+02  0.17934177827E+03  0.12699999809E+01 0.  1.
</event>
<event>
 5   0  0.9162342E-03  0.6044357E+03  0.7818609E-02  0.9896246E-01
       -2   -1    0    0    0  501  0.00000000000E+00  0.00000000000E+00  0.18233951750E+03  0.18233951751E+03  0.25500000920E-02 0. -1.
        2   -1    0    0  501    0  0.00000000000E+00  0.00000000000E+00 -0.50090961279E+03  0.50090961280E+03  0.25500000920E-02 0.  1.
    10030    2    1    2    0    0  0.00000000000E+00  0.00000000000E+00 -0.31857009530E+03  0.68324913031E+03  0.60443566114E+03 0.  0.
        5    1    3    3  502    0  0.19560734687E+03 -0.10571752810E+03  0.72031617394E+02  0.23377141357E+03  0.46999998093E+01 0. -1.
       -5    1    3    3    0  502 -0.19560734687E+03  0.10571752810E+03 -0.39060171269E+03  0.44947771675E+03  0.46999998093E+01 0.  1.
</event>
<event>
 5   0  0.5790967E-03  0.6013033E+03  0.7818609E-02  0.9902706E-01
       -1   -1    0    0    0  501  0.00000000000E+00  0.00000000000E+00  0.61845933378E+03  0.61845933380E+03  0.50400001928E-02 0. -1.
        1   -1    0    0  501    0  0.00000000000E+00  0.00000000000E+00 -0.14615578721E+03  0.14615578730E+03  0.50400001928E-02 0.  1.
    10030    2    1    2    0    0  0.00000000000E+00  0.00000000000E+00  0.47230354657E+03  0.76461512110E+03  0.60130328729E+03 0.  0.
        3    1    3    3  502    0 -0.24194493003E+03 -0.17755308562E+03  0.25921480472E+03  0.39655361878E+03  0.10100000352E+00 0.  1.
       -3    1    3    3    0  502  0.24194493003E+03  0.17755308562E+03  0.21308874185E+03  0.36806150231E+03  0.10100000352E+00 0. -1.
</event>
<event>
 5   0  0.6078658E-03  0.6015449E+03  0.7818609E-02  0.9902206E-01
        1   -1    0    0  501    0  0.00000000000E+00  0.00000000000E+00  0.31953586954E+03  0.31953586958E+03  0.50400001928E-02 0. -1.
       -1   -1    0    0    0  501  0.00000000000E+00  0.00000000000E+00 -0.28311088099E+03  0.28311088103E+03  0.50400001928E-02 0.  1.
    10030    2    1    2    0    0  0.00000000000E+00  0.00000000000E+00  0.36424988549E+02  0.60264675061E+03  0.60154494947E+03 0.  0.
        2    1    3    3  502    0  0.25360247469E+03  0.43880947018E+01 -0.14373324144E+03  0.29153510122E+03  0.25500000920E-02 0.  1.
       -2    1    3    3    0  502 -0.25360247469E+03 -0.43880947018E+01  0.18015822999E+03  0.31111164939E+03  0.25500000920E-02 0. -1.
</event>
<event>
 5   0  0.5790967E-03  0.5999483E+03  0.7818609E-02  0.9905513E-01
        1   -1    0    0  501    0  0.00000000000E+00  0.00000000000E+00  0.42329406620E+03  0.42329406623E+03  0.50400001928E-02 0. -1.
       -1   -1    0    0    0  501  0.00000000000E+00  0.00000000000E+00 -0.21258148852E+03  0.21258148858E+03  0.50400001928E-02 0.  1.
    10030    2    1    2    0    0  0.00000000000E+00  0.00000000000E+00  0.21071257768E+03  0.63587555481E+03  0.59994827345E+03 0.  0.
        3    1    3    3  502    0 -0.24499568254E+03 -0.10701344411E+03 -0.38841346515E+02  0.27015444117E+03  0.10100000352E+00 0.  1.
       -3    1    3    3    0  502  0.24499568254E+03  0.10701344411E+03  0.24955392419E+03  0.36572111364E+03  0.10100000352E+00 0. -1.
</event>
<event>
 5   0  0.5790967E-03  0.5990904E+03  0.7818609E-02  0.9907295E-01
        1   -1    0    0  501    0  0.00000000000E+00  0.00000000000E+00  0.22595676350E+03  0.22595676355E+03  0.50400001928E-02 0.  1.
       -1   -1    0    0    0  501  0.00000000000E+00  0.00000000000E+00 -0.39709958518E+03  0.39709958521E+03  0.50400001928E-02 0. -1.
    10030    2    1    2    0    0  0.00000000000E+00  0.00000000000E+00 -0.17114282168E+03  0.62305634876E+03  0.59909043417E+03 0.  0.
        3    1    3    3  502    0  0.28003639402E+03 -0.23479963903E+02 -0.19342956722E+03  0.34115494772E+03  0.10100000352E+00 0. -1.
       -3    1    3    3    0  502 -0.28003639402E+03  0.23479963903E+02  0.22286745541E+02  0.28190140104E+03  0.10100000352E+00 0.  1.
</event>
<event>
 5   0  0.9391405E-03  0.5999620E+03  0.7818609E-02  0.9905485E-01
       -2   -1    0    0    0  501  0.00000000000E+00  0.00000000000E+00  0.51814850688E+03  0.51814850688E+03  0.25500000920E-02 0. -1.
        2   -1    0    0  501    0  0.00000000000E+00  0.00000000000E+00 -0.17367336887E+03  0.17367336889E+03  0.25500000920E-02 0.  1.
    10030    2    1    2    0    0  0.00000000000E+00  0.00000000000E+00  0.34447513801E+03  0.69182187577E+03  0.59996198804E+03 0.  0.
        2    1    3    3  502    0 -0.25831686982E+03 -0.12048159027E+03  0.28007136168E+03  0.39960403710E+03  0.25500000920E-02 0. -1.
       -2    1    3    3    0  502  0.25831686982E+03  0.12048159027E+03  0.64403776330E+02  0.29221783867E+03  0.25500000920E-02 0.  1.
</event>
<event>
 5   0  0.5790967E-03  0.5984303E+03  0.7818609E-02  0.9908668E-01
        1   -1    0    0  501    0  0.00000000000E+00  0.00000000000E+00  0.66959876535E+02  0.66959876725E+02  0.50400001928E-02 0. -1.
       -1   -1    0    0    0  501  0.00000000000E+00  0.00000000000E+00 -0.13370649985E+04  0.13370649985E+04  0.50400001928E-02 0.  1.
    10030    2    1    2    0    0  0.00000000000E+00  0.00000000000E+00 -0.12701051220E+04  0.14040248752E+04  0.59843030458E+03 0.  0.
        3    1    3    3  502    0  0.12201106535E+03  0.15283755233E+03 -0.11663660154E+04  0.11826477538E+04  0.10100000352E+00 0.  1.
       -3    1    3    3    0  502 -0.12201106535E+03 -0.15283755233E+03 -0.10373910658E+03  0.22137712146E+03  0.10100000352E+00 0. -1.
</event>
<event>
 5   0  0.6078658E-03  0.6000395E+03  0.7818609E-02  0.9905324E-01
       -1   -1    0    0    0  501  0.00000000000E+00  0.00000000000E+00  0.14177090618E+03  0.14177090627E+03  0.50400001928E-02 0. -1.
        1   -1    0    0  501    0  0.00000000000E+00  0.00000000000E+00 -0.63491054939E+03  0.63491054941E+03  0.50400001928E-02 0.  1.
    10030    2    1    2    0    0  0.00000000000E+00  0.00000000000E+00 -0.49313964321E+03  0.77668145568E+03  0.60003947861E+03 0.  0.
        2    1    3    3  502    0 -0.49212522662E+02  0.60809052558E+02  0.12833755202E+03  0.15030016808E+03  0.25500000920E-02 0. -1.
       -2    1    3    3    0  502  0.49212522662E+02 -0.60809052558E+02 -0.62147719523E+03  0.62638128760E+03  0.25500000920E-02 0.  1.
</event>
<event>
 5   0  0.5765045E-03  0.6035163E+03  0.7818609E-02  0.9898138E-01
       -1   -1    0    0    0  501  0.00000000000E+00  0.00000000000E+00  0.10289473230E+04  0.10289473231E+04  0.50400001928E-02 0. -1.
        1   -1    0    0  501    0  0.00000000000E+00  0.00000000000E+00 -0.88496259960E+02  0.88496260104E+02  0.50400001928E-02 0.  1.
    10030    2    1    2    0    0  0.00000000000E+00  0.00000000000E+00  0.94045106308E+03  0.11174435832E+04  0.60351632910E+03 0.  0.
        1    1    3    3  502    0  0.36672546151E+02 -0.24952532539E+03  0.16345789204E+03  0.30054325171E+03  0.50400001928E-02 0.  1.
       -1    1    3    3    0  502 -0.36672546151E+02  0.24952532539E+03  0.77699317104E+03  0.81690033145E+03  0.50400001928E-02 0. -1.
</event>
<event>
 5   0  0.9028473E-03  0.6004902E+03  0.7818609E-02  0.9904390E-01
        2   -1    0    0  501    0  0.00000000000E+00  0.00000000000E+00  0.23473466843E+03  0.23473466844E+03  0.25500000920E-02 0.  1.
       -2   -1    0    0    0  501  0.00000000000E+00  0.00000000000E+00 -0.38403835122E+03  0.38403835123E+03  0.25500000920E-02 0. -1.
    10030    2    1    2    0    0  0.00000000000E+00  0.00000000000E+00 -0.14930368279E+03  0.61877301967E+03  0.60049018325E+03 0.  0.
        1    1    3    3  502    0 -0.28176229789E+03  0.10368611676E+03 -0.77240642102E+02  0.31001116131E+03  0.50400001928E-02 0. -1.
       -1    1    3    3    0  502  0.28176229789E+03 -0.10368611676E+03 -0.72063040693E+02  0.30876185836E+03  0.50400001928E-02 0.  1.
</event>
<event>
 5   0  0.9391405E-03  0.6012515E+03  0.7818609E-02  0.9902813E-01
       -2   -1    0    0    0  501  0.00000000000E+00  0.00000000000E+00  0.50018468998E+02  0.50018469063E+02  0.25500000920E-02 0. -1.
        2   -1    0    0  501    0  0.00000000000E+00  0.00000000000E+00 -0.18068493623E+04  0.18068493623E+04  0.25500000920E-02 0.  1.
    10030    2    1    2    0    0  0.00000000000E+00  0.00000000000E+00 -0.17568308933E+04  0.18568678313E+04  0.60125149105E+03 0.  0.
        2    1    3    3  502    0  0.19048771178E+03 -0.20054629841E+03 -0.51467985493E+03  0.58429422317E+03  0.25500000920E-02 0. -1.
       -2    1    3    3    0  502 -0.19048771178E+03  0.20054629841E+03 -0.12421510383E+04  0.12725736081E+04  0.25500000920E-02 0.  1.
</event>
<event>
 5   0  0.3806250E-03  0.6000775E+03  0.7818609E-02  0.9905245E-01
        3   -1    0    0  501    0  0.00000000000E+00  0.00000000000E+00  0.68886293834E+02  0.68886367876E+02  0.10100000352E+00 0.  1.
       -3   -1    0    0    0  501  0.00000000000E+00  0.00000000000E+00 -0.13068376316E+04  0.13068376355E+04  0.10100000352E+00 0. -1.
    10030    2    1    2    0    0  0.00000000000E+00  0.00000000000E+00 -0.12379513378E+04  0.13757240034E+04  0.60007751067E+03 0.  0.
        5    1    3    3  502    0  0.25686814831E+03 -0.15011920340E+03 -0.53065507854E+03  0.60838632728E+03  0.46999998093E+01 0.  1.
       -5    1    3    3    0  502 -0.25686814831E+03  0.15011920340E+03 -0.70729625927E+03  0.76733767614E+03  0.46999998093E+01 0. -1.
</event>
<event>
 5   0  0.5790967E-03  0.5999744E+03  0.7818609E-02  0.9905459E-01
       -1   -1    0    0    0  501  0.00000000000E+00  0.00000000000E+00  0.17306873137E+03  0.17306873145E+03  0.50400001928E-02 0. -1.
        1   -1    0    0  501    0  0.00000000000E+00  0.00000000000E+00 -0.51998015464E+03  0.51998015466E+03  0.50400001928E-02 0.  1.
    10030    2    1    2    0    0  0.00000000000E+00  0.00000000000E+00 -0.34691142327E+03  0.69304888611E+03  0.59997435191E+03 0.  0.
        3    1    3    3  502    0 -0.18966499593E+03 -0.13488032354E+03  0.45187043988E+02  0.23708098090E+03  0.10100000352E+00 0. -1.
       -3    1    3    3    0  502  0.18966499593E+03  0.13488032354E+03 -0.39209846725E+03  0.45596790521E+03  0.10100000352E+00 0.  1.
</event>
<event>
 5   0  0.9028473E-03  0.6008275E+03  0.7818609E-02  0.9903691E-01
        2   -1    0    0  501    0  0.00000000000E+00  0.00000000000E+00  0.57935263180E+03  0.57935263181E+03  0.25500000920E-02 0.  1.
       -2   -1    0    0    0  501  0.00000000000E+00  0.00000000000E+00 -0.15577457788E+03  0.15577457790E+03  0.25500000920E-02 0. -1.
    10030    2    1    2    0    0  0.00000000000E+00  0.00000000000E+00  0.42357805392E+03  0.73512720971E+03  0.60082746832E+03 0.  0.
        1    1    3    3  502    0 -0.73767920517E+02 -0.54261202046E+02  0.56185913449E+03  0.56927293206E+03  0.50400001928E-02 0.  1.
       -1    1    3    3    0  502  0.73767920517E+02  0.54261202046E+02 -0.13828108057E+03  0.16585427765E+03  0.50400001928E-02 0. -1.
</event>
<event>
 5   0  0.5765045E-03  0.6002160E+03  0.7818609E-02  0.9904958E-01
        1   -1    0    0  501    0  0.00000000000E+00  0.00000000000E+00  0.10263169466E+04  0.10263169466E+04  0.50400001928E-02 0. -1.
       -1   -1    0    0    0  501  0.00000000000E+00  0.00000000000E+00 -0.87755345077E+02  0.87755345222E+02  0.50400001928E-02 0.  1.
    10030    2    1    2    0    0  0.00000000000E+00  0.00000000000E+00  0.93856160155E+03  0.11140722919E+04  0.60021595413E+03 0.  0.
        1    1    3    3  502    0 -0.11331789520E+03 -0.27744752731E+03  0.44012601517E+03  0.53247439848E+03  0.50400001928E-02 0. -1.
       -1    1    3    3    0  502  0.11331789520E+03  0.27744752731E+03  0.49843558638E+03  0.58159789338E+03  0.50400001928E-02 0.  1.
</event>
<event>
 5   0  0.5790967E-03  0.5997009E+03  0.7818609E-02  0.9906027E-01
       -1   -1    0    0    0  501  0.00000000000E+00  0.00000000000E+00  0.66316221980E+02  0.66316222172E+02  0.50400001928E-02 0. -1.
        1   -1    0    0  501    0  0.00000000000E+00  0.00000000000E+00 -0.13557813031E+04  0.13557813031E+04  0.50400001928E-02 0.  1.
    10030    2    1    2    0    0  0.00000000000E+00  0.00000000000E+00 -0.12894650811E+04  0.14220975252E+04  0.59970090543E+03 0.  0.
        3    1    3    3  502    0  0.68767924725E+02 -0.34049069178E+02 -0.13321031673E+04  0.13343115173E+04  0.10100000352E+00 0.  1.
       -3    1    3    3    0  502 -0.68767924725E+02  0.34049069178E+02  0.42638086279E+02  0.87786007914E+02  0.10100000352E+00 0. -1.
</event>
<event>
 5   0  0.9303190E-03  0.6000183E+03  0.7818609E-02  0.9905368E-01
        2   -1    0    0  501    0  0.00000000000E+00  0.00000000000E+00  0.11588687450E+04  0.11588687450E+04  0.25500000920E-02 0. -1.
       -2   -1    0    0    0  501  0.00000000000E+00  0.00000000000E+00 -0.77666687888E+02  0.77666687930E+02  0.25500000920E-02 0.  1.
    10030    2    1    2    0    0  0.00000000000E+00  0.00000000000E+00  0.10812020571E+04  0.12365354329E+04  0.60001832354E+03 0.  0.
        4    1    3    3  502    0  0.15795583798E+03  0.79358359104E+02  0.10401389816E+04  0.10550537948E+04  0.12699999809E+01 0.  1.
       -4    1    3    3    0  502 -0.15795583798E+03 -0.79358359104E+02  0.41063075478E+02  0.18148163813E+03  0.12699999809E+01 0. -1.
</event>
<event>
 5   0  0.9162342E-03  0.6004151E+03  0.7818609E-02  0.9904545E-01
       -2   -1    0    0    0  501  0.00000000000E+00  0.00000000000E+00  0.78721093374E+02  0.78721093415E+02  0.25500000920E-02 0.  1.
        2   -1    0    0  501    0  0.00000000000E+00  0.00000000000E+00 -0.11448591952E+04  0.11448591952E+04  0.25500000920E-02 0. -1.
    10030    2    1    2    0    0  0.00000000000E+00  0.00000000000E+00 -0.10661381018E+04  0.12235802886E+04  0.60041508187E+03 0.  0.
        5    1    3    3  502    0  0.92212318524E+02  0.15530446461E+03 -0.10216526007E+04  0.10375060072E+04  0.46999998093E+01 0. -1.
       -5    1    3    3    0  502 -0.92212318524E+02 -0.15530446461E+03 -0.44485501162E+02  0.18607428148E+03  0.46999998093E+01 0.  1.
</event>
<event>
 5   0  0.3806250E-03  0.6007973E+03  0.7818609E-02  0.9903753E-01
       -3   -1    0    0    0  501  0.00000000000E+00  0.00000000000E+00  0.18841131237E+03  0.18841133944E+03  0.10100000352E+00 0.  1.
        3   -1    0    0  501    0  0.00000000000E+00  0.00000000000E+00 -0.47894854139E+03  0.47894855204E+03  0.10100000352E+00 0. -1.
    10030    2    1    2    0    0  0.00000000000E+00  0.00000000000E+00 -0.29053722902E+03  0.66735989148E+03  0.60079725642E+03 0.  0.
        2    1    3    3  502    0  0.19367135462E+03  0.98572388915E+02  0.85107908462E+02  0.23338480145E+03  0.25500000920E-02 0.  1.
       -2    1    3    3    0  502 -0.19367135462E+03 -0.98572388915E+02 -0.37564513748E+03  0.43397509004E+03  0.25500000920E-02 0. -1.
</event>
<event>
 5   0  0.9028473E-03  0.6019386E+03  0.7818609E-02  0.9901392E-01
        2   -1    0    0  501    0  0.00000000000E+00  0.00000000000E+00  0.73234155250E+03  0.73234155250E+03  0.25500000920E-02 0. -1.
       -2   -1    0    0    0  501  0.00000000000E+00  0.00000000000E+00 -0.12368891324E+03  0.12368891326E+03  0.25500000920E-02 0.  1.
    10030    2    1    2    0    0  0.00000000000E+00  0.00000000000E+00  0.60865263926E+03  0.85603046576E+03  0.60193863727E+03 0.  0.
        1    1    3    3  502    0 -0.44492755669E+02  0.10394233169E+03  0.70099122345E+03  0.71005092001E+03  0.50400001928E-02 0. -1.
       -1    1    3    3    0  502  0.44492755669E+02 -0.10394233169E+03 -0.92338584192E+02  0.14597954576E+03  0.50400001928E-02 0.  1.
</event>
<event>
 5   0  0.9162342E-03  0.6021294E+03  0.7818609E-02  0.9900998E-01
        2   -1    0    0  501    0  0.00000000000E+00  0.00000000000E+00  0.23348693899E+03  0.23348693901E+03  0.25500000920E-02 0. -1.
       -2   -1    0    0    0  501  0.00000000000E+00  0.00000000000E+00 -0.38820143756E+03  0.38820143757E+03  0.25500000920E-02 0.  1.
    10030    2    1    2    0    0  0.00000000000E+00  0.00000000000E+00 -0.15471449857E+03  0.62168837658E+03  0.60212943916E+03 0.  0.
        5    1    3    3  502    0 -0.11027773999E+03 -0.36621418277E+02  0.20936006177E+03  0.23949119750E+03  0.46999998093E+01 0. -1.
       -5    1    3    3    0  502  0.11027773999E+03  0.36621418277E+02 -0.36407456034E+03  0.38219717908E+03  0.46999998093E+01 0.  1.
</event>
<event>
 5   0  0.9303190E-03  0.6001959E+03  0.7818609E-02  0.9905000E-01
       -2   -1    0    0    0  501  0.00000000000E+00  0.00000000000E+00  0.22293430213E+03  0.22293430215E+03  0.25500000920E-02 0.  1.
        2   -1    0    0  501    0  0.00000000000E+00  0.00000000000E+00 -0.40396997731E+03  0.40396997732E+03  0.25500000920E-02 0. -1.
    10030    2    1    2    0    0  0.00000000000E+00  0.00000000000E+00 -0.18103567518E+03  0.62690427947E+03  0.60019585131E+03 0.  0.
        4    1    3    3  502    0 -0.18117722522E+03  0.19368368210E+03  0.56153835051E+02  0.27109670182E+03  0.12699999809E+01 0. -1.
       -4    1    3    3    0  502  0.18117722522E+03 -0.19368368210E+03 -0.23718951023E+03  0.35580757764E+03  0.12699999809E+01 0.  1.
</event>
<event>
 5   0  0.5790967E-03  0.5999760E+03  0.7818609E-02  0.9905456E-01
       -1   -1    0    0    0  501  0.00000000000E+00  0.00000000000E+00  0.30930362692E+03  0.30930362696E+03  0.50400001928E-02 0. -1.
        1   -1    0    0  501    0  0.00000000000E+00  0.00000000000E+00 -0.29095289504E+03  0.29095289509E+03  0.50400001928E-02 0.  1.
    10030    2    1    2    0    0  0.00000000000E+00  0.00000000000E+00  0.18350731871E+02  0.60025652204E+03  0.59997595193E+03 0.  0.
        3    1    3    3  502    0  0.21085412835E+03  0.18986525729E+03 -0.88258554266E+02  0.29714956162E+03  0.10100000352E+00 0.  1.
       -3    1    3    3    0  502 -0.21085412835E+03 -0.18986525729E+03  0.10660928614E+03  0.30310696043E+03  0.10100000352E+00 0. -1.
</event>
<event>
 5   0  0.5790967E-03  0.5999989E+03  0.7818609E-02  0.9905408E-01
       -1   -1    0    0    0  501  0.00000000000E+00  0.00000000000E+00  0.29526489269E+03  0.29526489273E+03  0.50400001928E-02 0.  1.
        1   -1    0    0  501    0  0.00000000000E+00  0.00000000000E+00 -0.30480994573E+03  0.30480994577E+03  0.50400001928E-02 0. -1.
    10030    2    1    2    0    0  0.00000000000E+00  0.00000000000E+00 -0.95450530367E+01  0.60007483850E+03  0.59999891980E+03 0.  0.
        3    1    3    3  502    0 -0.15482218752E+03  0.18594451644E+03 -0.18214883057E+03  0.30285884438E+03  0.10100000352E+00 0.  1.
       -3    1    3    3    0  502  0.15482218752E+03 -0.18594451644E+03  0.17260377753E+03  0.29721599412E+03  0.10100000352E+00 0. -1.
</event>
<event>
 5   0  0.9822607E-03  0.5997933E+03  0.7818609E-02  0.9905835E-01
        2   -1    0    0  501    0  0.00000000000E+00  0.00000000000E+00  0.68841090268E+03  0.68841090269E+03  0.25500000920E-02 0.  1.
       -2   -1    0    0    0  501  0.00000000000E+00  0.00000000000E+00 -0.13064580342E+03  0.13064580345E+03  0.25500000920E-02 0. -1.
    10030    2    1    2    0    0  0.00000000000E+00  0.00000000000E+00  0.55776509926E+03  0.81905670613E+03  0.59979328265E+03 0.  0.
        3    1    3    3  502    0  0.43375040808E+02  0.13225351138E+03 -0.83868678712E+02  0.16250031048E+03  0.10100000352E+00 0. -1.
       -3    1    3    3    0  502 -0.43375040808E+02 -0.13225351138E+03  0.64163377797E+03  0.65655639565E+03  0.10100000352E+00 0.  1.
</event>
<event>
 5   0  0.9303190E-03  0.5997177E+03  0.7818609E-02  0.9905992E-01
        2   -1    0    0  501    0  0.00000000000E+00  0.00000000000E+00  0.19635454550E+04  0.19635454550E+04  0.25500000920E-02 0.  1.
       -2   -1    0    0    0  501  0.00000000000E+00  0.00000000000E+00 -0.45792326648E+02  0.45792326719E+02  0.25500000920E-02 0. -1.
    10030    2    1    2    0    0  0.00000000000E+00  0.00000000000E+00  0.19177531284E+04  0.20093377817E+04  0.59971765002E+03 0.  0.
        4    1    3    3  502    0 -0.13271945307E+03  0.92059057817E+01  0.18592409841E+04  0.18639951319E+04  0.12699999809E+01 0.  1.
       -4    1    3    3    0  502  0.13271945307E+03 -0.92059057817E+01  0.58512144228E+02  0.14534264979E+03  0.12699999809E+01 0. -1.
</event>
<event>
 5   0  0.6078658E-03  0.6002566E+03  0.7818609E-02  0.9904874E-01
        1   -1    0    0  501    0  0.00000000000E+00  0.00000000000E+00  0.19024509937E+03  0.19024509943E+03  0.50400001928E-02 0. -1.
       -1   -1    0    0    0  501  0.00000000000E+00  0.00000000000E+00 -0.47347863720E+03  0.47347863723E+03  0.50400001928E-02 0.  1.
    10030    2    1    2    0    0  0.00000000000E+00  0.00000000000E+00 -0.28323353783E+03  0.66372373666E+03  0.60025657985E+03 0.  0.
        2    1    3    3  502    0 -0.67767785355E+02 -0.61323936889E+02  0.17448355577E+03  0.19697108724E+03  0.25500000920E-02 0. -1.
       -2    1    3    3    0  502  0.67767785355E+02  0.61323936889E+02 -0.45771709360E+03  0.46675264943E+03  0.25500000920E-02 0.  1.
</event>
<event>
 5   0  0.5765045E-03  0.5996193E+03  0.7818609E-02  0.9906196E-01
       -1   -1    0    0    0  501  0.00000000000E+00  0.00000000000E+00  0.23261805747E+03  0.23261805752E+03  0.50400001928E-02 0. -1.
        1   -1    0    0  501    0  0.00000000000E+00  0.00000000000E+00 -0.38640949542E+03  0.38640949545E+03  0.50400001928E-02 0.  1.
    10030    2    1    2    0    0  0.00000000000E+00  0.00000000000E+00 -0.15379143795E+03  0.61902755297E+03  0.59961930002E+03 0.  0.
        1    1    3    3  502    0 -0.56595461597E+02 -0.15283160328E+03  0.18289458589E+03  0.24497137549E+03  0.50400001928E-02 0. -1.
       -1    1    3    3    0  502  0.56595461597E+02  0.15283160328E+03 -0.33668602384E+03  0.37405617748E+03  0.50400001928E-02 0.  1.
</event>
<event>
 5   0  0.3806250E-03  0.5975452E+03  0.7818609E-02  0.9910512E-01
       -4   -1    0    0    0  501  0.00000000000E+00  0.00000000000E+00  0.60202275780E+03  0.60202409737E+03  0.12699999809E+01 0. -1.
        4   -1    0    0  501    0  0.00000000000E+00  0.00000000000E+00 -0.14827102949E+03  0.14827646842E+03  0.12699999809E+01 0.  1.
    10030    2    1    2    0    0  0.00000000000E+00  0.00000000000E+00  0.45375172831E+03  0.75030056579E+03  0.59754523517E+03 0.  0.
        5    1    3    3  502    0  0.17757997268E+03  0.13409256409E+03 -0.23394968653E+02  0.22379650801E+03  0.46999998093E+01 0.  1.
       -5    1    3    3    0  502 -0.17757997268E+03 -0.13409256409E+03  0.47714669696E+03  0.52650405778E+03  0.46999998093E+01 0. -1.
</event>
<event>
 5   0  0.3806250E-03  0.5993891E+03  0.7818609E-02  0.9906674E-01
        3   -1    0    0  501    0  0.00000000000E+00  0.00000000000E+00  0.97063457843E+02  0.97063510391E+02  0.10100000352E+00 0. -1.
       -3   -1    0    0    0  501  0.00000000000E+00  0.00000000000E+00 -0.92534084557E+03  0.92534085108E+03  0.10100000352E+00 0.  1.
    10030    2    1    2    0    0  0.00000000000E+00  0.00000000000E+00 -0.82827738773E+03  0.10224043615E+04  0.59938906175E+03 0.  0.
        4    1    3    3  502    0 -0.18763917276E+01 -0.11788213378E+03 -0.88411834353E+03  0.89194538878E+03  0.12699999809E+01 0.  1.
       -4    1    3    3    0  502  0.18763917276E+01  0.11788213378E+03  0.55840955798E+02  0.13045897269E+03  0.12699999809E+01 0. -1.
</event>
<event>
 5   0  0.9303190E-03  0.5992081E+03  0.7818609E-02  0.9907050E-01
        2   -1    0    0  501    0  0.00000000000E+00  0.00000000000E+00  0.13930367805E+04  0.13930367805E+04  0.25500000920E-02 0. -1.
       -2   -1    0    0    0  501  0.00000000000E+00  0.00000000000E+00 -0.64436620421E+02  0.64436620471E+02  0.25500000920E-02 0.  1.
    10030    2    1    2    0    0  0.00000000000E+00  0.00000000000E+00  0.13286001601E+04  0.14574734010E+04  0.59920808504E+03 0.  0.
        4    1    3    3  502    0  0.23990958598E+03  0.75748721411E+02  0.26859542726E+03  0.36802118782E+03  0.12699999809E+01 0.  1.
       -4    1    3    3    0  502 -0.23990958598E+03 -0.75748721411E+02  0.10600047328E+04  0.10894522131E+04  0.12699999809E+01 0. -1.
</event>
<event>
 5   0  0.9303190E-03  0.6001144E+03  0.7818609E-02  0.9905169E-01
       -2   -1    0    0    0  501  0.00000000000E+00  0.00000000000E+00  0.10382604113E+03  0.10382604116E+03  0.25500000920E-02 0. -1.
        2   -1    0    0  501    0  0.00000000000E+00  0.00000000000E+00 -0.86716523931E+03  0.86716523931E+03  0.25500000920E-02 0.  1.
    10030    2    1    2    0    0  0.00000000000E+00  0.00000000000E+00 -0.76333919818E+03  0.97099128048E+03  0.60011443516E+03 0.  0.
        4    1    3    3  502    0  0.11195695144E+02  0.71987141181E+02  0.89294314602E+02  0.11525007421E+03  0.12699999809E+01 0. -1.
       -4    1    3    3    0  502 -0.11195695144E+02 -0.71987141181E+02 -0.85263351278E+03  0.85574120627E+03  0.12699999809E+01 0.  1.
</event>
<event>
 5   0  0.9162342E-03  0.5994489E+03  0.7818609E-02  0.9906550E-01
        2   -1    0    0  501    0  0.00000000000E+00  0.00000000000E+00  0.73769150509E+02  0.73769150553E+02  0.25500000920E-02 0.  1.
       -2   -1    0    0    0  501  0.00000000000E+00  0.00000000000E+00 -0.12177820881E+04  0.12177820881E+04  0.25500000920E-02 0. -1.
    10030    2    1    2    0    0  0.00000000000E+00  0.00000000000E+00 -0.11440129376E+04  0.12915512387E+04  0.59944891417E+03 0.  0.
        5    1    3    3  502    0 -0.83400349053E+02 -0.26789857020E+03 -0.79887501178E+03  0.84672819522E+03  0.46999998093E+01 0. -1.
       -5    1    3    3    0  502  0.83400349053E+02  0.26789857020E+03 -0.34513792581E+03  0.44482304343E+03  0.46999998093E+01 0.  1.
</event>
<event>
 5   0  0.3806250E-03  0.5999128E+03  0.7818609E-02  0.9905587E-01
        3   -1    0    0  501    0  0.00000000000E+00  0.00000000000E+00  0.95032572925E+02  0.95032626596E+02  0.10100000352E+00 0. -1.
       -3   -1    0    0    0  501  0.00000000000E+00  0.00000000000E+00 -0.94676801616E+03  0.94676802154E+03  0.10100000352E+00 0.  1.
    10030    2    1    2    0    0  0.00000000000E+00  0.00000000000E+00 -0.85173544323E+03  0.10418006481E+04  0.59991276466E+03 0.  0.
        1    1    3    3  502    0  0.24344803748E+03  0.13554013696E+03 -0.23299118515E+03  0.36321201531E+03  0.50400001928E-02 0.  1.
       -1    1    3    3    0  502 -0.24344803748E+03 -0.13554013696E+03 -0.61874425808E+03  0.67858863283E+03  0.50400001928E-02 0. -1.
</event>
<event>
 5   0  0.5790967E-03  0.6023352E+03  0.7818609E-02  0.9900573E-01
        1   -1    0    0  501    0  0.00000000000E+00  0.00000000000E+00  0.31957456157E+03  0.31957456161E+03  0.50400001928E-02 0. -1.
       -1   -1    0    0    0  501  0.00000000000E+00  0.00000000000E+00 -0.28382082608E+03  0.28382082613E+03  0.50400001928E-02 0.  1.
    10030    2    1    2    0    0  0.00000000000E+00  0.00000000000E+00  0.35753735490E+02  0.60339538774E+03  0.60233517608E+03 0.  0.
        3    1    3    3  502    0 -0.59515858135E+02  0.28760092981E+03 -0.48914875990E+02  0.29773999981E+03  0.10100000352E+00 0.  1.
       -3    1    3    3    0  502  0.59515858135E+02 -0.28760092981E+03  0.84668611480E+02  0.30565538792E+03  0.10100000352E+00 0. -1.
</event>
<event>
 5   0  0.6078658E-03  0.6001369E+03  0.7818609E-02  0.9905122E-01
        1   -1    0    0  501    0  0.00000000000E+00  0.00000000000E+00  0.24207015882E+03  0.24207015887E+03  0.50400001928E-02 0. -1.
       -1   -1    0    0    0  501  0.00000000000E+00  0.00000000000E+00 -0.37196277001E+03  0.37196277004E+03  0.50400001928E-02 0.  1.
    10030    2    1    2    0    0  0.00000000000E+00  0.00000000000E+00 -0.12989261119E+03  0.61403292891E+03  0.60013694050E+03 0.  0.
        2    1    3    3  502    0 -0.19505038057E+03 -0.19612307927E+03 -0.18396771343E+03  0.33219426962E+03  0.25500000920E-02 0.  1.
       -2    1    3    3    0  502  0.19505038057E+03  0.19612307927E+03  0.54075102241E+02  0.28183865929E+03  0.25500000920E-02 0. -1.
</event>
<event>
 5   0  0.9028473E-03  0.5958976E+03  0.7818609E-02  0.9913954E-01
       -2   -1    0    0    0  501  0.00000000000E+00  0.00000000000E+00  0.12621504437E+03  0.12621504440E+03  0.25500000920E-02 0. -1.
        2   -1    0    0  501    0  0.00000000000E+00  0.00000000000E+00 -0.70335103206E+03  0.70335103207E+03  0.25500000920E-02 0.  1.
    10030    2    1    2    0    0  0.00000000000E+00  0.00000000000E+00 -0.57713598769E+03  0.82956607646E+03  0.59589758091E+03 0.  0.
        1    1    3    3  502    0  0.23449314556E+02  0.27199445883E+03 -0.12242792253E+03  0.29919801508E+03  0.50400001928E-02 0. -1.
       -1    1    3    3    0  502 -0.23449314556E+02 -0.27199445883E+03 -0.45470806517E+03  0.53036806139E+03  0.50400001928E-02 0.  1.
</event>
<event>
 5   0  0.6078658E-03  0.6005066E+03  0.7818609E-02  0.9904356E-01
        1   -1    0    0  501    0  0.00000000000E+00  0.00000000000E+00  0.57313149746E+03  0.57313149748E+03  0.50400001928E-02 0. -1.
       -1   -1    0    0    0  501  0.00000000000E+00  0.00000000000E+00 -0.15729733108E+03  0.15729733116E+03  0.50400001928E-02 0.  1.
    10030    2    1    2    0    0  0.00000000000E+00  0.00000000000E+00  0.41583416638E+03  0.73042882863E+03  0.60050663591E+03 0.  0.
        2    1    3    3  502    0 -0.16767658727E+03 -0.18313035839E+03  0.25732438370E+01  0.24831187582E+03  0.25500000920E-02 0.  1.
       -2    1    3    3    0  502  0.16767658727E+03  0.18313035839E+03  0.41326092254E+03  0.48211695281E+03  0.25500000920E-02 0. -1.
</event>
<event>
 5   0  0.9303190E-03  0.5968431E+03  0.7818609E-02  0.9911977E-01
        2   -1    0    0  501    0  0.00000000000E+00  0.00000000000E+00  0.13384446572E+04  0.13384446572E+04  0.25500000920E-02 0.  1.
       -2   -1    0    0    0  501  0.00000000000E+00  0.00000000000E+00 -0.66536503406E+02  0.66536503455E+02  0.25500000920E-02 0. -1.
    10030    2    1    2    0    0  0.00000000000E+00  0.00000000000E+00  0.12719081538E+04  0.14049811607E+04  0.59684312020E+03 0.  0.
        4    1    3    3  502    0  0.24720324598E+03  0.11519885272E+03  0.92110748074E+03  0.96063563565E+03  0.12699999809E+01 0.  1.
       -4    1    3    3    0  502 -0.24720324598E+03 -0.11519885272E+03  0.35080067310E+03  0.44434552506E+03  0.12699999809E+01 0. -1.
</event>
<event>
 5   0  0.5819446E-03  0.5982448E+03  0.7818609E-02  0.9909054E-01
        1   -1    0    0  501    0  0.00000000000E+00  0.00000000000E+00  0.59058643945E+03  0.59058643947E+03  0.50400001928E-02 0.  1.
       -1   -1    0    0    0  501  0.00000000000E+00  0.00000000000E+00 -0.15150059927E+03  0.15150059936E+03  0.50400001928E-02 0. -1.
    10030    2    1    2    0    0  0.00000000000E+00  0.00000000000E+00  0.43908584018E+03  0.74208703883E+03  0.59824476441E+03 0.  0.
        5    1    3    3  502    0 -0.10392698753E+03 -0.45073044185E+01 -0.12829167193E+03  0.16523310084E+03  0.46999998093E+01 0. -1.
       -5    1    3    3    0  502  0.10392698753E+03  0.45073044185E+01  0.56737751210E+03  0.57685393799E+03  0.46999998093E+01 0.  1.
</event>
<event>
 5   0  0.9391405E-03  0.6003611E+03  0.7818609E-02  0.9904657E-01
        2   -1    0    0  501    0  0.00000000000E+00  0.00000000000E+00  0.91340676249E+03  0.91340676250E+03  0.25500000920E-02 0.  1.
       -2   -1    0    0    0  501  0.00000000000E+00  0.00000000000E+00 -0.98650844216E+02  0.98650844249E+02  0.25500000920E-02 0. -1.
    10030    2    1    2    0    0  0.00000000000E+00  0.00000000000E+00  0.81475591828E+03  0.10120576067E+04  0.60036105220E+03 0.  0.
        2    1    3    3  502    0 -0.22758697210E+03 -0.11793040458E+03  0.14402901701E+03  0.29402001283E+03  0.25500000920E-02 0. -1.
       -2    1    3    3    0  502  0.22758697210E+03  0.11793040458E+03  0.67072690126E+03  0.71803759392E+03  0.25500000920E-02 0.  1.
</event>
<event>
 5   0  0.5891927E-03  0.5997281E+03  0.7818609E-02  0.9905970E-01
       -1   -1    0    0    0  501  0.00000000000E+00  0.00000000000E+00  0.18417485995E+03  0.18417486002E+03  0.50400001928E-02 0. -1.
        1   -1    0    0  501    0  0.00000000000E+00  0.00000000000E+00 -0.48822326794E+03  0.48822326797E+03  0.50400001928E-02 0.  1.
    10030    2    1    2    0    0  0.00000000000E+00  0.00000000000E+00 -0.30404840799E+03  0.67239812799E+03  0.59972811183E+03 0.  0.
        4    1    3    3  502    0  0.15038316275E+03  0.57507927038E+02  0.13160026240E+03  0.20794830914E+03  0.12699999809E+01 0. -1.
       -4    1    3    3    0  502 -0.15038316275E+03 -0.57507927038E+02 -0.43564867039E+03  0.46444981884E+03  0.12699999809E+01 0.  1.
</event>
<event>
 5   0  0.9303190E-03  0.6003422E+03  0.7818609E-02  0.9904696E-01
        2   -1    0    0  501    0  0.00000000000E+00  0.00000000000E+00  0.19787608544E+04  0.19787608544E+04  0.25500000920E-02 0.  1.
       -2   -1    0    0    0  501  0.00000000000E+00  0.00000000000E+00 -0.45534911550E+02  0.45534911621E+02  0.25500000920E-02 0. -1.
    10030    2    1    2    0    0  0.00000000000E+00  0.00000000000E+00  0.19332259429E+04  0.20242957660E+04  0.60034223759E+03 0.  0.
        4    1    3    3  502    0  0.26558606837E+03 -0.13163109448E+03  0.11261429321E+04  0.11645008463E+04  0.12699999809E+01 0.  1.
       -4    1    3    3    0  502 -0.26558606837E+03  0.13163109448E+03  0.80708301079E+03  0.85979491970E+03  0.12699999809E+01 0. -1.
</event>
<event>
 5   0  0.5790967E-03  0.5995205E+03  0.7818609E-02  0.9906401E-01
       -1   -1    0    0    0  501  0.00000000000E+00  0.00000000000E+00  0.22404021786E+03  0.22404021791E+03  0.50400001928E-02 0.  1.
        1   -1    0    0  501    0  0.00000000000E+00  0.00000000000E+00 -0.40107183743E+03  0.40107183746E+03  0.50400001928E-02 0. -1.
    10030    2    1    2    0    0  0.00000000000E+00  0.00000000000E+00 -0.17703161958E+03  0.62511205538E+03  0.59952054798E+03 0.  0.
        3    1    3    3  502    0 -0.21410649517E+03  0.35422762020E+02  0.12709566973E+03  0.25149489618E+03  0.10100000352E+00 0.  1.
       -3    1    3    3    0  502  0.21410649517E+03 -0.35422762020E+02 -0.30412728930E+03  0.37361715919E+03  0.10100000352E+00 0. -1.
</event>
<event>
 5   0  0.9162342E-03  0.5992379E+03  0.7818609E-02  0.9906988E-01
       -2   -1    0    0    0  501  0.00000000000E+00  0.00000000000E+00  0.65301002653E+02  0.65301002702E+02  0.25500000920E-02 0.  1.
        2   -1    0    0  501    0  0.00000000000E+00  0.00000000000E+00 -0.13747340502E+04  0.13747340502E+04  0.25500000920E-02 0. -1.
    10030    2    1    2    0    0  0.00000000000E+00  0.00000000000E+00 -0.13094330476E+04  0.14400350529E+04  0.59923788899E+03 0.  0.
        5    1    3    3  502    0 -0.12581259690E+03 -0.26861675249E+03 -0.75569444660E+03  0.81183739497E+03  0.46999998093E+01 0.  1.
       -5    1    3    3    0  502  0.12581259690E+03  0.26861675249E+03 -0.55373860099E+03  0.62819765798E+03  0.46999998093E+01 0. -1.
</event>
<event>
 5   0  0.9162342E-03  0.6001743E+03  0.7818609E-02  0.9905044E-01
       -2   -1    0    0    0  501  0.00000000000E+00  0.00000000000E+00  0.96450770449E+02  0.96450770483E+02  0.25500000920E-02 0.  1.
        2   -1    0    0  501    0  0.00000000000E+00  0.00000000000E+00 -0.93366078454E+03  0.93366078455E+03  0.25500000920E-02 0. -1.
    10030    2    1    2    0    0  0.00000000000E+00  0.00000000000E+00 -0.83721001410E+03  0.10301115550E+04  0.60017431477E+03 0.  0.
        5    1    3    3  502    0 -0.26723760803E+03 -0.11479897460E+03 -0.54514428085E+03  0.61789895667E+03  0.46999998093E+01 0. -1.
       -5    1    3    3    0  502  0.26723760803E+03  0.11479897460E+03 -0.29206573325E+03  0.41221259836E+03  0.46999998093E+01 0.  1.
</event>
<event>
 5   0  0.9028473E-03  0.5994601E+03  0.7818609E-02  0.9906527E-01
       -2   -1    0    0    0  501  0.00000000000E+00  0.00000000000E+00  0.56225781963E+02  0.56225782021E+02  0.25500000920E-02 0. -1.
        2   -1    0    0  501    0  0.00000000000E+00  0.00000000000E+00 -0.15978099420E+04  0.15978099420E+04  0.25500000920E-02 0.  1.
    10030    2    1    2    0    0  0.00000000000E+00  0.00000000000E+00 -0.15415841600E+04  0.16540357240E+04  0.59946013534E+03 0.  0.
        1    1    3    3  502    0  0.87610346856E+02  0.28540822487E+03 -0.69754634868E+03  0.75875182786E+03  0.50400001928E-02 0. -1.
       -1    1    3    3    0  502 -0.87610346856E+02 -0.28540822487E+03 -0.84403781133E+03  0.89528389614E+03  0.50400001928E-02 0.  1.
</event>
<event>
 5   0  0.6078658E-03  0.5991683E+03  0.7818609E-02  0.9907133E-01
       -1   -1    0    0    0  501  0.00000000000E+00  0.00000000000E+00  0.36113540701E+03  0.36113540705E+03  0.50400001928E-02 0. -1.
        1   -1    0    0  501    0  0.00000000000E+00  0.00000000000E+00 -0.24852356190E+03  0.24852356195E+03  0.50400001928E-02 0.  1.
    10030    2    1    2    0    0  0.00000000000E+00  0.00000000000E+00  0.11261184512E+03  0.60965896899E+03  0.59916828255E+03 0.  0.
        2    1    3    3  502    0  0.60343016113E+02 -0.39909795013E+02 -0.23950153960E+03  0.25019004539E+03  0.25500000920E-02 0.  1.
       -2    1    3    3    0  502 -0.60343016113E+02  0.39909795013E+02  0.35211338472E+03  0.35946892360E+03  0.25500000920E-02 0. -1.
</event>
<event>
 5   0  0.5790967E-03  0.5990967E+03  0.7818609E-02  0.9907282E-01
       -1   -1    0    0    0  501  0.00000000000E+00  0.00000000000E+00  0.11688525699E+03  0.11688525710E+03  0.50400001928E-02 0. -1.
        1   -1    0    0  501    0  0.00000000000E+00  0.00000000000E+00 -0.76766934163E+03  0.76766934164E+03  0.50400001928E-02 0.  1.
    10030    2    1    2    0    0  0.00000000000E+00  0.00000000000E+00 -0.65078408464E+03  0.88455459874E+03  0.59909674790E+03 0.  0.
        3    1    3    3  502    0  0.18860117639E+03  0.15557752982E+03 -0.69852370346E+02  0.25427177461E+03  0.10100000352E+00 0. -1.
       -3    1    3    3    0  502 -0.18860117639E+03 -0.15557752982E+03 -0.58093171429E+03  0.63028282413E+03  0.10100000352E+00 0.  1.
</event>
<event>
 5   0  0.5765045E-03  0.6004342E+03  0.7818609E-02  0.9904506E-01
        1   -1    0    0  501    0  0.00000000000E+00  0.00000000000E+00  0.88826646205E+03  0.88826646206E+03  0.50400001928E-02 0. -1.
       -1   -1    0    0    0  501  0.00000000000E+00  0.00000000000E+00 -0.10146764573E+03  0.10146764586E+03  0.50400001928E-02 0.  1.
    10030    2    1    2    0    0  0.00000000000E+00  0.00000000000E+00  0.78679881632E+03  0.98973410792E+03  0.60043419875E+03 0.  0.
        1    1    3    3  502    0 -0.10705658776E+02 -0.27798621682E+03  0.20735059557E+03  0.34696572940E+03  0.50400001928E-02 0. -1.
       -1    1    3    3    0  502  0.10705658776E+02  0.27798621682E+03  0.57944822075E+03  0.64276837852E+03  0.50400001928E-02 0.  1.
</event>
<event>
 5   0  0.9303190E-03  0.5987362E+03  0.7818609E-02  0.9908032E-01
        2   -1    0    0  501    0  0.00000000000E+00  0.00000000000E+00  0.79181802424E+03  0.79181802424E+03  0.25500000920E-02 0.  1.
       -2   -1    0    0    0  501  0.00000000000E+00  0.00000000000E+00 -0.11318414473E+03  0.11318414476E+03  0.25500000920E-02 0. -1.
    10030    2    1    2    0    0  0.00000000000E+00  0.00000000000E+00  0.67863387951E+03  0.90500216900E+03  0.59873615515E+03 0.  0.
        4    1    3    3  502    0  0.22926676551E+03 -0.10559113316E+03  0.58260557664E+03  0.63493590858E+03  0.12699999809E+01 0. -1.
       -4    1    3    3    0  502 -0.22926676551E+03  0.10559113316E+03  0.96028302866E+02  0.27006626042E+03  0.12699999809E+01 0.  1.
</event>
<event>
 5   0  0.5819446E-03  0.6004575E+03  0.7818609E-02  0.9904457E-01
       -1   -1    0    0    0  501  0.00000000000E+00  0.00000000000E+00  0.87370060819E+02  0.87370060965E+02  0.50400001928E-02 0.  1.
        1   -1    0    0  501    0  0.00000000000E+00  0.00000000000E+00 -0.10316726114E+04  0.10316726114E+04  0.50400001928E-02 0. -1.
    10030    2    1    2    0    0  0.00000000000E+00  0.00000000000E+00 -0.94430255055E+03  0.11190426723E+04  0.60045748855E+03 0.  0.
        5    1    3    3  502    0 -0.22453181757E+03 -0.18553038715E+01 -0.84346797527E+03  0.87285639973E+03  0.46999998093E+01 0. -1.
       -5    1    3    3    0  502  0.22453181757E+03  0.18553038715E+01 -0.10083457528E+03  0.24618627262E+03  0.46999998093E+01 0.  1.
</event>
<event>
 5   0  0.5891927E-03  0.5995544E+03  0.7818609E-02  0.9906331E-01
        1   -1    0    0  501    0  0.00000000000E+00  0.00000000000E+00  0.61916418572E+03  0.61916418574E+03  0.50400001928E-02 0.  1.
       -1   -1    0    0    0  501  0.00000000000E+00  0.00000000000E+00 -0.14514142419E+03  0.14514142428E+03  0.50400001928E-02 0. -1.
    10030    2    1    2    0    0  0.00000000000E+00  0.00000000000E+00  0.47402276153E+03  0.76430561002E+03  0.59955440708E+03 0.  0.
        4    1    3    3  502    0 -0.14388781767E+03  0.12562949865E+03 -0.57512660605E+02  0.19948883186E+03  0.12699999809E+01 0. -1.
       -4    1    3    3    0  502  0.14388781767E+03 -0.12562949865E+03  0.53153542214E+03  0.56481677816E+03  0.12699999809E+01 0.  1.
</event>
<event>
 5   0  0.6078658E-03  0.6010367E+03  0.7818609E-02  0.9903258E-01
       -1   -1    0    0    0  501  0.00000000000E+00  0.00000000000E+00  0.15179669891E+03  0.15179669899E+03  0.50400001928E-02 0.  1.
        1   -1    0    0  501    0  0.00000000000E+00  0.00000000000E+00 -0.59494891029E+03  0.59494891031E+03  0.50400001928E-02 0. -1.
    10030    2    1    2    0    0  0.00000000000E+00  0.00000000000E+00 -0.44315221138E+03  0.74674560931E+03  0.60103670650E+03 0.  0.
        2    1    3    3  502    0 -0.96309389015E+02  0.26517806469E+03 -0.35019230091E+03  0.44969940185E+03  0.25500000920E-02 0. -1.
       -2    1    3    3    0  502  0.96309389015E+02 -0.26517806469E+03 -0.92959910477E+02  0.29704620746E+03  0.25500000920E-02 0.  1.
</event>
<event>
 5   0  0.9822607E-03  0.6001124E+03  0.7818609E-02  0.9905173E-01
       -2   -1    0    0    0  501  0.00000000000E+00  0.00000000000E+00  0.55302319499E+03  0.55302319500E+03  0.25500000920E-02 0. -1.
        2   -1    0    0  501    0  0.00000000000E+00  0.00000000000E+00 -0.16280277589E+03  0.16280277591E+03  0.25500000920E-02 0.  1.
    10030    2    1    2    0    0  0.00000000000E+00  0.00000000000E+00  0.39022041910E+03  0.71582597091E+03  0.60011236043E+03 0.  0.
        3    1    3    3  502    0  0.24800102540E+03  0.11436975656E+03  0.34336938126E+03  0.43873396495E+03  0.10100000352E+00 0. -1.
       -3    1    3    3    0  502 -0.24800102540E+03 -0.11436975656E+03  0.46851037839E+02  0.27709200595E+03  0.10100000352E+00 0.  1.
</event>
<event>
 5   0  0.9303190E-03  0.5971110E+03  0.7818609E-02  0.9911418E-01
        2   -1    0    0  501    0  0.00000000000E+00  0.00000000000E+00  0.50557559682E+03  0.50557559682E+03  0.25500000920E-02 0.  1.
       -2   -1    0    0    0  501  0.00000000000E+00  0.00000000000E+00 -0.17630475934E+03  0.17630475936E+03  0.25500000920E-02 0. -1.
    10030    2    1    2    0    0  0.00000000000E+00  0.00000000000E+00  0.32927083748E+03  0.68188035619E+03  0.59711099114E+03 0.  0.
        4    1    3    3  502    0 -0.42280554283E+02 -0.20680071976E+03 -0.76477865970E+02  0.22450982127E+03  0.12699999809E+01 0. -1.
       -4    1    3    3    0  502  0.42280554283E+02  0.20680071976E+03  0.40574870345E+03  0.45737053492E+03  0.12699999809E+01 0.  1.
</event>
<event>
 5   0  0.9028473E-03  0.6012577E+03  0.7818609E-02  0.9902800E-01
       -2   -1    0    0    0  501  0.00000000000E+00  0.00000000000E+00  0.13477768334E+03  0.13477768337E+03  0.25500000920E-02 0. -1.
        2   -1    0    0  501    0  0.00000000000E+00  0.00000000000E+00 -0.67056870823E+03  0.67056870823E+03  0.25500000920E-02 0.  1.
    10030    2    1    2    0    0  0.00000000000E+00  0.00000000000E+00 -0.53579102488E+03  0.80534639160E+03  0.60125767198E+03 0.  0.
        1    1    3    3  502    0  0.25671008170E+03 -0.13611322566E+03 -0.16456929745E+03  0.33393102571E+03  0.50400001928E-02 0. -1.
       -1    1    3    3    0  502 -0.25671008170E+03  0.13611322566E+03 -0.37122172743E+03  0.47141536588E+03  0.50400001928E-02 0.  1.
</event>
<event>
 5   0  0.9822607E-03  0.6007658E+03  0.7818609E-02  0.9903819E-01
        2   -1    0    0  501    0  0.00000000000E+00  0.00000000000E+00  0.18643311138E+03  0.18643311139E+03  0.25500000920E-02 0.  1.
       -2   -1    0    0    0  501  0.00000000000E+00  0.00000000000E+00 -0.48397988126E+03  0.48397988127E+03  0.25500000920E-02 0. -1.
    10030    2    1    2    0    0  0.00000000000E+00  0.00000000000E+00 -0.29754676989E+03  0.67041299266E+03  0.60076576173E+03 0.  0.
        3    1    3    3  502    0 -0.61999754400E+02  0.27667092503E+01  0.17920062197E+03  0.18964307881E+03  0.10100000352E+00 0.  1.
       -3    1    3    3    0  502  0.61999754400E+02 -0.27667092503E+01 -0.47674739185E+03  0.48076991385E+03  0.10100000352E+00 0. -1.
</event>
<event>
 5   0  0.5819446E-03  0.6000133E+03  0.7818609E-02  0.9905379E-01
       -1   -1    0    0    0  501  0.00000000000E+00  0.00000000000E+00  0.60781995344E+02  0.60781995553E+02  0.50400001928E-02 0.  1.
        1   -1    0    0  501    0  0.00000000000E+00  0.00000000000E+00 -0.14807671107E+04  0.14807671107E+04  0.50400001928E-02 0. -1.
    10030    2    1    2    0    0  0.00000000000E+00  0.00000000000E+00 -0.14199851154E+04  0.15415491063E+04  0.60001326584E+03 0.  0.
        5    1    3    3  502    0 -0.20549780195E+02 -0.20173996547E+03 -0.12778977405E+04  0.12938956807E+04  0.46999998093E+01 0. -1.
       -5    1    3    3    0  502  0.20549780195E+02  0.20173996547E+03 -0.14208737481E+03  0.24765342561E+03  0.46999998093E+01 0.  1.
</event>
<event>
 5   0  0.5891927E-03  0.5986937E+03  0.7818609E-02  0.9908120E-01
        1   -1    0    0  501    0  0.00000000000E+00  0.00000000000E+00  0.54222683393E+03  0.54222683395E+03  0.50400001928E-02 0. -1.
       -1   -1    0    0    0  501  0.00000000000E+00  0.00000000000E+00 -0.16526025065E+03  0.16526025073E+03  0.50400001928E-02 0.  1.
    10030    2    1    2    0    0  0.00000000000E+00  0.00000000000E+00  0.37696658328E+03  0.70748708468E+03  0.59869371976E+03 0.  0.
        4    1    3    3  502    0  0.20171310314E+03  0.20544706362E+03  0.28528508718E+03  0.40532192859E+03  0.12699999809E+01 0. -1.
       -4    1    3    3    0  502 -0.20171310314E+03 -0.20544706362E+03  0.91681496094E+02  0.30216515609E+03  0.12699999809E+01 0.  1.
</event>
<event>
 5   0  0.5790967E-03  0.5997806E+03  0.7818609E-02  0.9905861E-01
        1   -1    0    0  501    0  0.00000000000E+00  0.00000000000E+00  0.46486402506E+03  0.46486402509E+03  0.50400001928E-02 0.  1.
       -1   -1    0    0    0  501  0.00000000000E+00  0.00000000000E+00 -0.19346344369E+03  0.19346344376E+03  0.50400001928E-02 0. -1.
    10030    2    1    2    0    0  0.00000000000E+00  0.00000000000E+00  0.27140058137E+03  0.65832746885E+03  0.59978061045E+03 0.  0.
        3    1    3    3  502    0  0.19656716037E+03  0.13935266990E+03 -0.60267178053E+02  0.24837463255E+03  0.10100000352E+00 0. -1.
       -3    1    3    3    0  502 -0.19656716037E+03 -0.13935266990E+03  0.33166775942E+03  0.40995283629E+03  0.10100000352E+00 0.  1.
</event>
<event>
 5   0  0.5765045E-03  0.5989083E+03  0.7818609E-02  0.9907674E-01
        1   -1    0    0  501    0  0.00000000000E+00  0.00000000000E+00  0.12310236266E+03  0.12310236276E+03  0.50400001928E-02 0. -1.
       -1   -1    0    0    0  501  0.00000000000E+00  0.00000000000E+00 -0.72844083379E+03  0.72844083381E+03  0.50400001928E-02 0.  1.
    10030    2    1    2    0    0  0.00000000000E+00  0.00000000000E+00 -0.60533847113E+03  0.85154319657E+03  0.59890829931E+03 0.  0.
        1    1    3    3  502    0  0.19154263302E+03 -0.22811346439E+03 -0.25888127922E+03  0.39464395302E+03  0.50400001928E-02 0.  1.
       -1    1    3    3    0  502 -0.19154263302E+03  0.22811346439E+03 -0.34645719191E+03  0.45689924354E+03  0.50400001928E-02 0. -1.
</event>
<event>
 5   0  0.9303190E-03  0.5993791E+03  0.7818609E-02  0.9906695E-01
        2   -1    0    0  501    0  0.00000000000E+00  0.00000000000E+00  0.99130169741E+03  0.99130169741E+03  0.25500000920E-02 0. -1.
       -2   -1    0    0    0  501  0.00000000000E+00  0.00000000000E+00 -0.90601905992E+02  0.90601906028E+02  0.25500000920E-02 0.  1.
    10030    2    1    2    0    0  0.00000000000E+00  0.00000000000E+00  0.90069979142E+03  0.10819036034E+04  0.59937908946E+03 0.  0.
        4    1    3    3  502    0  0.17648485369E+03 -0.16936978539E+03  0.76288360966E+03  0.80114046369E+03  0.12699999809E+01 0. -1.
       -4    1    3    3    0  502 -0.17648485369E+03  0.16936978539E+03  0.13781618176E+03  0.28076313975E+03  0.12699999809E+01 0.  1.
</event>
<event>
 5   0  0.9028473E-03  0.6003195E+03  0.7818609E-02  0.9904743E-01
       -2   -1    0    0    0  501  0.00000000000E+00  0.00000000000E+00  0.44510923163E+02  0.44510923236E+02  0.25500000920E-02 0.  1.
        2   -1    0    0  501    0  0.00000000000E+00  0.00000000000E+00 -0.20241294659E+04  0.20241294659E+04  0.25500000920E-02 0. -1.
    10030    2    1    2    0    0  0.00000000000E+00  0.00000000000E+00 -0.19796185428E+04  0.20686403892E+04  0.60031948564E+03 0.  0.
        1    1    3    3  502    0 -0.10584544120E+03 -0.20477814623E+03 -0.32734894793E+03  0.40036818097E+03  0.50400001928E-02 0.  1.
       -1    1    3    3    0  502  0.10584544120E+03  0.20477814623E+03 -0.16522695949E+04  0.16682722082E+04  0.50400001928E-02 0. -1.
</event>
<event>
 5   0  0.9391405E-03  0.5999618E+03  0.7818609E-02  0.9905485E-01
        2   -1    0    0  501    0  0.00000000000E+00  0.00000000000E+00  0.15413157325E+04  0.15413157325E+04  0.25500000920E-02 0. -1.
       -2   -1    0    0    0  501  0.00000000000E+00  0.00000000000E+00 -0.58384230718E+02  0.58384230774E+02  0.25500000920E-02 0.  1.
    10030    2    1    2    0    0  0.00000000000E+00  0.00000000000E+00  0.14829315018E+04  0.15996999633E+04  0.59996177673E+03 0.  0.
        2    1    3    3  502    0  0.20962746225E+02  0.18181796093E+03  0.10773346125E+03  0.21237633184E+03  0.25500000920E-02 0.  1.
       -2    1    3    3    0  502 -0.20962746225E+02 -0.18181796093E+03  0.13751980406E+04  0.13873236315E+04  0.25500000920E-02 0. -1.
</event>
<event>
 5   0  0.5765045E-03  0.5993806E+03  0.7818609E-02  0.9906692E-01
       -1   -1    0    0    0  501  0.00000000000E+00  0.00000000000E+00  0.41064143783E+03  0.41064143786E+03  0.50400001928E-02 0.  1.
        1   -1    0    0  501    0  0.00000000000E+00  0.00000000000E+00 -0.21871701643E+03  0.21871701649E+03  0.50400001928E-02 0. -1.
    10030    2    1    2    0    0  0.00000000000E+00  0.00000000000E+00  0.19192442140E+03  0.62935845435E+03  0.59938058071E+03 0.  0.
        1    1    3    3  502    0  0.24206541915E+03  0.14379461158E+03  0.20377021066E+03  0.34755554412E+03  0.50400001928E-02 0.  1.
       -1    1    3    3    0  502 -0.24206541915E+03 -0.14379461158E+03 -0.11845789264E+02  0.28180291024E+03  0.50400001928E-02 0. -1.
</event>
<event>
 5   0  0.9822607E-03  0.6005534E+03  0.7818609E-02  0.9904259E-01
       -2   -1    0    0    0  501  0.00000000000E+00  0.00000000000E+00  0.45342796652E+02  0.45342796724E+02  0.25500000920E-02 0. -1.
        2   -1    0    0  501    0  0.00000000000E+00  0.00000000000E+00 -0.19885429723E+04  0.19885429723E+04  0.25500000920E-02 0.  1.
    10030    2    1    2    0    0  0.00000000000E+00  0.00000000000E+00 -0.19432001756E+04  0.20338857690E+04  0.60055341045E+03 0.  0.
        3    1    3    3  502    0  0.15417612380E+02  0.19218008985E+03 -0.19196175001E+03  0.27206656056E+03  0.10100000352E+00 0. -1.
       -3    1    3    3    0  502 -0.15417612380E+02 -0.19218008985E+03 -0.17512384256E+04  0.17618192085E+04  0.10100000352E+00 0.  1.
</event>
<event>
 5   0  0.9162342E-03  0.6034181E+03  0.7818609E-02  0.9898340E-01
        2   -1    0    0  501    0  0.00000000000E+00  0.00000000000E+00  0.78299648425E+03  0.78299648426E+03  0.25500000920E-02 0. -1.
       -2   -1    0    0    0  501  0.00000000000E+00  0.00000000000E+00 -0.11625639631E+03  0.11625639634E+03  0.25500000920E-02 0.  1.
    10030    2    1    2    0    0  0.00000000000E+00  0.00000000000E+00  0.66674008794E+03  0.89925288060E+03  0.60341809585E+03 0.  0.
        5    1    3    3  502    0 -0.14676195979E+03  0.19353472666E+02 -0.58353224340E+02  0.15918799746E+03  0.46999998093E+01 0.  1.
       -5    1    3    3    0  502  0.14676195979E+03 -0.19353472666E+02  0.72509331228E+03  0.74006488314E+03  0.46999998093E+01 0. -1.
</event>
<event>
 5   0  0.9028473E-03  0.5991803E+03  0.7818609E-02  0.9907108E-01
       -2   -1    0    0    0  501  0.00000000000E+00  0.00000000000E+00  0.10375900685E+03  0.10375900688E+03  0.25500000920E-02 0. -1.
        2   -1    0    0  501    0  0.00000000000E+00  0.00000000000E+00 -0.86502611313E+03  0.86502611313E+03  0.25500000920E-02 0.  1.
    10030    2    1    2    0    0  0.00000000000E+00  0.00000000000E+00 -0.76126710628E+03  0.96878512001E+03  0.59918027475E+03 0.  0.
        1    1    3    3  502    0 -0.12435721351E+03  0.94149859570E+02  0.32930648219E+02  0.15941562102E+03  0.50400001928E-02 0. -1.
       -1    1    3    3    0  502  0.12435721351E+03 -0.94149859570E+02 -0.79419775450E+03  0.80936949899E+03  0.50400001928E-02 0.  1.
</event>
<event>
 5   0  0.5765045E-03  0.6013221E+03  0.7818609E-02  0.9902667E-01
        1   -1    0    0  501    0  0.00000000000E+00  0.00000000000E+00  0.11699183424E+03  0.11699183435E+03  0.50400001928E-02 0.  1.
       -1   -1    0    0    0  501  0.00000000000E+00  0.00000000000E+00 -0.77267840323E+03  0.77267840325E+03  0.50400001928E-02 0. -1.
    10030    2    1    2    0    0  0.00000000000E+00  0.00000000000E+00 -0.65568656899E+03  0.88967023760E+03  0.60132208916E+03 0.  0.
        1    1    3    3  502    0  0.40142446955E+01 -0.27850676389E+03 -0.16035668785E+03  0.32139757165E+03  0.50400001928E-02 0. -1.
       -1    1    3    3    0  502 -0.40142446955E+01  0.27850676389E+03 -0.49532988114E+03  0.56827266595E+03  0.50400001928E-02 0.  1.
</event>
<event>
 5   0  0.5891927E-03  0.6000228E+03  0.7818609E-02  0.9905359E-01
        1   -1    0    0  501    0  0.00000000000E+00  0.00000000000E+00  0.55827762818E+03  0.55827762820E+03  0.50400001928E-02 0.  1.
       -1   -1    0    0    0  501  0.00000000000E+00  0.00000000000E+00 -0.16122239066E+03  0.16122239074E+03  0.50400001928E-02 0. -1.
    10030    2    1    2    0    0  0.00000000000E+00  0.00000000000E+00  0.39705523752E+03  0.71950001894E+03  0.60002284591E+03 0.  0.
        4    1    3    3  502    0 -0.22278086682E+00 -0.24366194441E+03  0.40840479820E+03  0.47557048360E+03  0.12699999809E+01 0.  1.
       -4    1    3    3    0  502  0.22278086682E+00  0.24366194441E+03 -0.11349560677E+02  0.24392953534E+03  0.12699999809E+01 0. -1.
</event>
<event>
 5   0  0.5790967E-03  0.5955092E+03  0.7818609E-02  0.9914767E-01
       -1   -1    0    0    0  501  0.00000000000E+00  0.00000000000E+00  0.33326356011E+03  0.33326356015E+03  0.50400001928E-02 0. -1.
        1   -1    0    0  501    0  0.00000000000E+00  0.00000000000E+00 -0.26602908902E+03  0.26602908907E+03  0.50400001928E-02 0.  1.
    10030    2    1    2    0    0  0.00000000000E+00  0.00000000000E+00  0.67234471090E+02  0.59929264922E+03  0.59550919833E+03 0.  0.
        3    1    3    3  502    0 -0.20957899684E+03  0.10182999676E+03 -0.15293875545E+03  0.27871666128E+03  0.10100000352E+00 0.  1.
       -3    1    3    3    0  502  0.20957899684E+03 -0.10182999676E+03  0.22017322654E+03  0.32057598794E+03  0.10100000352E+00 0. -1.
</event>
<event>
 5   0  0.9303190E-03  0.6000200E+03  0.7818609E-02  0.9905364E-01
       -2   -1    0    0    0  501  0.00000000000E+00  0.00000000000E+00  0.13684578487E+03  0.13684578489E+03  0.25500000920E-02 0. -1.
        2   -1    0    0  501    0  0.00000000000E+00  0.00000000000E+00 -0.65771853704E+03  0.65771853704E+03  0.25500000920E-02 0.  1.
    10030    2    1    2    0    0  0.00000000000E+00  0.00000000000E+00 -0.52087275216E+03  0.79456432193E+03  0.60002003112E+03 0.  0.
        4    1    3    3  502    0  0.21755460807E+03  0.91831753653E+02 -0.15395493561E+02  0.23664680981E+03  0.12699999809E+01 0. -1.
       -4    1    3    3    0  502 -0.21755460807E+03 -0.91831753653E+02 -0.50547725860E+03  0.55791751213E+03  0.12699999809E+01 0.  1.
</event>
<event>
 5   0  0.9162342E-03  0.5993061E+03  0.7818609E-02  0.9906847E-01
       -2   -1    0    0    0  501  0.00000000000E+00  0.00000000000E+00  0.26457576372E+03  0.26457576373E+03  0.25500000920E-02 0.  1.
        2   -1    0    0  501    0  0.00000000000E+00  0.00000000000E+00 -0.33938087100E+03  0.33938087101E+03  0.25500000920E-02 0. -1.
    10030    2    1    2    0    0  0.00000000000E+00  0.00000000000E+00 -0.74805107286E+02  0.60395663474E+03  0.59930610924E+03 0.  0.
        5    1    3    3  502    0  0.20016176011E+03 -0.19625110683E+03 -0.14400923806E+03  0.31518245159E+03  0.46999998093E+01 0. -1.
       -5    1    3    3    0  502 -0.20016176011E+03  0.19625110683E+03  0.69204130776E+02  0.28877418315E+03  0.46999998093E+01 0.  1.
</event>
<event>
 5   0  0.9391405E-03  0.6006186E+03  0.7818609E-02  0.9904124E-01
       -2   -1    0    0    0  501  0.00000000000E+00  0.00000000000E+00  0.80697949604E+02  0.80697949645E+02  0.25500000920E-02 0. -1.
        2   -1    0    0  501    0  0.00000000000E+00  0.00000000000E+00 -0.11175707881E+04  0.11175707881E+04  0.25500000920E-02 0.  1.
    10030    2    1    2    0    0  0.00000000000E+00  0.00000000000E+00 -0.10368728385E+04  0.11982687378E+04  0.60061858502E+03 0.  0.
        2    1    3    3  502    0  0.19960990226E+03 -0.19394205882E+03 -0.29335680704E+03  0.40437093306E+03  0.25500000920E-02 0. -1.
       -2    1    3    3    0  502 -0.19960990226E+03  0.19394205882E+03 -0.74351603149E+03  0.79389780473E+03  0.25500000920E-02 0.  1.
</event>
<event>
 5   0  0.9822607E-03  0.6038434E+03  0.7818609E-02  0.9897464E-01
        2   -1    0    0  501    0  0.00000000000E+00  0.00000000000E+00  0.94803961684E+03  0.94803961685E+03  0.25500000920E-02 0.  1.
       -2   -1    0    0    0  501  0.00000000000E+00  0.00000000000E+00 -0.96152843780E+02  0.96152843814E+02  0.25500000920E-02 0. -1.
    10030    2    1    2    0    0  0.00000000000E+00  0.00000000000E+00  0.85188677306E+03  0.10441924607E+04  0.60384337438E+03 0.  0.
        3    1    3    3  502    0 -0.10469664758E+03  0.63707240482E+02  0.90309155009E+03  0.91136949617E+03  0.10100000352E+00 0.  1.
       -3    1    3    3    0  502  0.10469664758E+03 -0.63707240482E+02 -0.51204777028E+02  0.13282296449E+03  0.10100000352E+00 0. -1.
</event>
<event>
 5   0  0.9391405E-03  0.6007973E+03  0.7818609E-02  0.9903753E-01
        2   -1    0    0  501    0  0.00000000000E+00  0.00000000000E+00  0.10435892931E+04  0.10435892931E+04  0.25500000920E-02 0. -1.
       -2   -1    0    0    0  501  0.00000000000E+00  0.00000000000E+00 -0.86470176256E+02  0.86470176293E+02  0.25500000920E-02 0.  1.
    10030    2    1    2    0    0  0.00000000000E+00  0.00000000000E+00  0.95711911683E+03  0.11300594694E+04  0.60079730404E+03 0.  0.
        2    1    3    3  502    0  0.16686752167E+03  0.14135998724E+03  0.86592187010E+03  0.89311147172E+03  0.25500000920E-02 0. -1.
       -2    1    3    3    0  502 -0.16686752167E+03 -0.14135998724E+03  0.91197246723E+02  0.23694799766E+03  0.25500000920E-02 0.  1.
</event>
<event>
 5   0  0.9822607E-03  0.6003718E+03  0.7818609E-02  0.9904635E-01
       -2   -1    0    0    0  501  0.00000000000E+00  0.00000000000E+00  0.36757853251E+03  0.36757853252E+03  0.25500000920E-02 0. -1.
        2   -1    0    0  501    0  0.00000000000E+00  0.00000000000E+00 -0.24514921284E+03  0.24514921285E+03  0.25500000920E-02 0.  1.
    10030    2    1    2    0    0  0.00000000000E+00  0.00000000000E+00  0.12242931967E+03  0.61272774537E+03  0.60037184447E+03 0.  0.
        3    1    3    3  502    0  0.47462701517E+02  0.27109398610E+03 -0.61114240501E+02  0.28192129740E+03  0.10100000352E+00 0.  1.
       -3    1    3    3    0  502 -0.47462701517E+02 -0.27109398610E+03  0.18354356017E+03  0.33080644797E+03  0.10100000352E+00 0. -1.
</event>
<event>
 5   0  0.9822607E-03  0.5999678E+03  0.7818609E-02  0.9905473E-01
        2   -1    0    0  501    0  0.00000000000E+00  0.00000000000E+00  0.12964165499E+04  0.12964165499E+04  0.25500000920E-02 0.  1.
       -2   -1    0    0    0  501  0.00000000000E+00  0.00000000000E+00 -0.69414680305E+02  0.69414680352E+02  0.25500000920E-02 0. -1.
    10030    2    1    2    0    0  0.00000000000E+00  0.00000000000E+00  0.12270018696E+04  0.13658312303E+04  0.59996780043E+03 0.  0.
        3    1    3    3  502    0  0.69720952252E+02 -0.25012638352E+03  0.95547837607E+03  0.99013289828E+03  0.10100000352E+00 0.  1.
       -3    1    3    3    0  502 -0.69720952252E+02  0.25012638352E+03  0.27152349353E+03  0.37569833198E+03  0.10100000352E+00 0. -1.
</event>
<event>
 5   0  0.9303190E-03  0.5995894E+03  0.7818609E-02  0.9906258E-01
       -2   -1    0    0    0  501  0.00000000000E+00  0.00000000000E+00  0.34856213272E+02  0.34856213365E+02  0.25500000920E-02 0. -1.
        2   -1    0    0  501    0  0.00000000000E+00  0.00000000000E+00 -0.25785029044E+04  0.25785029044E+04  0.25500000920E-02 0.  1.
    10030    2    1    2    0    0  0.00000000000E+00  0.00000000000E+00 -0.25436466912E+04  0.26133591178E+04  0.59958935041E+03 0.  0.
        4    1    3    3  502    0 -0.20193730942E+03 -0.82559073998E+02 -0.21680452023E+04  0.21789943299E+04  0.12699999809E+01 0.  1.
       -4    1    3    3    0  502  0.20193730942E+03  0.82559073998E+02 -0.37560148890E+03  0.43436478793E+03  0.12699999809E+01 0. -1.
</event>
<event>
 5   0  0.5790967E-03  0.5998250E+03  0.7818609E-02  0.9905769E-01
        1   -1    0    0  501    0  0.00000000000E+00  0.00000000000E+00  0.27829838271E+03  0.27829838276E+03  0.50400001928E-02 0.  1.
       -1   -1    0    0    0  501  0.00000000000E+00  0.00000000000E+00 -0.32320526073E+03  0.32320526077E+03  0.50400001928E-02 0. -1.
    10030    2    1    2    0    0  0.00000000000E+00  0.00000000000E+00 -0.44906878018E+02  0.60150364353E+03  0.59982497905E+03 0.  0.
        3    1    3    3  502    0 -0.57346190870E+02 -0.18046417719E+03  0.21077342558E+03  0.28333964069E+03  0.10100000352E+00 0.  1.
       -3    1    3    3    0  502  0.57346190870E+02  0.18046417719E+03 -0.25568030360E+03  0.31816400284E+03  0.10100000352E+00 0. -1.
</event>
<event>
 5   0  0.6078658E-03  0.5994982E+03  0.7818609E-02  0.9906448E-01
        1   -1    0    0  501    0  0.00000000000E+00  0.00000000000E+00  0.46262872911E+03  0.46262872914E+03  0.50400001928E-02 0. -1.
       -1   -1    0    0    0  501  0.00000000000E+00  0.00000000000E+00 -0.19421518784E+03  0.19421518790E+03  0.50400001928E-02 0.  1.
    10030    2    1    2    0    0  0.00000000000E+00  0.00000000000E+00  0.26841354127E+03  0.65684391704E+03  0.59949820868E+03 0.  0.
        2    1    3    3  502    0 -0.14866669770E+03 -0.10611223200E+03  0.39461345824E+03  0.43483488156E+03  0.25500000920E-02 0. -1.
       -2    1    3    3    0  502  0.14866669770E+03  0.10611223200E+03 -0.12619991697E+03  0.22200903548E+03  0.25500000920E-02 0.  1.
</event>
<event>
 5   0  0.6078658E-03  0.6004415E+03  0.7818609E-02  0.9904491E-01
       -1   -1    0    0    0  501  0.00000000000E+00  0.00000000000E+00  0.94131817259E+02  0.94131817394E+02  0.50400001928E-02 0.  1.
        1   -1    0    0  501    0  0.00000000000E+00  0.00000000000E+00 -0.95751356438E+03  0.95751356440E+03  0.50400001928E-02 0. -1.
    10030    2    1    2    0    0  0.00000000000E+00  0.00000000000E+00 -0.86338174712E+03  0.10516453818E+04  0.60044147739E+03 0.  0.
        2    1    3    3  502    0  0.64295461709E+02 -0.27017696433E+03 -0.23197144873E+03  0.36185667257E+03  0.25500000920E-02 0.  1.
       -2    1    3    3    0  502 -0.64295461709E+02  0.27017696433E+03 -0.63141029840E+03  0.68978870923E+03  0.25500000920E-02 0. -1.
</event>
<event>
 5   0  0.5790967E-03  0.5999882E+03  0.7818609E-02  0.9905430E-01
        1   -1    0    0  501    0  0.00000000000E+00  0.00000000000E+00  0.11186187997E+04  0.11186187997E+04  0.50400001928E-02 0. -1.
       -1   -1    0    0    0  501  0.00000000000E+00  0.00000000000E+00 -0.80453206202E+02  0.80453206360E+02  0.50400001928E-02 0.  1.
    10030    2    1    2    0    0  0.00000000000E+00  0.00000000000E+00  0.10381655935E+04  0.11990720060E+04  0.59998823006E+03 0.  0.
        3    1    3    3  502    0 -0.19307284776E+03  0.27019869626E+02  0.63403439645E+02  0.20500537617E+03  0.10100000352E+00 0.  1.
       -3    1    3    3    0  502  0.19307284776E+03 -0.27019869626E+02  0.97476215381E+03  0.99406662986E+03  0.10100000352E+00 0. -1.
</event>
<event>
 5   0  0.9028473E-03  0.6006770E+03  0.7818609E-02  0.9904002E-01
        2   -1    0    0  501    0  0.00000000000E+00  0.00000000000E+00  0.38278551796E+03  0.38278551797E+03  0.25500000920E-02 0. -1.
       -2   -1    0    0    0  501  0.00000000000E+00  0.00000000000E+00 -0.23564951541E+03  0.23564951542E+03  0.25500000920E-02 0.  1.
    10030    2    1    2    0    0  0.00000000000E+00  0.00000000000E+00  0.14713600255E+03  0.61843503339E+03  0.60067702410E+03 0.  0.
        1    1    3    3  502    0 -0.13627663922E+03  0.69545912511E+02  0.33965637750E+03  0.37252437658E+03  0.50400001928E-02 0. -1.
       -1    1    3    3    0  502  0.13627663922E+03 -0.69545912511E+02 -0.19252037494E+03  0.24591065682E+03  0.50400001928E-02 0.  1.
</event>
<event>
 5   0  0.5790967E-03  0.5999415E+03  0.7818609E-02  0.9905527E-01
       -1   -1    0    0    0  501  0.00000000000E+00  0.00000000000E+00  0.15870127823E+03  0.15870127831E+03  0.50400001928E-02 0. -1.
        1   -1    0    0  501    0  0.00000000000E+00  0.00000000000E+00 -0.56699259078E+03  0.56699259081E+03  0.50400001928E-02 0.  1.
    10030    2    1    2    0    0  0.00000000000E+00  0.00000000000E+00 -0.40829131255E+03  0.72569386911E+03  0.59994149362E+03 0.  0.
        3    1    3    3  502    0  0.93583602997E+02  0.14452566571E+03 -0.50126845584E+03  0.53001474868E+03  0.10100000352E+00 0.  1.
       -3    1    3    3    0  502 -0.93583602997E+02 -0.14452566571E+03  0.92977143285E+02  0.19567912043E+03  0.10100000352E+00 0. -1.
</event>
<event>
 5   0  0.9822607E-03  0.5994654E+03  0.7818609E-02  0.9906516E-01
       -2   -1    0    0    0  501  0.00000000000E+00  0.00000000000E+00  0.10374429080E+03  0.10374429083E+03  0.25500000920E-02 0.  1.
        2   -1    0    0  501    0  0.00000000000E+00  0.00000000000E+00 -0.86597252267E+03  0.86597252267E+03  0.25500000920E-02 0. -1.
    10030    2    1    2    0    0  0.00000000000E+00  0.00000000000E+00 -0.76222823187E+03  0.96971681351E+03  0.59946544600E+03 0.  0.
        3    1    3    3  502    0  0.27159668009E+03 -0.76326612195E+02 -0.21734746321E+03  0.35613261340E+03  0.10100000352E+00 0.  1.
       -3    1    3    3    0  502 -0.27159668009E+03  0.76326612195E+02 -0.54488076866E+03  0.61358420011E+03  0.10100000352E+00 0. -1.
</event>
<event>
 5   0  0.5765045E-03  0.5990108E+03  0.7818609E-02  0.9907460E-01
        1   -1    0    0  501    0  0.00000000000E+00  0.00000000000E+00  0.35792175249E+03  0.35792175253E+03  0.50400001928E-02 0. -1.
       -1   -1    0    0    0  501  0.00000000000E+00  0.00000000000E+00 -0.25062319985E+03  0.25062319990E+03  0.50400001928E-02 0.  1.
    10030    2    1    2    0    0  0.00000000000E+00  0.00000000000E+00  0.10729855264E+03  0.60854495243E+03  0.59901083440E+03 0.  0.
        1    1    3    3  502    0  0.74984712478E+02 -0.56588059800E+02  0.34256737211E+03  0.35521447053E+03  0.50400001928E-02 0. -1.
       -1    1    3    3    0  502 -0.74984712478E+02  0.56588059800E+02 -0.23526881947E+03  0.25333048189E+03  0.50400001928E-02 0.  1.
</event>
<event>
 5   0  0.9303190E-03  0.6001586E+03  0.7818609E-02  0.9905077E-01
        2   -1    0    0  501    0  0.00000000000E+00  0.00000000000E+00  0.65961789083E+02  0.65961789132E+02  0.25500000920E-02 0.  1.
       -2   -1    0    0    0  501  0.00000000000E+00  0.00000000000E+00 -0.13651476515E+04  0.13651476515E+04  0.25500000920E-02 0. -1.
    10030    2    1    2    0    0  0.00000000000E+00  0.00000000000E+00 -0.12991858624E+04  0.14311094406E+04  0.60015858401E+03 0.  0.
        4    1    3    3  502    0  0.49260901383E+02  0.33743263986E+02 -0.13508326125E+04  0.13521522119E+04  0.12699999809E+01 0. -1.
       -4    1    3    3    0  502 -0.49260901383E+02 -0.33743263986E+02  0.51646750101E+02  0.78957228710E+02  0.12699999809E+01 0.  1.
</event>
<event>
 5   0  0.9303190E-03  0.6008970E+03  0.7818609E-02  0.9903547E-01
        2   -1    0    0  501    0  0.00000000000E+00  0.00000000000E+00  0.80077132666E+03  0.80077132667E+03  0.25500000920E-02 0.  1.
       -2   -1    0    0    0  501  0.00000000000E+00  0.00000000000E+00 -0.11272792507E+03  0.11272792510E+03  0.25500000920E-02 0. -1.
    10030    2    1    2    0    0  0.00000000000E+00  0.00000000000E+00  0.68804340159E+03  0.91349925177E+03  0.60089696330E+03 0.  0.
        4    1    3    3  502    0  0.21294741159E+03 -0.19389213303E+03  0.47414912954E+03  0.55476100196E+03  0.12699999809E+01 0. -1.
       -4    1    3    3    0  502 -0.21294741159E+03  0.19389213303E+03  0.21389427205E+03  0.35873824980E+03  0.12699999809E+01 0.  1.
</event>
<event>
 5   0  0.5819446E-03  0.6001859E+03  0.7818609E-02  0.9905020E-01
       -1   -1    0    0    0  501  0.00000000000E+00  0.00000000000E+00  0.39593172724E+03  0.39593172728E+03  0.50400001928E-02 0. -1.
        1   -1    0    0  501    0  0.00000000000E+00  0.00000000000E+00 -0.22745281643E+03  0.22745281648E+03  0.50400001928E-02 0.  1.
    10030    2    1    2    0    0  0.00000000000E+00  0.00000000000E+00  0.16847891081E+03  0.62338454376E+03  0.60018592620E+03 0.  0.
        5    1    3    3  502    0 -0.97541317301E+02 -0.18537529570E+03 -0.13890259749E+03  0.25138482537E+03  0.46999998093E+01 0.  1.
       -5    1    3    3    0  502  0.97541317301E+02  0.18537529570E+03  0.30738150831E+03  0.37199971839E+03  0.46999998093E+01 0. -1.
</event>
<event>
 5   0  0.5790967E-03  0.5832391E+03  0.7818609E-02  0.9940803E-01
        1   -1    0    0  501    0  0.00000000000E+00  0.00000000000E+00  0.49267467383E+03  0.49267467386E+03  0.50400001928E-02 0. -1.
       -1   -1    0    0    0  501  0.00000000000E+00  0.00000000000E+00 -0.17261282660E+03  0.17261282667E+03  0.50400001928E-02 0.  1.
    10030    2    1    2    0    0  0.00000000000E+00  0.00000000000E+00  0.32006184724E+03  0.66528750053E+03  0.58323912104E+03 0.  0.
        3    1    3    3  502    0 -0.28754542585E+03 -0.48197623865E+02  0.16692942722E+03  0.33596253772E+03  0.10100000352E+00 0.  1.
       -3    1    3    3    0  502  0.28754542585E+03  0.48197623865E+02  0.15313242001E+03  0.32932496282E+03  0.10100000352E+00 0. -1.
</event>
<event>
 5   0  0.6078658E-03  0.5990926E+03  0.7818609E-02  0.9907290E-01
        1   -1    0    0  501    0  0.00000000000E+00  0.00000000000E+00  0.13236934889E+03  0.13236934899E+03  0.50400001928E-02 0. -1.
       -1   -1    0    0    0  501  0.00000000000E+00  0.00000000000E+00 -0.67786078231E+03  0.67786078233E+03  0.50400001928E-02 0.  1.
    10030    2    1    2    0    0  0.00000000000E+00  0.00000000000E+00 -0.54549143341E+03  0.81023013131E+03  0.59909261534E+03 0.  0.
        2    1    3    3  502    0  0.24676379134E+03  0.80457923816E+02 -0.47498762084E+03  0.54127542543E+03  0.25500000920E-02 0. -1.
       -2    1    3    3    0  502 -0.24676379134E+03 -0.80457923816E+02 -0.70503812577E+02  0.26895470588E+03  0.25500000920E-02 0.  1.
</event>
<event>
 5   0  0.9303190E-03  0.5995298E+03  0.7818609E-02  0.9906382E-01
        2   -1    0    0  501    0  0.00000000000E+00  0.00000000000E+00  0.95961348773E+03  0.95961348773E+03  0.25500000920E-02 0.  1.
       -2   -1    0    0    0  501  0.00000000000E+00  0.00000000000E+00 -0.93640814604E+02  0.93640814638E+02  0.25500000920E-02 0. -1.
    10030    2    1    2    0    0  0.00000000000E+00  0.00000000000E+00  0.86597267312E+03  0.10532543024E+04  0.59952977813E+03 0.  0.
        4    1    3    3  502    0 -0.12917145946E+03  0.52469212117E+02 -0.33208750225E+02  0.14332731126E+03  0.12699999809E+01 0. -1.
       -4    1    3    3    0  502  0.12917145946E+03 -0.52469212117E+02  0.89918142335E+03  0.90992699111E+03  0.12699999809E+01 0.  1.
</event>
<event>
 5   0  0.5790967E-03  0.6000512E+03  0.7818609E-02  0.9905300E-01
        1   -1    0    0  501    0  0.00000000000E+00  0.00000000000E+00  0.12594474322E+03  0.12594474332E+03  0.50400001928E-02 0. -1.
       -1   -1    0    0    0  501  0.00000000000E+00  0.00000000000E+00 -0.71472112074E+03  0.71472112076E+03  0.50400001928E-02 0.  1.
    10030    2    1    2    0    0  0.00000000000E+00  0.00000000000E+00 -0.58877637752E+03  0.84066586408E+03  0.60005122473E+03 0.  0.
        3    1    3    3  502    0 -0.24729821038E+03  0.14423446209E+03 -0.42012947915E+03  0.50839824387E+03  0.10100000352E+00 0.  1.
       -3    1    3    3    0  502  0.24729821038E+03 -0.14423446209E+03 -0.16864689836E+03  0.33226762021E+03  0.10100000352E+00 0. -1.
</event>
<event>
 5   0  0.9391405E-03  0.5995488E+03  0.7818609E-02  0.9906343E-01
       -2   -1    0    0    0  501  0.00000000000E+00  0.00000000000E+00  0.47844278379E+03  0.47844278380E+03  0.25500000920E-02 0.  1.
        2   -1    0    0  501    0  0.00000000000E+00  0.00000000000E+00 -0.18782745993E+03  0.18782745994E+03  0.25500000920E-02 0. -1.
    10030    2    1    2    0    0  0.00000000000E+00  0.00000000000E+00  0.29061532386E+03  0.66627024374E+03  0.59954880638E+03 0.  0.
        2    1    3    3  502    0 -0.29019936251E+03 -0.58988629832E+02  0.93547917358E+02  0.31055843460E+03  0.25500000920E-02 0. -1.
       -2    1    3    3    0  502  0.29019936251E+03  0.58988629832E+02  0.19706740650E+03  0.35571180914E+03  0.25500000920E-02 0.  1.
</event>
<event>
 5   0  0.9303190E-03  0.5984452E+03  0.7818609E-02  0.9908637E-01
        2   -1    0    0  501    0  0.00000000000E+00  0.00000000000E+00  0.11539889437E+04  0.11539889437E+04  0.25500000920E-02 0. -1.
       -2   -1    0    0    0  501  0.00000000000E+00  0.00000000000E+00 -0.77586664056E+02  0.77586664098E+02  0.25500000920E-02 0.  1.
    10030    2    1    2    0    0  0.00000000000E+00  0.00000000000E+00  0.10764022796E+04  0.12315756078E+04  0.59844516047E+03 0.  0.
        4    1    3    3  502    0 -0.12091934959E+03  0.12985096984E+03  0.42366351329E+02  0.18242610586E+03  0.12699999809E+01 0.  1.
       -4    1    3    3    0  502  0.12091934959E+03 -0.12985096984E+03  0.10340359283E+04  0.10491495019E+04  0.12699999809E+01 0. -1.
</event>
<event>
 5   0  0.5819446E-03  0.5989319E+03  0.7818609E-02  0.9907625E-01
       -1   -1    0    0    0  501  0.00000000000E+00  0.00000000000E+00  0.26681746929E+03  0.26681746933E+03  0.50400001928E-02 0. -1.
        1   -1    0    0  501    0  0.00000000000E+00  0.00000000000E+00 -0.33610933925E+03  0.33610933929E+03  0.50400001928E-02 0.  1.
    10030    2    1    2    0    0  0.00000000000E+00  0.00000000000E+00 -0.69291869969E+02  0.60292680863E+03  0.59893186033E+03 0.  0.
        5    1    3    3  502    0  0.53099472919E+02  0.29401430967E+03 -0.14669555844E+02  0.29916760216E+03  0.46999998093E+01 0.  1.
       -5    1    3    3    0  502 -0.53099472919E+02 -0.29401430967E+03 -0.54622314125E+02  0.30375920647E+03  0.46999998093E+01 0. -1.
</event>
<event>
 5   0  0.3806250E-03  0.6002429E+03  0.7818609E-02  0.9904902E-01
        4   -1    0    0  501    0  0.00000000000E+00  0.00000000000E+00  0.40469868511E+03  0.40470067782E+03  0.12699999809E+01 0. -1.
       -4   -1    0    0    0  501  0.00000000000E+00  0.00000000000E+00 -0.22256338784E+03  0.22256701127E+03  0.12699999809E+01 0.  1.
    10030    2    1    2    0    0  0.00000000000E+00  0.00000000000E+00  0.18213529727E+03  0.62726768909E+03  0.60024285691E+03 0.  0.
        2    1    3    3  502    0  0.20254605193E+03  0.18075758495E+03 -0.42657200741E+02  0.27480510266E+03  0.25500000920E-02 0.  1.
       -2    1    3    3    0  502 -0.20254605193E+03 -0.18075758495E+03  0.22479249801E+03  0.35246258643E+03  0.25500000920E-02 0. -1.
</event>
<event>
 5   0  0.9391405E-03  0.6000079E+03  0.7818609E-02  0.9905390E-01
       -2   -1    0    0    0  501  0.00000000000E+00  0.00000000000E+00  0.92052711276E+02  0.92052711311E+02  0.25500000920E-02 0. -1.
        2   -1    0    0  501    0  0.00000000000E+00  0.00000000000E+00 -0.97772632326E+03  0.97772632327E+03  0.25500000920E-02 0.  1.
    10030    2    1    2    0    0  0.00000000000E+00  0.00000000000E+00 -0.88567361199E+03  0.10697790346E+04  0.60000786316E+03 0.  0.
        2    1    3    3  502    0  0.26955558831E+03  0.80025105609E+02 -0.62930664941E+03  0.68926851932E+03  0.25500000920E-02 0.  1.
       -2    1    3    3    0  502 -0.26955558831E+03 -0.80025105609E+02 -0.25636696257E+03  0.38051051526E+03  0.25500000920E-02 0. -1.
</event>
<event>
 5   0  0.9822607E-03  0.6014142E+03  0.7818609E-02  0.9902476E-01
        2   -1    0    0  501    0  0.00000000000E+00  0.00000000000E+00  0.30311140044E+04  0.30311140044E+04  0.25500000920E-02 0. -1.
       -2   -1    0    0    0  501  0.00000000000E+00  0.00000000000E+00 -0.29832189932E+02  0.29832190041E+02  0.25500000920E-02 0.  1.
    10030    2    1    2    0    0  0.00000000000E+00  0.00000000000E+00  0.30012818145E+04  0.30609461945E+04  0.60141422948E+03 0.  0.
        3    1    3    3  502    0  0.18199823798E+03  0.50493632732E+02  0.30972479888E+03  0.36277048780E+03  0.10100000352E+00 0.  1.
       -3    1    3    3    0  502 -0.18199823798E+03 -0.50493632732E+02  0.26915570156E+04  0.26981757067E+04  0.10100000352E+00 0. -1.
</event>
<event>
 5   0  0.9162342E-03  0.5986294E+03  0.7818609E-02  0.9908254E-01
       -2   -1    0    0    0  501  0.00000000000E+00  0.00000000000E+00  0.42741515256E+02  0.42741515332E+02  0.25500000920E-02 0.  1.
        2   -1    0    0  501    0  0.00000000000E+00  0.00000000000E+00 -0.20960716083E+04  0.20960716083E+04  0.25500000920E-02 0. -1.
    10030    2    1    2    0    0  0.00000000000E+00  0.00000000000E+00 -0.20533300930E+04  0.21388131236E+04  0.59862935680E+03 0.  0.
        5    1    3    3  502    0 -0.22127232001E+03 -0.88344628108E+02 -0.37958471701E+03  0.44818842053E+03  0.46999998093E+01 0.  1.
       -5    1    3    3    0  502  0.22127232001E+03  0.88344628108E+02 -0.16737453760E+04  0.16906247030E+04  0.46999998093E+01 0. -1.
</event>
<event>
 5   0  0.6078658E-03  0.6022419E+03  0.7818609E-02  0.9900766E-01
        1   -1    0    0  501    0  0.00000000000E+00  0.00000000000E+00  0.12040192521E+04  0.12040192521E+04  0.50400001928E-02 0.  1.
       -1   -1    0    0    0  501  0.00000000000E+00  0.00000000000E+00 -0.75309270376E+02  0.75309270544E+02  0.50400001928E-02 0. -1.
    10030    2    1    2    0    0  0.00000000000E+00  0.00000000000E+00  0.11287099818E+04  0.12793285227E+04  0.60224185013E+03 0.  0.
        2    1    3    3  502    0 -0.37057696456E+02  0.12443883157E+03 -0.12790066201E+02  0.13046793273E+03  0.25500000920E-02 0. -1.
       -2    1    3    3    0  502  0.37057696456E+02 -0.12443883157E+03  0.11415000480E+04  0.11488605900E+04  0.25500000920E-02 0.  1.
</event>
<event>
 5   0  0.9391405E-03  0.6029416E+03  0.7818609E-02  0.9899322E-01
        2   -1    0    0  501    0  0.00000000000E+00  0.00000000000E+00  0.87562183144E+03  0.87562183144E+03  0.25500000920E-02 0. -1.
       -2   -1    0    0    0  501  0.00000000000E+00  0.00000000000E+00 -0.10379440391E+03  0.10379440394E+03  0.25500000920E-02 0.  1.
    10030    2    1    2    0    0  0.00000000000E+00  0.00000000000E+00  0.77182742753E+03  0.97941623539E+03  0.60294160932E+03 0.  0.
        2    1    3    3  502    0  0.48241023761E+02 -0.26708783783E+03  0.17274277776E+03  0.32171909605E+03  0.25500000920E-02 0.  1.
       -2    1    3    3    0  502 -0.48241023761E+02  0.26708783783E+03  0.59908464977E+03  0.65769713933E+03  0.25500000920E-02 0. -1.
</event>
<event>
 5   0  0.3806250E-03  0.5999294E+03  0.7818609E-02  0.9905553E-01
        4   -1    0    0  501    0  0.00000000000E+00  0.00000000000E+00  0.34716361510E+03  0.34716593806E+03  0.12699999809E+01 0.  1.
       -4   -1    0    0    0  501  0.00000000000E+00  0.00000000000E+00 -0.25917801769E+03  0.25918112924E+03  0.12699999809E+01 0. -1.
    10030    2    1    2    0    0  0.00000000000E+00  0.00000000000E+00  0.87985597409E+02  0.60634706731E+03  0.59992941308E+03 0.  0.
        1    1    3    3  502    0 -0.29836590299E+02 -0.89078116982E+02  0.33191507553E+03  0.34495325834E+03  0.50400001928E-02 0.  1.
       -1    1    3    3    0  502  0.29836590299E+02  0.89078116982E+02 -0.24392947812E+03  0.26139380897E+03  0.50400001928E-02 0. -1.
</event>
<event>
 5   0  0.9162342E-03  0.5995871E+03  0.7818609E-02  0.9906263E-01
        2   -1    0    0  501    0  0.00000000000E+00  0.00000000000E+00  0.15534932763E+03  0.15534932765E+03  0.25500000920E-02 0.  1.
       -2   -1    0    0    0  501  0.00000000000E+00  0.00000000000E+00 -0.57854236596E+03  0.57854236596E+03  0.25500000920E-02 0. -1.
    10030    2    1    2    0    0  0.00000000000E+00  0.00000000000E+00 -0.42319303833E+03  0.73389169361E+03  0.59958708314E+03 0.  0.
        5    1    3    3  502    0  0.16764994877E+03  0.76420350904E+02 -0.50100732919E+03  0.53383237937E+03  0.46999998093E+01 0. -1.
       -5    1    3    3    0  502 -0.16764994877E+03 -0.76420350904E+02  0.77814290867E+02  0.20005931425E+03  0.46999998093E+01 0.  1.
</event>
<event>
 5   0  0.5891927E-03  0.5977065E+03  0.7818609E-02  0.9910176E-01
       -1   -1    0    0    0  501  0.00000000000E+00  0.00000000000E+00  0.33610318874E+03  0.33610318878E+03  0.50400001928E-02 0.  1.
        1   -1    0    0  501    0  0.00000000000E+00  0.00000000000E+00 -0.26573169072E+03  0.26573169076E+03  0.50400001928E-02 0. -1.
    10030    2    1    2    0    0  0.00000000000E+00  0.00000000000E+00  0.70371498026E+02  0.60183487954E+03  0.59770651201E+03 0.  0.
        4    1    3    3  502    0  0.14938217354E+03  0.24969777913E+03  0.10383023475E+03  0.30894391922E+03  0.12699999809E+01 0. -1.
       -4    1    3    3    0  502 -0.14938217354E+03 -0.24969777913E+03 -0.33458736727E+02  0.29289096032E+03  0.12699999809E+01 0.  1.
</event>
<event>
 5   0  0.6078658E-03  0.5995102E+03  0.7818609E-02  0.9906423E-01
        1   -1    0    0  501    0  0.00000000000E+00  0.00000000000E+00  0.41124601454E+03  0.41124601458E+03  0.50400001928E-02 0. -1.
       -1   -1    0    0    0  501  0.00000000000E+00  0.00000000000E+00 -0.21848993626E+03  0.21848993631E+03  0.50400001928E-02 0.  1.
    10030    2    1    2    0    0  0.00000000000E+00  0.00000000000E+00  0.19275607829E+03  0.62973595089E+03  0.59951018517E+03 0.  0.
        2    1    3    3  502    0  0.21254443500E+03 -0.36431133004E+01  0.31837353519E+03  0.38281864772E+03  0.25500000920E-02 0. -1.
       -2    1    3    3    0  502 -0.21254443500E+03  0.36431133004E+01 -0.12561745690E+03  0.24691730318E+03  0.25500000920E-02 0.  1.
</event>
<event>
 5   0  0.5765045E-03  0.6004151E+03  0.7818609E-02  0.9904545E-01
       -1   -1    0    0    0  501  0.00000000000E+00  0.00000000000E+00  0.13020290518E+03  0.13020290527E+03  0.50400001928E-02 0.  1.
        1   -1    0    0  501    0  0.00000000000E+00  0.00000000000E+00 -0.69218559716E+03  0.69218559718E+03  0.50400001928E-02 0. -1.
    10030    2    1    2    0    0  0.00000000000E+00  0.00000000000E+00 -0.56198269199E+03  0.82238850245E+03  0.60041510880E+03 0.  0.
        1    1    3    3  502    0  0.29607119851E+02  0.27816600205E+03 -0.43022999731E+03  0.51317712035E+03  0.50400001928E-02 0. -1.
       -1    1    3    3    0  502 -0.29607119851E+02 -0.27816600205E+03 -0.13175269468E+03  0.30921138210E+03  0.50400001928E-02 0.  1.
</event>
<event>
 5   0  0.9162342E-03  0.5991810E+03  0.7818609E-02  0.9907107E-01
        2   -1    0    0  501    0  0.00000000000E+00  0.00000000000E+00  0.13055236153E+04  0.13055236153E+04  0.25500000920E-02 0. -1.
       -2   -1    0    0    0  501  0.00000000000E+00  0.00000000000E+00 -0.68749788790E+02  0.68749788837E+02  0.25500000920E-02 0.  1.
    10030    2    1    2    0    0  0.00000000000E+00  0.00000000000E+00  0.12367738265E+04  0.13742734042E+04  0.59918101722E+03 0.  0.
        5    1    3    3  502    0 -0.55614346779E+02 -0.75882157361E+02  0.12706746682E+04  0.12741613947E+04  0.46999998093E+01 0. -1.
       -5    1    3    3    0  502  0.55614346779E+02  0.75882157361E+02 -0.33900841662E+02  0.10011200945E+03  0.46999998093E+01 0.  1.
</event>
<event>
 5   0  0.5819446E-03  0.6016021E+03  0.7818609E-02  0.9902088E-01
        1   -1    0    0  501    0  0.00000000000E+00  0.00000000000E+00  0.85850372319E+03  0.85850372321E+03  0.50400001928E-02 0. -1.
       -1   -1    0    0    0  501  0.00000000000E+00  0.00000000000E+00 -0.10539415516E+03  0.10539415528E+03  0.50400001928E-02 0.  1.
    10030    2    1    2    0    0  0.00000000000E+00  0.00000000000E+00  0.75310956803E+03  0.96389787849E+03  0.60160210995E+03 0.  0.
        5    1    3    3  502    0 -0.23402158223E+03 -0.74350803482E+02  0.65482943005E+03  0.69936958426E+03  0.46999998093E+01 0. -1.
       -5    1    3    3    0  502  0.23402158223E+03  0.74350803482E+02  0.98280137978E+02  0.26452829423E+03  0.46999998093E+01 0.  1.
</event>
<event>
 5   0  0.5790967E-03  0.5992504E+03  0.7818609E-02  0.9906962E-01
        1   -1    0    0  501    0  0.00000000000E+00  0.00000000000E+00  0.30848539573E+03  0.30848539577E+03  0.50400001928E-02 0. -1.
       -1   -1    0    0    0  501  0.00000000000E+00  0.00000000000E+00 -0.29101951667E+03  0.29101951672E+03  0.50400001928E-02 0.  1.
    10030    2    1    2    0    0  0.00000000000E+00  0.00000000000E+00  0.17465879060E+02  0.59950491249E+03  0.59925043443E+03 0.  0.
        3    1    3    3  502    0 -0.17440738060E+03 -0.20578603591E+03 -0.12174266411E+03  0.29595120113E+03  0.10100000352E+00 0.  1.
       -3    1    3    3    0  502  0.17440738060E+03  0.20578603591E+03  0.13920854317E+03  0.30355371136E+03  0.10100000352E+00 0. -1.
</event>
<event>
 5   0  0.9028473E-03  0.6004283E+03  0.7818609E-02  0.9904518E-01
        2   -1    0    0  501    0  0.00000000000E+00  0.00000000000E+00  0.30819446646E+03  0.30819446647E+03  0.25500000920E-02 0. -1.
       -2   -1    0    0    0  501  0.00000000000E+00  0.00000000000E+00 -0.29244042804E+03  0.29244042805E+03  0.25500000920E-02 0.  1.
    10030    2    1    2    0    0  0.00000000000E+00  0.00000000000E+00  0.15754038424E+02  0.60063489452E+03  0.60042825282E+03 0.  0.
        1    1    3    3  502    0  0.16877163092E+03 -0.22511812580E+03 -0.96880020616E+02  0.29756977734E+03  0.50400001928E-02 0.  1.
       -1    1    3    3    0  502 -0.16877163092E+03  0.22511812580E+03  0.11263405904E+03  0.30306511718E+03  0.50400001928E-02 0. -1.
</event>
<event>
 5   0  0.5765045E-03  0.6000755E+03  0.7818609E-02  0.9905249E-01
       -1   -1    0    0    0  501  0.00000000000E+00  0.00000000000E+00  0.11577579333E+03  0.11577579344E+03  0.50400001928E-02 0.  1.
        1   -1    0    0  501    0  0.00000000000E+00  0.00000000000E+00 -0.77756021079E+03  0.77756021080E+03  0.50400001928E-02 0. -1.
    10030    2    1    2    0    0  0.00000000000E+00  0.00000000000E+00 -0.66178441746E+03  0.89333600424E+03  0.60007549632E+03 0.  0.
        1    1    3    3  502    0 -0.15490477277E+03  0.24961840181E+03 -0.42166440444E+03  0.51391215704E+03  0.50400001928E-02 0.  1.
       -1    1    3    3    0  502  0.15490477277E+03 -0.24961840181E+03 -0.24012001302E+03  0.37942384721E+03  0.50400001928E-02 0. -1.
</event>
<event>
 5   0  0.9822607E-03  0.5997178E+03  0.7818609E-02  0.9905992E-01
       -2   -1    0    0    0  501  0.00000000000E+00  0.00000000000E+00  0.12301033249E+03  0.12301033251E+03  0.25500000920E-02 0.  1.
        2   -1    0    0  501    0  0.00000000000E+00  0.00000000000E+00 -0.73095767562E+03  0.73095767563E+03  0.25500000920E-02 0. -1.
    10030    2    1    2    0    0  0.00000000000E+00  0.00000000000E+00 -0.60794734313E+03  0.85396800814E+03  0.59971775604E+03 0.  0.
        3    1    3    3  502    0  0.22558405368E+03  0.49911876887E+02 -0.57615294432E+03  0.62075082455E+03  0.10100000352E+00 0. -1.
       -3    1    3    3    0  502 -0.22558405368E+03 -0.49911876887E+02 -0.31794398817E+02  0.23321718360E+03  0.10100000352E+00 0.  1.
</event>
<event>
 5   0  0.5765045E-03  0.5999630E+03  0.7818609E-02  0.9905483E-01
        1   -1    0    0  501    0  0.00000000000E+00  0.00000000000E+00  0.57675418446E+03  0.57675418449E+03  0.50400001928E-02 0. -1.
       -1   -1    0    0    0  501  0.00000000000E+00  0.00000000000E+00 -0.15602645632E+03  0.15602645640E+03  0.50400001928E-02 0.  1.
    10030    2    1    2    0    0  0.00000000000E+00  0.00000000000E+00  0.42072772815E+03  0.73278064088E+03  0.59996303755E+03 0.  0.
        1    1    3    3  502    0  0.14294488967E+03 -0.48700756544E+01 -0.11169978133E+03  0.18147672108E+03  0.50400001928E-02 0.  1.
       -1    1    3    3    0  502 -0.14294488967E+03  0.48700756544E+01  0.53242750947E+03  0.55130391980E+03  0.50400001928E-02 0. -1.
</event>
<event>
 5   0  0.5891927E-03  0.6009474E+03  0.7818609E-02  0.9903442E-01
        1   -1    0    0  501    0  0.00000000000E+00  0.00000000000E+00  0.87294039500E+03  0.87294039501E+03  0.50400001928E-02 0.  1.
       -1   -1    0    0    0  501  0.00000000000E+00  0.00000000000E+00 -0.10342566886E+03  0.10342566898E+03  0.50400001928E-02 0. -1.
    10030    2    1    2    0    0  0.00000000000E+00  0.00000000000E+00  0.76951472614E+03  0.97636606400E+03  0.60094739968E+03 0.  0.
        4    1    3    3  502    0  0.11690323060E+03  0.81066405503E+02  0.81475282069E+03  0.82708034625E+03  0.12699999809E+01 0.  1.
       -4    1    3    3    0  502 -0.11690323060E+03 -0.81066405503E+02 -0.45238094553E+02  0.14928571775E+03  0.12699999809E+01 0. -1.
</event>
<event>
 5   0  0.9028473E-03  0.6010964E+03  0.7818609E-02  0.9903134E-01
        2   -1    0    0  501    0  0.00000000000E+00  0.00000000000E+00  0.88227160330E+03  0.88227160331E+03  0.25500000920E-02 0. -1.
       -2   -1    0    0    0  501  0.00000000000E+00  0.00000000000E+00 -0.10238256434E+03  0.10238256437E+03  0.25500000920E-02 0.  1.
    10030    2    1    2    0    0  0.00000000000E+00  0.00000000000E+00  0.77988903896E+03  0.98465416768E+03  0.60109642890E+03 0.  0.
        1    1    3    3  502    0 -0.26868488710E+02 -0.29668130098E+03  0.45521233270E+03  0.54402203806E+03  0.50400001928E-02 0.  1.
       -1    1    3    3    0  502  0.26868488710E+02  0.29668130098E+03  0.32467670626E+03  0.44063212962E+03  0.50400001928E-02 0. -1.
</event>
<event>
 5   0  0.5765045E-03  0.6015269E+03  0.7818609E-02  0.9902243E-01
       -1   -1    0    0    0  501  0.00000000000E+00  0.00000000000E+00  0.40024834737E+02  0.40024835054E+02  0.50400001928E-02 0.  1.
        1   -1    0    0  501    0  0.00000000000E+00  0.00000000000E+00 -0.22600632427E+04  0.22600632427E+04  0.50400001928E-02 0. -1.
    10030    2    1    2    0    0  0.00000000000E+00  0.00000000000E+00 -0.22200384080E+04  0.23000880777E+04  0.60152691762E+03 0.  0.
        1    1    3    3  502    0 -0.14459767534E+03 -0.99086226418E+02 -0.17548918461E+03  0.24803834768E+03  0.50400001928E-02 0.  1.
       -1    1    3    3    0  502  0.14459767534E+03  0.99086226418E+02 -0.20445492233E+04  0.20520497301E+04  0.50400001928E-02 0. -1.
</event>
<event>
 5   0  0.5765045E-03  0.6000056E+03  0.7818609E-02  0.9905394E-01
        1   -1    0    0  501    0  0.00000000000E+00  0.00000000000E+00  0.10742905539E+04  0.10742905539E+04  0.50400001928E-02 0. -1.
       -1   -1    0    0    0  501  0.00000000000E+00  0.00000000000E+00 -0.83777781004E+02  0.83777781156E+02  0.50400001928E-02 0.  1.
    10030    2    1    2    0    0  0.00000000000E+00  0.00000000000E+00  0.99051277290E+03  0.11580683351E+04  0.60000559616E+03 0.  0.
        1    1    3    3  502    0  0.67271487508E+02 -0.23626637988E+03  0.82762777307E+03  0.86331627233E+03  0.50400001928E-02 0. -1.
       -1    1    3    3    0  502 -0.67271487508E+02  0.23626637988E+03  0.16288499983E+03  0.29475206274E+03  0.50400001928E-02 0.  1.
</event>
<event>
 5   0  0.9822607E-03  0.5997102E+03  0.7818609E-02  0.9906007E-01
        2   -1    0    0  501    0  0.00000000000E+00  0.00000000000E+00  0.13567551268E+04  0.13567551268E+04  0.25500000920E-02 0. -1.
       -2   -1    0    0    0  501  0.00000000000E+00  0.00000000000E+00 -0.66270680008E+02  0.66270680057E+02  0.25500000920E-02 0.  1.
    10030    2    1    2    0    0  0.00000000000E+00  0.00000000000E+00  0.12904844468E+04  0.14230258069E+04  0.59971021301E+03 0.  0.
        3    1    3    3  502    0 -0.10630693928E+03  0.93996184981E+02  0.12720383671E+04  0.12799289300E+04  0.10100000352E+00 0. -1.
       -3    1    3    3    0  502  0.10630693928E+03 -0.93996184981E+02  0.18446079711E+02  0.14309687693E+03  0.10100000352E+00 0.  1.
</event>
<event>
 5   0  0.9162342E-03  0.5994866E+03  0.7818609E-02  0.9906472E-01
       -2   -1    0    0    0  501  0.00000000000E+00  0.00000000000E+00  0.22137393845E+03  0.22137393847E+03  0.25500000920E-02 0. -1.
        2   -1    0    0  501    0  0.00000000000E+00  0.00000000000E+00 -0.40585644646E+03  0.40585644647E+03  0.25500000920E-02 0.  1.
    10030    2    1    2    0    0  0.00000000000E+00  0.00000000000E+00 -0.18448250801E+03  0.62723038494E+03  0.59948658036E+03 0.  0.
        5    1    3    3  502    0  0.17738098056E+03  0.22470826669E+03  0.55453209109E+00  0.28632187288E+03  0.46999998093E+01 0.  1.
       -5    1    3    3    0  502 -0.17738098056E+03 -0.22470826669E+03 -0.18503704010E+03  0.34090851206E+03  0.46999998093E+01 0. -1.
</event>
<event>
 5   0  0.3806250E-03  0.5974027E+03  0.7818609E-02  0.9910809E-01
        3   -1    0    0  501    0  0.00000000000E+00  0.00000000000E+00  0.59041776960E+02  0.59041863348E+02  0.10100000352E+00 0. -1.
       -3   -1    0    0    0  501  0.00000000000E+00  0.00000000000E+00 -0.15111742229E+04  0.15111742263E+04  0.10100000352E+00 0.  1.
    10030    2    1    2    0    0  0.00000000000E+00  0.00000000000E+00 -0.14521324459E+04  0.15702160896E+04  0.59740265111E+03 0.  0.
        5    1    3    3  502    0 -0.15303712067E+03  0.21410816002E+03 -0.35493276807E+03  0.44188462786E+03  0.46999998093E+01 0. -1.
       -5    1    3    3    0  502  0.15303712067E+03 -0.21410816002E+03 -0.10971996779E+04  0.11283314617E+04  0.46999998093E+01 0.  1.
</event>
<event>
 5   0  0.9391405E-03  0.6000946E+03  0.7818609E-02  0.9905210E-01
        2   -1    0    0  501    0  0.00000000000E+00  0.00000000000E+00  0.78611965271E+03  0.78611965272E+03  0.25500000920E-02 0. -1.
       -2   -1    0    0    0  501  0.00000000000E+00  0.00000000000E+00 -0.11452249269E+03  0.11452249272E+03  0.25500000920E-02 0.  1.
    10030    2    1    2    0    0  0.00000000000E+00  0.00000000000E+00  0.67159716002E+03  0.90064214544E+03  0.60009459987E+03 0.  0.
        2    1    3    3  502    0 -0.96915159170E+02  0.70446747380E+02 -0.77061869394E+02  0.14245639338E+03  0.25500000920E-02 0.  1.
       -2    1    3    3    0  502  0.96915159170E+02 -0.70446747380E+02  0.74865902942E+03  0.75818575206E+03  0.25500000920E-02 0. -1.
</event>
<event>
 5   0  0.9391405E-03  0.6015705E+03  0.7818609E-02  0.9902153E-01
        2   -1    0    0  501    0  0.00000000000E+00  0.00000000000E+00  0.86866347074E+03  0.86866347074E+03  0.25500000920E-02 0.  1.
       -2   -1    0    0    0  501  0.00000000000E+00  0.00000000000E+00 -0.10415052568E+03  0.10415052571E+03  0.25500000920E-02 0. -1.
    10030    2    1    2    0    0  0.00000000000E+00  0.00000000000E+00  0.76451294506E+03  0.97281399645E+03  0.60157046846E+03 0.  0.
        2    1    3    3  502    0  0.12483784843E+03  0.27363125681E+03  0.37638027515E+03  0.48178902502E+03  0.25500000920E-02 0.  1.
       -2    1    3    3    0  502 -0.12483784843E+03 -0.27363125681E+03  0.38813266991E+03  0.49102497142E+03  0.25500000920E-02 0. -1.
</event>
<event>
 5   0  0.9822607E-03  0.5979192E+03  0.7818609E-02  0.9909733E-01
        2   -1    0    0  501    0  0.00000000000E+00  0.00000000000E+00  0.78473048793E+03  0.78473048793E+03  0.25500000920E-02 0. -1.
       -2   -1    0    0    0  501  0.00000000000E+00  0.00000000000E+00 -0.11389493484E+03  0.11389493487E+03  0.25500000920E-02 0.  1.
    10030    2    1    2    0    0  0.00000000000E+00  0.00000000000E+00  0.67083555309E+03  0.89862542280E+03  0.59791915107E+03 0.  0.
        3    1    3    3  502    0  0.26559577628E+02  0.21043660747E+03  0.18775976085E+02  0.21293549354E+03  0.10100000352E+00 0.  1.
       -3    1    3    3    0  502 -0.26559577628E+02 -0.21043660747E+03  0.65205957701E+03  0.68568992926E+03  0.10100000352E+00 0. -1.
</event>
<event>
 5   0  0.6078658E-03  0.5976722E+03  0.7818609E-02  0.9910247E-01
       -1   -1    0    0    0  501  0.00000000000E+00  0.00000000000E+00  0.13475520229E+03  0.13475520238E+03  0.50400001928E-02 0.  1.
        1   -1    0    0  501    0  0.00000000000E+00  0.00000000000E+00 -0.66270542598E+03  0.66270542600E+03  0.50400001928E-02 0. -1.
    10030    2    1    2    0    0  0.00000000000E+00  0.00000000000E+00 -0.52795022369E+03  0.79746062838E+03  0.59767216358E+03 0.  0.
        2    1    3    3  502    0  0.19768520073E+03 -0.20790801119E+03 -0.37559143997E+03  0.47262470258E+03  0.25500000920E-02 0.  1.
       -2    1    3    3    0  502 -0.19768520073E+03  0.20790801119E+03 -0.15235878372E+03  0.32483592580E+03  0.25500000920E-02 0. -1.
</event>
<event>
 5   0  0.9028473E-03  0.6006140E+03  0.7818609E-02  0.9904133E-01
        2   -1    0    0  501    0  0.00000000000E+00  0.00000000000E+00  0.84765358207E+03  0.84765358207E+03  0.25500000920E-02 0. -1.
       -2   -1    0    0    0  501  0.00000000000E+00  0.00000000000E+00 -0.10639286969E+03  0.10639286972E+03  0.25500000920E-02 0.  1.
    10030    2    1    2    0    0  0.00000000000E+00  0.00000000000E+00  0.74126071238E+03  0.95404645179E+03  0.60061400954E+03 0.  0.
        1    1    3    3  502    0  0.20109444813E+03  0.20584870311E+03  0.23424872841E+03  0.37105947290E+03  0.50400001928E-02 0.  1.
       -1    1    3    3    0  502 -0.20109444813E+03 -0.20584870311E+03  0.50701198396E+03  0.58298697889E+03  0.50400001928E-02 0. -1.
</event>
<event>
 5   0  0.5765045E-03  0.5935730E+03  0.7818609E-02  0.9918830E-01
       -1   -1    0    0    0  501  0.00000000000E+00  0.00000000000E+00  0.57368794589E+02  0.57368794810E+02  0.50400001928E-02 0.  1.
        1   -1    0    0  501    0  0.00000000000E+00  0.00000000000E+00 -0.15353682244E+04  0.15353682245E+04  0.50400001928E-02 0. -1.
    10030    2    1    2    0    0  0.00000000000E+00  0.00000000000E+00 -0.14779994299E+04  0.15927370193E+04  0.59357299288E+03 0.  0.
        1    1    3    3  502    0  0.10233668878E+03 -0.18572249011E+03 -0.12961753422E+04  0.13134063190E+04  0.50400001928E-02 0. -1.
       -1    1    3    3    0  502 -0.10233668878E+03  0.18572249011E+03 -0.18182408768E+03  0.27933070022E+03  0.50400001928E-02 0.  1.
</event>
<event>
 5   0  0.5790967E-03  0.5984630E+03  0.7818609E-02  0.9908600E-01
       -1   -1    0    0    0  501  0.00000000000E+00  0.00000000000E+00  0.11214774276E+03  0.11214774288E+03  0.50400001928E-02 0.  1.
        1   -1    0    0  501    0  0.00000000000E+00  0.00000000000E+00 -0.79840647101E+03  0.79840647103E+03  0.50400001928E-02 0. -1.
    10030    2    1    2    0    0  0.00000000000E+00  0.00000000000E+00 -0.68625872825E+03  0.91055421391E+03  0.59846297660E+03 0.  0.
        3    1    3    3  502    0  0.77864899577E+02 -0.68652388836E+02 -0.77013213531E+03  0.77709691102E+03  0.10100000352E+00 0. -1.
       -3    1    3    3    0  502 -0.77864899577E+02  0.68652388836E+02  0.83873407063E+02  0.13345730288E+03  0.10100000352E+00 0.  1.
</event>
<event>
 5   0  0.6078658E-03  0.5993531E+03  0.7818609E-02  0.9906749E-01
       -1   -1    0    0    0  501  0.00000000000E+00  0.00000000000E+00  0.19162632142E+03  0.19162632148E+03  0.50400001928E-02 0. -1.
        1   -1    0    0  501    0  0.00000000000E+00  0.00000000000E+00 -0.46865180393E+03  0.46865180395E+03  0.50400001928E-02 0.  1.
    10030    2    1    2    0    0  0.00000000000E+00  0.00000000000E+00 -0.27702548251E+03  0.66027812543E+03  0.59935305536E+03 0.  0.
        2    1    3    3  502    0  0.59978757644E+02 -0.19349800869E+03 -0.38179341449E+03  0.43220960434E+03  0.25500000920E-02 0.  1.
       -2    1    3    3    0  502 -0.59978757644E+02  0.19349800869E+03  0.10476793198E+03  0.22806852109E+03  0.25500000920E-02 0. -1.
</event>
<event>
 5   0  0.9303190E-03  0.6001955E+03  0.7818609E-02  0.9905001E-01
       -2   -1    0    0    0  501  0.00000000000E+00  0.00000000000E+00  0.17967303690E+03  0.17967303692E+03  0.25500000920E-02 0.  1.
        2   -1    0    0  501    0  0.00000000000E+00  0.00000000000E+00 -0.50123631563E+03  0.50123631564E+03  0.25500000920E-02 0. -1.
    10030    2    1    2    0    0  0.00000000000E+00  0.00000000000E+00 -0.32156327873E+03  0.68090935256E+03  0.60019547163E+03 0.  0.
        4    1    3    3  502    0  0.29832659688E+03 -0.32528216498E+02 -0.16128244251E+03  0.34069118338E+03  0.12699999809E+01 0.  1.
       -4    1    3    3    0  502 -0.29832659688E+03  0.32528216498E+02 -0.16028083623E+03  0.34021816917E+03  0.12699999809E+01 0. -1.
</event>
<event>
 5   0  0.5790967E-03  0.5988463E+03  0.7818609E-02  0.9907803E-01
       -1   -1    0    0    0  501  0.00000000000E+00  0.00000000000E+00  0.64371504321E+03  0.64371504323E+03  0.50400001928E-02 0. -1.
        1   -1    0    0  501    0  0.00000000000E+00  0.00000000000E+00 -0.13927626019E+03  0.13927626028E+03  0.50400001928E-02 0.  1.
    10030    2    1    2    0    0  0.00000000000E+00  0.00000000000E+00  0.50443878303E+03  0.78299130351E+03  0.59884630378E+03 0.  0.
        3    1    3    3  502    0 -0.13463538385E+03 -0.22871307059E+03  0.43347608789E+03  0.50826949960E+03  0.10100000352E+00 0. -1.
       -3    1    3    3    0  502  0.13463538385E+03  0.22871307059E+03  0.70962695134E+02  0.27472180391E+03  0.10100000352E+00 0.  1.
</event>
<event>
 5   0  0.9162342E-03  0.6000777E+03  0.7818609E-02  0.9905245E-01
       -2   -1    0    0    0  501  0.00000000000E+00  0.00000000000E+00  0.22761717373E+03  0.22761717374E+03  0.25500000920E-02 0. -1.
        2   -1    0    0  501    0  0.00000000000E+00  0.00000000000E+00 -0.39550321986E+03  0.39550321987E+03  0.25500000920E-02 0.  1.
    10030    2    1    2    0    0  0.00000000000E+00  0.00000000000E+00 -0.16788604613E+03  0.62312039361E+03  0.60007774533E+03 0.  0.
        5    1    3    3  502    0  0.20924070854E+03 -0.15170252458E+03 -0.24212744066E+03  0.35417949911E+03  0.46999998093E+01 0.  1.
       -5    1    3    3    0  502 -0.20924070854E+03  0.15170252458E+03  0.74241394521E+02  0.26894089450E+03  0.46999998093E+01 0. -1.
</event>
<event>
 5   0  0.5790967E-03  0.5963519E+03  0.7818609E-02  0.9913004E-01
       -1   -1    0    0    0  501  0.00000000000E+00  0.00000000000E+00  0.29663921364E+03  0.29663921368E+03  0.50400001928E-02 0.  1.
        1   -1    0    0  501    0  0.00000000000E+00  0.00000000000E+00 -0.29972069298E+03  0.29972069302E+03  0.50400001928E-02 0. -1.
    10030    2    1    2    0    0  0.00000000000E+00  0.00000000000E+00 -0.30814793406E+01  0.59635990670E+03  0.59635194542E+03 0.  0.
        3    1    3    3  502    0  0.11534157903E+03  0.90514036607E+02  0.25810176406E+03  0.29683834235E+03  0.10100000352E+00 0.  1.
       -3    1    3    3    0  502 -0.11534157903E+03 -0.90514036607E+02 -0.26118324340E+03  0.29952156435E+03  0.10100000352E+00 0. -1.
</event>
<event>
 5   0  0.9028473E-03  0.6004703E+03  0.7818609E-02  0.9904431E-01
        2   -1    0    0  501    0  0.00000000000E+00  0.00000000000E+00  0.47846574749E+03  0.47846574750E+03  0.25500000920E-02 0. -1.
       -2   -1    0    0    0  501  0.00000000000E+00  0.00000000000E+00 -0.18839622300E+03  0.18839622302E+03  0.25500000920E-02 0.  1.
    10030    2    1    2    0    0  0.00000000000E+00  0.00000000000E+00  0.29006952449E+03  0.66686197052E+03  0.60047028127E+03 0.  0.
        1    1    3    3  502    0  0.10746559595E+02  0.11444430855E+03  0.45306055320E+03  0.46741507592E+03  0.50400001928E-02 0. -1.
       -1    1    3    3    0  502 -0.10746559595E+02 -0.11444430855E+03 -0.16299102871E+03  0.19944689461E+03  0.50400001928E-02 0.  1.
</event>
<event>
 5   0  0.5790967E-03  0.6009398E+03  0.7818609E-02  0.9903458E-01
       -1   -1    0    0    0  501  0.00000000000E+00  0.00000000000E+00  0.66823059424E+02  0.66823059614E+02  0.50400001928E-02 0. -1.
        1   -1    0    0  501    0  0.00000000000E+00  0.00000000000E+00 -0.13510627888E+04  0.13510627888E+04  0.50400001928E-02 0.  1.
    10030    2    1    2    0    0  0.00000000000E+00  0.00000000000E+00 -0.12842397293E+04  0.14178858484E+04  0.60093976124E+03 0.  0.
        3    1    3    3  502    0 -0.14441335294E+03 -0.25930393883E+03 -0.53174436948E+03  0.60897112729E+03  0.10100000352E+00 0. -1.
       -3    1    3    3    0  502  0.14441335294E+03  0.25930393883E+03 -0.75249535987E+03  0.80891472110E+03  0.10100000352E+00 0.  1.
</event>
<event>
 5   0  0.9162342E-03  0.5989131E+03  0.7818609E-02  0.9907664E-01
        2   -1    0    0  501    0  0.00000000000E+00  0.00000000000E+00  0.12602851599E+04  0.12602851599E+04  0.25500000920E-02 0.  1.
       -2   -1    0    0    0  501  0.00000000000E+00  0.00000000000E+00 -0.71153911336E+02  0.71153911382E+02  0.25500000920E-02 0. -1.
    10030    2    1    2    0    0  0.00000000000E+00  0.00000000000E+00  0.11891312486E+04  0.13314390713E+04  0.59891307736E+03 0.  0.
        5    1    3    3  502    0  0.27772165425E+03  0.10153593715E+03  0.69915177716E+03  0.75912723656E+03  0.46999998093E+01 0.  1.
       -5    1    3    3    0  502 -0.27772165425E+03 -0.10153593715E+03  0.48997947140E+03  0.57231183473E+03  0.46999998093E+01 0. -1.
</event>
<event>
 5   0  0.9822607E-03  0.6002400E+03  0.7818609E-02  0.9904908E-01
       -2   -1    0    0    0  501  0.00000000000E+00  0.00000000000E+00  0.51953222459E+02  0.51953222522E+02  0.25500000920E-02 0. -1.
        2   -1    0    0  501    0  0.00000000000E+00  0.00000000000E+00 -0.17337139398E+04  0.17337139398E+04  0.25500000920E-02 0.  1.
    10030    2    1    2    0    0  0.00000000000E+00  0.00000000000E+00 -0.16817607173E+04  0.17856671623E+04  0.60024003883E+03 0.  0.
        3    1    3    3  502    0  0.58657336603E+02  0.26971083728E+03 -0.11914594214E+04  0.12230127480E+04  0.10100000352E+00 0.  1.
       -3    1    3    3    0  502 -0.58657336603E+02 -0.26971083728E+03 -0.49030129596E+03  0.56265441428E+03  0.10100000352E+00 0. -1.
</event>
<event>
 5   0  0.3806250E-03  0.5998321E+03  0.7818609E-02  0.9905754E-01
       -3   -1    0    0    0  501  0.00000000000E+00  0.00000000000E+00  0.40616754335E+03  0.40616755591E+03  0.10100000352E+00 0. -1.
        3   -1    0    0  501    0  0.00000000000E+00  0.00000000000E+00 -0.22145943049E+03  0.22145945352E+03  0.10100000352E+00 0.  1.
    10030    2    1    2    0    0  0.00000000000E+00  0.00000000000E+00  0.18470811286E+03  0.62762700943E+03  0.59983212319E+03 0.  0.
        1    1    3    3  502    0  0.10728654414E+03  0.19748239708E+03 -0.11544331570E+03  0.25265957111E+03  0.50400001928E-02 0.  1.
       -1    1    3    3    0  502 -0.10728654414E+03 -0.19748239708E+03  0.30015142856E+03  0.37496743832E+03  0.50400001928E-02 0. -1.
</event>
<event>
 5   0  0.9822607E-03  0.5968282E+03  0.7818609E-02  0.9912009E-01
       -2   -1    0    0    0  501  0.00000000000E+00  0.00000000000E+00  0.17889665861E+03  0.17889665863E+03  0.25500000920E-02 0. -1.
        2   -1    0    0  501    0  0.00000000000E+00  0.00000000000E+00 -0.49777882101E+03  0.49777882102E+03  0.25500000920E-02 0.  1.
    10030    2    1    2    0    0  0.00000000000E+00  0.00000000000E+00 -0.31888216240E+03  0.67667547965E+03  0.59682817566E+03 0.  0.
        3    1    3    3  502    0  0.54816415939E+02 -0.27490079273E+03 -0.43397245799E+02  0.28365228087E+03  0.10100000352E+00 0. -1.
       -3    1    3    3    0  502 -0.54816415939E+02  0.27490079273E+03 -0.27548491660E+03  0.39302319878E+03  0.10100000352E+00 0.  1.
</event>
<event>
 5   0  0.5891927E-03  0.5995883E+03  0.7818609E-02  0.9906261E-01
        1   -1    0    0  501    0  0.00000000000E+00  0.00000000000E+00  0.46855414308E+03  0.46855414311E+03  0.50400001928E-02 0. -1.
       -1   -1    0    0    0  501  0.00000000000E+00  0.00000000000E+00 -0.19181672558E+03  0.19181672565E+03  0.50400001928E-02 0.  1.
    10030    2    1    2    0    0  0.00000000000E+00  0.00000000000E+00  0.27673741750E+03  0.66037086876E+03  0.59958826378E+03 0.  0.
        4    1    3    3  502    0  0.99894298485E+02 -0.20055141301E+03  0.35774726457E+03  0.42211900968E+03  0.12699999809E+01 0. -1.
       -4    1    3    3    0  502 -0.99894298485E+02  0.20055141301E+03 -0.81009847070E+02  0.23825185907E+03  0.12699999809E+01 0.  1.
</event>
<event>
 5   0  0.5891927E-03  0.5998059E+03  0.7818609E-02  0.9905809E-01
        1   -1    0    0  501    0  0.00000000000E+00  0.00000000000E+00  0.74953837745E+03  0.74953837747E+03  0.50400001928E-02 0. -1.
       -1   -1    0    0    0  501  0.00000000000E+00  0.00000000000E+00 -0.11999621399E+03  0.11999621410E+03  0.50400001928E-02 0.  1.
    10030    2    1    2    0    0  0.00000000000E+00  0.00000000000E+00  0.62954216346E+03  0.86953459157E+03  0.59980586056E+03 0.  0.
        4    1    3    3  502    0  0.12308304312E+03  0.13055444466E+03  0.66313893746E+03  0.68698527044E+03  0.12699999809E+01 0. -1.
       -4    1    3    3    0  502 -0.12308304312E+03 -0.13055444466E+03 -0.33596774000E+02  0.18254932113E+03  0.12699999809E+01 0.  1.
</event>
<event>
 5   0  0.5765045E-03  0.6017367E+03  0.7818609E-02  0.9901809E-01
        1   -1    0    0  501    0  0.00000000000E+00  0.00000000000E+00  0.63575654829E+03  0.63575654831E+03  0.50400001928E-02 0.  1.
       -1   -1    0    0    0  501  0.00000000000E+00  0.00000000000E+00 -0.14238433284E+03  0.14238433293E+03  0.50400001928E-02 0. -1.
    10030    2    1    2    0    0  0.00000000000E+00  0.00000000000E+00  0.49337221544E+03  0.77814088124E+03  0.60173672655E+03 0.  0.
        1    1    3    3  502    0  0.29411307692E+03  0.21902457645E+02  0.32362144852E+03  0.43785050147E+03  0.50400001928E-02 0.  1.
       -1    1    3    3    0  502 -0.29411307692E+03 -0.21902457645E+02  0.16975076693E+03  0.34029037977E+03  0.50400001928E-02 0. -1.
</event>
<event>
 5   0  0.5819446E-03  0.6001820E+03  0.7818609E-02  0.9905029E-01
        1   -1    0    0  501    0  0.00000000000E+00  0.00000000000E+00  0.63312134756E+03  0.63312134758E+03  0.50400001928E-02 0.  1.
       -1   -1    0    0    0  501  0.00000000000E+00  0.00000000000E+00 -0.14223909241E+03  0.14223909250E+03  0.50400001928E-02 0. -1.
    10030    2    1    2    0    0  0.00000000000E+00  0.00000000000E+00  0.49088225515E+03  0.77536044009E+03  0.60018199209E+03 0.  0.
        5    1    3    3  502    0  0.11298697151E+02  0.98229347050E+02  0.61142254065E+03  0.61938378925E+03  0.46999998093E+01 0.  1.
       -5    1    3    3    0  502 -0.11298697151E+02 -0.98229347050E+02 -0.12054028550E+03  0.15597665083E+03  0.46999998093E+01 0. -1.
</event>
<event>
 5   0  0.5790967E-03  0.5985047E+03  0.7818609E-02  0.9908513E-01
       -1   -1    0    0    0  501  0.00000000000E+00  0.00000000000E+00  0.24933394247E+03  0.24933394252E+03  0.50400001928E-02 0.  1.
        1   -1    0    0  501    0  0.00000000000E+00  0.00000000000E+00 -0.35916473058E+03  0.35916473062E+03  0.50400001928E-02 0. -1.
    10030    2    1    2    0    0  0.00000000000E+00  0.00000000000E+00 -0.10983078811E+03  0.60849867314E+03  0.59850466431E+03 0.  0.
        3    1    3    3  502    0 -0.50927877754E+02 -0.26427267005E+03 -0.18793689531E+03  0.32825901311E+03  0.10100000352E+00 0. -1.
       -3    1    3    3    0  502  0.50927877754E+02  0.26427267005E+03  0.78106107202E+02  0.28023966003E+03  0.10100000352E+00 0.  1.
</event>
<event>
 5   0  0.6078658E-03  0.5986395E+03  0.7818609E-02  0.9908233E-01
       -1   -1    0    0    0  501  0.00000000000E+00  0.00000000000E+00  0.84152218021E+03  0.84152218022E+03  0.50400001928E-02 0. -1.
        1   -1    0    0  501    0  0.00000000000E+00  0.00000000000E+00 -0.10646458231E+03  0.10646458243E+03  0.50400001928E-02 0.  1.
    10030    2    1    2    0    0  0.00000000000E+00  0.00000000000E+00  0.73505759789E+03  0.94798676265E+03  0.59863948245E+03 0.  0.
        2    1    3    3  502    0  0.14498491401E+03 -0.12994918700E+03  0.72754224265E+03  0.75314349984E+03  0.25500000920E-02 0. -1.
       -2    1    3    3    0  502 -0.14498491401E+03  0.12994918700E+03  0.75153552378E+01  0.19484326282E+03  0.25500000920E-02 0.  1.
</event>
<event>
 5   0  0.3806250E-03  0.6034457E+03  0.7818609E-02  0.9898283E-01
        4   -1    0    0  501    0  0.00000000000E+00  0.00000000000E+00  0.12508309885E+04  0.12508316332E+04  0.12699999809E+01 0. -1.
       -4   -1    0    0    0  501  0.00000000000E+00  0.00000000000E+00 -0.72774752948E+02  0.72785833557E+02  0.12699999809E+01 0.  1.
    10030    2    1    2    0    0  0.00000000000E+00  0.00000000000E+00  0.11780562356E+04  0.13236174668E+04  0.60344569289E+03 0.  0.
        5    1    3    3  502    0 -0.12097958159E+03  0.16710767262E+03  0.10620605136E+03  0.23208371066E+03  0.46999998093E+01 0.  1.
       -5    1    3    3    0  502  0.12097958159E+03 -0.16710767262E+03  0.10718501842E+04  0.10915337561E+04  0.46999998093E+01 0. -1.
</event>
<event>
 5   0  0.9391405E-03  0.5996289E+03  0.7818609E-02  0.9906176E-01
        2   -1    0    0  501    0  0.00000000000E+00  0.00000000000E+00  0.11268862003E+04  0.11268862003E+04  0.25500000920E-02 0. -1.
       -2   -1    0    0    0  501  0.00000000000E+00  0.00000000000E+00 -0.79767318247E+02  0.79767318288E+02  0.25500000920E-02 0.  1.
    10030    2    1    2    0    0  0.00000000000E+00  0.00000000000E+00  0.10471188820E+04  0.12066535186E+04  0.59962885252E+03 0.  0.
        2    1    3    3  502    0  0.25336761721E+03 -0.14756833356E+02  0.20236813758E+03  0.32460094993E+03  0.25500000920E-02 0.  1.
       -2    1    3    3    0  502 -0.25336761721E+03  0.14756833356E+02  0.84475074446E+03  0.88205256865E+03  0.25500000920E-02 0. -1.
</event>
<event>
 5   0  0.5790967E-03  0.6013123E+03  0.7818609E-02  0.9902687E-01
       -1   -1    0    0    0  501  0.00000000000E+00  0.00000000000E+00  0.13009678396E+03  0.13009678405E+03  0.50400001928E-02 0.  1.
        1   -1    0    0  501    0  0.00000000000E+00  0.00000000000E+00 -0.69482218103E+03  0.69482218105E+03  0.50400001928E-02 0. -1.
    10030    2    1    2    0    0  0.00000000000E+00  0.00000000000E+00 -0.56472539707E+03  0.82491896510E+03  0.60131233555E+03 0.  0.
        3    1    3    3  502    0 -0.48025877645E+02 -0.29154317133E+03 -0.20610116266E+03  0.36025214104E+03  0.10100000352E+00 0.  1.
       -3    1    3    3    0  502  0.48025877645E+02  0.29154317133E+03 -0.35862423442E+03  0.46466682406E+03  0.10100000352E+00 0. -1.
</event>
<event>
 5   0  0.5765045E-03  0.6002399E+03  0.7818609E-02  0.9904908E-01
       -1   -1    0    0    0  501  0.00000000000E+00  0.00000000000E+00  0.14524381185E+03  0.14524381194E+03  0.50400001928E-02 0.  1.
        1   -1    0    0  501    0  0.00000000000E+00  0.00000000000E+00 -0.62014336966E+03  0.62014336968E+03  0.50400001928E-02 0. -1.
    10030    2    1    2    0    0  0.00000000000E+00  0.00000000000E+00 -0.47489955781E+03  0.76538718161E+03  0.60023990851E+03 0.  0.
        1    1    3    3  502    0 -0.56315004201E+01 -0.22795216204E+03 -0.48627469510E+03  0.53708191284E+03  0.50400001928E-02 0. -1.
       -1    1    3    3    0  502  0.56315004201E+01  0.22795216204E+03  0.11375137296E+02  0.22830526877E+03  0.50400001928E-02 0.  1.
</event>
<event>
 5   0  0.9391405E-03  0.5995505E+03  0.7818609E-02  0.9906339E-01
       -2   -1    0    0    0  501  0.00000000000E+00  0.00000000000E+00  0.45791137240E+02  0.45791137311E+02  0.25500000920E-02 0. -1.
        2   -1    0    0  501    0  0.00000000000E+00  0.00000000000E+00 -0.19625018159E+04  0.19625018159E+04  0.25500000920E-02 0.  1.
    10030    2    1    2    0    0  0.00000000000E+00  0.00000000000E+00 -0.19167106787E+04  0.20082929532E+04  0.59955046513E+03 0.  0.
        2    1    3    3  502    0 -0.22414799451E+03 -0.19628939065E+03 -0.84759627390E+03  0.89843825156E+03  0.25500000920E-02 0. -1.
       -2    1    3    3    0  502  0.22414799451E+03  0.19628939065E+03 -0.10691144048E+04  0.11098547017E+04  0.25500000920E-02 0.  1.
</event>
<event>
 5   0  0.6078658E-03  0.5980187E+03  0.7818609E-02  0.9909525E-01
        1   -1    0    0  501    0  0.00000000000E+00  0.00000000000E+00  0.47212341197E+03  0.47212341199E+03  0.50400001928E-02 0. -1.
       -1   -1    0    0    0  501  0.00000000000E+00  0.00000000000E+00 -0.18937123514E+03  0.18937123521E+03  0.50400001928E-02 0.  1.
    10030    2    1    2    0    0  0.00000000000E+00  0.00000000000E+00  0.28275217682E+03  0.66149464720E+03  0.59801870772E+03 0.  0.
        2    1    3    3  502    0 -0.38967238531E+01  0.19510980002E+03  0.39196971126E+03  0.43786216218E+03  0.25500000920E-02 0. -1.
       -2    1    3    3    0  502  0.38967238531E+01 -0.19510980002E+03 -0.10921753444E+03  0.22363248502E+03  0.25500000920E-02 0.  1.
</event>
<event>
 5   0  0.5790967E-03  0.6005209E+03  0.7818609E-02  0.9904326E-01
       -1   -1    0    0    0  501  0.00000000000E+00  0.00000000000E+00  0.47667817707E+02  0.47667817973E+02  0.50400001928E-02 0. -1.
        1   -1    0    0  501    0  0.00000000000E+00  0.00000000000E+00 -0.18913457256E+04  0.18913457257E+04  0.50400001928E-02 0.  1.
    10030    2    1    2    0    0  0.00000000000E+00  0.00000000000E+00 -0.18436779079E+04  0.19390135436E+04  0.60052085238E+03 0.  0.
        3    1    3    3  502    0 -0.21881382187E+03 -0.19062747954E+03 -0.67302631646E+03  0.73292752537E+03  0.10100000352E+00 0.  1.
       -3    1    3    3    0  502  0.21881382187E+03  0.19062747954E+03 -0.11706515915E+04  0.12060860183E+04  0.10100000352E+00 0. -1.
</event>
<event>
 5   0  0.9028473E-03  0.5998018E+03  0.7818609E-02  0.9905817E-01
        2   -1    0    0  501    0  0.00000000000E+00  0.00000000000E+00  0.72310036370E+03  0.72310036371E+03  0.25500000920E-02 0. -1.
       -2   -1    0    0    0  501  0.00000000000E+00  0.00000000000E+00 -0.12438182419E+03  0.12438182422E+03  0.25500000920E-02 0.  1.
    10030    2    1    2    0    0  0.00000000000E+00  0.00000000000E+00  0.59871853951E+03  0.84748218792E+03  0.59980177500E+03 0.  0.
        1    1    3    3  502    0 -0.17800195442E+02 -0.75224914392E+02  0.70878180166E+03  0.71298476638E+03  0.50400001928E-02 0. -1.
       -1    1    3    3    0  502  0.17800195442E+02  0.75224914392E+02 -0.11006326215E+03  0.13449742155E+03  0.50400001928E-02 0.  1.
</event>
<event>
 5   0  0.9391405E-03  0.5983534E+03  0.7818609E-02  0.9908828E-01
        2   -1    0    0  501    0  0.00000000000E+00  0.00000000000E+00  0.20620378299E+04  0.20620378299E+04  0.25500000920E-02 0.  1.
       -2   -1    0    0    0  501  0.00000000000E+00  0.00000000000E+00 -0.43406919401E+02  0.43406919476E+02  0.25500000920E-02 0. -1.
    10030    2    1    2    0    0  0.00000000000E+00  0.00000000000E+00  0.20186309105E+04  0.21054447494E+04  0.59835344059E+03 0.  0.
        2    1    3    3  502    0  0.24386449674E+03  0.12715825040E+03  0.14236838813E+04  0.14500051404E+04  0.25500000920E-02 0.  1.
       -2    1    3    3    0  502 -0.24386449674E+03 -0.12715825040E+03  0.59494702925E+03  0.65543960899E+03  0.25500000920E-02 0. -1.
</event>
<event>
 5   0  0.9303190E-03  0.5998374E+03  0.7818609E-02  0.9905743E-01
       -2   -1    0    0    0  501  0.00000000000E+00  0.00000000000E+00  0.65914808178E+02  0.65914808227E+02  0.25500000920E-02 0.  1.
        2   -1    0    0  501    0  0.00000000000E+00  0.00000000000E+00 -0.13646588384E+04  0.13646588384E+04  0.25500000920E-02 0. -1.
    10030    2    1    2    0    0  0.00000000000E+00  0.00000000000E+00 -0.12987440302E+04  0.14305736466E+04  0.59983739663E+03 0.  0.
        4    1    3    3  502    0 -0.18440215071E+03  0.20303617930E+03 -0.35999989399E+03  0.45258079926E+03  0.12699999809E+01 0. -1.
       -4    1    3    3    0  502  0.18440215071E+03 -0.20303617930E+03 -0.93874413625E+03  0.97799284738E+03  0.12699999809E+01 0.  1.
</event>
<event>
 5   0  0.9162342E-03  0.6012157E+03  0.7818609E-02  0.9902887E-01
        2   -1    0    0  501    0  0.00000000000E+00  0.00000000000E+00  0.75661623725E+03  0.75661623726E+03  0.25500000920E-02 0. -1.
       -2   -1    0    0    0  501  0.00000000000E+00  0.00000000000E+00 -0.11943319216E+03  0.11943319219E+03  0.25500000920E-02 0.  1.
    10030    2    1    2    0    0  0.00000000000E+00  0.00000000000E+00  0.63718304509E+03  0.87604942944E+03  0.60121574320E+03 0.  0.
        5    1    3    3  502    0 -0.10930097725E+01 -0.27623383030E+03  0.49122715804E+03  0.56358897653E+03  0.46999998093E+01 0. -1.
       -5    1    3    3    0  502  0.10930097725E+01  0.27623383030E+03  0.14595588705E+03  0.31246045292E+03  0.46999998093E+01 0.  1.
</event>
<event>
 5   0  0.9303190E-03  0.6003765E+03  0.7818609E-02  0.9904625E-01
        2   -1    0    0  501    0  0.00000000000E+00  0.00000000000E+00  0.10360717020E+03  0.10360717024E+03  0.25500000920E-02 0. -1.
       -2   -1    0    0    0  501  0.00000000000E+00  0.00000000000E+00 -0.86975615249E+03  0.86975615249E+03  0.25500000920E-02 0.  1.
    10030    2    1    2    0    0  0.00000000000E+00  0.00000000000E+00 -0.76614898229E+03  0.97336332273E+03  0.60037646105E+03 0.  0.
        4    1    3    3  502    0  0.16674906819E+03 -0.21082382494E+03 -0.16641134544E+03  0.31614282484E+03  0.12699999809E+01 0. -1.
       -4    1    3    3    0  502 -0.16674906819E+03  0.21082382494E+03 -0.59973763685E+03  0.65722049790E+03  0.12699999809E+01 0.  1.
</event>
<event>
 5   0  0.9028473E-03  0.5997743E+03  0.7818609E-02  0.9905874E-01
       -2   -1    0    0    0  501  0.00000000000E+00  0.00000000000E+00  0.54962873040E+02  0.54962873099E+02  0.25500000920E-02 0.  1.
        2   -1    0    0  501    0  0.00000000000E+00  0.00000000000E+00 -0.16362371400E+04  0.16362371400E+04  0.25500000920E-02 0. -1.
    10030    2    1    2    0    0  0.00000000000E+00  0.00000000000E+00 -0.15812742670E+04  0.16912000131E+04  0.59977427168E+03 0.  0.
        1    1    3    3  502    0  0.82115735538E+02 -0.97710876716E+01  0.22177510658E+02  0.85617230635E+02  0.50400001928E-02 0.  1.
       -1    1    3    3    0  502 -0.82115735538E+02  0.97710876716E+01 -0.16034517777E+04  0.16055827825E+04  0.50400001928E-02 0. -1.
</event>
<event>
 5   0  0.6078658E-03  0.6021322E+03  0.7818609E-02  0.9900992E-01
        1   -1    0    0  501    0  0.00000000000E+00  0.00000000000E+00  0.32591191503E+03  0.32591191507E+03  0.50400001928E-02 0. -1.
       -1   -1    0    0    0  501  0.00000000000E+00  0.00000000000E+00 -0.27811443184E+03  0.27811443188E+03  0.50400001928E-02 0.  1.
    10030    2    1    2    0    0  0.00000000000E+00  0.00000000000E+00  0.47797483189E+02  0.60402634695E+03  0.60213223499E+03 0.  0.
        2    1    3    3  502    0  0.29513294133E+03  0.53618694216E+02  0.49716633550E+02  0.30405618081E+03  0.25500000920E-02 0. -1.
       -2    1    3    3    0  502 -0.29513294133E+03 -0.53618694216E+02 -0.19191503615E+01  0.29997016614E+03  0.25500000920E-02 0.  1.
</event>
<event>
 5   0  0.9391405E-03  0.5971709E+03  0.7818609E-02  0.9911293E-01
        2   -1    0    0  501    0  0.00000000000E+00  0.00000000000E+00  0.15749883541E+04  0.15749883541E+04  0.25500000920E-02 0. -1.
       -2   -1    0    0    0  501  0.00000000000E+00  0.00000000000E+00 -0.56605676838E+02  0.56605676896E+02  0.25500000920E-02 0.  1.
    10030    2    1    2    0    0  0.00000000000E+00  0.00000000000E+00  0.15183826773E+04  0.16315940310E+04  0.59717093648E+03 0.  0.
        2    1    3    3  502    0 -0.57174462199E+02  0.26340578703E+03  0.11101682114E+04  0.11424206692E+04  0.25500000920E-02 0. -1.
       -2    1    3    3    0  502  0.57174462199E+02 -0.26340578703E+03  0.40821446589E+03  0.48917336185E+03  0.25500000920E-02 0.  1.
</event>
<event>
 5   0  0.9822607E-03  0.6033370E+03  0.7818609E-02  0.9898507E-01
       -2   -1    0    0    0  501  0.00000000000E+00  0.00000000000E+00  0.30454526144E+03  0.30454526145E+03  0.25500000920E-02 0. -1.
        2   -1    0    0  501    0  0.00000000000E+00  0.00000000000E+00 -0.29881891727E+03  0.29881891728E+03  0.25500000920E-02 0.  1.
    10030    2    1    2    0    0  0.00000000000E+00  0.00000000000E+00  0.57263441735E+01  0.60336417873E+03  0.60333700463E+03 0.  0.
        3    1    3    3  502    0  0.19768227874E+03  0.59592204863E+01 -0.22494102845E+03  0.29952006964E+03  0.10100000352E+00 0.  1.
       -3    1    3    3    0  502 -0.19768227874E+03 -0.59592204863E+01  0.23066737263E+03  0.30384410909E+03  0.10100000352E+00 0. -1.
</event>
<event>
 5   0  0.9162342E-03  0.6022323E+03  0.7818609E-02  0.9900785E-01
       -2   -1    0    0    0  501  0.00000000000E+00  0.00000000000E+00  0.66352979682E+02  0.66352979731E+02  0.25500000920E-02 0. -1.
        2   -1    0    0  501    0  0.00000000000E+00  0.00000000000E+00 -0.13664940162E+04  0.13664940162E+04  0.25500000920E-02 0.  1.
    10030    2    1    2    0    0  0.00000000000E+00  0.00000000000E+00 -0.13001410365E+04  0.14328469959E+04  0.60223234629E+03 0.  0.
        5    1    3    3  502    0 -0.11957361162E+03 -0.27529242708E+03 -0.59351241578E+03  0.66510363605E+03  0.46999998093E+01 0. -1.
       -5    1    3    3    0  502  0.11957361162E+03  0.27529242708E+03 -0.70662862073E+03  0.76774335987E+03  0.46999998093E+01 0.  1.
</event>
<event>
 5   0  0.9028473E-03  0.6000177E+03  0.7818609E-02  0.9905369E-01
       -2   -1    0    0    0  501  0.00000000000E+00  0.00000000000E+00  0.10408623026E+03  0.10408623029E+03  0.25500000920E-02 0. -1.
        2   -1    0    0  501    0  0.00000000000E+00  0.00000000000E+00 -0.86471867821E+03  0.86471867821E+03  0.25500000920E-02 0.  1.
    10030    2    1    2    0    0  0.00000000000E+00  0.00000000000E+00 -0.76063244795E+03  0.96880490850E+03  0.60001769129E+03 0.  0.
        1    1    3    3  502    0  0.12112818455E+03  0.18678497511E+03 -0.55600902995E+02  0.22946050741E+03  0.50400001928E-02 0. -1.
       -1    1    3    3    0  502 -0.12112818455E+03 -0.18678497511E+03 -0.70503154496E+03  0.73934440109E+03  0.50400001928E-02 0.  1.
</event>
<event>
 5   0  0.5765045E-03  0.6008306E+03  0.7818609E-02  0.9903684E-01
       -1   -1    0    0    0  501  0.00000000000E+00  0.00000000000E+00  0.28352193295E+03  0.28352193300E+03  0.50400001928E-02 0. -1.
        1   -1    0    0  501    0  0.00000000000E+00  0.00000000000E+00 -0.31831524018E+03  0.31831524022E+03  0.50400001928E-02 0.  1.
    10030    2    1    2    0    0  0.00000000000E+00  0.00000000000E+00 -0.34793307232E+02  0.60183717322E+03  0.60083059912E+03 0.  0.
        1    1    3    3  502    0 -0.23346614373E+03 -0.27975049221E+02 -0.20468665595E+03  0.31174616404E+03  0.50400001928E-02 0.  1.
       -1    1    3    3    0  502  0.23346614373E+03  0.27975049221E+02  0.16989334871E+03  0.29009100918E+03  0.50400001928E-02 0. -1.
</event>
<event>
 5   0  0.9391405E-03  0.5994539E+03  0.7818609E-02  0.9906540E-01
       -2   -1    0    0    0  501  0.00000000000E+00  0.00000000000E+00  0.19819774249E+03  0.19819774250E+03  0.25500000920E-02 0.  1.
        2   -1    0    0  501    0  0.00000000000E+00  0.00000000000E+00 -0.45326573289E+03  0.45326573290E+03  0.25500000920E-02 0. -1.
    10030    2    1    2    0    0  0.00000000000E+00  0.00000000000E+00 -0.25506799040E+03  0.65146347540E+03  0.59945390153E+03 0.  0.
        2    1    3    3  502    0 -0.13613462032E+03 -0.30226311166E+02  0.16079591879E+03  0.21284170701E+03  0.25500000920E-02 0.  1.
       -2    1    3    3    0  502  0.13613462032E+03  0.30226311166E+02 -0.41586390919E+03  0.43862176839E+03  0.25500000920E-02 0. -1.
</event>
<event>
 5   0  0.5790967E-03  0.6010673E+03  0.7818609E-02  0.9903194E-01
        1   -1    0    0  501    0  0.00000000000E+00  0.00000000000E+00  0.33347704951E+03  0.33347704955E+03  0.50400001928E-02 0.  1.
       -1   -1    0    0    0  501  0.00000000000E+00  0.00000000000E+00 -0.27084468191E+03  0.27084468196E+03  0.50400001928E-02 0. -1.
    10030    2    1    2    0    0  0.00000000000E+00  0.00000000000E+00  0.62632367597E+02  0.60432173150E+03  0.60106733541E+03 0.  0.
        3    1    3    3  502    0  0.35033451494E+02 -0.25931728681E+03 -0.11729370886E+03  0.28675882254E+03  0.10100000352E+00 0. -1.
       -3    1    3    3    0  502 -0.35033451494E+02  0.25931728681E+03  0.17992607646E+03  0.31756290897E+03  0.10100000352E+00 0.  1.
</event>
<event>
 5   0  0.9162342E-03  0.6000888E+03  0.7818609E-02  0.9905222E-01
       -2   -1    0    0    0  501  0.00000000000E+00  0.00000000000E+00  0.17556112084E+03  0.17556112086E+03  0.25500000920E-02 0. -1.
        2   -1    0    0  501    0  0.00000000000E+00  0.00000000000E+00 -0.51279372446E+03  0.51279372446E+03  0.25500000920E-02 0.  1.
    10030    2    1    2    0    0  0.00000000000E+00  0.00000000000E+00 -0.33723260362E+03  0.68835484532E+03  0.60008879687E+03 0.  0.
        5    1    3    3  502    0  0.18173585142E+03 -0.24643571614E+02  0.10372798852E+03  0.21075296182E+03  0.46999998093E+01 0. -1.
       -5    1    3    3    0  502 -0.18173585142E+03  0.24643571614E+02 -0.44096059213E+03  0.47760188350E+03  0.46999998093E+01 0.  1.
</event>
<event>
 5   0  0.6078658E-03  0.6049417E+03  0.7818609E-02  0.9895206E-01
        1   -1    0    0  501    0  0.00000000000E+00  0.00000000000E+00  0.12559526900E+03  0.12559526910E+03  0.50400001928E-02 0.  1.
       -1   -1    0    0    0  501  0.00000000000E+00  0.00000000000E+00 -0.72843985969E+03  0.72843985971E+03  0.50400001928E-02 0. -1.
    10030    2    1    2    0    0  0.00000000000E+00  0.00000000000E+00 -0.60284459069E+03  0.85403512882E+03  0.60494165068E+03 0.  0.
        2    1    3    3  502    0 -0.12902924745E+03  0.11991497296E+02  0.84421631728E+02  0.15465883297E+03  0.25500000920E-02 0.  1.
       -2    1    3    3    0  502  0.12902924745E+03 -0.11991497296E+02 -0.68726622242E+03  0.69937629585E+03  0.25500000920E-02 0. -1.
</event>
<event>
 5   0  0.9303190E-03  0.6013211E+03  0.7818609E-02  0.9902669E-01
       -2   -1    0    0    0  501  0.00000000000E+00  0.00000000000E+00  0.89716771578E+02  0.89716771614E+02  0.25500000920E-02 0. -1.
        2   -1    0    0  501    0  0.00000000000E+00  0.00000000000E+00 -0.10075792511E+04  0.10075792511E+04  0.25500000920E-02 0.  1.
    10030    2    1    2    0    0  0.00000000000E+00  0.00000000000E+00 -0.91786247953E+03  0.10972960227E+04  0.60132107078E+03 0.  0.
        4    1    3    3  502    0 -0.45578950409E+02 -0.23164126148E+02  0.81720941540E+02  0.96405096581E+02  0.12699999809E+01 0. -1.
       -4    1    3    3    0  502  0.45578950409E+02  0.23164126148E+02 -0.99958342107E+03  0.10008909261E+04  0.12699999809E+01 0.  1.
</event>
<event>
 5   0  0.5765045E-03  0.5942623E+03  0.7818609E-02  0.9917382E-01
       -1   -1    0    0    0  501  0.00000000000E+00  0.00000000000E+00  0.47735083593E+03  0.47735083596E+03  0.50400001928E-02 0.  1.
        1   -1    0    0  501    0  0.00000000000E+00  0.00000000000E+00 -0.18495186183E+03  0.18495186190E+03  0.50400001928E-02 0. -1.
    10030    2    1    2    0    0  0.00000000000E+00  0.00000000000E+00  0.29239897410E+03  0.66230269786E+03  0.59426231879E+03 0.  0.
        1    1    3    3  502    0 -0.27816043261E+03 -0.28532665779E+02  0.34196364901E+02  0.28170326708E+03  0.50400001928E-02 0. -1.
       -1    1    3    3    0  502  0.27816043261E+03  0.28532665779E+02  0.25820260920E+03  0.38059943078E+03  0.50400001928E-02 0.  1.
</event>
<event>
 5   0  0.9028473E-03  0.5989360E+03  0.7818609E-02  0.9907616E-01
        2   -1    0    0  501    0  0.00000000000E+00  0.00000000000E+00  0.52952882445E+03  0.52952882445E+03  0.25500000920E-02 0.  1.
       -2   -1    0    0    0  501  0.00000000000E+00  0.00000000000E+00 -0.16936015545E+03  0.16936015547E+03  0.25500000920E-02 0. -1.
    10030    2    1    2    0    0  0.00000000000E+00  0.00000000000E+00  0.36016866900E+03  0.69888897992E+03  0.59893600336E+03 0.  0.
        1    1    3    3  502    0 -0.87388241395E+02  0.27524658435E+03  0.27258298412E+03  0.39711317050E+03  0.50400001928E-02 0. -1.
       -1    1    3    3    0  502  0.87388241395E+02 -0.27524658435E+03  0.87585684884E+02  0.30177580942E+03  0.50400001928E-02 0.  1.
</event>
<event>
 5   0  0.5891927E-03  0.5998956E+03  0.7818609E-02  0.9905623E-01
        1   -1    0    0  501    0  0.00000000000E+00  0.00000000000E+00  0.53993052380E+03  0.53993052383E+03  0.50400001928E-02 0. -1.
       -1   -1    0    0    0  501  0.00000000000E+00  0.00000000000E+00 -0.16663008476E+03  0.16663008483E+03  0.50400001928E-02 0.  1.
    10030    2    1    2    0    0  0.00000000000E+00  0.00000000000E+00  0.37330043905E+03  0.70656060866E+03  0.59989555418E+03 0.  0.
        4    1    3    3  502    0 -0.94209805657E+02  0.10772989431E+02  0.52180902011E+03  0.53035630584E+03  0.12699999809E+01 0. -1.
       -4    1    3    3    0  502  0.94209805657E+02 -0.10772989431E+02 -0.14850858106E+03  0.17620430282E+03  0.12699999809E+01 0.  1.
</event>
<event>
 5   0  0.3806250E-03  0.6003313E+03  0.7818609E-02  0.9904719E-01
       -3   -1    0    0    0  501  0.00000000000E+00  0.00000000000E+00  0.56053210189E+02  0.56053301183E+02  0.10100000352E+00 0. -1.
        3   -1    0    0  501    0  0.00000000000E+00  0.00000000000E+00 -0.16073893923E+04  0.16073893955E+04  0.10100000352E+00 0.  1.
    10030    2    1    2    0    0  0.00000000000E+00  0.00000000000E+00 -0.15513361821E+04  0.16634426967E+04  0.60033128782E+03 0.  0.
        2    1    3    3  502    0 -0.71753843375E+02  0.54175437114E+02 -0.15692023600E+04  0.15717759505E+04  0.25500000920E-02 0.  1.
       -2    1    3    3    0  502  0.71753843375E+02 -0.54175437114E+02  0.17866177894E+02  0.91666746122E+02  0.25500000920E-02 0. -1.
</event>
<event>
 5   0  0.9822607E-03  0.6009917E+03  0.7818609E-02  0.9903351E-01
        2   -1    0    0  501    0  0.00000000000E+00  0.00000000000E+00  0.77383766446E+03  0.77383766446E+03  0.25500000920E-02 0. -1.
       -2   -1    0    0    0  501  0.00000000000E+00  0.00000000000E+00 -0.11668823267E+03  0.11668823270E+03  0.25500000920E-02 0.  1.
    10030    2    1    2    0    0  0.00000000000E+00  0.00000000000E+00  0.65714943178E+03  0.89052589716E+03  0.60099167866E+03 0.  0.
        3    1    3    3  502    0  0.12057893324E+03 -0.24951095320E+03  0.50075725874E+03  0.57232231940E+03  0.10100000352E+00 0. -1.
       -3    1    3    3    0  502 -0.12057893324E+03  0.24951095320E+03  0.15639217305E+03  0.31820357776E+03  0.10100000352E+00 0.  1.
</event>
<event>
 5   0  0.5790967E-03  0.6013300E+03  0.7818609E-02  0.9902650E-01
       -1   -1    0    0    0  501  0.00000000000E+00  0.00000000000E+00  0.44637092957E+02  0.44637093241E+02  0.50400001928E-02 0. -1.
        1   -1    0    0  501    0  0.00000000000E+00  0.00000000000E+00 -0.20252092220E+04  0.20252092220E+04  0.50400001928E-02 0.  1.
    10030    2    1    2    0    0  0.00000000000E+00  0.00000000000E+00 -0.19805721290E+04  0.20698463153E+04  0.60133003451E+03 0.  0.
        3    1    3    3  502    0  0.18086404582E+03  0.16449942578E+03 -0.38789082164E+03  0.45850972059E+03  0.10100000352E+00 0. -1.
       -3    1    3    3    0  502 -0.18086404582E+03 -0.16449942578E+03 -0.15926813074E+04  0.16113365947E+04  0.10100000352E+00 0.  1.
</event>
<event>
 5   0  0.9028473E-03  0.5999499E+03  0.7818609E-02  0.9905510E-01
        2   -1    0    0  501    0  0.00000000000E+00  0.00000000000E+00  0.11943747910E+04  0.11943747910E+04  0.25500000920E-02 0. -1.
       -2   -1    0    0    0  501  0.00000000000E+00  0.00000000000E+00 -0.75340654968E+02  0.75340655011E+02  0.25500000920E-02 0.  1.
    10030    2    1    2    0    0  0.00000000000E+00  0.00000000000E+00  0.11190341361E+04  0.12697154461E+04  0.59994992812E+03 0.  0.
        1    1    3    3  502    0  0.48164570040E+02 -0.15750808497E+03  0.28918591770E+02  0.16722711387E+03  0.50400001928E-02 0.  1.
       -1    1    3    3    0  502 -0.48164570040E+02  0.15750808497E+03  0.10901155443E+04  0.11024883322E+04  0.50400001928E-02 0. -1.
</event>
<event>
 5   0  0.5891927E-03  0.5979516E+03  0.7818609E-02  0.9909665E-01
        1   -1    0    0  501    0  0.00000000000E+00  0.00000000000E+00  0.35510709266E+03  0.35510709270E+03  0.50400001928E-02 0.  1.
       -1   -1    0    0    0  501  0.00000000000E+00  0.00000000000E+00 -0.25171710131E+03  0.25171710136E+03  0.50400001928E-02 0. -1.
    10030    2    1    2    0    0  0.00000000000E+00  0.00000000000E+00  0.10338999135E+03  0.60682419406E+03  0.59795159686E+03 0.  0.
        4    1    3    3  502    0  0.22335946621E+03  0.14112040268E+03  0.19370165196E+03  0.32760702385E+03  0.12699999809E+01 0.  1.
       -4    1    3    3    0  502 -0.22335946621E+03 -0.14112040268E+03 -0.90311660615E+02  0.27921717021E+03  0.12699999809E+01 0. -1.
</event>
<event>
 5   0  0.9822607E-03  0.5994487E+03  0.7818609E-02  0.9906550E-01
        2   -1    0    0  501    0  0.00000000000E+00  0.00000000000E+00  0.36491328540E+03  0.36491328541E+03  0.25500000920E-02 0.  1.
       -2   -1    0    0    0  501  0.00000000000E+00  0.00000000000E+00 -0.24618092655E+03  0.24618092656E+03  0.25500000920E-02 0. -1.
    10030    2    1    2    0    0  0.00000000000E+00  0.00000000000E+00  0.11873235885E+03  0.61109421197E+03  0.59944871580E+03 0.  0.
        3    1    3    3  502    0  0.24207245368E+03  0.13361435260E+03 -0.58565323226E+02  0.28263364155E+03  0.10100000352E+00 0. -1.
       -3    1    3    3    0  502 -0.24207245368E+03 -0.13361435260E+03  0.17729768208E+03  0.32846057042E+03  0.10100000352E+00 0.  1.
</event>
<event>
 5   0  0.5891927E-03  0.6000216E+03  0.7818609E-02  0.9905361E-01
        1   -1    0    0  501    0  0.00000000000E+00  0.00000000000E+00  0.20572499354E+03  0.20572499360E+03  0.50400001928E-02 0. -1.
       -1   -1    0    0    0  501  0.00000000000E+00  0.00000000000E+00 -0.43750866516E+03  0.43750866518E+03  0.50400001928E-02 0.  1.
    10030    2    1    2    0    0  0.00000000000E+00  0.00000000000E+00 -0.23178367162E+03  0.64323365878E+03  0.60002155741E+03 0.  0.
        4    1    3    3  502    0 -0.20233791520E+03  0.76623694016E+02  0.10690486407E+03  0.24133397041E+03  0.12699999809E+01 0. -1.
       -4    1    3    3    0  502  0.20233791520E+03 -0.76623694016E+02 -0.33868853569E+03  0.40189968838E+03  0.12699999809E+01 0.  1.
</event>
<event>
 5   0  0.5819446E-03  0.6009319E+03  0.7818609E-02  0.9903474E-01
       -1   -1    0    0    0  501  0.00000000000E+00  0.00000000000E+00  0.26558283353E+03  0.26558283358E+03  0.50400001928E-02 0. -1.
        1   -1    0    0  501    0  0.00000000000E+00  0.00000000000E+00 -0.33993085939E+03  0.33993085943E+03  0.50400001928E-02 0.  1.
    10030    2    1    2    0    0  0.00000000000E+00  0.00000000000E+00 -0.74348025863E+02  0.60551369301E+03  0.60093194579E+03 0.  0.
        5    1    3    3  502    0  0.95447004190E+02 -0.24273655155E+03  0.11304837940E+03  0.28431178335E+03  0.46999998093E+01 0. -1.
       -5    1    3    3    0  502 -0.95447004190E+02  0.24273655155E+03 -0.18739640527E+03  0.32120190966E+03  0.46999998093E+01 0.  1.
</event>
<event>
 5   0  0.5891927E-03  0.5941120E+03  0.7818609E-02  0.9917698E-01
       -1   -1    0    0    0  501  0.00000000000E+00  0.00000000000E+00  0.26972044041E+03  0.26972044045E+03  0.50400001928E-02 0.  1.
        1   -1    0    0  501    0  0.00000000000E+00  0.00000000000E+00 -0.32716197311E+03  0.32716197315E+03  0.50400001928E-02 0. -1.
    10030    2    1    2    0    0  0.00000000000E+00  0.00000000000E+00 -0.57441532706E+02  0.59688241360E+03  0.59411201468E+03 0.  0.
        4    1    3    3  502    0  0.26337069704E+02 -0.30612841233E+02 -0.32438864450E+03  0.32689507930E+03  0.12699999809E+01 0. -1.
       -4    1    3    3    0  502 -0.26337069704E+02  0.30612841233E+02  0.26694711179E+03  0.26998733430E+03  0.12699999809E+01 0.  1.
</event>
<event>
 5   0  0.5790967E-03  0.6023988E+03  0.7818609E-02  0.9900442E-01
       -1   -1    0    0    0  501  0.00000000000E+00  0.00000000000E+00  0.88660446436E+02  0.88660446579E+02  0.50400001928E-02 0.  1.
        1   -1    0    0  501    0  0.00000000000E+00  0.00000000000E+00 -0.10232418768E+04  0.10232418768E+04  0.50400001928E-02 0. -1.
    10030    2    1    2    0    0  0.00000000000E+00  0.00000000000E+00 -0.93458143040E+03  0.11119023234E+04  0.60239881042E+03 0.  0.
        3    1    3    3  502    0  0.32590760783E+02  0.12816610782E+03  0.32207631312E+02  0.13611043530E+03  0.10100000352E+00 0.  1.
       -3    1    3    3    0  502 -0.32590760783E+02 -0.12816610782E+03 -0.96678906171E+03  0.97579188812E+03  0.10100000352E+00 0. -1.
</event>
<event>
 5   0  0.9391405E-03  0.5989170E+03  0.7818609E-02  0.9907656E-01
        2   -1    0    0  501    0  0.00000000000E+00  0.00000000000E+00  0.12638278304E+03  0.12638278306E+03  0.25500000920E-02 0. -1.
       -2   -1    0    0    0  501  0.00000000000E+00  0.00000000000E+00 -0.70955384175E+03  0.70955384175E+03  0.25500000920E-02 0.  1.
    10030    2    1    2    0    0  0.00000000000E+00  0.00000000000E+00 -0.58317105871E+03  0.83593662481E+03  0.59891698672E+03 0.  0.
        2    1    3    3  502    0 -0.64388281523E+02  0.11669187056E+03  0.82705186069E+02  0.15685340692E+03  0.25500000920E-02 0. -1.
       -2    1    3    3    0  502  0.64388281523E+02 -0.11669187056E+03 -0.66587624478E+03  0.67908321789E+03  0.25500000920E-02 0.  1.
</event>
<event>
 5   0  0.9303190E-03  0.6005893E+03  0.7818609E-02  0.9904184E-01
        2   -1    0    0  501    0  0.00000000000E+00  0.00000000000E+00  0.14784086189E+04  0.14784086189E+04  0.25500000920E-02 0.  1.
       -2   -1    0    0    0  501  0.00000000000E+00  0.00000000000E+00 -0.60995912056E+02  0.60995912110E+02  0.25500000920E-02 0. -1.
    10030    2    1    2    0    0  0.00000000000E+00  0.00000000000E+00  0.14174127069E+04  0.15394045311E+04  0.60058931774E+03 0.  0.
        4    1    3    3  502    0 -0.23426603920E+03 -0.80864701387E+02  0.11433529818E+04  0.11699048384E+04  0.12699999809E+01 0.  1.
       -4    1    3    3    0  502  0.23426603920E+03  0.80864701387E+02  0.27405972512E+03  0.36949969268E+03  0.12699999809E+01 0. -1.
</event>
<event>
 5   0  0.9162342E-03  0.6001588E+03  0.7818609E-02  0.9905077E-01
        2   -1    0    0  501    0  0.00000000000E+00  0.00000000000E+00  0.85450647660E+03  0.85450647660E+03  0.25500000920E-02 0.  1.
       -2   -1    0    0    0  501  0.00000000000E+00  0.00000000000E+00 -0.10537971224E+03  0.10537971227E+03  0.25500000920E-02 0. -1.
    10030    2    1    2    0    0  0.00000000000E+00  0.00000000000E+00  0.74912676436E+03  0.95988618887E+03  0.60015880108E+03 0.  0.
        5    1    3    3  502    0  0.14234025377E+03  0.88927739022E+02  0.77234693098E+03  0.79038646396E+03  0.46999998093E+01 0.  1.
       -5    1    3    3    0  502 -0.14234025377E+03 -0.88927739022E+02 -0.23220166626E+02  0.16949972491E+03  0.46999998093E+01 0. -1.
</event>
<event>
 5   0  0.9162342E-03  0.6003719E+03  0.7818609E-02  0.9904635E-01
       -2   -1    0    0    0  501  0.00000000000E+00  0.00000000000E+00  0.60645934042E+02  0.60645934096E+02  0.25500000920E-02 0. -1.
        2   -1    0    0  501    0  0.00000000000E+00  0.00000000000E+00 -0.14858637042E+04  0.14858637042E+04  0.25500000920E-02 0.  1.
    10030    2    1    2    0    0  0.00000000000E+00  0.00000000000E+00 -0.14252177702E+04  0.15465096383E+04  0.60037185892E+03 0.  0.
        5    1    3    3  502    0 -0.28343268045E+03  0.97195387297E+02 -0.75785090630E+03  0.81494853447E+03  0.46999998093E+01 0. -1.
       -5    1    3    3    0  502  0.28343268045E+03 -0.97195387297E+02 -0.66736686387E+03  0.73156110383E+03  0.46999998093E+01 0.  1.
</event>
<event>
 5   0  0.6078658E-03  0.6017446E+03  0.7818609E-02  0.9901793E-01
       -1   -1    0    0    0  501  0.00000000000E+00  0.00000000000E+00  0.31295186105E+03  0.31295186109E+03  0.50400001928E-02 0. -1.
        1   -1    0    0  501    0  0.00000000000E+00  0.00000000000E+00 -0.28925900725E+03  0.28925900729E+03  0.50400001928E-02 0.  1.
    10030    2    1    2    0    0  0.00000000000E+00  0.00000000000E+00  0.23692853799E+02  0.60221086838E+03  0.60174461250E+03 0.  0.
        2    1    3    3  502    0 -0.23719140933E+03  0.21585084626E+02 -0.17213960852E+03  0.29386684972E+03  0.25500000920E-02 0.  1.
       -2    1    3    3    0  502  0.23719140933E+03 -0.21585084626E+02  0.19583246232E+03  0.30834401866E+03  0.25500000920E-02 0. -1.
</event>
<event>
 5   0  0.5891927E-03  0.5999068E+03  0.7818609E-02  0.9905599E-01
       -1   -1    0    0    0  501  0.00000000000E+00  0.00000000000E+00  0.65565800997E+02  0.65565801191E+02  0.50400001928E-02 0. -1.
        1   -1    0    0  501    0  0.00000000000E+00  0.00000000000E+00 -0.13722404196E+04  0.13722404196E+04  0.50400001928E-02 0.  1.
    10030    2    1    2    0    0  0.00000000000E+00  0.00000000000E+00 -0.13066746186E+04  0.14378062208E+04  0.59990680082E+03 0.  0.
        4    1    3    3  502    0  0.21653176343E+03 -0.17658079641E+03 -0.91482822019E+03  0.95654538188E+03  0.12699999809E+01 0. -1.
       -4    1    3    3    0  502 -0.21653176343E+03  0.17658079641E+03 -0.39184639842E+03  0.48126083893E+03  0.12699999809E+01 0.  1.
</event>
<event>
 5   0  0.9822607E-03  0.5999554E+03  0.7818609E-02  0.9905499E-01
       -2   -1    0    0    0  501  0.00000000000E+00  0.00000000000E+00  0.72137625500E+02  0.72137625546E+02  0.25500000920E-02 0. -1.
        2   -1    0    0  501    0  0.00000000000E+00  0.00000000000E+00 -0.12474298623E+04  0.12474298623E+04  0.25500000920E-02 0.  1.
    10030    2    1    2    0    0  0.00000000000E+00  0.00000000000E+00 -0.11752922368E+04  0.13195674879E+04  0.59995542594E+03 0.  0.
        3    1    3    3  502    0 -0.17022094305E+03 -0.23335641378E+03 -0.76573622894E+03  0.81840232638E+03  0.10100000352E+00 0.  1.
       -3    1    3    3    0  502  0.17022094305E+03  0.23335641378E+03 -0.40955600790E+03  0.50116516151E+03  0.10100000352E+00 0. -1.
</event>
<event>
 5   0  0.9028473E-03  0.5977710E+03  0.7818609E-02  0.9910041E-01
       -2   -1    0    0    0  501  0.00000000000E+00  0.00000000000E+00  0.51375760186E+03  0.51375760186E+03  0.25500000920E-02 0.  1.
        2   -1    0    0  501    0  0.00000000000E+00  0.00000000000E+00 -0.17388069412E+03  0.17388069413E+03  0.25500000920E-02 0. -1.
    10030    2    1    2    0    0  0.00000000000E+00  0.00000000000E+00  0.33987690774E+03  0.68763829600E+03  0.59777095422E+03 0.  0.
        1    1    3    3  502    0 -0.89177978484E+02 -0.28525396241E+03  0.16630195244E+03  0.34202174540E+03  0.50400001928E-02 0. -1.
       -1    1    3    3    0  502  0.89177978484E+02  0.28525396241E+03  0.17357495530E+03  0.34561655060E+03  0.50400001928E-02 0.  1.
</event>
<event>
 5   0  0.3806250E-03  0.5993903E+03  0.7818609E-02  0.9906672E-01
       -3   -1    0    0    0  501  0.00000000000E+00  0.00000000000E+00  0.34565140863E+03  0.34565142339E+03  0.10100000352E+00 0. -1.
        3   -1    0    0  501    0  0.00000000000E+00  0.00000000000E+00 -0.25984899757E+03  0.25984901720E+03  0.10100000352E+00 0.  1.
    10030    2    1    2    0    0  0.00000000000E+00  0.00000000000E+00  0.85802411061E+02  0.60550044059E+03  0.59939029839E+03 0.  0.
        2    1    3    3  502    0 -0.11551700183E+03  0.25395473614E+03  0.15347013479E+03  0.31841838514E+03  0.25500000920E-02 0. -1.
       -2    1    3    3    0  502  0.11551700183E+03 -0.25395473614E+03 -0.67667723731E+02  0.28708205545E+03  0.25500000920E-02 0.  1.
</event>
<event>
 5   0  0.9162342E-03  0.5992711E+03  0.7818609E-02  0.9906919E-01
       -2   -1    0    0    0  501  0.00000000000E+00  0.00000000000E+00  0.43557867052E+03  0.43557867053E+03  0.25500000920E-02 0.  1.
        2   -1    0    0  501    0  0.00000000000E+00  0.00000000000E+00 -0.20611999942E+03  0.20611999943E+03  0.25500000920E-02 0. -1.
    10030    2    1    2    0    0  0.00000000000E+00  0.00000000000E+00  0.22945867110E+03  0.64169866996E+03  0.59927114171E+03 0.  0.
        5    1    3    3  502    0 -0.16862674630E+03 -0.21529125540E+03  0.24576148499E+03  0.36770382337E+03  0.46999998093E+01 0.  1.
       -5    1    3    3    0  502  0.16862674630E+03  0.21529125540E+03 -0.16302813887E+02  0.27399484659E+03  0.46999998093E+01 0. -1.
</event>
<event>
 5   0  0.5790967E-03  0.6002334E+03  0.7818609E-02  0.9904922E-01
       -1   -1    0    0    0  501  0.00000000000E+00  0.00000000000E+00  0.26685404634E+03  0.26685404639E+03  0.50400001928E-02 0. -1.
        1   -1    0    0  501    0  0.00000000000E+00  0.00000000000E+00 -0.33752550060E+03  0.33752550064E+03  0.50400001928E-02 0.  1.
    10030    2    1    2    0    0  0.00000000000E+00  0.00000000000E+00 -0.70671454255E+02  0.60437954703E+03  0.60023343994E+03 0.  0.
        3    1    3    3  502    0 -0.17127003755E+00 -0.92640577815E+02  0.25209664577E+03  0.26857966230E+03  0.10100000352E+00 0. -1.
       -3    1    3    3    0  502  0.17127003755E+00  0.92640577815E+02 -0.32276810002E+03  0.33579988473E+03  0.10100000352E+00 0.  1.
</event>
<event>
 5   0  0.3806250E-03  0.5996223E+03  0.7818609E-02  0.9906190E-01
        3   -1    0    0  501    0  0.00000000000E+00  0.00000000000E+00  0.84078114718E+03  0.84078115324E+03  0.10100000352E+00 0.  1.
       -3   -1    0    0    0  501  0.00000000000E+00  0.00000000000E+00 -0.10690854884E+03  0.10690859655E+03  0.10100000352E+00 0. -1.
    10030    2    1    2    0    0  0.00000000000E+00  0.00000000000E+00  0.73387259834E+03  0.94768974979E+03  0.59962227383E+03 0.  0.
        4    1    3    3  502    0  0.68640806401E+02 -0.22907200721E+03  0.65273442839E+03  0.69516141413E+03  0.12699999809E+01 0.  1.
       -4    1    3    3    0  502 -0.68640806401E+02  0.22907200721E+03  0.81138169947E+02  0.25252833566E+03  0.12699999809E+01 0. -1.
</event>
<event>
 5   0  0.9391405E-03  0.5999624E+03  0.7818609E-02  0.9905484E-01
       -2   -1    0    0    0  501  0.00000000000E+00  0.00000000000E+00  0.83286158824E+02  0.83286158863E+02  0.25500000920E-02 0.  1.
        2   -1    0    0  501    0  0.00000000000E+00  0.00000000000E+00 -0.10804763492E+04  0.10804763492E+04  0.25500000920E-02 0. -1.
    10030    2    1    2    0    0  0.00000000000E+00  0.00000000000E+00 -0.99719019037E+03  0.11637625081E+04  0.59996241498E+03 0.  0.
        2    1    3    3  502    0  0.16426476828E+03 -0.16780086743E+03 -0.13649096272E+03  0.27160601635E+03  0.25500000920E-02 0.  1.
       -2    1    3    3    0  502 -0.16426476828E+03  0.16780086743E+03 -0.86069922765E+03  0.89215649171E+03  0.25500000920E-02 0. -1.
</event>
<event>
 5   0  0.5765045E-03  0.6001840E+03  0.7818609E-02  0.9905024E-01
       -1   -1    0    0    0  501  0.00000000000E+00  0.00000000000E+00  0.50889795110E+03  0.50889795112E+03  0.50400001928E-02 0.  1.
        1   -1    0    0  501    0  0.00000000000E+00  0.00000000000E+00 -0.17696120646E+03  0.17696120653E+03  0.50400001928E-02 0. -1.
    10030    2    1    2    0    0  0.00000000000E+00  0.00000000000E+00  0.33193674464E+03  0.68585915766E+03  0.60018395655E+03 0.  0.
        1    1    3    3  502    0  0.23360611552E+02  0.27760565235E+03  0.29344796416E+03  0.40462615348E+03  0.50400001928E-02 0.  1.
       -1    1    3    3    0  502 -0.23360611552E+02 -0.27760565235E+03  0.38488780482E+02  0.28123300417E+03  0.50400001928E-02 0. -1.
</event>
<event>
 5   0  0.9822607E-03  0.6053142E+03  0.7818609E-02  0.9894442E-01
        2   -1    0    0  501    0  0.00000000000E+00  0.00000000000E+00  0.40369336312E+03  0.40369336313E+03  0.25500000920E-02 0.  1.
       -2   -1    0    0    0  501  0.00000000000E+00  0.00000000000E+00 -0.22690820205E+03  0.22690820206E+03  0.25500000920E-02 0. -1.
    10030    2    1    2    0    0  0.00000000000E+00  0.00000000000E+00  0.17678516108E+03  0.63060156519E+03  0.60531424966E+03 0.  0.
        3    1    3    3  502    0 -0.18233890397E+03  0.13517223727E+03  0.29696195906E+03  0.37377188894E+03  0.10100000352E+00 0.  1.
       -3    1    3    3    0  502  0.18233890397E+03 -0.13517223727E+03 -0.12017679799E+03  0.25682967625E+03  0.10100000352E+00 0. -1.
</event>
<event>
 5   0  0.9391405E-03  0.5984561E+03  0.7818609E-02  0.9908614E-01
       -2   -1    0    0    0  501  0.00000000000E+00  0.00000000000E+00  0.45864050710E+03  0.45864050711E+03  0.25500000920E-02 0. -1.
        2   -1    0    0  501    0  0.00000000000E+00  0.00000000000E+00 -0.19522355018E+03  0.19522355019E+03  0.25500000920E-02 0.  1.
    10030    2    1    2    0    0  0.00000000000E+00  0.00000000000E+00  0.26341695693E+03  0.65386405730E+03  0.59845610719E+03 0.  0.
        2    1    3    3  502    0  0.12551448887E+03 -0.31302272093E+02  0.42651148881E+03  0.44569694777E+03  0.25500000920E-02 0. -1.
       -2    1    3    3    0  502 -0.12551448887E+03  0.31302272093E+02 -0.16309453188E+03  0.20816710954E+03  0.25500000920E-02 0.  1.
</event>
<event>
 5   0  0.5765045E-03  0.5982883E+03  0.7818609E-02  0.9908964E-01
       -1   -1    0    0    0  501  0.00000000000E+00  0.00000000000E+00  0.60073314604E+02  0.60073314815E+02  0.50400001928E-02 0.  1.
        1   -1    0    0  501    0  0.00000000000E+00  0.00000000000E+00 -0.14896336279E+04  0.14896336279E+04  0.50400001928E-02 0. -1.
    10030    2    1    2    0    0  0.00000000000E+00  0.00000000000E+00 -0.14295603133E+04  0.15497069427E+04  0.59828832428E+03 0.  0.
        1    1    3    3  502    0  0.14503381824E+03 -0.17188555157E+03 -0.12257052915E+04  0.12461672893E+04  0.50400001928E-02 0. -1.
       -1    1    3    3    0  502 -0.14503381824E+03  0.17188555157E+03 -0.20385502181E+03  0.30353965344E+03  0.50400001928E-02 0.  1.
</event>
<event>
 5   0  0.9162342E-03  0.5987677E+03  0.7818609E-02  0.9907966E-01
        2   -1    0    0  501    0  0.00000000000E+00  0.00000000000E+00  0.40080399409E+03  0.40080399410E+03  0.25500000920E-02 0.  1.
       -2   -1    0    0    0  501  0.00000000000E+00  0.00000000000E+00 -0.22362720380E+03  0.22362720382E+03  0.25500000920E-02 0. -1.
    10030    2    1    2    0    0  0.00000000000E+00  0.00000000000E+00  0.17717679028E+03  0.62443119791E+03  0.59876765604E+03 0.  0.
        5    1    3    3  502    0 -0.58792929847E+02 -0.16199974302E+03 -0.16666345144E+03  0.23979016115E+03  0.46999998093E+01 0. -1.
       -5    1    3    3    0  502  0.58792929847E+02  0.16199974302E+03  0.34384024172E+03  0.38464103677E+03  0.46999998093E+01 0.  1.
</event>
<event>
 5   0  0.9391405E-03  0.5999047E+03  0.7818609E-02  0.9905604E-01
        2   -1    0    0  501    0  0.00000000000E+00  0.00000000000E+00  0.55939445969E+03  0.55939445970E+03  0.25500000920E-02 0. -1.
       -2   -1    0    0    0  501  0.00000000000E+00  0.00000000000E+00 -0.16083715366E+03  0.16083715368E+03  0.25500000920E-02 0.  1.
    10030    2    1    2    0    0  0.00000000000E+00  0.00000000000E+00  0.39855730604E+03  0.72023161338E+03  0.59990470136E+03 0.  0.
        2    1    3    3  502    0 -0.77378655741E+02 -0.69226290381E+02 -0.13857582897E+03  0.17315598755E+03  0.25500000920E-02 0.  1.
       -2    1    3    3    0  502  0.77378655741E+02  0.69226290381E+02  0.53713313501E+03  0.54707562583E+03  0.25500000920E-02 0. -1.
</event>
<event>
 5   0  0.9162342E-03  0.5930475E+03  0.7818609E-02  0.9919936E-01
       -2   -1    0    0    0  501  0.00000000000E+00  0.00000000000E+00  0.76153800997E+03  0.76153800997E+03  0.25500000920E-02 0. -1.
        2   -1    0    0  501    0  0.00000000000E+00  0.00000000000E+00 -0.11545890465E+03  0.11545890467E+03  0.25500000920E-02 0.  1.
    10030    2    1    2    0    0  0.00000000000E+00  0.00000000000E+00  0.64607910532E+03  0.87699691465E+03  0.59304753432E+03 0.  0.
        5    1    3    3  502    0  0.51127549153E+02  0.26375183575E+03  0.50848091670E+03  0.57511215410E+03  0.46999998093E+01 0. -1.
       -5    1    3    3    0  502 -0.51127549153E+02 -0.26375183575E+03  0.13759818862E+03  0.30188476055E+03  0.46999998093E+01 0.  1.
</event>
<event>
 5   0  0.5891927E-03  0.5981937E+03  0.7818609E-02  0.9909161E-01
        1   -1    0    0  501    0  0.00000000000E+00  0.00000000000E+00  0.15712700580E+04  0.15712700580E+04  0.50400001928E-02 0.  1.
       -1   -1    0    0    0  501  0.00000000000E+00  0.00000000000E+00 -0.56934141602E+02  0.56934141825E+02  0.50400001928E-02 0. -1.
    10030    2    1    2    0    0  0.00000000000E+00  0.00000000000E+00  0.15143359164E+04  0.16282041998E+04  0.59819365481E+03 0.  0.
        4    1    3    3  502    0 -0.11423437378E+03  0.26173052690E+03  0.51516743022E+03  0.58902585251E+03  0.12699999809E+01 0. -1.
       -4    1    3    3    0  502  0.11423437378E+03 -0.26173052690E+03  0.99916848615E+03  0.10391783473E+04  0.12699999809E+01 0.  1.
</event>
<event>
 5   0  0.9303190E-03  0.5982694E+03  0.7818609E-02  0.9909003E-01
        2   -1    0    0  501    0  0.00000000000E+00  0.00000000000E+00  0.10681546562E+04  0.10681546562E+04  0.25500000920E-02 0.  1.
       -2   -1    0    0    0  501  0.00000000000E+00  0.00000000000E+00 -0.83772113413E+02  0.83772113452E+02  0.25500000920E-02 0. -1.
    10030    2    1    2    0    0  0.00000000000E+00  0.00000000000E+00  0.98438254283E+03  0.11519267697E+04  0.59826941433E+03 0.  0.
        4    1    3    3  502    0 -0.26082163201E+03 -0.10599587019E+03  0.29757108030E+03  0.40965010552E+03  0.12699999809E+01 0. -1.
       -4    1    3    3    0  502  0.26082163201E+03  0.10599587019E+03  0.68681146252E+03  0.74227666417E+03  0.12699999809E+01 0.  1.
</event>
<event>
 5   0  0.9822607E-03  0.5983810E+03  0.7818609E-02  0.9908771E-01
       -2   -1    0    0    0  501  0.00000000000E+00  0.00000000000E+00  0.22251270312E+03  0.22251270313E+03  0.25500000920E-02 0.  1.
        2   -1    0    0  501    0  0.00000000000E+00  0.00000000000E+00 -0.40229144142E+03  0.40229144143E+03  0.25500000920E-02 0. -1.
    10030    2    1    2    0    0  0.00000000000E+00  0.00000000000E+00 -0.17977873830E+03  0.62480414456E+03  0.59838100264E+03 0.  0.
        3    1    3    3  502    0  0.28827617753E+03 -0.74828017292E+01 -0.17313303219E+03  0.33635428329E+03  0.10100000352E+00 0. -1.
       -3    1    3    3    0  502 -0.28827617753E+03  0.74828017292E+01 -0.66457061114E+01  0.28844986127E+03  0.10100000352E+00 0.  1.
</event>
<event>
 5   0  0.9162342E-03  0.6005783E+03  0.7818609E-02  0.9904207E-01
        2   -1    0    0  501    0  0.00000000000E+00  0.00000000000E+00  0.39257269549E+03  0.39257269549E+03  0.25500000920E-02 0. -1.
       -2   -1    0    0    0  501  0.00000000000E+00  0.00000000000E+00 -0.22969907099E+03  0.22969907100E+03  0.25500000920E-02 0.  1.
    10030    2    1    2    0    0  0.00000000000E+00  0.00000000000E+00  0.16287362450E+03  0.62227176650E+03  0.60057833279E+03 0.  0.
        5    1    3    3  502    0 -0.17026202279E+01 -0.17313328461E+03 -0.17272654006E+03  0.24461108069E+03  0.46999998093E+01 0.  1.
       -5    1    3    3    0  502  0.17026202279E+01  0.17313328461E+03  0.33560016456E+03  0.37766068581E+03  0.46999998093E+01 0. -1.
</event>
<event>
 5   0  0.9822607E-03  0.6017480E+03  0.7818609E-02  0.9901786E-01
       -2   -1    0    0    0  501  0.00000000000E+00  0.00000000000E+00  0.72860581792E+02  0.72860581837E+02  0.25500000920E-02 0.  1.
        2   -1    0    0  501    0  0.00000000000E+00  0.00000000000E+00 -0.12424438099E+04  0.12424438099E+04  0.25500000920E-02 0. -1.
    10030    2    1    2    0    0  0.00000000000E+00  0.00000000000E+00 -0.11695832281E+04  0.13153043917E+04  0.60174804981E+03 0.  0.
        3    1    3    3  502    0 -0.17273925735E+03 -0.15712174887E+03 -0.17006945431E+03  0.28887665964E+03  0.10100000352E+00 0.  1.
       -3    1    3    3    0  502  0.17273925735E+03  0.15712174887E+03 -0.99951377376E+03  0.10264277321E+04  0.10100000352E+00 0. -1.
</event>
<event>
 5   0  0.5790967E-03  0.5948075E+03  0.7818609E-02  0.9916238E-01
       -1   -1    0    0    0  501  0.00000000000E+00  0.00000000000E+00  0.32150354318E+03  0.32150354322E+03  0.50400001928E-02 0. -1.
        1   -1    0    0  501    0  0.00000000000E+00  0.00000000000E+00 -0.27511044885E+03  0.27511044889E+03  0.50400001928E-02 0.  1.
    10030    2    1    2    0    0  0.00000000000E+00  0.00000000000E+00  0.46393094336E+02  0.59661399212E+03  0.59480747842E+03 0.  0.
        3    1    3    3  502    0 -0.84456546581E+02 -0.11086720960E+03  0.28671967424E+03  0.31879872682E+03  0.10100000352E+00 0. -1.
       -3    1    3    3    0  502  0.84456546581E+02  0.11086720960E+03 -0.24032657990E+03  0.27781526530E+03  0.10100000352E+00 0.  1.
</event>
<event>
 5   0  0.5790967E-03  0.5996228E+03  0.7818609E-02  0.9906189E-01
        1   -1    0    0  501    0  0.00000000000E+00  0.00000000000E+00  0.11627414727E+04  0.11627414727E+04  0.50400001928E-02 0. -1.
       -1   -1    0    0    0  501  0.00000000000E+00  0.00000000000E+00 -0.77305987338E+02  0.77305987502E+02  0.50400001928E-02 0.  1.
    10030    2    1    2    0    0  0.00000000000E+00  0.00000000000E+00  0.10854354854E+04  0.12400474602E+04  0.59962280703E+03 0.  0.
        3    1    3    3  502    0 -0.42720881744E+02 -0.29520543211E+03  0.48014281026E+03  0.56525078446E+03  0.10100000352E+00 0.  1.
       -3    1    3    3    0  502  0.42720881744E+02  0.29520543211E+03  0.60529267514E+03  0.67479667579E+03  0.10100000352E+00 0. -1.
</event>
<event>
 5   0  0.9303190E-03  0.5982316E+03  0.7818609E-02  0.9909082E-01
        2   -1    0    0  501    0  0.00000000000E+00  0.00000000000E+00  0.55818760005E+03  0.55818760006E+03  0.25500000920E-02 0. -1.
       -2   -1    0    0    0  501  0.00000000000E+00  0.00000000000E+00 -0.16028708183E+03  0.16028708185E+03  0.25500000920E-02 0.  1.
    10030    2    1    2    0    0  0.00000000000E+00  0.00000000000E+00  0.39790051822E+03  0.71847468191E+03  0.59823159908E+03 0.  0.
        4    1    3    3  502    0  0.93090657684E+02 -0.26166067943E+03  0.65555883319E+02  0.28536182023E+03  0.12699999809E+01 0.  1.
       -4    1    3    3    0  502 -0.93090657684E+02  0.26166067943E+03  0.33234463490E+03  0.43311286168E+03  0.12699999809E+01 0. -1.
</event>
<event>
 5   0  0.5819446E-03  0.6007088E+03  0.7818609E-02  0.9903937E-01
       -1   -1    0    0    0  501  0.00000000000E+00  0.00000000000E+00  0.82378751207E+02  0.82378751362E+02  0.50400001928E-02 0. -1.
        1   -1    0    0  501    0  0.00000000000E+00  0.00000000000E+00 -0.10950975859E+04  0.10950975859E+04  0.50400001928E-02 0.  1.
    10030    2    1    2    0    0  0.00000000000E+00  0.00000000000E+00 -0.10127188347E+04  0.11774763373E+04  0.60070882023E+03 0.  0.
        5    1    3    3  502    0  0.28376629566E+03 -0.77179439510E+02 -0.62576273899E+03  0.69143406912E+03  0.46999998093E+01 0.  1.
       -5    1    3    3    0  502 -0.28376629566E+03  0.77179439510E+02 -0.38695609572E+03  0.48604226817E+03  0.46999998093E+01 0. -1.
</event>
<event>
 5   0  0.5819446E-03  0.5997989E+03  0.7818609E-02  0.9905823E-01
       -1   -1    0    0    0  501  0.00000000000E+00  0.00000000000E+00  0.51297353612E+02  0.51297353859E+02  0.50400001928E-02 0.  1.
        1   -1    0    0  501    0  0.00000000000E+00  0.00000000000E+00 -0.17533006263E+04  0.17533006263E+04  0.50400001928E-02 0. -1.
    10030    2    1    2    0    0  0.00000000000E+00  0.00000000000E+00 -0.17020032727E+04  0.18045979802E+04  0.59979890779E+03 0.  0.
        5    1    3    3  502    0  0.24314488735E+02 -0.89803702944E+02 -0.17086667192E+04  0.17112042387E+04  0.46999998093E+01 0. -1.
       -5    1    3    3    0  502 -0.24314488735E+02  0.89803702944E+02  0.66634464759E+01  0.93393741450E+02  0.46999998093E+01 0.  1.
</event>
<event>
 5   0  0.5790967E-03  0.5923843E+03  0.7818609E-02  0.9921333E-01
       -1   -1    0    0    0  501  0.00000000000E+00  0.00000000000E+00  0.46903156538E+03  0.46903156541E+03  0.50400001928E-02 0.  1.
        1   -1    0    0  501    0  0.00000000000E+00  0.00000000000E+00 -0.18704450811E+03  0.18704450817E+03  0.50400001928E-02 0. -1.
    10030    2    1    2    0    0  0.00000000000E+00  0.00000000000E+00  0.28198705728E+03  0.65607607358E+03  0.59238426199E+03 0.  0.
        3    1    3    3  502    0  0.79279816507E+02  0.73072244853E+02  0.44652578810E+03  0.45935839157E+03  0.10100000352E+00 0.  1.
       -3    1    3    3    0  502 -0.79279816507E+02 -0.73072244853E+02 -0.16453873082E+03  0.19671768201E+03  0.10100000352E+00 0. -1.
</event>
<event>
 5   0  0.5819446E-03  0.6026290E+03  0.7818609E-02  0.9899967E-01
       -1   -1    0    0    0  501  0.00000000000E+00  0.00000000000E+00  0.41473734142E+03  0.41473734145E+03  0.50400001928E-02 0. -1.
        1   -1    0    0  501    0  0.00000000000E+00  0.00000000000E+00 -0.21891065478E+03  0.21891065484E+03  0.50400001928E-02 0.  1.
    10030    2    1    2    0    0  0.00000000000E+00  0.00000000000E+00  0.19582668665E+03  0.63364799629E+03  0.60262898370E+03 0.  0.
        5    1    3    3  502    0 -0.14767039210E+03  0.15476076976E+03  0.32099140508E+03  0.38576548925E+03  0.46999998093E+01 0. -1.
       -5    1    3    3    0  502  0.14767039210E+03 -0.15476076976E+03 -0.12516471844E+03  0.24788250704E+03  0.46999998093E+01 0.  1.
</event>
<event>
 5   0  0.5765045E-03  0.5981898E+03  0.7818609E-02  0.9909169E-01
        1   -1    0    0  501    0  0.00000000000E+00  0.00000000000E+00  0.50842162595E+03  0.50842162597E+03  0.50400001928E-02 0. -1.
       -1   -1    0    0    0  501  0.00000000000E+00  0.00000000000E+00 -0.17595191883E+03  0.17595191890E+03  0.50400001928E-02 0.  1.
    10030    2    1    2    0    0  0.00000000000E+00  0.00000000000E+00  0.33246970712E+03  0.68437354487E+03  0.59818980497E+03 0.  0.
        1    1    3    3  502    0  0.53156188381E+02 -0.27336219327E+03  0.29106636376E+03  0.40283010961E+03  0.50400001928E-02 0. -1.
       -1    1    3    3    0  502 -0.53156188381E+02  0.27336219327E+03  0.41403343357E+02  0.28154343526E+03  0.50400001928E-02 0.  1.
</event>
<event>
 5   0  0.9028473E-03  0.6001616E+03  0.7818609E-02  0.9905071E-01
       -2   -1    0    0    0  501  0.00000000000E+00  0.00000000000E+00  0.13280810795E+03  0.13280810797E+03  0.25500000920E-02 0.  1.
        2   -1    0    0  501    0  0.00000000000E+00  0.00000000000E+00 -0.67803456968E+03  0.67803456968E+03  0.25500000920E-02 0. -1.
    10030    2    1    2    0    0  0.00000000000E+00  0.00000000000E+00 -0.54522646173E+03  0.81084267765E+03  0.60016160601E+03 0.  0.
        1    1    3    3  502    0  0.24087880902E+02  0.16866307463E+03 -0.60635314941E+03  0.62983458192E+03  0.50400001928E-02 0. -1.
       -1    1    3    3    0  502 -0.24087880902E+02 -0.16866307463E+03  0.61126687679E+02  0.18100809574E+03  0.50400001928E-02 0.  1.
</event>
<event>
 5   0  0.6078658E-03  0.5990211E+03  0.7818609E-02  0.9907439E-01
       -1   -1    0    0    0  501  0.00000000000E+00  0.00000000000E+00  0.70095881371E+02  0.70095881552E+02  0.50400001928E-02 0.  1.
        1   -1    0    0  501    0  0.00000000000E+00  0.00000000000E+00 -0.12797693184E+04  0.12797693184E+04  0.50400001928E-02 0. -1.
    10030    2    1    2    0    0  0.00000000000E+00  0.00000000000E+00 -0.12096734370E+04  0.13498651999E+04  0.59902106291E+03 0.  0.
        2    1    3    3  502    0  0.26917262232E+03 -0.12128516333E+03 -0.71846449547E+03  0.77675943684E+03  0.25500000920E-02 0.  1.
       -2    1    3    3    0  502 -0.26917262232E+03  0.12128516333E+03 -0.49120894152E+03  0.57310576309E+03  0.25500000920E-02 0. -1.
</event>
<event>
 5   0  0.5790967E-03  0.5997789E+03  0.7818609E-02  0.9905865E-01
       -1   -1    0    0    0  501  0.00000000000E+00  0.00000000000E+00  0.45478277100E+03  0.45478277103E+03  0.50400001928E-02 0. -1.
        1   -1    0    0  501    0  0.00000000000E+00  0.00000000000E+00 -0.19775085980E+03  0.19775085986E+03  0.50400001928E-02 0.  1.
    10030    2    1    2    0    0  0.00000000000E+00  0.00000000000E+00  0.25703191120E+03  0.65253363089E+03  0.59977890598E+03 0.  0.
        3    1    3    3  502    0 -0.14837552744E+03 -0.19848264565E+02 -0.15419468395E+03  0.21490756503E+03  0.10100000352E+00 0.  1.
       -3    1    3    3    0  502  0.14837552744E+03  0.19848264565E+02  0.41122659516E+03  0.43762606585E+03  0.10100000352E+00 0. -1.
</event>
<event>
 5   0  0.3806250E-03  0.6054269E+03  0.7818609E-02  0.9894210E-01
        3   -1    0    0  501    0  0.00000000000E+00  0.00000000000E+00  0.35505684341E+03  0.35505685777E+03  0.10100000352E+00 0. -1.
       -3   -1    0    0    0  501  0.00000000000E+00  0.00000000000E+00 -0.25808665707E+03  0.25808667683E+03  0.10100000352E+00 0.  1.
    10030    2    1    2    0    0  0.00000000000E+00  0.00000000000E+00  0.96970186339E+02  0.61314353460E+03  0.60542693778E+03 0.  0.
        5    1    3    3  502    0  0.14446438940E+03  0.80402716965E+02  0.30524918296E+03  0.34717965147E+03  0.46999998093E+01 0. -1.
       -5    1    3    3    0  502 -0.14446438940E+03 -0.80402716965E+02 -0.20827899662E+03  0.26596388313E+03  0.46999998093E+01 0.  1.
</event>
<event>
 5   0  0.6078658E-03  0.6003761E+03  0.7818609E-02  0.9904626E-01
        1   -1    0    0  501    0  0.00000000000E+00  0.00000000000E+00  0.44184413763E+03  0.44184413766E+03  0.50400001928E-02 0.  1.
       -1   -1    0    0    0  501  0.00000000000E+00  0.00000000000E+00 -0.20394717374E+03  0.20394717381E+03  0.50400001928E-02 0. -1.
    10030    2    1    2    0    0  0.00000000000E+00  0.00000000000E+00  0.23789696389E+03  0.64579131147E+03  0.60037609258E+03 0.  0.
        2    1    3    3  502    0  0.71029490401E+02  0.10092146965E+03  0.41329511125E+03  0.43132723138E+03  0.25500000920E-02 0.  1.
       -2    1    3    3    0  502 -0.71029490401E+02 -0.10092146965E+03 -0.17539814736E+03  0.21446408009E+03  0.25500000920E-02 0. -1.
</event>
<event>
 5   0  0.5790967E-03  0.6003101E+03  0.7818609E-02  0.9904763E-01
       -1   -1    0    0    0  501  0.00000000000E+00  0.00000000000E+00  0.41888023836E+02  0.41888024139E+02  0.50400001928E-02 0.  1.
        1   -1    0    0  501    0  0.00000000000E+00  0.00000000000E+00 -0.21508072136E+04  0.21508072136E+04  0.50400001928E-02 0. -1.
    10030    2    1    2    0    0  0.00000000000E+00  0.00000000000E+00 -0.21089191898E+04  0.21926952377E+04  0.60031013374E+03 0.  0.
        3    1    3    3  502    0 -0.13885468843E+03 -0.39664500739E+02 -0.93337670779E+02  0.17194716661E+03  0.10100000352E+00 0.  1.
       -3    1    3    3    0  502  0.13885468843E+03  0.39664500739E+02 -0.20155815190E+04  0.20207480711E+04  0.10100000352E+00 0. -1.
</event>
<event>
 5   0  0.9162342E-03  0.5986792E+03  0.7818609E-02  0.9908150E-01
        2   -1    0    0  501    0  0.00000000000E+00  0.00000000000E+00  0.13202170692E+03  0.13202170694E+03  0.25500000920E-02 0. -1.
       -2   -1    0    0    0  501  0.00000000000E+00  0.00000000000E+00 -0.67870799451E+03  0.67870799451E+03  0.25500000920E-02 0.  1.
    10030    2    1    2    0    0  0.00000000000E+00  0.00000000000E+00 -0.54668628759E+03  0.81072970145E+03  0.59867917266E+03 0.  0.
        5    1    3    3  502    0  0.16000065551E+03 -0.18874315503E+03 -0.45298938538E+02  0.25159147872E+03  0.46999998093E+01 0. -1.
       -5    1    3    3    0  502 -0.16000065551E+03  0.18874315503E+03 -0.50138734905E+03  0.55913822273E+03  0.46999998093E+01 0.  1.
</event>
<event>
 5   0  0.9028473E-03  0.5985908E+03  0.7818609E-02  0.9908334E-01
        2   -1    0    0  501    0  0.00000000000E+00  0.00000000000E+00  0.13730436908E+04  0.13730436908E+04  0.25500000920E-02 0.  1.
       -2   -1    0    0    0  501  0.00000000000E+00  0.00000000000E+00 -0.65240264821E+02  0.65240264871E+02  0.25500000920E-02 0. -1.
    10030    2    1    2    0    0  0.00000000000E+00  0.00000000000E+00  0.13078034260E+04  0.14382839557E+04  0.59859079191E+03 0.  0.
        1    1    3    3  502    0 -0.27638113163E+02  0.29232044204E+03  0.79323471964E+03  0.84583475136E+03  0.50400001928E-02 0. -1.
       -1    1    3    3    0  502  0.27638113163E+02 -0.29232044204E+03  0.51456870638E+03  0.59244920436E+03  0.50400001928E-02 0.  1.
</event>
<event>
 5   0  0.5765045E-03  0.5995024E+03  0.7818609E-02  0.9906439E-01
        1   -1    0    0  501    0  0.00000000000E+00  0.00000000000E+00  0.60260818213E+03  0.60260818216E+03  0.50400001928E-02 0.  1.
       -1   -1    0    0    0  501  0.00000000000E+00  0.00000000000E+00 -0.14910317864E+03  0.14910317873E+03  0.50400001928E-02 0. -1.
    10030    2    1    2    0    0  0.00000000000E+00  0.00000000000E+00  0.45350500349E+03  0.75171136088E+03  0.59950244527E+03 0.  0.
        1    1    3    3  502    0  0.52333301977E+02 -0.13130329306E+03  0.55819644208E+03  0.57581472475E+03  0.50400001928E-02 0.  1.
       -1    1    3    3    0  502 -0.52333301977E+02  0.13130329306E+03 -0.10469143859E+03  0.17589663613E+03  0.50400001928E-02 0. -1.
</event>
<event>
 5   0  0.9391405E-03  0.6006142E+03  0.7818609E-02  0.9904133E-01
        2   -1    0    0  501    0  0.00000000000E+00  0.00000000000E+00  0.11514514080E+04  0.11514514080E+04  0.25500000920E-02 0. -1.
       -2   -1    0    0    0  501  0.00000000000E+00  0.00000000000E+00 -0.78322335257E+02  0.78322335298E+02  0.25500000920E-02 0.  1.
    10030    2    1    2    0    0  0.00000000000E+00  0.00000000000E+00  0.10731290727E+04  0.12297737433E+04  0.60061422972E+03 0.  0.
        2    1    3    3  502    0 -0.66159387486E+02 -0.28921950089E+03  0.44141776989E+03  0.53185959785E+03  0.25500000920E-02 0.  1.
       -2    1    3    3    0  502  0.66159387486E+02  0.28921950089E+03  0.63171130283E+03  0.69791414543E+03  0.25500000920E-02 0. -1.
</event>
<event>
 5   0  0.9162342E-03  0.6005865E+03  0.7818609E-02  0.9904190E-01
        2   -1    0    0  501    0  0.00000000000E+00  0.00000000000E+00  0.69593012281E+03  0.69593012282E+03  0.25500000920E-02 0. -1.
       -2   -1    0    0    0  501  0.00000000000E+00  0.00000000000E+00 -0.12957629230E+03  0.12957629233E+03  0.25500000920E-02 0.  1.
    10030    2    1    2    0    0  0.00000000000E+00  0.00000000000E+00  0.56635383051E+03  0.82550641514E+03  0.60058653008E+03 0.  0.
        5    1    3    3  502    0  0.28945405018E+03 -0.71611957467E+02  0.33161777631E+03  0.44598694956E+03  0.46999998093E+01 0. -1.
       -5    1    3    3    0  502 -0.28945405018E+03  0.71611957467E+02  0.23473605421E+03  0.37951946559E+03  0.46999998093E+01 0.  1.
</event>
<event>
 5   0  0.3806250E-03  0.6047782E+03  0.7818609E-02  0.9895542E-01
        4   -1    0    0  501    0  0.00000000000E+00  0.00000000000E+00  0.63749908473E+02  0.63762557432E+02  0.12699999809E+01 0. -1.
       -4   -1    0    0    0  501  0.00000000000E+00  0.00000000000E+00 -0.14341866950E+04  0.14341872573E+04  0.12699999809E+01 0.  1.
    10030    2    1    2    0    0  0.00000000000E+00  0.00000000000E+00 -0.13704367865E+04  0.14979498147E+04  0.60477819207E+03 0.  0.
        5    1    3    3  502    0 -0.54271401566E+02  0.50486488807E+02 -0.14112497266E+04  0.14132027991E+04  0.46999998093E+01 0.  1.
       -5    1    3    3    0  502  0.54271401566E+02 -0.50486488807E+02  0.40812940082E+02  0.84747015620E+02  0.46999998093E+01 0. -1.
</event>
<event>
 5   0  0.9391405E-03  0.6010745E+03  0.7818609E-02  0.9903179E-01
        2   -1    0    0  501    0  0.00000000000E+00  0.00000000000E+00  0.14943538065E+04  0.14943538065E+04  0.25500000920E-02 0.  1.
       -2   -1    0    0    0  501  0.00000000000E+00  0.00000000000E+00 -0.60442610798E+02  0.60442610852E+02  0.25500000920E-02 0. -1.
    10030    2    1    2    0    0  0.00000000000E+00  0.00000000000E+00  0.14339111957E+04  0.15547964173E+04  0.60107452304E+03 0.  0.
        2    1    3    3  502    0  0.18122187826E+03  0.16883443241E+03  0.27663803624E+03  0.37131528090E+03  0.25500000920E-02 0. -1.
       -2    1    3    3    0  502 -0.18122187826E+03 -0.16883443241E+03  0.11572731594E+04  0.11834811364E+04  0.25500000920E-02 0.  1.
</event>
<event>
 5   0  0.9822607E-03  0.5999388E+03  0.7818609E-02  0.9905533E-01
       -2   -1    0    0    0  501  0.00000000000E+00  0.00000000000E+00  0.41971377299E+02  0.41971377376E+02  0.25500000920E-02 0.  1.
        2   -1    0    0  501    0  0.00000000000E+00  0.00000000000E+00 -0.21438808512E+04  0.21438808512E+04  0.25500000920E-02 0. -1.
    10030    2    1    2    0    0  0.00000000000E+00  0.00000000000E+00 -0.21019094739E+04  0.21858522285E+04  0.59993877079E+03 0.  0.
        3    1    3    3  502    0 -0.38633383549E+02  0.21224163259E+03 -0.29155290617E+03  0.36268740842E+03  0.10100000352E+00 0.  1.
       -3    1    3    3    0  502  0.38633383549E+02 -0.21224163259E+03 -0.18103565677E+04  0.18231648201E+04  0.10100000352E+00 0. -1.
</event>
<event>
 5   0  0.5819446E-03  0.5999346E+03  0.7818609E-02  0.9905542E-01
        1   -1    0    0  501    0  0.00000000000E+00  0.00000000000E+00  0.65101365162E+03  0.65101365164E+03  0.50400001928E-02 0.  1.
       -1   -1    0    0    0  501  0.00000000000E+00  0.00000000000E+00 -0.13821581926E+03  0.13821581935E+03  0.50400001928E-02 0. -1.
    10030    2    1    2    0    0  0.00000000000E+00  0.00000000000E+00  0.51279783236E+03  0.78922947099E+03  0.59993461394E+03 0.  0.
        5    1    3    3  502    0 -0.23263558829E+03  0.80022277543E+02  0.48210041554E+03  0.54126313610E+03  0.46999998093E+01 0.  1.
       -5    1    3    3    0  502  0.23263558829E+03 -0.80022277543E+02  0.30697416816E+02  0.24796633489E+03  0.46999998093E+01 0. -1.
</event>
<event>
 5   0  0.5790967E-03  0.5992453E+03  0.7818609E-02  0.9906973E-01
       -1   -1    0    0    0  501  0.00000000000E+00  0.00000000000E+00  0.19701983821E+03  0.19701983827E+03  0.50400001928E-02 0.  1.
        1   -1    0    0  501    0  0.00000000000E+00  0.00000000000E+00 -0.45565841113E+03  0.45565841116E+03  0.50400001928E-02 0. -1.
    10030    2    1    2    0    0  0.00000000000E+00  0.00000000000E+00 -0.25863857292E+03  0.65267824943E+03  0.59924534698E+03 0.  0.
        3    1    3    3  502    0  0.22942495092E+03 -0.29596903802E+02  0.78086111675E+02  0.24415002735E+03  0.10100000352E+00 0.  1.
       -3    1    3    3    0  502 -0.22942495092E+03  0.29596903802E+02 -0.33672468460E+03  0.40852822208E+03  0.10100000352E+00 0. -1.
</event>
<event>
 5   0  0.9028473E-03  0.6002275E+03  0.7818609E-02  0.9904934E-01
        2   -1    0    0  501    0  0.00000000000E+00  0.00000000000E+00  0.41320381152E+03  0.41320381153E+03  0.25500000920E-02 0. -1.
       -2   -1    0    0    0  501  0.00000000000E+00  0.00000000000E+00 -0.21797540290E+03  0.21797540291E+03  0.25500000920E-02 0.  1.
    10030    2    1    2    0    0  0.00000000000E+00  0.00000000000E+00  0.19522840862E+03  0.63117921444E+03  0.60022751454E+03 0.  0.
        1    1    3    3  502    0  0.18837322865E+03 -0.23258351038E+03  0.74367571846E+02  0.30839925152E+03  0.50400001928E-02 0. -1.
       -1    1    3    3    0  502 -0.18837322865E+03  0.23258351038E+03  0.12086083678E+03  0.32277996292E+03  0.50400001928E-02 0.  1.
</event>
<event>
 5   0  0.6078658E-03  0.6005213E+03  0.7818609E-02  0.9904325E-01
       -1   -1    0    0    0  501  0.00000000000E+00  0.00000000000E+00  0.18509066536E+03  0.18509066543E+03  0.50400001928E-02 0. -1.
        1   -1    0    0  501    0  0.00000000000E+00  0.00000000000E+00 -0.48709349758E+03  0.48709349760E+03  0.50400001928E-02 0.  1.
    10030    2    1    2    0    0  0.00000000000E+00  0.00000000000E+00 -0.30200283222E+03  0.67218416303E+03  0.60052130550E+03 0.  0.
        2    1    3    3  502    0  0.75064548263E+02 -0.53267210715E+02  0.16890971969E+03  0.19236053534E+03  0.25500000920E-02 0. -1.
       -2    1    3    3    0  502 -0.75064548263E+02  0.53267210715E+02 -0.47091255191E+03  0.47982362769E+03  0.25500000920E-02 0.  1.
</event>
<event>
 5   0  0.6078658E-03  0.6001686E+03  0.7818609E-02  0.9905056E-01
       -1   -1    0    0    0  501  0.00000000000E+00  0.00000000000E+00  0.23402066823E+03  0.23402066828E+03  0.50400001928E-02 0.  1.
        1   -1    0    0  501    0  0.00000000000E+00  0.00000000000E+00 -0.38479760033E+03  0.38479760037E+03  0.50400001928E-02 0. -1.
    10030    2    1    2    0    0  0.00000000000E+00  0.00000000000E+00 -0.15077693211E+03  0.61881826865E+03  0.60016861494E+03 0.  0.
        2    1    3    3  502    0 -0.22593992504E+03  0.17026134961E+03  0.27784979592E+02  0.28427061402E+03  0.25500000920E-02 0. -1.
       -2    1    3    3    0  502  0.22593992504E+03 -0.17026134961E+03 -0.17856191170E+03  0.33454765463E+03  0.25500000920E-02 0.  1.
</event>
<event>
 5   0  0.9303190E-03  0.5996650E+03  0.7818609E-02  0.9906101E-01
        2   -1    0    0  501    0  0.00000000000E+00  0.00000000000E+00  0.52714559319E+03  0.52714559320E+03  0.25500000920E-02 0. -1.
       -2   -1    0    0    0  501  0.00000000000E+00  0.00000000000E+00 -0.17054023441E+03  0.17054023443E+03  0.25500000920E-02 0.  1.
    10030    2    1    2    0    0  0.00000000000E+00  0.00000000000E+00  0.35660535878E+03  0.69768582763E+03  0.59966501662E+03 0.  0.
        4    1    3    3  502    0 -0.22195354326E+03  0.67170845384E+02  0.39942919497E+03  0.46186642282E+03  0.12699999809E+01 0. -1.
       -4    1    3    3    0  502  0.22195354326E+03 -0.67170845384E+02 -0.42823836195E+02  0.23581940480E+03  0.12699999809E+01 0.  1.
</event>
<event>
 5   0  0.9391405E-03  0.6021074E+03  0.7818609E-02  0.9901043E-01
        2   -1    0    0  501    0  0.00000000000E+00  0.00000000000E+00  0.92517697537E+03  0.92517697538E+03  0.25500000920E-02 0. -1.
       -2   -1    0    0    0  501  0.00000000000E+00  0.00000000000E+00 -0.97963243261E+02  0.97963243294E+02  0.25500000920E-02 0.  1.
    10030    2    1    2    0    0  0.00000000000E+00  0.00000000000E+00  0.82721373211E+03  0.10231402187E+04  0.60210742270E+03 0.  0.
        2    1    3    3  502    0  0.14530776698E+03  0.24940221789E+03  0.55896630693E+03  0.62909390851E+03  0.25500000920E-02 0. -1.
       -2    1    3    3    0  502 -0.14530776698E+03 -0.24940221789E+03  0.26824742518E+03  0.39404631017E+03  0.25500000920E-02 0.  1.
</event>
<event>
 5   0  0.9822607E-03  0.6003920E+03  0.7818609E-02  0.9904593E-01
       -2   -1    0    0    0  501  0.00000000000E+00  0.00000000000E+00  0.89414622775E+02  0.89414622812E+02  0.25500000920E-02 0.  1.
        2   -1    0    0  501    0  0.00000000000E+00  0.00000000000E+00 -0.10078625261E+04  0.10078625261E+04  0.25500000920E-02 0. -1.
    10030    2    1    2    0    0  0.00000000000E+00  0.00000000000E+00 -0.91844790328E+03  0.10972771489E+04  0.60039203059E+03 0.  0.
        3    1    3    3  502    0 -0.26188948348E+03 -0.10641878244E+03 -0.64386213047E+03  0.70318526156E+03  0.10100000352E+00 0.  1.
       -3    1    3    3    0  502  0.26188948348E+03  0.10641878244E+03 -0.27458577281E+03  0.39409188731E+03  0.10100000352E+00 0. -1.
</event>
<event>
 5   0  0.3806250E-03  0.6013505E+03  0.7818609E-02  0.9902608E-01
       -4   -1    0    0    0  501  0.00000000000E+00  0.00000000000E+00  0.34080246867E+03  0.34080483499E+03  0.12699999809E+01 0.  1.
        4   -1    0    0  501    0  0.00000000000E+00  0.00000000000E+00 -0.26526792117E+03  0.26527096129E+03  0.12699999809E+01 0. -1.
    10030    2    1    2    0    0  0.00000000000E+00  0.00000000000E+00  0.75534547502E+02  0.60607579628E+03  0.60135048264E+03 0.  0.
        2    1    3    3  502    0  0.40386369205E+02  0.18535817416E+02  0.33747742992E+03  0.34039043914E+03  0.25500000920E-02 0.  1.
       -2    1    3    3    0  502 -0.40386369205E+02 -0.18535817416E+02 -0.26194288242E+03  0.26568535714E+03  0.25500000920E-02 0. -1.
</event>
<event>
 5   0  0.9303190E-03  0.5997726E+03  0.7818609E-02  0.9905878E-01
        2   -1    0    0  501    0  0.00000000000E+00  0.00000000000E+00  0.87447438195E+03  0.87447438196E+03  0.25500000920E-02 0.  1.
       -2   -1    0    0    0  501  0.00000000000E+00  0.00000000000E+00 -0.10284096753E+03  0.10284096756E+03  0.25500000920E-02 0. -1.
    10030    2    1    2    0    0  0.00000000000E+00  0.00000000000E+00  0.77163341442E+03  0.97731534952E+03  0.59977259537E+03 0.  0.
        4    1    3    3  502    0 -0.10840302344E+03  0.21346756642E+03  0.68007400208E+03  0.72098673955E+03  0.12699999809E+01 0.  1.
       -4    1    3    3    0  502  0.10840302344E+03 -0.21346756642E+03  0.91559412339E+02  0.25632860997E+03  0.12699999809E+01 0. -1.
</event>
<event>
 5   0  0.9822607E-03  0.5977639E+03  0.7818609E-02  0.9910056E-01
        2   -1    0    0  501    0  0.00000000000E+00  0.00000000000E+00  0.40911493104E+03  0.40911493105E+03  0.25500000920E-02 0.  1.
       -2   -1    0    0    0  501  0.00000000000E+00  0.00000000000E+00 -0.21835043733E+03  0.21835043735E+03  0.25500000920E-02 0. -1.
    10030    2    1    2    0    0  0.00000000000E+00  0.00000000000E+00  0.19076449371E+03  0.62746536840E+03  0.59776391366E+03 0.  0.
        3    1    3    3  502    0 -0.27367570887E+03 -0.11445817683E+03  0.57081649746E+02  0.30208838575E+03  0.10100000352E+00 0. -1.
       -3    1    3    3    0  502  0.27367570887E+03  0.11445817683E+03  0.13368284396E+03  0.32537698265E+03  0.10100000352E+00 0.  1.
</event>
<event>
 5   0  0.5790967E-03  0.6004899E+03  0.7818609E-02  0.9904390E-01
        1   -1    0    0  501    0  0.00000000000E+00  0.00000000000E+00  0.22285421717E+03  0.22285421723E+03  0.50400001928E-02 0. -1.
       -1   -1    0    0    0  501  0.00000000000E+00  0.00000000000E+00 -0.40451122448E+03  0.40451122451E+03  0.50400001928E-02 0.  1.
    10030    2    1    2    0    0  0.00000000000E+00  0.00000000000E+00 -0.18165700730E+03  0.62736544174E+03  0.60048990765E+03 0.  0.
        3    1    3    3  502    0  0.29119229834E+03 -0.61011813509E+02 -0.13302974253E+03  0.32590231451E+03  0.10100000352E+00 0. -1.
       -3    1    3    3    0  502 -0.29119229834E+03  0.61011813509E+02 -0.48627264769E+02  0.30146312723E+03  0.10100000352E+00 0.  1.
</event>
<event>
 5   0  0.9028473E-03  0.6001529E+03  0.7818609E-02  0.9905089E-01
       -2   -1    0    0    0  501  0.00000000000E+00  0.00000000000E+00  0.19891449254E+03  0.19891449255E+03  0.25500000920E-02 0. -1.
        2   -1    0    0  501    0  0.00000000000E+00  0.00000000000E+00 -0.45268637092E+03  0.45268637093E+03  0.25500000920E-02 0.  1.
    10030    2    1    2    0    0  0.00000000000E+00  0.00000000000E+00 -0.25377187839E+03  0.65160086349E+03  0.60015291304E+03 0.  0.
        1    1    3    3  502    0 -0.59733951172E+02 -0.29338230231E+03 -0.10504803601E+03  0.31729546187E+03  0.50400001928E-02 0. -1.
       -1    1    3    3    0  502  0.59733951172E+02  0.29338230231E+03 -0.14872384238E+03  0.33430540161E+03  0.50400001928E-02 0.  1.
</event>
<event>
 5   0  0.6078658E-03  0.5999831E+03  0.7818609E-02  0.9905441E-01
        1   -1    0    0  501    0  0.00000000000E+00  0.00000000000E+00  0.25236691438E+03  0.25236691443E+03  0.50400001928E-02 0. -1.
       -1   -1    0    0    0  501  0.00000000000E+00  0.00000000000E+00 -0.35660347243E+03  0.35660347247E+03  0.50400001928E-02 0.  1.
    10030    2    1    2    0    0  0.00000000000E+00  0.00000000000E+00 -0.10423655806E+03  0.60897038690E+03  0.59998305983E+03 0.  0.
        2    1    3    3  502    0 -0.27263041073E+03  0.12513086627E+03 -0.48933852252E+02  0.30394011984E+03  0.25500000920E-02 0.  1.
       -2    1    3    3    0  502  0.27263041073E+03 -0.12513086627E+03 -0.55302705803E+02  0.30503026706E+03  0.25500000920E-02 0. -1.
</event>
<event>
 5   0  0.5765045E-03  0.5996088E+03  0.7818609E-02  0.9906218E-01
       -1   -1    0    0    0  501  0.00000000000E+00  0.00000000000E+00  0.73687040463E+02  0.73687040636E+02  0.50400001928E-02 0.  1.
        1   -1    0    0  501    0  0.00000000000E+00  0.00000000000E+00 -0.12197894486E+04  0.12197894486E+04  0.50400001928E-02 0. -1.
    10030    2    1    2    0    0  0.00000000000E+00  0.00000000000E+00 -0.11461024082E+04  0.12934764893E+04  0.59960878771E+03 0.  0.
        1    1    3    3  502    0  0.22248801806E+02  0.21833953616E+03 -0.13245643077E+03  0.25634326266E+03  0.50400001928E-02 0.  1.
       -1    1    3    3    0  502 -0.22248801806E+02 -0.21833953616E+03 -0.10136459774E+04  0.10371332266E+04  0.50400001928E-02 0. -1.
</event>
<event>
 5   0  0.9303190E-03  0.5999054E+03  0.7818609E-02  0.9905602E-01
       -2   -1    0    0    0  501  0.00000000000E+00  0.00000000000E+00  0.19740600481E+03  0.19740600482E+03  0.25500000920E-02 0. -1.
        2   -1    0    0  501    0  0.00000000000E+00  0.00000000000E+00 -0.45576942745E+03  0.45576942746E+03  0.25500000920E-02 0.  1.
    10030    2    1    2    0    0  0.00000000000E+00  0.00000000000E+00 -0.25836342264E+03  0.65317543228E+03  0.59990539852E+03 0.  0.
        4    1    3    3  502    0 -0.77685005522E+02 -0.81890300367E+02 -0.43175971576E+03  0.44627239039E+03  0.12699999809E+01 0.  1.
       -4    1    3    3    0  502  0.77685005522E+02  0.81890300367E+02  0.17339629311E+03  0.20690304189E+03  0.12699999809E+01 0. -1.
</event>
<event>
 5   0  0.9303190E-03  0.5992573E+03  0.7818609E-02  0.9906948E-01
        2   -1    0    0  501    0  0.00000000000E+00  0.00000000000E+00  0.42466128703E+03  0.42466128704E+03  0.25500000920E-02 0. -1.
       -2   -1    0    0    0  501  0.00000000000E+00  0.00000000000E+00 -0.21140923589E+03  0.21140923591E+03  0.25500000920E-02 0.  1.
    10030    2    1    2    0    0  0.00000000000E+00  0.00000000000E+00  0.21325205114E+03  0.63607052295E+03  0.59925726766E+03 0.  0.
        4    1    3    3  502    0 -0.30981326882E+02 -0.25667751494E+03  0.26736374892E+03  0.37192496075E+03  0.12699999809E+01 0. -1.
       -4    1    3    3    0  502  0.30981326882E+02  0.25667751494E+03 -0.54111697783E+02  0.26414556220E+03  0.12699999809E+01 0.  1.
</event>
<event>
 5   0  0.9303190E-03  0.6071615E+03  0.7818609E-02  0.9890659E-01
       -2   -1    0    0    0  501  0.00000000000E+00  0.00000000000E+00  0.24569075455E+03  0.24569075457E+03  0.25500000920E-02 0. -1.
        2   -1    0    0  501    0  0.00000000000E+00  0.00000000000E+00 -0.37511085173E+03  0.37511085174E+03  0.25500000920E-02 0.  1.
    10030    2    1    2    0    0  0.00000000000E+00  0.00000000000E+00 -0.12942009718E+03  0.62080160631E+03  0.60716148827E+03 0.  0.
        4    1    3    3  502    0 -0.13983874316E+03  0.20984923449E+03  0.10810801790E+03  0.27437297924E+03  0.12699999809E+01 0. -1.
       -4    1    3    3    0  502  0.13983874316E+03 -0.20984923449E+03 -0.23752811508E+03  0.34642862707E+03  0.12699999809E+01 0.  1.
</event>
<event>
 5   0  0.3806250E-03  0.5994909E+03  0.7818609E-02  0.9906463E-01
       -3   -1    0    0    0  501  0.00000000000E+00  0.00000000000E+00  0.21061052738E+03  0.21061055160E+03  0.10100000352E+00 0.  1.
        3   -1    0    0  501    0  0.00000000000E+00  0.00000000000E+00 -0.42660411848E+03  0.42660413044E+03  0.10100000352E+00 0. -1.
    10030    2    1    2    0    0  0.00000000000E+00  0.00000000000E+00 -0.21599359110E+03  0.63721468204E+03  0.59949088368E+03 0.  0.
        2    1    3    3  502    0  0.18077660670E+03 -0.23901462068E+03 -0.10134526505E+03  0.31635270377E+03  0.25500000920E-02 0. -1.
       -2    1    3    3    0  502 -0.18077660670E+03  0.23901462068E+03 -0.11464832605E+03  0.32086197827E+03  0.25500000920E-02 0.  1.
</event>
<event>
 5   0  0.5765045E-03  0.6000314E+03  0.7818609E-02  0.9905341E-01
       -1   -1    0    0    0  501  0.00000000000E+00  0.00000000000E+00  0.10992988226E+03  0.10992988238E+03  0.50400001928E-02 0. -1.
        1   -1    0    0  501    0  0.00000000000E+00  0.00000000000E+00 -0.81878927776E+03  0.81878927777E+03  0.50400001928E-02 0.  1.
    10030    2    1    2    0    0  0.00000000000E+00  0.00000000000E+00 -0.70885939549E+03  0.92871916015E+03  0.60003136239E+03 0.  0.
        1    1    3    3  502    0 -0.68267133788E+02  0.24967852695E+02  0.96094183079E+02  0.12049019575E+03  0.50400001928E-02 0. -1.
       -1    1    3    3    0  502  0.68267133788E+02 -0.24967852695E+02 -0.80495357857E+03  0.80822896441E+03  0.50400001928E-02 0.  1.
</event>
<event>
 5   0  0.3806250E-03  0.5999639E+03  0.7818609E-02  0.9905481E-01
        3   -1    0    0  501    0  0.00000000000E+00  0.00000000000E+00  0.20011294087E+03  0.20011296636E+03  0.10100000352E+00 0.  1.
       -3   -1    0    0    0  501  0.00000000000E+00  0.00000000000E+00 -0.44969183963E+03  0.44969185097E+03  0.10100000352E+00 0. -1.
    10030    2    1    2    0    0  0.00000000000E+00  0.00000000000E+00 -0.24957889875E+03  0.64980481733E+03  0.59996389385E+03 0.  0.
        2    1    3    3  502    0 -0.11959850446E+03  0.67098932506E+02  0.16417622617E+03  0.21391564286E+03  0.25500000920E-02 0.  1.
       -2    1    3    3    0  502  0.11959850446E+03 -0.67098932506E+02 -0.41375512492E+03  0.43588917447E+03  0.25500000920E-02 0. -1.
</event>
<event>
 5   0  0.9822607E-03  0.6009628E+03  0.7818609E-02  0.9903411E-01
        2   -1    0    0  501    0  0.00000000000E+00  0.00000000000E+00  0.14959733978E+04  0.14959733979E+04  0.25500000920E-02 0. -1.
       -2   -1    0    0    0  501  0.00000000000E+00  0.00000000000E+00 -0.60354726392E+02  0.60354726446E+02  0.25500000920E-02 0.  1.
    10030    2    1    2    0    0  0.00000000000E+00  0.00000000000E+00  0.14356186715E+04  0.15563281243E+04  0.60096277808E+03 0.  0.
        3    1    3    3  502    0 -0.12973941283E+03 -0.57433056077E+02  0.31858861584E+02  0.14541619041E+03  0.10100000352E+00 0.  1.
       -3    1    3    3    0  502  0.12973941283E+03  0.57433056077E+02  0.14037598099E+04  0.14109119339E+04  0.10100000352E+00 0. -1.
</event>
<event>
 5   0  0.3806250E-03  0.5997976E+03  0.7818609E-02  0.9905826E-01
       -3   -1    0    0    0  501  0.00000000000E+00  0.00000000000E+00  0.33903087302E+03  0.33903088806E+03  0.10100000352E+00 0.  1.
        3   -1    0    0  501    0  0.00000000000E+00  0.00000000000E+00 -0.26528347913E+03  0.26528349835E+03  0.10100000352E+00 0. -1.
    10030    2    1    2    0    0  0.00000000000E+00  0.00000000000E+00  0.73747393894E+02  0.60431438642E+03  0.59979763214E+03 0.  0.
        4    1    3    3  502    0 -0.96644182799E+02 -0.51599256946E+02 -0.24439716911E+03  0.26783235532E+03  0.12699999809E+01 0.  1.
       -4    1    3    3    0  502  0.96644182799E+02  0.51599256946E+02  0.31814456300E+03  0.33648203110E+03  0.12699999809E+01 0. -1.
</event>
<event>
 5   0  0.9028473E-03  0.5972950E+03  0.7818609E-02  0.9911034E-01
        2   -1    0    0  501    0  0.00000000000E+00  0.00000000000E+00  0.14554970482E+04  0.14554970482E+04  0.25500000920E-02 0.  1.
       -2   -1    0    0    0  501  0.00000000000E+00  0.00000000000E+00 -0.61278253345E+02  0.61278253398E+02  0.25500000920E-02 0. -1.
    10030    2    1    2    0    0  0.00000000000E+00  0.00000000000E+00  0.13942187948E+04  0.15167753016E+04  0.59729495864E+03 0.  0.
        1    1    3    3  502    0 -0.10993775149E+03 -0.16490884547E+03  0.12979711949E+03  0.23691460227E+03  0.50400001928E-02 0. -1.
       -1    1    3    3    0  502  0.10993775149E+03  0.16490884547E+03  0.12644216754E+04  0.12798606993E+04  0.50400001928E-02 0.  1.
</event>
<event>
 5   0  0.3806250E-03  0.5995868E+03  0.7818609E-02  0.9906264E-01
       -4   -1    0    0    0  501  0.00000000000E+00  0.00000000000E+00  0.23473437603E+03  0.23473781159E+03  0.12699999809E+01 0. -1.
        4   -1    0    0  501    0  0.00000000000E+00  0.00000000000E+00 -0.38287696229E+03  0.38287906857E+03  0.12699999809E+01 0.  1.
    10030    2    1    2    0    0  0.00000000000E+00  0.00000000000E+00 -0.14814258626E+03  0.61761688016E+03  0.59958684508E+03 0.  0.
        2    1    3    3  502    0  0.10293170791E+03 -0.28056418163E+03 -0.98553621996E+02  0.31468081117E+03  0.25500000920E-02 0. -1.
       -2    1    3    3    0  502 -0.10293170791E+03  0.28056418163E+03 -0.49588964264E+02  0.30293606898E+03  0.25500000920E-02 0.  1.
</event>
<event>
 5   0  0.5765045E-03  0.5894067E+03  0.7818609E-02  0.9927631E-01
       -1   -1    0    0    0  501  0.00000000000E+00  0.00000000000E+00  0.15767981216E+03  0.15767981224E+03  0.50400001928E-02 0.  1.
        1   -1    0    0  501    0  0.00000000000E+00  0.00000000000E+00 -0.55080007163E+03  0.55080007166E+03  0.50400001928E-02 0. -1.
    10030    2    1    2    0    0  0.00000000000E+00  0.00000000000E+00 -0.39312025947E+03  0.70847988390E+03  0.58940665714E+03 0.  0.
        1    1    3    3  502    0 -0.15653307733E+03 -0.22524888321E+03 -0.32607983774E+03  0.42610764402E+03  0.50400001928E-02 0. -1.
       -1    1    3    3    0  502  0.15653307733E+03  0.22524888321E+03 -0.67040421733E+02  0.28237223988E+03  0.50400001928E-02 0.  1.
</event>
<event>
 5   0  0.3806250E-03  0.5997837E+03  0.7818609E-02  0.9905855E-01
       -4   -1    0    0    0  501  0.00000000000E+00  0.00000000000E+00  0.74803464608E+03  0.74803572417E+03  0.12699999809E+01 0.  1.
        4   -1    0    0  501    0  0.00000000000E+00  0.00000000000E+00 -0.12022403524E+03  0.12023074295E+03  0.12699999809E+01 0. -1.
    10030    2    1    2    0    0  0.00000000000E+00  0.00000000000E+00  0.62781061084E+03  0.86826646712E+03  0.59978370672E+03 0.  0.
        3    1    3    3  502    0  0.46777273982E+02 -0.11685267923E+03  0.70794987531E+03  0.71905194399E+03  0.10100000352E+00 0.  1.
       -3    1    3    3    0  502 -0.46777273982E+02  0.11685267923E+03 -0.80139264467E+02  0.14921452314E+03  0.10100000352E+00 0. -1.
</event>
<event>
 5   0  0.9822607E-03  0.5980734E+03  0.7818609E-02  0.9909411E-01
        2   -1    0    0  501    0  0.00000000000E+00  0.00000000000E+00  0.76438346432E+03  0.76438346433E+03  0.25500000920E-02 0. -1.
       -2   -1    0    0    0  501  0.00000000000E+00  0.00000000000E+00 -0.11698702423E+03  0.11698702426E+03  0.25500000920E-02 0.  1.
    10030    2    1    2    0    0  0.00000000000E+00  0.00000000000E+00  0.64739644009E+03  0.88137048858E+03  0.59807339642E+03 0.  0.
        3    1    3    3  502    0  0.84377469550E+02 -0.25294057559E+03  0.52318743879E+03  0.58721682406E+03  0.10100000352E+00 0. -1.
       -3    1    3    3    0  502 -0.84377469550E+02  0.25294057559E+03  0.12420900130E+03  0.29415366453E+03  0.10100000352E+00 0.  1.
</event>
<event>
 5   0  0.3806250E-03  0.6002481E+03  0.7818609E-02  0.9904892E-01
        4   -1    0    0  501    0  0.00000000000E+00  0.00000000000E+00  0.12684898925E+03  0.12685534665E+03  0.12699999809E+01 0.  1.
       -4   -1    0    0    0  501  0.00000000000E+00  0.00000000000E+00 -0.71006717590E+03  0.71006831164E+03  0.12699999809E+01 0. -1.
    10030    2    1    2    0    0  0.00000000000E+00  0.00000000000E+00 -0.58321818665E+03  0.83692365829E+03  0.60024807919E+03 0.  0.
        5    1    3    3  502    0 -0.16274237281E+03 -0.44968065523E+02  0.54292016868E+02  0.17741736082E+03  0.46999998093E+01 0.  1.
       -5    1    3    3    0  502  0.16274237281E+03  0.44968065523E+02 -0.63751020352E+03  0.65950629748E+03  0.46999998093E+01 0. -1.
</event>
<event>
 5   0  0.9391405E-03  0.5992968E+03  0.7818609E-02  0.9906866E-01
        2   -1    0    0  501    0  0.00000000000E+00  0.00000000000E+00  0.86987903130E+02  0.86987903167E+02  0.25500000920E-02 0. -1.
       -2   -1    0    0    0  501  0.00000000000E+00  0.00000000000E+00 -0.10322027723E+04  0.10322027723E+04  0.25500000920E-02 0.  1.
    10030    2    1    2    0    0  0.00000000000E+00  0.00000000000E+00 -0.94521486916E+03  0.11191906755E+04  0.59929677052E+03 0.  0.
        2    1    3    3  502    0  0.13594382484E+03 -0.20695424059E+03 -0.15745567437E+03  0.29343324728E+03  0.25500000920E-02 0. -1.
       -2    1    3    3    0  502 -0.13594382484E+03  0.20695424059E+03 -0.78775919479E+03  0.82575742818E+03  0.25500000920E-02 0.  1.
</event>
<event>
 5   0  0.5790967E-03  0.5989434E+03  0.7818609E-02  0.9907601E-01
        1   -1    0    0  501    0  0.00000000000E+00  0.00000000000E+00  0.13888598198E+03  0.13888598207E+03  0.50400001928E-02 0. -1.
       -1   -1    0    0    0  501  0.00000000000E+00  0.00000000000E+00 -0.64573319968E+03  0.64573319970E+03  0.50400001928E-02 0.  1.
    10030    2    1    2    0    0  0.00000000000E+00  0.00000000000E+00 -0.50684721770E+03  0.78461918178E+03  0.59894336821E+03 0.  0.
        3    1    3    3  502    0 -0.18329531951E+03  0.23062452529E+03 -0.32395051542E+03  0.43786846480E+03  0.10100000352E+00 0.  1.
       -3    1    3    3    0  502  0.18329531951E+03 -0.23062452529E+03 -0.18289670228E+03  0.34675071698E+03  0.10100000352E+00 0. -1.
</event>
<event>
 5   0  0.5765045E-03  0.6008201E+03  0.7818609E-02  0.9903706E-01
       -1   -1    0    0    0  501  0.00000000000E+00  0.00000000000E+00  0.59724078209E+02  0.59724078422E+02  0.50400001928E-02 0. -1.
        1   -1    0    0  501    0  0.00000000000E+00  0.00000000000E+00 -0.15110521297E+04  0.15110521297E+04  0.50400001928E-02 0.  1.
    10030    2    1    2    0    0  0.00000000000E+00  0.00000000000E+00 -0.14513280515E+04  0.15707762081E+04  0.60082009202E+03 0.  0.
        1    1    3    3  502    0 -0.15737292367E+02  0.13522962169E+02  0.57848433240E+02  0.61457091784E+02  0.50400001928E-02 0. -1.
       -1    1    3    3    0  502  0.15737292367E+02 -0.13522962169E+02 -0.15091764847E+04  0.15093191163E+04  0.50400001928E-02 0.  1.
</event>
<event>
 5   0  0.9303190E-03  0.5972184E+03  0.7818609E-02  0.9911194E-01
        2   -1    0    0  501    0  0.00000000000E+00  0.00000000000E+00  0.10112518518E+04  0.10112518518E+04  0.25500000920E-02 0.  1.
       -2   -1    0    0    0  501  0.00000000000E+00  0.00000000000E+00 -0.88175315821E+02  0.88175315858E+02  0.25500000920E-02 0. -1.
    10030    2    1    2    0    0  0.00000000000E+00  0.00000000000E+00  0.92307653597E+03  0.10994271677E+04  0.59721839030E+03 0.  0.
        4    1    3    3  502    0  0.14979645982E+03  0.14988905914E+03  0.74245283547E+02  0.22454327969E+03  0.12699999809E+01 0. -1.
       -4    1    3    3    0  502 -0.14979645982E+03 -0.14988905914E+03  0.84883125243E+03  0.87488388797E+03  0.12699999809E+01 0.  1.
</event>
<event>
 5   0  0.9162342E-03  0.5983162E+03  0.7818609E-02  0.9908905E-01
       -2   -1    0    0    0  501  0.00000000000E+00  0.00000000000E+00  0.30063537625E+03  0.30063537626E+03  0.25500000920E-02 0.  1.
        2   -1    0    0  501    0  0.00000000000E+00  0.00000000000E+00 -0.29768812967E+03  0.29768812969E+03  0.25500000920E-02 0. -1.
    10030    2    1    2    0    0  0.00000000000E+00  0.00000000000E+00  0.29472465730E+01  0.59832350594E+03  0.59831624707E+03 0.  0.
        5    1    3    3  502    0  0.22134550389E+02  0.23117218350E+03  0.19000435968E+03  0.30009042544E+03  0.46999998093E+01 0.  1.
       -5    1    3    3    0  502 -0.22134550389E+02 -0.23117218350E+03 -0.18705711310E+03  0.29823308050E+03  0.46999998093E+01 0. -1.
</event>
<event>
 5   0  0.3806250E-03  0.5997559E+03  0.7818609E-02  0.9905913E-01
       -4   -1    0    0    0  501  0.00000000000E+00  0.00000000000E+00  0.39886729008E+03  0.39886931192E+03  0.12699999809E+01 0.  1.
        4   -1    0    0  501    0  0.00000000000E+00  0.00000000000E+00 -0.22545102690E+03  0.22545460392E+03  0.12699999809E+01 0. -1.
    10030    2    1    2    0    0  0.00000000000E+00  0.00000000000E+00  0.17341626318E+03  0.62432391585E+03  0.59975590999E+03 0.  0.
        1    1    3    3  502    0  0.21347778533E+03 -0.40688469928E+02  0.30180872056E+03  0.37190969368E+03  0.50400001928E-02 0.  1.
       -1    1    3    3    0  502 -0.21347778533E+03  0.40688469928E+02 -0.12839245739E+03  0.25241422217E+03  0.50400001928E-02 0. -1.
</event>
<event>
 5   0  0.6078658E-03  0.6009207E+03  0.7818609E-02  0.9903498E-01
        1   -1    0    0  501    0  0.00000000000E+00  0.00000000000E+00  0.79507687979E+03  0.79507687981E+03  0.50400001928E-02 0. -1.
       -1   -1    0    0    0  501  0.00000000000E+00  0.00000000000E+00 -0.11354428449E+03  0.11354428460E+03  0.50400001928E-02 0.  1.
    10030    2    1    2    0    0  0.00000000000E+00  0.00000000000E+00  0.68153259530E+03  0.90862116441E+03  0.60092074515E+03 0.  0.
        2    1    3    3  502    0  0.26431039801E+02 -0.25967632113E+03  0.56578246819E+03  0.62308923353E+03  0.25500000920E-02 0. -1.
       -2    1    3    3    0  502 -0.26431039801E+02  0.25967632113E+03  0.11575012711E+03  0.28553193088E+03  0.25500000920E-02 0.  1.
</event>
<event>
 5   0  0.5765045E-03  0.6006693E+03  0.7818609E-02  0.9904018E-01
        1   -1    0    0  501    0  0.00000000000E+00  0.00000000000E+00  0.93524785699E+03  0.93524785701E+03  0.50400001928E-02 0. -1.
       -1   -1    0    0    0  501  0.00000000000E+00  0.00000000000E+00 -0.96445996497E+02  0.96445996629E+02  0.50400001928E-02 0.  1.
    10030    2    1    2    0    0  0.00000000000E+00  0.00000000000E+00  0.83880186050E+03  0.10316938536E+04  0.60066933204E+03 0.  0.
        1    1    3    3  502    0 -0.88031722359E+02 -0.28153077461E+03  0.51643625070E+03  0.59473991144E+03  0.50400001928E-02 0. -1.
       -1    1    3    3    0  502  0.88031722359E+02  0.28153077461E+03  0.32236560980E+03  0.43695394220E+03  0.50400001928E-02 0.  1.
</event>
<event>
 5   0  0.5819446E-03  0.6004519E+03  0.7818609E-02  0.9904469E-01
        1   -1    0    0  501    0  0.00000000000E+00  0.00000000000E+00  0.39323134600E+03  0.39323134603E+03  0.50400001928E-02 0.  1.
       -1   -1    0    0    0  501  0.00000000000E+00  0.00000000000E+00 -0.22921778343E+03  0.22921778348E+03  0.50400001928E-02 0. -1.
    10030    2    1    2    0    0  0.00000000000E+00  0.00000000000E+00  0.16401356257E+03  0.62244912951E+03  0.60045188827E+03 0.  0.
        5    1    3    3  502    0  0.10087851503E+03  0.49870291380E+02 -0.20648694887E+03  0.23520729327E+03  0.46999998093E+01 0. -1.
       -5    1    3    3    0  502 -0.10087851503E+03 -0.49870291380E+02  0.37050051144E+03  0.38724183624E+03  0.46999998093E+01 0.  1.
</event>
<event>
 5   0  0.5790967E-03  0.5997971E+03  0.7818609E-02  0.9905827E-01
        1   -1    0    0  501    0  0.00000000000E+00  0.00000000000E+00  0.12867008233E+04  0.12867008233E+04  0.50400001928E-02 0.  1.
       -1   -1    0    0    0  501  0.00000000000E+00  0.00000000000E+00 -0.69899031228E+02  0.69899031410E+02  0.50400001928E-02 0. -1.
    10030    2    1    2    0    0  0.00000000000E+00  0.00000000000E+00  0.12168017920E+04  0.13565998547E+04  0.59979710288E+03 0.  0.
        3    1    3    3  502    0 -0.81059457617E+02 -0.25463440522E+02  0.12589093577E+04  0.12617732774E+04  0.10100000352E+00 0.  1.
       -3    1    3    3    0  502  0.81059457617E+02  0.25463440522E+02 -0.42107565659E+02  0.94826577282E+02  0.10100000352E+00 0. -1.
</event>
<event>
 5   0  0.9028473E-03  0.5948711E+03  0.7818609E-02  0.9916104E-01
        2   -1    0    0  501    0  0.00000000000E+00  0.00000000000E+00  0.24101561756E+04  0.24101561756E+04  0.25500000920E-02 0.  1.
       -2   -1    0    0    0  501  0.00000000000E+00  0.00000000000E+00 -0.36706299357E+02  0.36706299446E+02  0.25500000920E-02 0. -1.
    10030    2    1    2    0    0  0.00000000000E+00  0.00000000000E+00  0.23734498762E+04  0.24468624751E+04  0.59487112618E+03 0.  0.
        1    1    3    3  502    0 -0.41127473328E+02  0.27240333767E+03  0.16479403669E+04  0.16708089359E+04  0.50400001928E-02 0. -1.
       -1    1    3    3    0  502  0.41127473328E+02 -0.27240333767E+03  0.72550950937E+03  0.77605353917E+03  0.50400001928E-02 0.  1.
</event>
<event>
 5   0  0.5790967E-03  0.6001267E+03  0.7818609E-02  0.9905143E-01
        1   -1    0    0  501    0  0.00000000000E+00  0.00000000000E+00  0.19212545425E+04  0.19212545425E+04  0.50400001928E-02 0.  1.
       -1   -1    0    0    0  501  0.00000000000E+00  0.00000000000E+00 -0.46864178218E+02  0.46864178489E+02  0.50400001928E-02 0. -1.
    10030    2    1    2    0    0  0.00000000000E+00  0.00000000000E+00  0.18743903643E+04  0.19681187210E+04  0.60012670513E+03 0.  0.
        3    1    3    3  502    0 -0.40985084558E+02  0.29279854014E+03  0.76909876051E+03  0.82396824931E+03  0.10100000352E+00 0. -1.
       -3    1    3    3    0  502  0.40985084558E+02 -0.29279854014E+03  0.11052916038E+04  0.11441504717E+04  0.10100000352E+00 0.  1.
</event>
<event>
 5   0  0.5765045E-03  0.5992614E+03  0.7818609E-02  0.9906940E-01
       -1   -1    0    0    0  501  0.00000000000E+00  0.00000000000E+00  0.27544773480E+03  0.27544773485E+03  0.50400001928E-02 0. -1.
        1   -1    0    0  501    0  0.00000000000E+00  0.00000000000E+00 -0.32593676188E+03  0.32593676192E+03  0.50400001928E-02 0.  1.
    10030    2    1    2    0    0  0.00000000000E+00  0.00000000000E+00 -0.50489027076E+02  0.60138449677E+03  0.59926135458E+03 0.  0.
        1    1    3    3  502    0 -0.53485378270E+02 -0.57637697411E+02  0.26490915324E+03  0.27633249781E+03  0.50400001928E-02 0. -1.
       -1    1    3    3    0  502  0.53485378270E+02  0.57637697411E+02 -0.31539818032E+03  0.32505199895E+03  0.50400001928E-02 0.  1.
</event>
<event>
 5   0  0.5765045E-03  0.6015052E+03  0.7818609E-02  0.9902288E-01
       -1   -1    0    0    0  501  0.00000000000E+00  0.00000000000E+00  0.24192296426E+03  0.24192296431E+03  0.50400001928E-02 0.  1.
        1   -1    0    0  501    0  0.00000000000E+00  0.00000000000E+00 -0.37388813845E+03  0.37388813848E+03  0.50400001928E-02 0. -1.
    10030    2    1    2    0    0  0.00000000000E+00  0.00000000000E+00 -0.13196517419E+03  0.61581110279E+03  0.60150520124E+03 0.  0.
        1    1    3    3  502    0 -0.55328474642E+02 -0.29547326794E+03 -0.56464451439E+02  0.30586586353E+03  0.50400001928E-02 0. -1.
       -1    1    3    3    0  502  0.55328474642E+02  0.29547326794E+03 -0.75500722752E+02  0.30994523925E+03  0.50400001928E-02 0.  1.
</event>
<event>
 5   0  0.6078658E-03  0.6021446E+03  0.7818609E-02  0.9900967E-01
        1   -1    0    0  501    0  0.00000000000E+00  0.00000000000E+00  0.69939137730E+03  0.69939137732E+03  0.50400001928E-02 0.  1.
       -1   -1    0    0    0  501  0.00000000000E+00  0.00000000000E+00 -0.12960489195E+03  0.12960489205E+03  0.50400001928E-02 0. -1.
    10030    2    1    2    0    0  0.00000000000E+00  0.00000000000E+00  0.56978648535E+03  0.82899626936E+03  0.60214464686E+03 0.  0.
        2    1    3    3  502    0 -0.21787487669E+03  0.16815198987E+03  0.11684083468E+03  0.29899219763E+03  0.25500000920E-02 0.  1.
       -2    1    3    3    0  502  0.21787487669E+03 -0.16815198987E+03  0.45294565067E+03  0.53000407173E+03  0.25500000920E-02 0. -1.
</event>
<event>
 5   0  0.5790967E-03  0.5991333E+03  0.7818609E-02  0.9907206E-01
        1   -1    0    0  501    0  0.00000000000E+00  0.00000000000E+00  0.40830380803E+03  0.40830380806E+03  0.50400001928E-02 0.  1.
       -1   -1    0    0    0  501  0.00000000000E+00  0.00000000000E+00 -0.21978778597E+03  0.21978778603E+03  0.50400001928E-02 0. -1.
    10030    2    1    2    0    0  0.00000000000E+00  0.00000000000E+00  0.18851602206E+03  0.62809159409E+03  0.59913334075E+03 0.  0.
        3    1    3    3  502    0 -0.10403278747E+03 -0.27735319886E+03  0.47462368324E+02  0.30000050732E+03  0.10100000352E+00 0.  1.
       -3    1    3    3    0  502  0.10403278747E+03  0.27735319886E+03  0.14105365373E+03  0.32809108677E+03  0.10100000352E+00 0. -1.
</event>
<event>
 5   0  0.9028473E-03  0.6121527E+03  0.7818609E-02  0.9880509E-01
       -2   -1    0    0    0  501  0.00000000000E+00  0.00000000000E+00  0.12618528895E+03  0.12618528897E+03  0.25500000920E-02 0.  1.
        2   -1    0    0  501    0  0.00000000000E+00  0.00000000000E+00 -0.74242201356E+03  0.74242201356E+03  0.25500000920E-02 0. -1.
    10030    2    1    2    0    0  0.00000000000E+00  0.00000000000E+00 -0.61623672461E+03  0.86860730254E+03  0.61215271400E+03 0.  0.
        1    1    3    3  502    0 -0.18892823606E+03 -0.23293052572E+03 -0.22143259736E+03  0.37280410860E+03  0.50400001928E-02 0. -1.
       -1    1    3    3    0  502  0.18892823606E+03  0.23293052572E+03 -0.39480412725E+03  0.49580319393E+03  0.50400001928E-02 0.  1.
</event>
<event>
 5   0  0.9822607E-03  0.6006448E+03  0.7818609E-02  0.9904069E-01
       -2   -1    0    0    0  501  0.00000000000E+00  0.00000000000E+00  0.37771368064E+03  0.37771368064E+03  0.25500000920E-02 0. -1.
        2   -1    0    0  501    0  0.00000000000E+00  0.00000000000E+00 -0.23878814236E+03  0.23878814237E+03  0.25500000920E-02 0.  1.
    10030    2    1    2    0    0  0.00000000000E+00  0.00000000000E+00  0.13892553828E+03  0.61650182302E+03  0.60064481401E+03 0.  0.
        3    1    3    3  502    0 -0.21340242335E+03 -0.93308315703E+02 -0.12513817823E+03  0.26439858155E+03  0.10100000352E+00 0. -1.
       -3    1    3    3    0  502  0.21340242335E+03  0.93308315703E+02  0.26406371651E+03  0.35210324147E+03  0.10100000352E+00 0.  1.
</event>
<event>
 5   0  0.5790967E-03  0.6005219E+03  0.7818609E-02  0.9904324E-01
       -1   -1    0    0    0  501  0.00000000000E+00  0.00000000000E+00  0.29096539356E+03  0.29096539361E+03  0.50400001928E-02 0.  1.
        1   -1    0    0  501    0  0.00000000000E+00  0.00000000000E+00 -0.30985350439E+03  0.30985350443E+03  0.50400001928E-02 0. -1.
    10030    2    1    2    0    0  0.00000000000E+00  0.00000000000E+00 -0.18888110826E+02  0.60081889804E+03  0.60052192925E+03 0.  0.
        3    1    3    3  502    0 -0.18285059800E+03  0.70226587910E+01  0.22873453977E+03  0.29292176227E+03  0.10100000352E+00 0.  1.
       -3    1    3    3    0  502  0.18285059800E+03 -0.70226587910E+01 -0.24762265060E+03  0.30789713577E+03  0.10100000352E+00 0. -1.
</event>
<event>
 5   0  0.9162342E-03  0.5999811E+03  0.7818609E-02  0.9905445E-01
       -2   -1    0    0    0  501  0.00000000000E+00  0.00000000000E+00  0.67688645977E+03  0.67688645977E+03  0.25500000920E-02 0. -1.
        2   -1    0    0  501    0  0.00000000000E+00  0.00000000000E+00 -0.13295336500E+03  0.13295336503E+03  0.25500000920E-02 0.  1.
    10030    2    1    2    0    0  0.00000000000E+00  0.00000000000E+00  0.54393309477E+03  0.80983982480E+03  0.59998110824E+03 0.  0.
        5    1    3    3  502    0  0.29162179425E+03 -0.50268296905E+02  0.20581281006E+03  0.36048741356E+03  0.46999998093E+01 0.  1.
       -5    1    3    3    0  502 -0.29162179425E+03  0.50268296905E+02  0.33812028471E+03  0.44935241124E+03  0.46999998093E+01 0. -1.
</event>
<event>
 5   0  0.6078658E-03  0.6001309E+03  0.7818609E-02  0.9905135E-01
        1   -1    0    0  501    0  0.00000000000E+00  0.00000000000E+00  0.10502608998E+04  0.10502608998E+04  0.50400001928E-02 0.  1.
       -1   -1    0    0    0  501  0.00000000000E+00  0.00000000000E+00 -0.85730385313E+02  0.85730385461E+02  0.50400001928E-02 0. -1.
    10030    2    1    2    0    0  0.00000000000E+00  0.00000000000E+00  0.96453051448E+03  0.11359912853E+04  0.60013089142E+03 0.  0.
        2    1    3    3  502    0  0.22356132670E+03 -0.12797137856E+03  0.19096105897E+03  0.32065942459E+03  0.25500000920E-02 0. -1.
       -2    1    3    3    0  502 -0.22356132670E+03  0.12797137856E+03  0.77356945551E+03  0.81533186067E+03  0.25500000920E-02 0.  1.
</event>
<event>
 5   0  0.6078658E-03  0.6009541E+03  0.7818609E-02  0.9903429E-01
       -1   -1    0    0    0  501  0.00000000000E+00  0.00000000000E+00  0.36149104742E+03  0.36149104746E+03  0.50400001928E-02 0.  1.
        1   -1    0    0  501    0  0.00000000000E+00  0.00000000000E+00 -0.24976125788E+03  0.24976125793E+03  0.50400001928E-02 0. -1.
    10030    2    1    2    0    0  0.00000000000E+00  0.00000000000E+00  0.11172978954E+03  0.61125230539E+03  0.60095410388E+03 0.  0.
        2    1    3    3  502    0 -0.71256967711E+01  0.52456933084E+02 -0.24498052572E+03  0.25063511999E+03  0.25500000920E-02 0. -1.
       -2    1    3    3    0  502  0.71256967711E+01 -0.52456933084E+02  0.35671031526E+03  0.36061718540E+03  0.25500000920E-02 0.  1.
</event>
<event>
 5   0  0.5765045E-03  0.5946355E+03  0.7818609E-02  0.9916599E-01
        1   -1    0    0  501    0  0.00000000000E+00  0.00000000000E+00  0.32560376914E+03  0.32560376917E+03  0.50400001928E-02 0.  1.
       -1   -1    0    0    0  501  0.00000000000E+00  0.00000000000E+00 -0.27148899437E+03  0.27148899441E+03  0.50400001928E-02 0. -1.
    10030    2    1    2    0    0  0.00000000000E+00  0.00000000000E+00  0.54114774769E+02  0.59709276359E+03  0.59463548455E+03 0.  0.
        1    1    3    3  502    0  0.54924597840E+02 -0.35010523370E+02  0.31835166869E+03  0.32494650818E+03  0.50400001928E-02 0.  1.
       -1    1    3    3    0  502 -0.54924597840E+02  0.35010523370E+02 -0.26423689393E+03  0.27214625541E+03  0.50400001928E-02 0. -1.
</event>
<event>
 5   0  0.5790967E-03  0.5991228E+03  0.7818609E-02  0.9907228E-01
        1   -1    0    0  501    0  0.00000000000E+00  0.00000000000E+00  0.27468883993E+03  0.27468883998E+03  0.50400001928E-02 0. -1.
       -1   -1    0    0    0  501  0.00000000000E+00  0.00000000000E+00 -0.32668613184E+03  0.32668613188E+03  0.50400001928E-02 0.  1.
    10030    2    1    2    0    0  0.00000000000E+00  0.00000000000E+00 -0.51997291910E+02  0.60137497186E+03  0.59912280746E+03 0.  0.
        3    1    3    3  502    0 -0.50694342860E+02 -0.13150100015E+03  0.23933305959E+03  0.27774584255E+03  0.10100000352E+00 0. -1.
       -3    1    3    3    0  502  0.50694342860E+02  0.13150100015E+03 -0.29133035150E+03  0.32362912932E+03  0.10100000352E+00 0.  1.
</event>
<event>
 5   0  0.9162342E-03  0.5983878E+03  0.7818609E-02  0.9908757E-01
        2   -1    0    0  501    0  0.00000000000E+00  0.00000000000E+00  0.10700229855E+04  0.10700229855E+04  0.25500000920E-02 0.  1.
       -2   -1    0    0    0  501  0.00000000000E+00  0.00000000000E+00 -0.83658933654E+02  0.83658933693E+02  0.25500000920E-02 0. -1.
    10030    2    1    2    0    0  0.00000000000E+00  0.00000000000E+00  0.98636405183E+03  0.11536819192E+04  0.59838777385E+03 0.  0.
        5    1    3    3  502    0 -0.19365993489E+03 -0.10965116851E+03  0.87862134259E+03  0.90638021977E+03  0.46999998093E+01 0.  1.
       -5    1    3    3    0  502  0.19365993489E+03  0.10965116851E+03  0.10774270923E+03  0.24730169940E+03  0.46999998093E+01 0. -1.
</event>
<event>
 5   0  0.9303190E-03  0.5997760E+03  0.7818609E-02  0.9905871E-01
       -2   -1    0    0    0  501  0.00000000000E+00  0.00000000000E+00  0.71071157929E+03  0.71071157930E+03  0.25500000920E-02 0. -1.
        2   -1    0    0  501    0  0.00000000000E+00  0.00000000000E+00 -0.12653912597E+03  0.12653912600E+03  0.25500000920E-02 0.  1.
    10030    2    1    2    0    0  0.00000000000E+00  0.00000000000E+00  0.58417245332E+03  0.83725070529E+03  0.59977603178E+03 0.  0.
        4    1    3    3  502    0  0.17199449894E+03 -0.95681805268E+01 -0.50580673284E+02  0.17953739208E+03  0.12699999809E+01 0.  1.
       -4    1    3    3    0  502 -0.17199449894E+03  0.95681805268E+01  0.63475312661E+03  0.65771331322E+03  0.12699999809E+01 0. -1.
</event>
<event>
 5   0  0.5819446E-03  0.5995296E+03  0.7818609E-02  0.9906383E-01
       -1   -1    0    0    0  501  0.00000000000E+00  0.00000000000E+00  0.35491158109E+03  0.35491158112E+03  0.50400001928E-02 0.  1.
        1   -1    0    0  501    0  0.00000000000E+00  0.00000000000E+00 -0.25318678938E+03  0.25318678943E+03  0.50400001928E-02 0. -1.
    10030    2    1    2    0    0  0.00000000000E+00  0.00000000000E+00  0.10172479170E+03  0.60809837056E+03  0.59952956143E+03 0.  0.
        5    1    3    3  502    0  0.28524979909E+03 -0.61094940916E+02  0.12067044316E+03  0.31572691608E+03  0.46999998093E+01 0. -1.
       -5    1    3    3    0  502 -0.28524979909E+03  0.61094940916E+02 -0.18945651454E+02  0.29237145448E+03  0.46999998093E+01 0.  1.
</event>
<event>
 5   0  0.5819446E-03  0.5994951E+03  0.7818609E-02  0.9906454E-01
        1   -1    0    0  501    0  0.00000000000E+00  0.00000000000E+00  0.32490210956E+03  0.32490210959E+03  0.50400001928E-02 0. -1.
       -1   -1    0    0    0  501  0.00000000000E+00  0.00000000000E+00 -0.27654051905E+03  0.27654051910E+03  0.50400001928E-02 0.  1.
    10030    2    1    2    0    0  0.00000000000E+00  0.00000000000E+00  0.48361590501E+02  0.60144262870E+03  0.59949511439E+03 0.  0.
        5    1    3    3  502    0 -0.58057064510E+02  0.21444180975E+03  0.22600737290E+03  0.31695005145E+03  0.46999998093E+01 0. -1.
       -5    1    3    3    0  502  0.58057064510E+02 -0.21444180975E+03 -0.17764578240E+03  0.28449257725E+03  0.46999998093E+01 0.  1.
</event>
<event>
 5   0  0.9028473E-03  0.6005759E+03  0.7818609E-02  0.9904212E-01
       -2   -1    0    0    0  501  0.00000000000E+00  0.00000000000E+00  0.74042371877E+03  0.74042371878E+03  0.25500000920E-02 0. -1.
        2   -1    0    0  501    0  0.00000000000E+00  0.00000000000E+00 -0.12178549283E+03  0.12178549286E+03  0.25500000920E-02 0.  1.
    10030    2    1    2    0    0  0.00000000000E+00  0.00000000000E+00  0.61863822594E+03  0.86220921163E+03  0.60057594859E+03 0.  0.
        1    1    3    3  502    0  0.24628434454E+03 -0.16682192797E+03  0.25034720459E+03  0.38879204839E+03  0.50400001928E-02 0.  1.
       -1    1    3    3    0  502 -0.24628434454E+03  0.16682192797E+03  0.36829102136E+03  0.47341716324E+03  0.50400001928E-02 0. -1.
</event>
<event>
 5   0  0.9303190E-03  0.5995028E+03  0.7818609E-02  0.9906438E-01
       -2   -1    0    0    0  501  0.00000000000E+00  0.00000000000E+00  0.42762525157E+03  0.42762525157E+03  0.25500000920E-02 0. -1.
        2   -1    0    0  501    0  0.00000000000E+00  0.00000000000E+00 -0.21011598652E+03  0.21011598654E+03  0.25500000920E-02 0.  1.
    10030    2    1    2    0    0  0.00000000000E+00  0.00000000000E+00  0.21750926504E+03  0.63774123811E+03  0.59950279934E+03 0.  0.
        4    1    3    3  502    0  0.56460818923E+02 -0.33516387950E+01 -0.20438507963E+03  0.21207058078E+03  0.12699999809E+01 0.  1.
       -4    1    3    3    0  502 -0.56460818923E+02  0.33516387950E+01  0.42189434467E+03  0.42567065734E+03  0.12699999809E+01 0. -1.
</event>
<event>
 5   0  0.9303190E-03  0.5996242E+03  0.7818609E-02  0.9906186E-01
        2   -1    0    0  501    0  0.00000000000E+00  0.00000000000E+00  0.12914238466E+04  0.12914238466E+04  0.25500000920E-02 0. -1.
       -2   -1    0    0    0  501  0.00000000000E+00  0.00000000000E+00 -0.69603253241E+02  0.69603253288E+02  0.25500000920E-02 0.  1.
    10030    2    1    2    0    0  0.00000000000E+00  0.00000000000E+00  0.12218205934E+04  0.13610270999E+04  0.59962421923E+03 0.  0.
        4    1    3    3  502    0  0.22823604978E+03 -0.19433721649E+03  0.59910732880E+03  0.66991779530E+03  0.12699999809E+01 0. -1.
       -4    1    3    3    0  502 -0.22823604978E+03  0.19433721649E+03  0.62271326457E+03  0.69110930460E+03  0.12699999809E+01 0.  1.
</event>
<event>
 5   0  0.5891927E-03  0.6044394E+03  0.7818609E-02  0.9896238E-01
        1   -1    0    0  501    0  0.00000000000E+00  0.00000000000E+00  0.63873661940E+03  0.63873661942E+03  0.50400001928E-02 0. -1.
       -1   -1    0    0    0  501  0.00000000000E+00  0.00000000000E+00 -0.14299596249E+03  0.14299596258E+03  0.50400001928E-02 0.  1.
    10030    2    1    2    0    0  0.00000000000E+00  0.00000000000E+00  0.49574065690E+03  0.78173258200E+03  0.60443943522E+03 0.  0.
        4    1    3    3  502    0  0.15256421799E+03 -0.61779211647E+02  0.57567647241E+03  0.59874662871E+03  0.12699999809E+01 0. -1.
       -4    1    3    3    0  502 -0.15256421799E+03  0.61779211647E+02 -0.79935815504E+02  0.18298595329E+03  0.12699999809E+01 0.  1.
</event>
<event>
 5   0  0.5790967E-03  0.6001984E+03  0.7818609E-02  0.9904995E-01
       -1   -1    0    0    0  501  0.00000000000E+00  0.00000000000E+00  0.19953268352E+03  0.19953268358E+03  0.50400001928E-02 0. -1.
        1   -1    0    0  501    0  0.00000000000E+00  0.00000000000E+00 -0.45135227447E+03  0.45135227450E+03  0.50400001928E-02 0.  1.
    10030    2    1    2    0    0  0.00000000000E+00  0.00000000000E+00 -0.25181959096E+03  0.65088495808E+03  0.60019840242E+03 0.  0.
        3    1    3    3  502    0 -0.26807574071E+02 -0.29743389457E+03 -0.15796904585E+03  0.33784581885E+03  0.10100000352E+00 0.  1.
       -3    1    3    3    0  502  0.26807574071E+02  0.29743389457E+03 -0.93850545106E+02  0.31303913923E+03  0.10100000352E+00 0. -1.
</event>
<event>
 5   0  0.5765045E-03  0.5957129E+03  0.7818609E-02  0.9914340E-01
       -1   -1    0    0    0  501  0.00000000000E+00  0.00000000000E+00  0.94994914012E+02  0.94994914146E+02  0.50400001928E-02 0. -1.
        1   -1    0    0  501    0  0.00000000000E+00  0.00000000000E+00 -0.93392867769E+03  0.93392867771E+03  0.50400001928E-02 0.  1.
    10030    2    1    2    0    0  0.00000000000E+00  0.00000000000E+00 -0.83893376368E+03  0.10289235919E+04  0.59571293257E+03 0.  0.
        1    1    3    3  502    0 -0.12656760588E+03  0.18041779091E+03 -0.73383333160E+02  0.23228226740E+03  0.50400001928E-02 0. -1.
       -1    1    3    3    0  502  0.12656760588E+03 -0.18041779091E+03 -0.76555043052E+03  0.79664132446E+03  0.50400001928E-02 0.  1.
</event>
<event>
 5   0  0.9303190E-03  0.5998686E+03  0.7818609E-02  0.9905679E-01
        2   -1    0    0  501    0  0.00000000000E+00  0.00000000000E+00  0.45348729475E+03  0.45348729475E+03  0.25500000920E-02 0.  1.
       -2   -1    0    0    0  501  0.00000000000E+00  0.00000000000E+00 -0.19837509043E+03  0.19837509045E+03  0.25500000920E-02 0. -1.
    10030    2    1    2    0    0  0.00000000000E+00  0.00000000000E+00  0.25511220431E+03  0.65186238520E+03  0.59986859599E+03 0.  0.
        4    1    3    3  502    0 -0.21757398985E+03  0.96465387882E+01  0.35165235046E+03  0.41363327387E+03  0.12699999809E+01 0.  1.
       -4    1    3    3    0  502  0.21757398985E+03 -0.96465387882E+01 -0.96540146142E+02  0.23822911133E+03  0.12699999809E+01 0. -1.
</event>
<event>
 5   0  0.5891927E-03  0.6079734E+03  0.7818609E-02  0.9889000E-01
        1   -1    0    0  501    0  0.00000000000E+00  0.00000000000E+00  0.21682532177E+03  0.21682532183E+03  0.50400001928E-02 0.  1.
       -1   -1    0    0    0  501  0.00000000000E+00  0.00000000000E+00 -0.42618600955E+03  0.42618600958E+03  0.50400001928E-02 0. -1.
    10030    2    1    2    0    0  0.00000000000E+00  0.00000000000E+00 -0.20936068778E+03  0.64301133141E+03  0.60797341614E+03 0.  0.
        4    1    3    3  502    0 -0.87794614036E+02  0.12511335645E+03  0.17322720296E+03  0.23102061155E+03  0.12699999809E+01 0.  1.
       -4    1    3    3    0  502  0.87794614036E+02 -0.12511335645E+03 -0.38258789074E+03  0.41199071986E+03  0.12699999809E+01 0. -1.
</event>
<event>
 5   0  0.3806250E-03  0.5998065E+03  0.7818609E-02  0.9905808E-01
        3   -1    0    0  501    0  0.00000000000E+00  0.00000000000E+00  0.13315422823E+04  0.13315422861E+04  0.10100000352E+00 0. -1.
       -3   -1    0    0    0  501  0.00000000000E+00  0.00000000000E+00 -0.67547162471E+02  0.67547237981E+02  0.10100000352E+00 0.  1.
    10030    2    1    2    0    0  0.00000000000E+00  0.00000000000E+00  0.12639951198E+04  0.13990895241E+04  0.59980649673E+03 0.  0.
        3    1    3    3  502    0  0.26738158302E+03  0.18781309240E+02  0.94578042848E+03  0.98302913365E+03  0.10100000352E+00 0. -1.
       -3    1    3    3    0  502 -0.26738158302E+03 -0.18781309240E+02  0.31821469133E+03  0.41606039044E+03  0.10100000352E+00 0.  1.
</event>
<event>
 5   0  0.9028473E-03  0.6000328E+03  0.7818609E-02  0.9905338E-01
       -2   -1    0    0    0  501  0.00000000000E+00  0.00000000000E+00  0.34401987260E+02  0.34401987355E+02  0.25500000920E-02 0. -1.
        2   -1    0    0  501    0  0.00000000000E+00  0.00000000000E+00 -0.26164142866E+04  0.26164142866E+04  0.25500000920E-02 0.  1.
    10030    2    1    2    0    0  0.00000000000E+00  0.00000000000E+00 -0.25820122994E+04  0.26508162740E+04  0.60003283604E+03 0.  0.
        1    1    3    3  502    0  0.81816850138E+02 -0.26296065322E+03 -0.18168441549E+04  0.18375976125E+04  0.50400001928E-02 0.  1.
       -1    1    3    3    0  502 -0.81816850138E+02  0.26296065322E+03 -0.76516814446E+03  0.81321866151E+03  0.50400001928E-02 0. -1.
</event>
<event>
 5   0  0.5790967E-03  0.6005972E+03  0.7818609E-02  0.9904168E-01
       -1   -1    0    0    0  501  0.00000000000E+00  0.00000000000E+00  0.14212508342E+03  0.14212508351E+03  0.50400001928E-02 0. -1.
        1   -1    0    0  501    0  0.00000000000E+00  0.00000000000E+00 -0.63450612036E+03  0.63450612038E+03  0.50400001928E-02 0.  1.
    10030    2    1    2    0    0  0.00000000000E+00  0.00000000000E+00 -0.49238103694E+03  0.77663120389E+03  0.60059715393E+03 0.  0.
        3    1    3    3  502    0 -0.22172225246E+03  0.19685251930E+03 -0.18461467910E+03  0.34927676924E+03  0.10100000352E+00 0. -1.
       -3    1    3    3    0  502  0.22172225246E+03 -0.19685251930E+03 -0.30776635785E+03  0.42735443465E+03  0.10100000352E+00 0.  1.
</event>
<event>
 5   0  0.9822607E-03  0.5895738E+03  0.7818609E-02  0.9927276E-01
       -2   -1    0    0    0  501  0.00000000000E+00  0.00000000000E+00  0.12478559835E+03  0.12478559837E+03  0.25500000920E-02 0.  1.
        2   -1    0    0  501    0  0.00000000000E+00  0.00000000000E+00 -0.69638899353E+03  0.69638899353E+03  0.25500000920E-02 0. -1.
    10030    2    1    2    0    0  0.00000000000E+00  0.00000000000E+00 -0.57160339518E+03  0.82117459191E+03  0.58957380286E+03 0.  0.
        3    1    3    3  502    0  0.21953025826E+03 -0.12380269995E+03 -0.49876617672E+03  0.55882765863E+03  0.10100000352E+00 0. -1.
       -3    1    3    3    0  502 -0.21953025826E+03  0.12380269995E+03 -0.72837218456E+02  0.26234693328E+03  0.10100000352E+00 0.  1.
</event>
<event>
 5   0  0.9028473E-03  0.6006147E+03  0.7818609E-02  0.9904132E-01
       -2   -1    0    0    0  501  0.00000000000E+00  0.00000000000E+00  0.10525099352E+03  0.10525099355E+03  0.25500000920E-02 0.  1.
        2   -1    0    0  501    0  0.00000000000E+00  0.00000000000E+00 -0.85685170152E+03  0.85685170153E+03  0.25500000920E-02 0. -1.
    10030    2    1    2    0    0  0.00000000000E+00  0.00000000000E+00 -0.75160070800E+03  0.96210269508E+03  0.60061466150E+03 0.  0.
        1    1    3    3  502    0 -0.11399873860E+03  0.27782693653E+03 -0.37421960424E+03  0.47981645583E+03  0.50400001928E-02 0. -1.
       -1    1    3    3    0  502  0.11399873860E+03 -0.27782693653E+03 -0.37738110376E+03  0.48228623924E+03  0.50400001928E-02 0.  1.
</event>
<event>
 5   0  0.5819446E-03  0.5992255E+03  0.7818609E-02  0.9907014E-01
        1   -1    0    0  501    0  0.00000000000E+00  0.00000000000E+00  0.17753029903E+04  0.17753029903E+04  0.50400001928E-02 0.  1.
       -1   -1    0    0    0  501  0.00000000000E+00  0.00000000000E+00 -0.50564783095E+02  0.50564783347E+02  0.50400001928E-02 0. -1.
    10030    2    1    2    0    0  0.00000000000E+00  0.00000000000E+00  0.17247382072E+04  0.18258677736E+04  0.59922553640E+03 0.  0.
        5    1    3    3  502    0 -0.13729804438E+03 -0.12977695965E+02  0.16727146307E+04  0.16783967050E+04  0.46999998093E+01 0.  1.
       -5    1    3    3    0  502  0.13729804438E+03  0.12977695965E+02  0.52023576510E+02  0.14747106866E+03  0.46999998093E+01 0. -1.
</event>
<event>
 5   0  0.6078658E-03  0.5988147E+03  0.7818609E-02  0.9907868E-01
       -1   -1    0    0    0  501  0.00000000000E+00  0.00000000000E+00  0.29319991712E+03  0.29319991716E+03  0.50400001928E-02 0.  1.
        1   -1    0    0  501    0  0.00000000000E+00  0.00000000000E+00 -0.30574620289E+03  0.30574620293E+03  0.50400001928E-02 0. -1.
    10030    2    1    2    0    0  0.00000000000E+00  0.00000000000E+00 -0.12546285770E+02  0.59894612010E+03  0.59881470046E+03 0.  0.
        2    1    3    3  502    0 -0.29881530931E+03  0.16653126402E+02 -0.15041233058E+02  0.29965672760E+03  0.25500000920E-02 0.  1.
       -2    1    3    3    0  502  0.29881530931E+03 -0.16653126402E+02  0.24949472876E+01  0.29928939250E+03  0.25500000920E-02 0. -1.
</event>
<event>
 5   0  0.9391405E-03  0.6001245E+03  0.7818609E-02  0.9905148E-01
       -2   -1    0    0    0  501  0.00000000000E+00  0.00000000000E+00  0.27974890953E+03  0.27974890954E+03  0.25500000920E-02 0. -1.
        2   -1    0    0  501    0  0.00000000000E+00  0.00000000000E+00 -0.32185064763E+03  0.32185064764E+03  0.25500000920E-02 0.  1.
    10030    2    1    2    0    0  0.00000000000E+00  0.00000000000E+00 -0.42101738099E+02  0.60159955718E+03  0.60012454612E+03 0.  0.
        2    1    3    3  502    0  0.13930625948E+03  0.11280481748E+03  0.22017766431E+03  0.28391788363E+03  0.25500000920E-02 0. -1.
       -2    1    3    3    0  502 -0.13930625948E+03 -0.11280481748E+03 -0.26227940241E+03  0.31768167355E+03  0.25500000920E-02 0.  1.
</event>
<event>
 5   0  0.9391405E-03  0.6001479E+03  0.7818609E-02  0.9905099E-01
       -2   -1    0    0    0  501  0.00000000000E+00  0.00000000000E+00  0.93848056616E+02  0.93848056650E+02  0.25500000920E-02 0. -1.
        2   -1    0    0  501    0  0.00000000000E+00  0.00000000000E+00 -0.95946970578E+03  0.95946970578E+03  0.25500000920E-02 0.  1.
    10030    2    1    2    0    0  0.00000000000E+00  0.00000000000E+00 -0.86562164916E+03  0.10533177624E+04  0.60014787274E+03 0.  0.
        2    1    3    3  502    0  0.41497748253E+02 -0.13260594603E+03 -0.89960714569E+03  0.91027436338E+03  0.25500000920E-02 0.  1.
       -2    1    3    3    0  502 -0.41497748253E+02  0.13260594603E+03  0.33985496532E+02  0.14304339905E+03  0.25500000920E-02 0. -1.
</event>
<event>
 5   0  0.5765045E-03  0.5989850E+03  0.7818609E-02  0.9907514E-01
        1   -1    0    0  501    0  0.00000000000E+00  0.00000000000E+00  0.86109015874E+03  0.86109015876E+03  0.50400001928E-02 0.  1.
       -1   -1    0    0    0  501  0.00000000000E+00  0.00000000000E+00 -0.10416533857E+03  0.10416533869E+03  0.50400001928E-02 0. -1.
    10030    2    1    2    0    0  0.00000000000E+00  0.00000000000E+00  0.75692482017E+03  0.96525549745E+03  0.59898496806E+03 0.  0.
        1    1    3    3  502    0  0.23765219313E+03 -0.84117822614E+02  0.11791271240E+03  0.27831237980E+03  0.50400001928E-02 0.  1.
       -1    1    3    3    0  502 -0.23765219313E+03  0.84117822614E+02  0.63901210777E+03  0.68694311765E+03  0.50400001928E-02 0. -1.
</event>
<event>
 5   0  0.3806250E-03  0.6013005E+03  0.7818609E-02  0.9902712E-01
        4   -1    0    0  501    0  0.00000000000E+00  0.00000000000E+00  0.37379037414E+03  0.37379253163E+03  0.12699999809E+01 0.  1.
       -4   -1    0    0    0  501  0.00000000000E+00  0.00000000000E+00 -0.24181704063E+03  0.24182037556E+03  0.12699999809E+01 0. -1.
    10030    2    1    2    0    0  0.00000000000E+00  0.00000000000E+00  0.13197333352E+03  0.61561290719E+03  0.60130049953E+03 0.  0.
        5    1    3    3  502    0  0.37232931855E+02 -0.29703737271E+03  0.37930170957E+02  0.30179178231E+03  0.46999998093E+01 0. -1.
       -5    1    3    3    0  502 -0.37232931855E+02  0.29703737271E+03  0.94043162559E+02  0.31382112488E+03  0.46999998093E+01 0.  1.
</event>
<event>
 5   0  0.9028473E-03  0.5999619E+03  0.7818609E-02  0.9905485E-01
        2   -1    0    0  501    0  0.00000000000E+00  0.00000000000E+00  0.17921191470E+04  0.17921191470E+04  0.25500000920E-02 0. -1.
       -2   -1    0    0    0  501  0.00000000000E+00  0.00000000000E+00 -0.50213489649E+02  0.50213489714E+02  0.25500000920E-02 0.  1.
    10030    2    1    2    0    0  0.00000000000E+00  0.00000000000E+00  0.17419056574E+04  0.18423326368E+04  0.59996185313E+03 0.  0.
        1    1    3    3  502    0  0.27003518135E+03 -0.12744690354E+03  0.95925190653E+03  0.10046521451E+04  0.50400001928E-02 0.  1.
       -1    1    3    3    0  502 -0.27003518135E+03  0.12744690354E+03  0.78265375087E+03  0.83768049169E+03  0.50400001928E-02 0. -1.
</event>
<event>
 5   0  0.5891927E-03  0.5998600E+03  0.7818609E-02  0.9905696E-01
       -1   -1    0    0    0  501  0.00000000000E+00  0.00000000000E+00  0.17162995382E+03  0.17162995389E+03  0.50400001928E-02 0. -1.
        1   -1    0    0  501    0  0.00000000000E+00  0.00000000000E+00 -0.52413939175E+03  0.52413939177E+03  0.50400001928E-02 0.  1.
    10030    2    1    2    0    0  0.00000000000E+00  0.00000000000E+00 -0.35250943793E+03  0.69576934566E+03  0.59986004912E+03 0.  0.
        4    1    3    3  502    0  0.15526610293E+03 -0.22681694683E+03 -0.31545514852E+03  0.41841015011E+03  0.12699999809E+01 0.  1.
       -4    1    3    3    0  502 -0.15526610293E+03  0.22681694683E+03 -0.37054289409E+02  0.27735919555E+03  0.12699999809E+01 0. -1.
</event>
<event>
 5   0  0.9028473E-03  0.6001257E+03  0.7818609E-02  0.9905145E-01
        2   -1    0    0  501    0  0.00000000000E+00  0.00000000000E+00  0.52480450102E+03  0.52480450102E+03  0.25500000920E-02 0. -1.
       -2   -1    0    0    0  501  0.00000000000E+00  0.00000000000E+00 -0.17156428400E+03  0.17156428402E+03  0.25500000920E-02 0.  1.
    10030    2    1    2    0    0  0.00000000000E+00  0.00000000000E+00  0.35324021702E+03  0.69636878504E+03  0.60012568172E+03 0.  0.
        1    1    3    3  502    0 -0.12275219148E+02  0.24630085298E+03 -0.21742069120E+02  0.24756314099E+03  0.50400001928E-02 0.  1.
       -1    1    3    3    0  502  0.12275219148E+02 -0.24630085298E+03  0.37498228614E+03  0.44880564405E+03  0.50400001928E-02 0. -1.
</event>
<event>
 5   0  0.5765045E-03  0.5995641E+03  0.7818609E-02  0.9906311E-01
        1   -1    0    0  501    0  0.00000000000E+00  0.00000000000E+00  0.24605063365E+03  0.24605063370E+03  0.50400001928E-02 0.  1.
       -1   -1    0    0    0  501  0.00000000000E+00  0.00000000000E+00 -0.36524709665E+03  0.36524709669E+03  0.50400001928E-02 0. -1.
    10030    2    1    2    0    0  0.00000000000E+00  0.00000000000E+00 -0.11919646300E+03  0.61129773039E+03  0.59956410698E+03 0.  0.
        1    1    3    3  502    0 -0.35552327281E+02 -0.40777164974E+02 -0.36022891585E+03  0.36426860557E+03  0.50400001928E-02 0. -1.
       -1    1    3    3    0  502  0.35552327281E+02  0.40777164974E+02  0.24103245285E+03  0.24702912482E+03  0.50400001928E-02 0.  1.
</event>
<event>
 5   0  0.9303190E-03  0.5998200E+03  0.7818609E-02  0.9905780E-01
       -2   -1    0    0    0  501  0.00000000000E+00  0.00000000000E+00  0.51310127138E+02  0.51310127201E+02  0.25500000920E-02 0. -1.
        2   -1    0    0  501    0  0.00000000000E+00  0.00000000000E+00 -0.17529874535E+04  0.17529874535E+04  0.25500000920E-02 0.  1.
    10030    2    1    2    0    0  0.00000000000E+00  0.00000000000E+00 -0.17016773263E+04  0.18042975807E+04  0.59982000356E+03 0.  0.
        4    1    3    3  502    0 -0.23556905124E+03 -0.14410106013E+02 -0.29419245122E+03  0.37716208759E+03  0.12699999809E+01 0. -1.
       -4    1    3    3    0  502  0.23556905124E+03  0.14410106013E+02 -0.14074848751E+04  0.14271354931E+04  0.12699999809E+01 0.  1.
</event>
<event>
 5   0  0.5819446E-03  0.5951691E+03  0.7818609E-02  0.9915480E-01
        1   -1    0    0  501    0  0.00000000000E+00  0.00000000000E+00  0.48732803006E+03  0.48732803009E+03  0.50400001928E-02 0. -1.
       -1   -1    0    0    0  501  0.00000000000E+00  0.00000000000E+00 -0.18171861553E+03  0.18171861560E+03  0.50400001928E-02 0.  1.
    10030    2    1    2    0    0  0.00000000000E+00  0.00000000000E+00  0.30560941454E+03  0.66904664569E+03  0.59516913550E+03 0.  0.
        5    1    3    3  502    0 -0.12761240718E+03  0.49976869446E+02 -0.14408416985E+03  0.19890940638E+03  0.46999998093E+01 0.  1.
       -5    1    3    3    0  502  0.12761240718E+03 -0.49976869446E+02  0.44969358439E+03  0.47013723931E+03  0.46999998093E+01 0. -1.
</event>
<event>
 5   0  0.9822607E-03  0.5982918E+03  0.7818609E-02  0.9908956E-01
       -2   -1    0    0    0  501  0.00000000000E+00  0.00000000000E+00  0.14759665656E+03  0.14759665658E+03  0.25500000920E-02 0.  1.
        2   -1    0    0  501    0  0.00000000000E+00  0.00000000000E+00 -0.60630275173E+03  0.60630275173E+03  0.25500000920E-02 0. -1.
    10030    2    1    2    0    0  0.00000000000E+00  0.00000000000E+00 -0.45870609517E+03  0.75389940831E+03  0.59829176504E+03 0.  0.
        3    1    3    3  502    0 -0.28037460859E+03 -0.70562320170E+02 -0.13256981421E+03  0.31806245929E+03  0.10100000352E+00 0.  1.
       -3    1    3    3    0  502  0.28037460859E+03  0.70562320170E+02 -0.32613628096E+03  0.43583694902E+03  0.10100000352E+00 0. -1.
</event>
<event>
 5   0  0.9391405E-03  0.6001223E+03  0.7818609E-02  0.9905152E-01
       -2   -1    0    0    0  501  0.00000000000E+00  0.00000000000E+00  0.23144158363E+03  0.23144158364E+03  0.25500000920E-02 0. -1.
        2   -1    0    0  501    0  0.00000000000E+00  0.00000000000E+00 -0.38902555299E+03  0.38902555300E+03  0.25500000920E-02 0.  1.
    10030    2    1    2    0    0  0.00000000000E+00  0.00000000000E+00 -0.15758396937E+03  0.62046713665E+03  0.60012228775E+03 0.  0.
        2    1    3    3  502    0 -0.26040822261E+03  0.82671049150E+02 -0.20705302070E+03  0.34280883618E+03  0.25500000920E-02 0.  1.
       -2    1    3    3    0  502  0.26040822261E+03 -0.82671049150E+02  0.49469051335E+02  0.27765830047E+03  0.25500000920E-02 0. -1.
</event>
<event>
 5   0  0.9028473E-03  0.5989377E+03  0.7818609E-02  0.9907612E-01
       -2   -1    0    0    0  501  0.00000000000E+00  0.00000000000E+00  0.38197541317E+02  0.38197541402E+02  0.25500000920E-02 0. -1.
        2   -1    0    0  501    0  0.00000000000E+00  0.00000000000E+00 -0.23478366246E+04  0.23478366246E+04  0.25500000920E-02 0.  1.
    10030    2    1    2    0    0  0.00000000000E+00  0.00000000000E+00 -0.23096390833E+04  0.23860341660E+04  0.59893768149E+03 0.  0.
        1    1    3    3  502    0  0.29559399058E+03 -0.37890053765E+02 -0.10373066878E+04  0.10792667085E+04  0.50400001928E-02 0. -1.
       -1    1    3    3    0  502 -0.29559399058E+03  0.37890053765E+02 -0.12723323955E+04  0.13067674575E+04  0.50400001928E-02 0.  1.
</event>
<event>
 5   0  0.6078658E-03  0.6014490E+03  0.7818609E-02  0.9902404E-01
       -1   -1    0    0    0  501  0.00000000000E+00  0.00000000000E+00  0.59303723583E+02  0.59303723797E+02  0.50400001928E-02 0. -1.
        1   -1    0    0  501    0  0.00000000000E+00  0.00000000000E+00 -0.15249499892E+04  0.15249499892E+04  0.50400001928E-02 0.  1.
    10030    2    1    2    0    0  0.00000000000E+00  0.00000000000E+00 -0.14656462656E+04  0.15842537130E+04  0.60144895981E+03 0.  0.
        2    1    3    3  502    0  0.28339981972E+03 -0.75697658549E+02 -0.55830546816E+03  0.63067470943E+03  0.25500000920E-02 0. -1.
       -2    1    3    3    0  502 -0.28339981972E+03  0.75697658549E+02 -0.90734079748E+03  0.95357900360E+03  0.25500000920E-02 0.  1.
</event>
<event>
 5   0  0.9391405E-03  0.5996554E+03  0.7818609E-02  0.9906121E-01
       -2   -1    0    0    0  501  0.00000000000E+00  0.00000000000E+00  0.18084635069E+03  0.18084635071E+03  0.25500000920E-02 0.  1.
        2   -1    0    0  501    0  0.00000000000E+00  0.00000000000E+00 -0.49708859203E+03  0.49708859203E+03  0.25500000920E-02 0. -1.
    10030    2    1    2    0    0  0.00000000000E+00  0.00000000000E+00 -0.31624224134E+03  0.67793494274E+03  0.59965542721E+03 0.  0.
        2    1    3    3  502    0 -0.13243446389E+03  0.21475789621E+02 -0.46125907085E+03  0.48037488196E+03  0.25500000920E-02 0. -1.
       -2    1    3    3    0  502  0.13243446389E+03 -0.21475789621E+02  0.14501682951E+03  0.19756006078E+03  0.25500000920E-02 0.  1.
</event>
<event>
 5   0  0.5790967E-03  0.5995697E+03  0.7818609E-02  0.9906299E-01
       -1   -1    0    0    0  501  0.00000000000E+00  0.00000000000E+00  0.55127116854E+03  0.55127116857E+03  0.50400001928E-02 0. -1.
        1   -1    0    0  501    0  0.00000000000E+00  0.00000000000E+00 -0.16302493886E+03  0.16302493894E+03  0.50400001928E-02 0.  1.
    10030    2    1    2    0    0  0.00000000000E+00  0.00000000000E+00  0.38824622968E+03  0.71429610751E+03  0.59956967430E+03 0.  0.
        3    1    3    3  502    0 -0.19986361483E+03  0.17181196252E+03  0.23939055264E+02  0.26464675242E+03  0.10100000352E+00 0.  1.
       -3    1    3    3    0  502  0.19986361483E+03 -0.17181196252E+03  0.36430717442E+03  0.44964935509E+03  0.10100000352E+00 0. -1.
</event>
<event>
 5   0  0.6078658E-03  0.6000385E+03  0.7818609E-02  0.9905326E-01
       -1   -1    0    0    0  501  0.00000000000E+00  0.00000000000E+00  0.10390701221E+03  0.10390701233E+03  0.50400001928E-02 0.  1.
        1   -1    0    0  501    0  0.00000000000E+00  0.00000000000E+00 -0.86627034615E+03  0.86627034617E+03  0.50400001928E-02 0. -1.
    10030    2    1    2    0    0  0.00000000000E+00  0.00000000000E+00 -0.76236333395E+03  0.97017735850E+03  0.60003854376E+03 0.  0.
        2    1    3    3  502    0 -0.28912080718E+03 -0.21004447359E+02 -0.25615411944E+03  0.38684229457E+03  0.25500000920E-02 0.  1.
       -2    1    3    3    0  502  0.28912080718E+03  0.21004447359E+02 -0.50620921450E+03  0.58333506393E+03  0.25500000920E-02 0. -1.
</event>
<event>
 5   0  0.6078658E-03  0.6010145E+03  0.7818609E-02  0.9903304E-01
        1   -1    0    0  501    0  0.00000000000E+00  0.00000000000E+00  0.32004643616E+03  0.32004643620E+03  0.50400001928E-02 0.  1.
       -1   -1    0    0    0  501  0.00000000000E+00  0.00000000000E+00 -0.28216095507E+03  0.28216095512E+03  0.50400001928E-02 0. -1.
    10030    2    1    2    0    0  0.00000000000E+00  0.00000000000E+00  0.37885481090E+02  0.60220739132E+03  0.60101450272E+03 0.  0.
        2    1    3    3  502    0 -0.29298669928E+03  0.65169748054E+02  0.42062011083E+01  0.30017660494E+03  0.25500000920E-02 0. -1.
       -2    1    3    3    0  502  0.29298669928E+03 -0.65169748054E+02  0.33679279981E+02  0.30203078638E+03  0.25500000920E-02 0.  1.
</event>
<event>
 5   0  0.5819446E-03  0.5963206E+03  0.7818609E-02  0.9913069E-01
        1   -1    0    0  501    0  0.00000000000E+00  0.00000000000E+00  0.63277346418E+03  0.63277346420E+03  0.50400001928E-02 0.  1.
       -1   -1    0    0    0  501  0.00000000000E+00  0.00000000000E+00 -0.14049191727E+03  0.14049191736E+03  0.50400001928E-02 0. -1.
    10030    2    1    2    0    0  0.00000000000E+00  0.00000000000E+00  0.49228154691E+03  0.77326538157E+03  0.59632057562E+03 0.  0.
        5    1    3    3  502    0  0.29234093481E+03  0.38011585389E+02  0.30368633319E+03  0.42326774239E+03  0.46999998093E+01 0. -1.
       -5    1    3    3    0  502 -0.29234093481E+03 -0.38011585389E+02  0.18859521372E+03  0.34999763917E+03  0.46999998093E+01 0.  1.
</event>
<event>
 5   0  0.9028473E-03  0.5988083E+03  0.7818609E-02  0.9907882E-01
       -2   -1    0    0    0  501  0.00000000000E+00  0.00000000000E+00  0.56047403185E+03  0.56047403186E+03  0.25500000920E-02 0. -1.
        2   -1    0    0  501    0  0.00000000000E+00  0.00000000000E+00 -0.15994110703E+03  0.15994110705E+03  0.25500000920E-02 0.  1.
    10030    2    1    2    0    0  0.00000000000E+00  0.00000000000E+00  0.40053292482E+03  0.72041513891E+03  0.59880827357E+03 0.  0.
        1    1    3    3  502    0 -0.27859766457E+03 -0.70860999738E+02  0.99574241812E+02  0.30422519562E+03  0.50400001928E-02 0.  1.
       -1    1    3    3    0  502  0.27859766457E+03  0.70860999738E+02  0.30095868301E+03  0.41618994329E+03  0.50400001928E-02 0. -1.
</event>
<event>
 5   0  0.9303190E-03  0.5995670E+03  0.7818609E-02  0.9906305E-01
        2   -1    0    0  501    0  0.00000000000E+00  0.00000000000E+00  0.10495173453E+04  0.10495173453E+04  0.25500000920E-02 0. -1.
       -2   -1    0    0    0  501  0.00000000000E+00  0.00000000000E+00 -0.85629980235E+02  0.85629980273E+02  0.25500000920E-02 0.  1.
    10030    2    1    2    0    0  0.00000000000E+00  0.00000000000E+00  0.96388736502E+03  0.11351473255E+04  0.59956700895E+03 0.  0.
        4    1    3    3  502    0  0.21920719091E+03  0.18473104425E+03  0.31590428740E+03  0.42658467266E+03  0.12699999809E+01 0.  1.
       -4    1    3    3    0  502 -0.21920719091E+03 -0.18473104425E+03  0.64798307762E+03  0.70856265287E+03  0.12699999809E+01 0. -1.
</event>
<event>
 5   0  0.9822607E-03  0.5990907E+03  0.7818609E-02  0.9907294E-01
        2   -1    0    0  501    0  0.00000000000E+00  0.00000000000E+00  0.23755677072E+04  0.23755677072E+04  0.25500000920E-02 0.  1.
       -2   -1    0    0    0  501  0.00000000000E+00  0.00000000000E+00 -0.37770932742E+02  0.37770932829E+02  0.25500000920E-02 0. -1.
    10030    2    1    2    0    0  0.00000000000E+00  0.00000000000E+00  0.23377967745E+04  0.24133386401E+04  0.59909067160E+03 0.  0.
        3    1    3    3  502    0 -0.15702852124E+03  0.15185524853E+03  0.34324250780E+03  0.40685796336E+03  0.10100000352E+00 0. -1.
       -3    1    3    3    0  502  0.15702852124E+03 -0.15185524853E+03  0.19945542667E+04  0.20064806767E+04  0.10100000352E+00 0.  1.
</event>
<event>
 5   0  0.3806250E-03  0.6033994E+03  0.7818609E-02  0.9898378E-01
       -4   -1    0    0    0  501  0.00000000000E+00  0.00000000000E+00  0.28992879488E+03  0.28993157641E+03  0.12699999809E+01 0.  1.
        4   -1    0    0  501    0  0.00000000000E+00  0.00000000000E+00 -0.31394289827E+03  0.31394546704E+03  0.12699999809E+01 0. -1.
    10030    2    1    2    0    0  0.00000000000E+00  0.00000000000E+00 -0.24014103396E+02  0.60387704345E+03  0.60339937558E+03 0.  0.
        3    1    3    3  502    0  0.49685369683E+02  0.26184533942E+03 -0.15350877322E+03  0.30756555625E+03  0.10100000352E+00 0. -1.
       -3    1    3    3    0  502 -0.49685369683E+02 -0.26184533942E+03  0.12949466983E+03  0.29631148720E+03  0.10100000352E+00 0.  1.
</event>
<event>
 5   0  0.3806250E-03  0.6001094E+03  0.7818609E-02  0.9905179E-01
       -4   -1    0    0    0  501  0.00000000000E+00  0.00000000000E+00  0.20184507568E+03  0.20184907103E+03  0.12699999809E+01 0. -1.
        4   -1    0    0  501    0  0.00000000000E+00  0.00000000000E+00 -0.44603982866E+03  0.44604163668E+03  0.12699999809E+01 0.  1.
    10030    2    1    2    0    0  0.00000000000E+00  0.00000000000E+00 -0.24419475298E+03  0.64789070770E+03  0.60010939981E+03 0.  0.
        2    1    3    3  502    0  0.13368047001E+03 -0.45110001172E+02  0.16380339196E+03  0.21618726024E+03  0.25500000920E-02 0. -1.
       -2    1    3    3    0  502 -0.13368047001E+03  0.45110001172E+02 -0.40799814494E+03  0.43170344746E+03  0.25500000920E-02 0.  1.
</event>
<event>
 5   0  0.5819446E-03  0.6004524E+03  0.7818609E-02  0.9904468E-01
       -1   -1    0    0    0  501  0.00000000000E+00  0.00000000000E+00  0.11844929030E+03  0.11844929040E+03  0.50400001928E-02 0.  1.
        1   -1    0    0  501    0  0.00000000000E+00  0.00000000000E+00 -0.76096496503E+03  0.76096496505E+03  0.50400001928E-02 0. -1.
    10030    2    1    2    0    0  0.00000000000E+00  0.00000000000E+00 -0.64251567473E+03  0.87941425545E+03  0.60045236315E+03 0.  0.
        5    1    3    3  502    0  0.18687336763E+02 -0.25289347838E+03 -0.55654780523E+03  0.61161415734E+03  0.46999998093E+01 0. -1.
       -5    1    3    3    0  502 -0.18687336763E+02  0.25289347838E+03 -0.85967869507E+02  0.26780009811E+03  0.46999998093E+01 0.  1.
</event>
<event>
 5   0  0.5819446E-03  0.5991127E+03  0.7818609E-02  0.9907249E-01
        1   -1    0    0  501    0  0.00000000000E+00  0.00000000000E+00  0.82575264809E+03  0.82575264811E+03  0.50400001928E-02 0. -1.
       -1   -1    0    0    0  501  0.00000000000E+00  0.00000000000E+00 -0.10866935285E+03  0.10866935297E+03  0.50400001928E-02 0.  1.
    10030    2    1    2    0    0  0.00000000000E+00  0.00000000000E+00  0.71708329524E+03  0.93442200107E+03  0.59911269705E+03 0.  0.
        5    1    3    3  502    0  0.29787243776E+03 -0.26995178335E+02  0.38345682046E+03  0.48633111353E+03  0.46999998093E+01 0. -1.
       -5    1    3    3    0  502 -0.29787243776E+03  0.26995178335E+02  0.33362647478E+03  0.44809088754E+03  0.46999998093E+01 0.  1.
</event>
<event>
 5   0  0.5891927E-03  0.6005620E+03  0.7818609E-02  0.9904241E-01
        1   -1    0    0  501    0  0.00000000000E+00  0.00000000000E+00  0.12309325456E+04  0.12309325456E+04  0.50400001928E-02 0. -1.
       -1   -1    0    0    0  501  0.00000000000E+00  0.00000000000E+00 -0.73252336847E+02  0.73252337021E+02  0.50400001928E-02 0.  1.
    10030    2    1    2    0    0  0.00000000000E+00  0.00000000000E+00  0.11576802087E+04  0.13041848826E+04  0.60056202205E+03 0.  0.
        4    1    3    3  502    0 -0.15968300333E+03  0.13407086767E+03  0.10480953207E+04  0.10686342093E+04  0.12699999809E+01 0. -1.
       -4    1    3    3    0  502  0.15968300333E+03 -0.13407086767E+03  0.10958488802E+03  0.23555067330E+03  0.12699999809E+01 0.  1.
</event>
<event>
 5   0  0.5765045E-03  0.6003138E+03  0.7818609E-02  0.9904755E-01
       -1   -1    0    0    0  501  0.00000000000E+00  0.00000000000E+00  0.15972163927E+03  0.15972163935E+03  0.50400001928E-02 0. -1.
        1   -1    0    0  501    0  0.00000000000E+00  0.00000000000E+00 -0.56406978876E+03  0.56406978878E+03  0.50400001928E-02 0.  1.
    10030    2    1    2    0    0  0.00000000000E+00  0.00000000000E+00 -0.40434814949E+03  0.72379142813E+03  0.60031375583E+03 0.  0.
        1    1    3    3  502    0  0.23400654906E+03  0.17688896581E+03 -0.27885984912E+03  0.40473644104E+03  0.50400001928E-02 0.  1.
       -1    1    3    3    0  502 -0.23400654906E+03 -0.17688896581E+03 -0.12548830037E+03  0.31905498709E+03  0.50400001928E-02 0. -1.
</event>
<event>
 5   0  0.9303190E-03  0.6007644E+03  0.7818609E-02  0.9903821E-01
        2   -1    0    0  501    0  0.00000000000E+00  0.00000000000E+00  0.71202228025E+03  0.71202228025E+03  0.25500000920E-02 0.  1.
       -2   -1    0    0    0  501  0.00000000000E+00  0.00000000000E+00 -0.12672282733E+03  0.12672282735E+03  0.25500000920E-02 0. -1.
    10030    2    1    2    0    0  0.00000000000E+00  0.00000000000E+00  0.58529945292E+03  0.83874510761E+03  0.60076443465E+03 0.  0.
        4    1    3    3  502    0 -0.12116023843E+03 -0.18690148524E+03  0.57401714071E+03  0.61571849029E+03  0.12699999809E+01 0.  1.
       -4    1    3    3    0  502  0.12116023843E+03  0.18690148524E+03  0.11282312216E+02  0.22302661731E+03  0.12699999809E+01 0. -1.
</event>
<event>
 5   0  0.9162342E-03  0.6001160E+03  0.7818609E-02  0.9905166E-01
       -2   -1    0    0    0  501  0.00000000000E+00  0.00000000000E+00  0.90507254593E+02  0.90507254629E+02  0.25500000920E-02 0.  1.
        2   -1    0    0  501    0  0.00000000000E+00  0.00000000000E+00 -0.99477982512E+03  0.99477982513E+03  0.25500000920E-02 0. -1.
    10030    2    1    2    0    0  0.00000000000E+00  0.00000000000E+00 -0.90427257053E+03  0.10852870798E+04  0.60011595852E+03 0.  0.
        5    1    3    3  502    0 -0.29423567126E+03 -0.44139926058E+02 -0.38233485081E+03  0.48448425305E+03  0.46999998093E+01 0.  1.
       -5    1    3    3    0  502  0.29423567126E+03  0.44139926058E+02 -0.52193771972E+03  0.60080282670E+03  0.46999998093E+01 0. -1.
</event>
<event>
 5   0  0.5819446E-03  0.6034898E+03  0.7818609E-02  0.9898192E-01
        1   -1    0    0  501    0  0.00000000000E+00  0.00000000000E+00  0.71996290340E+02  0.71996290516E+02  0.50400001928E-02 0.  1.
       -1   -1    0    0    0  501  0.00000000000E+00  0.00000000000E+00 -0.12646483986E+04  0.12646483986E+04  0.50400001928E-02 0. -1.
    10030    2    1    2    0    0  0.00000000000E+00  0.00000000000E+00 -0.11926521082E+04  0.13366446891E+04  0.60348982893E+03 0.  0.
        5    1    3    3  502    0 -0.10066681600E+03 -0.16523350916E+03 -0.11090645626E+04  0.11258251260E+04  0.46999998093E+01 0. -1.
       -5    1    3    3    0  502  0.10066681600E+03  0.16523350916E+03 -0.83587545652E+02  0.21081956308E+03  0.46999998093E+01 0.  1.
</event>
<event>
 5   0  0.9028473E-03  0.5999174E+03  0.7818609E-02  0.9905577E-01
        2   -1    0    0  501    0  0.00000000000E+00  0.00000000000E+00  0.56280857617E+03  0.56280857618E+03  0.25500000920E-02 0. -1.
       -2   -1    0    0    0  501  0.00000000000E+00  0.00000000000E+00 -0.15986823621E+03  0.15986823623E+03  0.25500000920E-02 0.  1.
    10030    2    1    2    0    0  0.00000000000E+00  0.00000000000E+00  0.40294033996E+03  0.72267681241E+03  0.59991737567E+03 0.  0.
        1    1    3    3  502    0  0.26737902271E+03  0.79692969381E+02  0.68782225330E+02  0.28735606084E+03  0.50400001928E-02 0. -1.
       -1    1    3    3    0  502 -0.26737902271E+03 -0.79692969381E+02  0.33415811463E+03  0.43532075157E+03  0.50400001928E-02 0.  1.
</event>
<event>
 5   0  0.9391405E-03  0.5999841E+03  0.7818609E-02  0.9905439E-01
       -2   -1    0    0    0  501  0.00000000000E+00  0.00000000000E+00  0.18055093965E+03  0.18055093967E+03  0.25500000920E-02 0. -1.
        2   -1    0    0  501    0  0.00000000000E+00  0.00000000000E+00 -0.49844789212E+03  0.49844789212E+03  0.25500000920E-02 0.  1.
    10030    2    1    2    0    0  0.00000000000E+00  0.00000000000E+00 -0.31789695247E+03  0.67899883179E+03  0.59998411744E+03 0.  0.
        2    1    3    3  502    0 -0.23858749233E+03 -0.10280878559E+03 -0.32870870352E+03  0.41897857901E+03  0.25500000920E-02 0.  1.
       -2    1    3    3    0  502  0.23858749233E+03  0.10280878559E+03  0.10811751047E+02  0.26002025279E+03  0.25500000920E-02 0. -1.
</event>
<event>
 5   0  0.9391405E-03  0.5997650E+03  0.7818609E-02  0.9905894E-01
        2   -1    0    0  501    0  0.00000000000E+00  0.00000000000E+00  0.98160104417E+03  0.98160104417E+03  0.25500000920E-02 0. -1.
       -2   -1    0    0    0  501  0.00000000000E+00  0.00000000000E+00 -0.91615138583E+02  0.91615138619E+02  0.25500000920E-02 0.  1.
    10030    2    1    2    0    0  0.00000000000E+00  0.00000000000E+00  0.88998590559E+03  0.10732161828E+04  0.59976500637E+03 0.  0.
        2    1    3    3  502    0 -0.16416109595E+03 -0.10308994857E+03  0.35565137376E+02  0.19708191678E+03  0.25500000920E-02 0.  1.
       -2    1    3    3    0  502  0.16416109595E+03  0.10308994857E+03  0.85442076821E+03  0.87613426601E+03  0.25500000920E-02 0. -1.
</event>
<event>
 5   0  0.5891927E-03  0.5999437E+03  0.7818609E-02  0.9905523E-01
       -1   -1    0    0    0  501  0.00000000000E+00  0.00000000000E+00  0.79351491993E+02  0.79351492153E+02  0.50400001928E-02 0. -1.
        1   -1    0    0  501    0  0.00000000000E+00  0.00000000000E+00 -0.11339812345E+04  0.11339812345E+04  0.50400001928E-02 0.  1.
    10030    2    1    2    0    0  0.00000000000E+00  0.00000000000E+00 -0.10546297425E+04  0.12133327267E+04  0.59994367387E+03 0.  0.
        4    1    3    3  502    0 -0.44048998520E+02  0.45532957862E+02 -0.11202916097E+04  0.11220822021E+04  0.12699999809E+01 0.  1.
       -4    1    3    3    0  502  0.44048998520E+02 -0.45532957862E+02  0.65661867240E+02  0.91250524555E+02  0.12699999809E+01 0. -1.
</event>
<event>
 5   0  0.5765045E-03  0.5994679E+03  0.7818609E-02  0.9906511E-01
        1   -1    0    0  501    0  0.00000000000E+00  0.00000000000E+00  0.73371567867E+03  0.73371567869E+03  0.50400001928E-02 0. -1.
       -1   -1    0    0    0  501  0.00000000000E+00  0.00000000000E+00 -0.12244586802E+03  0.12244586812E+03  0.50400001928E-02 0.  1.
    10030    2    1    2    0    0  0.00000000000E+00  0.00000000000E+00  0.61126981065E+03  0.85616154681E+03  0.59946794145E+03 0.  0.
        1    1    3    3  502    0  0.13543178807E+02 -0.31843180722E+02  0.73085334974E+03  0.73167207457E+03  0.50400001928E-02 0. -1.
       -1    1    3    3    0  502 -0.13543178807E+02  0.31843180722E+02 -0.11958353909E+03  0.12448947224E+03  0.50400001928E-02 0.  1.
</event>
<event>
 5   0  0.9162342E-03  0.6010350E+03  0.7818609E-02  0.9903261E-01
       -2   -1    0    0    0  501  0.00000000000E+00  0.00000000000E+00  0.35828988348E+03  0.35828988349E+03  0.25500000920E-02 0.  1.
        2   -1    0    0  501    0  0.00000000000E+00  0.00000000000E+00 -0.25206062901E+03  0.25206062902E+03  0.25500000920E-02 0. -1.
    10030    2    1    2    0    0  0.00000000000E+00  0.00000000000E+00  0.10622925448E+03  0.61035051251E+03  0.60103501863E+03 0.  0.
        5    1    3    3  502    0  0.22424505724E+02 -0.25768297399E+03 -0.10217809448E+03  0.27814713108E+03  0.46999998093E+01 0.  1.
       -5    1    3    3    0  502 -0.22424505724E+02  0.25768297399E+03  0.20840734895E+03  0.33220338143E+03  0.46999998093E+01 0. -1.
</event>
<event>
 5   0  0.5819446E-03  0.5998566E+03  0.7818609E-02  0.9905704E-01
       -1   -1    0    0    0  501  0.00000000000E+00  0.00000000000E+00  0.56184711111E+03  0.56184711113E+03  0.50400001928E-02 0.  1.
        1   -1    0    0  501    0  0.00000000000E+00  0.00000000000E+00 -0.16010937559E+03  0.16010937567E+03  0.50400001928E-02 0. -1.
    10030    2    1    2    0    0  0.00000000000E+00  0.00000000000E+00  0.40173773552E+03  0.72195648680E+03  0.59985661677E+03 0.  0.
        5    1    3    3  502    0  0.21160152293E+03 -0.55293086816E+02  0.44782330964E+03  0.49839776947E+03  0.46999998093E+01 0.  1.
       -5    1    3    3    0  502 -0.21160152293E+03  0.55293086816E+02 -0.46085574113E+02  0.22355871733E+03  0.46999998093E+01 0. -1.
</event>
<event>
 5   0  0.9391405E-03  0.6005674E+03  0.7818609E-02  0.9904230E-01
       -2   -1    0    0    0  501  0.00000000000E+00  0.00000000000E+00  0.60573754658E+02  0.60573754711E+02  0.25500000920E-02 0. -1.
        2   -1    0    0  501    0  0.00000000000E+00  0.00000000000E+00 -0.14886033361E+04  0.14886033361E+04  0.25500000920E-02 0.  1.
    10030    2    1    2    0    0  0.00000000000E+00  0.00000000000E+00 -0.14280295815E+04  0.15491770909E+04  0.60056737610E+03 0.  0.
        2    1    3    3  502    0 -0.67617029087E+02 -0.14726019736E+03 -0.13661427080E+04  0.13757192762E+04  0.25500000920E-02 0.  1.
       -2    1    3    3    0  502  0.67617029087E+02  0.14726019736E+03 -0.61886873525E+02  0.17345781467E+03  0.25500000920E-02 0. -1.
</event>
<event>
 5   0  0.9303190E-03  0.6003965E+03  0.7818609E-02  0.9904584E-01
        2   -1    0    0  501    0  0.00000000000E+00  0.00000000000E+00  0.83300593669E+03  0.83300593669E+03  0.25500000920E-02 0. -1.
       -2   -1    0    0    0  501  0.00000000000E+00  0.00000000000E+00 -0.10818530038E+03  0.10818530041E+03  0.25500000920E-02 0.  1.
    10030    2    1    2    0    0  0.00000000000E+00  0.00000000000E+00  0.72482063631E+03  0.94119123710E+03  0.60039652730E+03 0.  0.
        4    1    3    3  502    0  0.87840500807E+02  0.97306685645E+02  0.78576197708E+03  0.79662289835E+03  0.12699999809E+01 0. -1.
       -4    1    3    3    0  502 -0.87840500807E+02 -0.97306685645E+02 -0.60941340777E+02  0.14456833875E+03  0.12699999809E+01 0.  1.
</event>
<event>
 5   0  0.5891927E-03  0.5840470E+03  0.7818609E-02  0.9939068E-01
        1   -1    0    0  501    0  0.00000000000E+00  0.00000000000E+00  0.22368862232E+03  0.22368862238E+03  0.50400001928E-02 0. -1.
       -1   -1    0    0    0  501  0.00000000000E+00  0.00000000000E+00 -0.38123409651E+03  0.38123409655E+03  0.50400001928E-02 0.  1.
    10030    2    1    2    0    0  0.00000000000E+00  0.00000000000E+00 -0.15754547419E+03  0.60492271893E+03  0.58404701817E+03 0.  0.
        4    1    3    3  502    0 -0.27854110162E+03 -0.28603753131E+02 -0.16463826453E+03  0.32482409244E+03  0.12699999809E+01 0. -1.
       -4    1    3    3    0  502  0.27854110162E+03  0.28603753131E+02  0.70927903435E+01  0.28009862648E+03  0.12699999809E+01 0.  1.
</event>
<event>
 5   0  0.9162342E-03  0.6005246E+03  0.7818609E-02  0.9904318E-01
        2   -1    0    0  501    0  0.00000000000E+00  0.00000000000E+00  0.68927162356E+03  0.68927162356E+03  0.25500000920E-02 0.  1.
       -2   -1    0    0    0  501  0.00000000000E+00  0.00000000000E+00 -0.13080104744E+03  0.13080104746E+03  0.25500000920E-02 0. -1.
    10030    2    1    2    0    0  0.00000000000E+00  0.00000000000E+00  0.55847057612E+03  0.82007267102E+03  0.60052460513E+03 0.  0.
        5    1    3    3  502    0  0.61836977119E+02  0.45538152974E+02  0.67558185973E+03  0.67994887625E+03  0.46999998093E+01 0.  1.
       -5    1    3    3    0  502 -0.61836977119E+02 -0.45538152974E+02 -0.11711128361E+03  0.14012379478E+03  0.46999998093E+01 0. -1.
</event>
<event>
 5   0  0.9822607E-03  0.5994686E+03  0.7818609E-02  0.9906509E-01
        2   -1    0    0  501    0  0.00000000000E+00  0.00000000000E+00  0.99019586903E+03  0.99019586903E+03  0.25500000920E-02 0.  1.
       -2   -1    0    0    0  501  0.00000000000E+00  0.00000000000E+00 -0.90730179358E+02  0.90730179394E+02  0.25500000920E-02 0. -1.
    10030    2    1    2    0    0  0.00000000000E+00  0.00000000000E+00  0.89946568967E+03  0.10809260484E+04  0.59946859407E+03 0.  0.
        3    1    3    3  502    0 -0.10560599177E+03  0.14289427163E+03  0.88499331313E+03  0.90265418232E+03  0.10100000352E+00 0.  1.
       -3    1    3    3    0  502  0.10560599177E+03 -0.14289427163E+03  0.14472376537E+02  0.17827186611E+03  0.10100000352E+00 0. -1.
</event>
<event>
 5   0  0.9303190E-03  0.5997259E+03  0.7818609E-02  0.9905975E-01
       -2   -1    0    0    0  501  0.00000000000E+00  0.00000000000E+00  0.37407458952E+03  0.37407458953E+03  0.25500000920E-02 0. -1.
        2   -1    0    0  501    0  0.00000000000E+00  0.00000000000E+00 -0.24037393114E+03  0.24037393115E+03  0.25500000920E-02 0.  1.
    10030    2    1    2    0    0  0.00000000000E+00  0.00000000000E+00  0.13370065838E+03  0.61444852069E+03  0.59972586948E+03 0.  0.
        4    1    3    3  502    0 -0.24231907761E+03  0.21828180208E+02 -0.11272701268E+03  0.26814920681E+03  0.12699999809E+01 0.  1.
       -4    1    3    3    0  502  0.24231907761E+03 -0.21828180208E+02  0.24642767106E+03  0.34629931388E+03  0.12699999809E+01 0. -1.
</event>
<event>
 5   0  0.6078658E-03  0.5993251E+03  0.7818609E-02  0.9906807E-01
       -1   -1    0    0    0  501  0.00000000000E+00  0.00000000000E+00  0.88452449060E+02  0.88452449204E+02  0.50400001928E-02 0. -1.
        1   -1    0    0  501    0  0.00000000000E+00  0.00000000000E+00 -0.10152079775E+04  0.10152079775E+04  0.50400001928E-02 0.  1.
    10030    2    1    2    0    0  0.00000000000E+00  0.00000000000E+00 -0.92675552844E+03  0.11036604267E+04  0.59932506039E+03 0.  0.
        2    1    3    3  502    0 -0.23611519947E+03 -0.86056397006E+02 -0.76395265953E+03  0.80422618516E+03  0.25500000920E-02 0.  1.
       -2    1    3    3    0  502  0.23611519947E+03  0.86056397006E+02 -0.16280286891E+03  0.29943424155E+03  0.25500000920E-02 0. -1.
</event>
<event>
 5   0  0.9822607E-03  0.5994579E+03  0.7818609E-02  0.9906531E-01
        2   -1    0    0  501    0  0.00000000000E+00  0.00000000000E+00  0.42324778886E+03  0.42324778886E+03  0.25500000920E-02 0. -1.
       -2   -1    0    0    0  501  0.00000000000E+00  0.00000000000E+00 -0.21225733328E+03  0.21225733329E+03  0.25500000920E-02 0.  1.
    10030    2    1    2    0    0  0.00000000000E+00  0.00000000000E+00  0.21099045558E+03  0.63550512216E+03  0.59945791174E+03 0.  0.
        3    1    3    3  502    0 -0.25502694857E+03  0.15617747811E+03  0.84100293156E+02  0.31064935003E+03  0.10100000352E+00 0.  1.
       -3    1    3    3    0  502  0.25502694857E+03 -0.15617747811E+03  0.12689016242E+03  0.32485577213E+03  0.10100000352E+00 0. -1.
</event>
<event>
 5   0  0.5790967E-03  0.6010803E+03  0.7818609E-02  0.9903167E-01
       -1   -1    0    0    0  501  0.00000000000E+00  0.00000000000E+00  0.81649065686E+02  0.81649065842E+02  0.50400001928E-02 0.  1.
        1   -1    0    0  501    0  0.00000000000E+00  0.00000000000E+00 -0.11062513314E+04  0.11062513314E+04  0.50400001928E-02 0. -1.
    10030    2    1    2    0    0  0.00000000000E+00  0.00000000000E+00 -0.10246022657E+04  0.11879003972E+04  0.60108031983E+03 0.  0.
        3    1    3    3  502    0  0.29472509042E+03 -0.42669743727E+02 -0.43224875682E+03  0.52490245182E+03  0.10100000352E+00 0. -1.
       -3    1    3    3    0  502 -0.29472509042E+03  0.42669743727E+02 -0.59235350889E+03  0.66299794543E+03  0.10100000352E+00 0.  1.
</event>
<event>
 5   0  0.9303190E-03  0.5999472E+03  0.7818609E-02  0.9905516E-01
       -2   -1    0    0    0  501  0.00000000000E+00  0.00000000000E+00  0.37314349009E+03  0.37314349010E+03  0.25500000920E-02 0.  1.
        2   -1    0    0  501    0  0.00000000000E+00  0.00000000000E+00 -0.24115166487E+03  0.24115166489E+03  0.25500000920E-02 0. -1.
    10030    2    1    2    0    0  0.00000000000E+00  0.00000000000E+00  0.13199182522E+03  0.61429515499E+03  0.59994724394E+03 0.  0.
        4    1    3    3  502    0 -0.12888410212E+03 -0.30644055928E+02  0.34156496213E+03  0.36635830303E+03  0.12699999809E+01 0.  1.
       -4    1    3    3    0  502  0.12888410212E+03  0.30644055928E+02 -0.20957313691E+03  0.24793685196E+03  0.12699999809E+01 0. -1.
</event>
<event>
 5   0  0.5765045E-03  0.5998997E+03  0.7818609E-02  0.9905614E-01
       -1   -1    0    0    0  501  0.00000000000E+00  0.00000000000E+00  0.20394303023E+03  0.20394303029E+03  0.50400001928E-02 0.  1.
        1   -1    0    0  501    0  0.00000000000E+00  0.00000000000E+00 -0.44115211312E+03  0.44115211315E+03  0.50400001928E-02 0. -1.
    10030    2    1    2    0    0  0.00000000000E+00  0.00000000000E+00 -0.23720908289E+03  0.64509514344E+03  0.59989965418E+03 0.  0.
        1    1    3    3  502    0 -0.27026658234E+03  0.16358194493E+02 -0.25739521220E+03  0.37358253619E+03  0.50400001928E-02 0. -1.
       -1    1    3    3    0  502  0.27026658234E+03 -0.16358194493E+02  0.20186129308E+02  0.27151260725E+03  0.50400001928E-02 0.  1.
</event>
<event>
 5   0  0.9162342E-03  0.5978411E+03  0.7818609E-02  0.9909895E-01
        2   -1    0    0  501    0  0.00000000000E+00  0.00000000000E+00  0.64389828509E+03  0.64389828510E+03  0.25500000920E-02 0. -1.
       -2   -1    0    0    0  501  0.00000000000E+00  0.00000000000E+00 -0.13876959688E+03  0.13876959691E+03  0.25500000920E-02 0.  1.
    10030    2    1    2    0    0  0.00000000000E+00  0.00000000000E+00  0.50512868821E+03  0.78266788200E+03  0.59784113430E+03 0.  0.
        5    1    3    3  502    0 -0.14912750479E+03 -0.20450489957E+03  0.46067562339E+03  0.52564758786E+03  0.46999998093E+01 0. -1.
       -5    1    3    3    0  502  0.14912750479E+03  0.20450489957E+03  0.44453064816E+02  0.25702029415E+03  0.46999998093E+01 0.  1.
</event>
<event>
 5   0  0.5819446E-03  0.5995139E+03  0.7818609E-02  0.9906415E-01
       -1   -1    0    0    0  501  0.00000000000E+00  0.00000000000E+00  0.84718188909E+03  0.84718188910E+03  0.50400001928E-02 0.  1.
        1   -1    0    0  501    0  0.00000000000E+00  0.00000000000E+00 -0.10606249927E+03  0.10606249939E+03  0.50400001928E-02 0. -1.
    10030    2    1    2    0    0  0.00000000000E+00  0.00000000000E+00  0.74111938982E+03  0.95324438849E+03  0.59951389828E+03 0.  0.
        5    1    3    3  502    0  0.20999605236E+03  0.21008705753E+03  0.43410566665E+03  0.52602731257E+03  0.46999998093E+01 0. -1.
       -5    1    3    3    0  502 -0.20999605236E+03 -0.21008705753E+03  0.30701372317E+03  0.42721707592E+03  0.46999998093E+01 0.  1.
</event>
<event>
 5   0  0.5819446E-03  0.6004103E+03  0.7818609E-02  0.9904555E-01
        1   -1    0    0  501    0  0.00000000000E+00  0.00000000000E+00  0.26312871160E+03  0.26312871165E+03  0.50400001928E-02 0. -1.
       -1   -1    0    0    0  501  0.00000000000E+00  0.00000000000E+00 -0.34250586010E+03  0.34250586014E+03  0.50400001928E-02 0.  1.
    10030    2    1    2    0    0  0.00000000000E+00  0.00000000000E+00 -0.79377148502E+02  0.60563457178E+03  0.60041027876E+03 0.  0.
        5    1    3    3  502    0  0.52599354637E+02 -0.11519443549E+03  0.23482753720E+03  0.26683798887E+03  0.46999998093E+01 0. -1.
       -5    1    3    3    0  502 -0.52599354637E+02  0.11519443549E+03 -0.31420468571E+03  0.33879658291E+03  0.46999998093E+01 0.  1.
</event>
<event>
 5   0  0.9162342E-03  0.5999441E+03  0.7818609E-02  0.9905522E-01
        2   -1    0    0  501    0  0.00000000000E+00  0.00000000000E+00  0.38478490639E+03  0.38478490640E+03  0.25500000920E-02 0.  1.
       -2   -1    0    0    0  501  0.00000000000E+00  0.00000000000E+00 -0.23385335245E+03  0.23385335246E+03  0.25500000920E-02 0. -1.
    10030    2    1    2    0    0  0.00000000000E+00  0.00000000000E+00  0.15093155394E+03  0.61863825886E+03  0.59994413186E+03 0.  0.
        5    1    3    3  502    0  0.15039029568E+03 -0.25632629649E+03  0.11723397315E+03  0.31950947680E+03  0.46999998093E+01 0.  1.
       -5    1    3    3    0  502 -0.15039029568E+03  0.25632629649E+03  0.33697580791E+02  0.29912878206E+03  0.46999998093E+01 0. -1.
</event>
<event>
 5   0  0.5891927E-03  0.5986722E+03  0.7818609E-02  0.9908165E-01
       -1   -1    0    0    0  501  0.00000000000E+00  0.00000000000E+00  0.95582074789E+02  0.95582074922E+02  0.50400001928E-02 0.  1.
        1   -1    0    0  501    0  0.00000000000E+00  0.00000000000E+00 -0.93743625177E+03  0.93743625178E+03  0.50400001928E-02 0. -1.
    10030    2    1    2    0    0  0.00000000000E+00  0.00000000000E+00 -0.84185417698E+03  0.10330183267E+04  0.59867220414E+03 0.  0.
        4    1    3    3  502    0 -0.25355872804E+03  0.65794436112E+02 -0.17099786258E+03  0.31283033468E+03  0.12699999809E+01 0.  1.
       -4    1    3    3    0  502  0.25355872804E+03 -0.65794436112E+02 -0.67085631440E+03  0.72018799203E+03  0.12699999809E+01 0. -1.
</event>
<event>
 5   0  0.5891927E-03  0.6003808E+03  0.7818609E-02  0.9904616E-01
       -1   -1    0    0    0  501  0.00000000000E+00  0.00000000000E+00  0.11852345700E+03  0.11852345711E+03  0.50400001928E-02 0. -1.
        1   -1    0    0  501    0  0.00000000000E+00  0.00000000000E+00 -0.76030761050E+03  0.76030761051E+03  0.50400001928E-02 0.  1.
    10030    2    1    2    0    0  0.00000000000E+00  0.00000000000E+00 -0.64178415350E+03  0.87883106762E+03  0.60038083392E+03 0.  0.
        4    1    3    3  502    0 -0.14802831795E+03 -0.18964332310E+03 -0.58370525511E+03  0.63134017032E+03  0.12699999809E+01 0.  1.
       -4    1    3    3    0  502  0.14802831795E+03  0.18964332310E+03 -0.58078898382E+02  0.24749089731E+03  0.12699999809E+01 0. -1.
</event>
<event>
 5   0  0.5819446E-03  0.6004434E+03  0.7818609E-02  0.9904486E-01
       -1   -1    0    0    0  501  0.00000000000E+00  0.00000000000E+00  0.65035374585E+02  0.65035374780E+02  0.50400001928E-02 0. -1.
        1   -1    0    0  501    0  0.00000000000E+00  0.00000000000E+00 -0.13859085684E+04  0.13859085684E+04  0.50400001928E-02 0.  1.
    10030    2    1    2    0    0  0.00000000000E+00  0.00000000000E+00 -0.13208731938E+04  0.14509439432E+04  0.60044344625E+03 0.  0.
        5    1    3    3  502    0  0.17099449443E+03  0.24643867751E+03 -0.63185962641E+03  0.69945680094E+03  0.46999998093E+01 0. -1.
       -5    1    3    3    0  502 -0.17099449443E+03 -0.24643867751E+03 -0.68901356740E+03  0.75148714224E+03  0.46999998093E+01 0.  1.
</event>
<event>
 5   0  0.6078658E-03  0.5999695E+03  0.7818609E-02  0.9905469E-01
        1   -1    0    0  501    0  0.00000000000E+00  0.00000000000E+00  0.75818864218E+03  0.75818864219E+03  0.50400001928E-02 0.  1.
       -1   -1    0    0    0  501  0.00000000000E+00  0.00000000000E+00 -0.11869190304E+03  0.11869190315E+03  0.50400001928E-02 0. -1.
    10030    2    1    2    0    0  0.00000000000E+00  0.00000000000E+00  0.63949673913E+03  0.87688054534E+03  0.59996950876E+03 0.  0.
        2    1    3    3  502    0  0.28381986764E+02 -0.52798102367E+02  0.74934640414E+03  0.75174012144E+03  0.25500000920E-02 0.  1.
       -2    1    3    3    0  502 -0.28381986764E+02  0.52798102367E+02 -0.10984966500E+03  0.12514042390E+03  0.25500000920E-02 0. -1.
</event>
<event>
 5   0  0.5891927E-03  0.6001784E+03  0.7818609E-02  0.9905036E-01
        1   -1    0    0  501    0  0.00000000000E+00  0.00000000000E+00  0.44134136017E+03  0.44134136020E+03  0.50400001928E-02 0. -1.
       -1   -1    0    0    0  501  0.00000000000E+00  0.00000000000E+00 -0.20404509631E+03  0.20404509637E+03  0.50400001928E-02 0.  1.
    10030    2    1    2    0    0  0.00000000000E+00  0.00000000000E+00  0.23729626387E+03  0.64538645657E+03  0.60017844137E+03 0.  0.
        4    1    3    3  502    0 -0.18850820090E+03  0.23323812980E+03  0.13025767439E+03  0.32696183514E+03  0.12699999809E+01 0.  1.
       -4    1    3    3    0  502  0.18850820090E+03 -0.23323812980E+03  0.10703858948E+03  0.31842462144E+03  0.12699999809E+01 0. -1.
</event>
<event>
 5   0  0.5891927E-03  0.6025217E+03  0.7818609E-02  0.9900188E-01
       -1   -1    0    0    0  501  0.00000000000E+00  0.00000000000E+00  0.19246658916E+03  0.19246658923E+03  0.50400001928E-02 0.  1.
        1   -1    0    0  501    0  0.00000000000E+00  0.00000000000E+00 -0.47155250027E+03  0.47155250030E+03  0.50400001928E-02 0. -1.
    10030    2    1    2    0    0  0.00000000000E+00  0.00000000000E+00 -0.27908591111E+03  0.66401908953E+03  0.60252170540E+03 0.  0.
        4    1    3    3  502    0 -0.17300046047E+03  0.24258485944E+03 -0.90505135673E+02  0.31139904598E+03  0.12699999809E+01 0.  1.
       -4    1    3    3    0  502  0.17300046047E+03 -0.24258485944E+03 -0.18858077544E+03  0.35262004355E+03  0.12699999809E+01 0. -1.
</event>
<event>
 5   0  0.5765045E-03  0.5989431E+03  0.7818609E-02  0.9907601E-01
        1   -1    0    0  501    0  0.00000000000E+00  0.00000000000E+00  0.42042056595E+03  0.42042056598E+03  0.50400001928E-02 0. -1.
       -1   -1    0    0    0  501  0.00000000000E+00  0.00000000000E+00 -0.21331784102E+03  0.21331784108E+03  0.50400001928E-02 0.  1.
    10030    2    1    2    0    0  0.00000000000E+00  0.00000000000E+00  0.20710272494E+03  0.63373840706E+03  0.59894309405E+03 0.  0.
        1    1    3    3  502    0  0.13159046450E+03 -0.20912999166E+03 -0.75488122547E+02  0.25835994355E+03  0.50400001928E-02 0.  1.
       -1    1    3    3    0  502 -0.13159046450E+03  0.20912999166E+03  0.28259084748E+03  0.37537846351E+03  0.50400001928E-02 0. -1.
</event>
<event>
 5   0  0.9391405E-03  0.6000628E+03  0.7818609E-02  0.9905276E-01
       -2   -1    0    0    0  501  0.00000000000E+00  0.00000000000E+00  0.19046505573E+03  0.19046505574E+03  0.25500000920E-02 0. -1.
        2   -1    0    0  501    0  0.00000000000E+00  0.00000000000E+00 -0.47262652999E+03  0.47262653000E+03  0.25500000920E-02 0.  1.
    10030    2    1    2    0    0  0.00000000000E+00  0.00000000000E+00 -0.28216147426E+03  0.66309158574E+03  0.60006279131E+03 0.  0.
        2    1    3    3  502    0 -0.14840140573E+03  0.13513201099E+03 -0.38751935066E+03  0.43641137103E+03  0.25500000920E-02 0.  1.
       -2    1    3    3    0  502  0.14840140573E+03 -0.13513201099E+03  0.10535787640E+03  0.22668021471E+03  0.25500000920E-02 0. -1.
</event>
<event>
 5   0  0.5765045E-03  0.5987769E+03  0.7818609E-02  0.9907947E-01
       -1   -1    0    0    0  501  0.00000000000E+00  0.00000000000E+00  0.68336220185E+02  0.68336220371E+02  0.50400001928E-02 0.  1.
        1   -1    0    0  501    0  0.00000000000E+00  0.00000000000E+00 -0.13116536672E+04  0.13116536672E+04  0.50400001928E-02 0. -1.
    10030    2    1    2    0    0  0.00000000000E+00  0.00000000000E+00 -0.12433174470E+04  0.13799898876E+04  0.59877693323E+03 0.  0.
        1    1    3    3  502    0 -0.19103804754E+03 -0.12030429817E+03 -0.10748365932E+04  0.10982906545E+04  0.50400001928E-02 0. -1.
       -1    1    3    3    0  502  0.19103804754E+03  0.12030429817E+03 -0.16848085383E+03  0.28169923305E+03  0.50400001928E-02 0.  1.
</event>
<event>
 5   0  0.5891927E-03  0.5986149E+03  0.7818609E-02  0.9908284E-01
       -1   -1    0    0    0  501  0.00000000000E+00  0.00000000000E+00  0.46710624515E+02  0.46710624787E+02  0.50400001928E-02 0.  1.
        1   -1    0    0  501    0  0.00000000000E+00  0.00000000000E+00 -0.19178710691E+04  0.19178710691E+04  0.50400001928E-02 0. -1.
    10030    2    1    2    0    0  0.00000000000E+00  0.00000000000E+00 -0.18711604446E+04  0.19645816939E+04  0.59861492013E+03 0.  0.
        4    1    3    3  502    0  0.19213396654E+03  0.24364756507E+02 -0.16844978055E+04  0.16955953445E+04  0.12699999809E+01 0. -1.
       -4    1    3    3    0  502 -0.19213396654E+03 -0.24364756507E+02 -0.18666263907E+03  0.26898634944E+03  0.12699999809E+01 0.  1.
</event>
<event>
 5   0  0.9162342E-03  0.6005602E+03  0.7818609E-02  0.9904244E-01
       -2   -1    0    0    0  501  0.00000000000E+00  0.00000000000E+00  0.72764016821E+02  0.72764016866E+02  0.25500000920E-02 0. -1.
        2   -1    0    0  501    0  0.00000000000E+00  0.00000000000E+00 -0.12391858930E+04  0.12391858930E+04  0.25500000920E-02 0.  1.
    10030    2    1    2    0    0  0.00000000000E+00  0.00000000000E+00 -0.11664218762E+04  0.13119499099E+04  0.60056021578E+03 0.  0.
        5    1    3    3  502    0 -0.24177513860E+03 -0.17151948845E+03 -0.47908585498E+03  0.56339994587E+03  0.46999998093E+01 0. -1.
       -5    1    3    3    0  502  0.24177513860E+03  0.17151948845E+03 -0.68733602120E+03  0.74854996400E+03  0.46999998093E+01 0.  1.
</event>
<event>
 5   0  0.9162342E-03  0.5999981E+03  0.7818609E-02  0.9905410E-01
        2   -1    0    0  501    0  0.00000000000E+00  0.00000000000E+00  0.96437496943E+03  0.96437496943E+03  0.25500000920E-02 0. -1.
       -2   -1    0    0    0  501  0.00000000000E+00  0.00000000000E+00 -0.93324097454E+02  0.93324097489E+02  0.25500000920E-02 0.  1.
    10030    2    1    2    0    0  0.00000000000E+00  0.00000000000E+00  0.87105087197E+03  0.10576990669E+04  0.59999807883E+03 0.  0.
        5    1    3    3  502    0  0.26732149350E+03  0.13596447028E+03  0.44521552529E+03  0.53682964898E+03  0.46999998093E+01 0. -1.
       -5    1    3    3    0  502 -0.26732149350E+03 -0.13596447028E+03  0.42583534668E+03  0.52086941794E+03  0.46999998093E+01 0.  1.
</event>
<event>
 5   0  0.5790967E-03  0.6003109E+03  0.7818609E-02  0.9904761E-01
       -1   -1    0    0    0  501  0.00000000000E+00  0.00000000000E+00  0.38946884546E+03  0.38946884549E+03  0.50400001928E-02 0.  1.
        1   -1    0    0  501    0  0.00000000000E+00  0.00000000000E+00 -0.23132353246E+03  0.23132353251E+03  0.50400001928E-02 0. -1.
    10030    2    1    2    0    0  0.00000000000E+00  0.00000000000E+00  0.15814531300E+03  0.62079237800E+03  0.60031094989E+03 0.  0.
        3    1    3    3  502    0  0.51542945658E+02  0.28000316983E+03 -0.19222145030E+02  0.28535583299E+03  0.10100000352E+00 0. -1.
       -3    1    3    3    0  502 -0.51542945658E+02 -0.28000316983E+03  0.17736745803E+03  0.33543654501E+03  0.10100000352E+00 0.  1.
</event>
<event>
 5   0  0.5891927E-03  0.5987147E+03  0.7818609E-02  0.9908076E-01
        1   -1    0    0  501    0  0.00000000000E+00  0.00000000000E+00  0.54088857281E+03  0.54088857283E+03  0.50400001928E-02 0. -1.
       -1   -1    0    0    0  501  0.00000000000E+00  0.00000000000E+00 -0.16568072127E+03  0.16568072135E+03  0.50400001928E-02 0.  1.
    10030    2    1    2    0    0  0.00000000000E+00  0.00000000000E+00  0.37520785153E+03  0.70656929418E+03  0.59871465292E+03 0.  0.
        4    1    3    3  502    0  0.24877491503E+03  0.12043385294E+03  0.32329440118E+03  0.42534004515E+03  0.12699999809E+01 0. -1.
       -4    1    3    3    0  502 -0.24877491503E+03 -0.12043385294E+03  0.51913450356E+02  0.28122924903E+03  0.12699999809E+01 0.  1.
</event>
<event>
 5   0  0.6078658E-03  0.6010994E+03  0.7818609E-02  0.9903128E-01
       -1   -1    0    0    0  501  0.00000000000E+00  0.00000000000E+00  0.15301100695E+03  0.15301100703E+03  0.50400001928E-02 0. -1.
        1   -1    0    0  501    0  0.00000000000E+00  0.00000000000E+00 -0.59035051859E+03  0.59035051861E+03  0.50400001928E-02 0.  1.
    10030    2    1    2    0    0  0.00000000000E+00  0.00000000000E+00 -0.43733951164E+03  0.74336152564E+03  0.60109941721E+03 0.  0.
        2    1    3    3  502    0 -0.11125577500E+03 -0.51707879196E+01 -0.56388796128E+03  0.57478188681E+03  0.25500000920E-02 0.  1.
       -2    1    3    3    0  502  0.11125577500E+03  0.51707879196E+01  0.12654844964E+03  0.16857963884E+03  0.25500000920E-02 0. -1.
</event>
<event>
 5   0  0.9303190E-03  0.6001772E+03  0.7818609E-02  0.9905038E-01
        2   -1    0    0  501    0  0.00000000000E+00  0.00000000000E+00  0.25842717176E+03  0.25842717177E+03  0.25500000920E-02 0.  1.
       -2   -1    0    0    0  501  0.00000000000E+00  0.00000000000E+00 -0.34846637204E+03  0.34846637205E+03  0.25500000920E-02 0. -1.
    10030    2    1    2    0    0  0.00000000000E+00  0.00000000000E+00 -0.90039200284E+02  0.60689354382E+03  0.60017723710E+03 0.  0.
        4    1    3    3  502    0 -0.22154922486E+02 -0.11697492754E+02 -0.34740428176E+03  0.34830879951E+03  0.12699999809E+01 0. -1.
       -4    1    3    3    0  502  0.22154922486E+02  0.11697492754E+02  0.25736508148E+03  0.25858474431E+03  0.12699999809E+01 0.  1.
</event>
<event>
 5   0  0.5819446E-03  0.6002618E+03  0.7818609E-02  0.9904863E-01
        1   -1    0    0  501    0  0.00000000000E+00  0.00000000000E+00  0.44183451122E+03  0.44183451124E+03  0.50400001928E-02 0. -1.
       -1   -1    0    0    0  501  0.00000000000E+00  0.00000000000E+00 -0.20387400624E+03  0.20387400630E+03  0.50400001928E-02 0.  1.
    10030    2    1    2    0    0  0.00000000000E+00  0.00000000000E+00  0.23796050498E+03  0.64570851754E+03  0.60026184928E+03 0.  0.
        5    1    3    3  502    0 -0.44379479386E+02 -0.25284941998E+03 -0.48202447269E+02  0.26124305406E+03  0.46999998093E+01 0.  1.
       -5    1    3    3    0  502  0.44379479386E+02  0.25284941998E+03  0.28616295225E+03  0.38446546348E+03  0.46999998093E+01 0. -1.
</event>
<event>
 5   0  0.5790967E-03  0.6029420E+03  0.7818609E-02  0.9899321E-01
       -1   -1    0    0    0  501  0.00000000000E+00  0.00000000000E+00  0.15072910848E+03  0.15072910856E+03  0.50400001928E-02 0. -1.
        1   -1    0    0  501    0  0.00000000000E+00  0.00000000000E+00 -0.60296753448E+03  0.60296753450E+03  0.50400001928E-02 0.  1.
    10030    2    1    2    0    0  0.00000000000E+00  0.00000000000E+00 -0.45223842601E+03  0.75369664307E+03  0.60294198379E+03 0.  0.
        3    1    3    3  502    0  0.15799086883E+03  0.24933961367E+03 -0.14953610815E+03  0.33089638170E+03  0.10100000352E+00 0. -1.
       -3    1    3    3    0  502 -0.15799086883E+03 -0.24933961367E+03 -0.30270231785E+03  0.42280026137E+03  0.10100000352E+00 0.  1.
</event>
<event>
 5   0  0.9391405E-03  0.5955244E+03  0.7818609E-02  0.9914735E-01
       -2   -1    0    0    0  501  0.00000000000E+00  0.00000000000E+00  0.29498491622E+03  0.29498491623E+03  0.25500000920E-02 0.  1.
        2   -1    0    0  501    0  0.00000000000E+00  0.00000000000E+00 -0.30056560730E+03  0.30056560731E+03  0.25500000920E-02 0. -1.
    10030    2    1    2    0    0  0.00000000000E+00  0.00000000000E+00 -0.55806910797E+01  0.59555052354E+03  0.59552437563E+03 0.  0.
        2    1    3    3  502    0 -0.11517605680E+02  0.29287474273E+03 -0.55271696188E+02  0.29826704575E+03  0.25500000920E-02 0. -1.
       -2    1    3    3    0  502  0.11517605680E+02 -0.29287474273E+03  0.49691005108E+02  0.29728347779E+03  0.25500000920E-02 0.  1.
</event>
<event>
 5   0  0.9162342E-03  0.6003474E+03  0.7818609E-02  0.9904685E-01
       -2   -1    0    0    0  501  0.00000000000E+00  0.00000000000E+00  0.18944664264E+03  0.18944664266E+03  0.25500000920E-02 0.  1.
        2   -1    0    0  501    0  0.00000000000E+00  0.00000000000E+00 -0.47561816162E+03  0.47561816163E+03  0.25500000920E-02 0. -1.
    10030    2    1    2    0    0  0.00000000000E+00  0.00000000000E+00 -0.28617151898E+03  0.66506480429E+03  0.60034744576E+03 0.  0.
        5    1    3    3  502    0  0.20860701613E+03 -0.12902496864E+02  0.95538574883E+02  0.22985445589E+03  0.46999998093E+01 0.  1.
       -5    1    3    3    0  502 -0.20860701613E+03  0.12902496864E+02 -0.38171009386E+03  0.43521034840E+03  0.46999998093E+01 0. -1.
</event>
<event>
 5   0  0.9822607E-03  0.5995294E+03  0.7818609E-02  0.9906383E-01
       -2   -1    0    0    0  501  0.00000000000E+00  0.00000000000E+00  0.20970195045E+03  0.20970195047E+03  0.25500000920E-02 0.  1.
        2   -1    0    0  501    0  0.00000000000E+00  0.00000000000E+00 -0.42850764331E+03  0.42850764332E+03  0.25500000920E-02 0. -1.
    10030    2    1    2    0    0  0.00000000000E+00  0.00000000000E+00 -0.21880569286E+03  0.63820959379E+03  0.59952944413E+03 0.  0.
        3    1    3    3  502    0  0.17320660222E+03 -0.21644890045E+03 -0.23081490667E+03  0.36073007207E+03  0.10100000352E+00 0. -1.
       -3    1    3    3    0  502 -0.17320660222E+03  0.21644890045E+03  0.12009213805E+02  0.27747952172E+03  0.10100000352E+00 0.  1.
</event>
<event>
 5   0  0.3806250E-03  0.5971385E+03  0.7818609E-02  0.9911361E-01
       -4   -1    0    0    0  501  0.00000000000E+00  0.00000000000E+00  0.20717334368E+03  0.20717723628E+03  0.12699999809E+01 0. -1.
        4   -1    0    0  501    0  0.00000000000E+00  0.00000000000E+00 -0.43027613095E+03  0.43027800521E+03  0.12699999809E+01 0.  1.
    10030    2    1    2    0    0  0.00000000000E+00  0.00000000000E+00 -0.22310278727E+03  0.63745524148E+03  0.59713845229E+03 0.  0.
        1    1    3    3  502    0 -0.23586332066E+03 -0.18302303111E+03 -0.10746588205E+03  0.31729773365E+03  0.50400001928E-02 0.  1.
       -1    1    3    3    0  502  0.23586332066E+03  0.18302303111E+03 -0.11563690522E+03  0.32015750783E+03  0.50400001928E-02 0. -1.
</event>
<event>
 5   0  0.9822607E-03  0.6000224E+03  0.7818609E-02  0.9905360E-01
       -2   -1    0    0    0  501  0.00000000000E+00  0.00000000000E+00  0.84804612153E+02  0.84804612191E+02  0.25500000920E-02 0.  1.
        2   -1    0    0  501    0  0.00000000000E+00  0.00000000000E+00 -0.10613423768E+04  0.10613423768E+04  0.25500000920E-02 0. -1.
    10030    2    1    2    0    0  0.00000000000E+00  0.00000000000E+00 -0.97653776463E+03  0.11461469890E+04  0.60002242841E+03 0.  0.
        3    1    3    3  502    0 -0.26563504710E+03 -0.13365757333E+03 -0.41233153495E+03  0.50837351433E+03  0.10100000352E+00 0.  1.
       -3    1    3    3    0  502  0.26563504710E+03  0.13365757333E+03 -0.56420622968E+03  0.63777347465E+03  0.10100000352E+00 0. -1.
</event>
<event>
 5   0  0.5819446E-03  0.6009772E+03  0.7818609E-02  0.9903381E-01
        1   -1    0    0  501    0  0.00000000000E+00  0.00000000000E+00  0.51771800227E+03  0.51771800229E+03  0.50400001928E-02 0.  1.
       -1   -1    0    0    0  501  0.00000000000E+00  0.00000000000E+00 -0.17440652355E+03  0.17440652363E+03  0.50400001928E-02 0. -1.
    10030    2    1    2    0    0  0.00000000000E+00  0.00000000000E+00  0.34331147871E+03  0.69212452592E+03  0.60097719421E+03 0.  0.
        5    1    3    3  502    0 -0.20436468705E+03  0.13964583898E+02  0.42479000244E+03  0.47162333603E+03  0.46999998093E+01 0.  1.
       -5    1    3    3    0  502  0.20436468705E+03 -0.13964583898E+02 -0.81478523727E+02  0.22050118989E+03  0.46999998093E+01 0. -1.
</event>
<event>
 5   0  0.5790967E-03  0.6001062E+03  0.7818609E-02  0.9905186E-01
       -1   -1    0    0    0  501  0.00000000000E+00  0.00000000000E+00  0.20573491511E+03  0.20573491517E+03  0.50400001928E-02 0.  1.
        1   -1    0    0  501    0  0.00000000000E+00  0.00000000000E+00 -0.43761106439E+03  0.43761106442E+03  0.50400001928E-02 0. -1.
    10030    2    1    2    0    0  0.00000000000E+00  0.00000000000E+00 -0.23187614928E+03  0.64334597958E+03  0.60010624130E+03 0.  0.
        3    1    3    3  502    0 -0.16107820505E+03 -0.25228578638E+03 -0.93512959158E+02  0.31359048117E+03  0.10100000352E+00 0. -1.
       -3    1    3    3    0  502  0.16107820505E+03  0.25228578638E+03 -0.13836319012E+03  0.32975549841E+03  0.10100000352E+00 0.  1.
</event>
<event>
 5   0  0.3806250E-03  0.6026724E+03  0.7818609E-02  0.9899877E-01
       -3   -1    0    0    0  501  0.00000000000E+00  0.00000000000E+00  0.66706161118E+03  0.66706161883E+03  0.10100000352E+00 0. -1.
        3   -1    0    0  501    0  0.00000000000E+00  0.00000000000E+00 -0.13612457615E+03  0.13612461362E+03  0.10100000352E+00 0.  1.
    10030    2    1    2    0    0  0.00000000000E+00  0.00000000000E+00  0.53093703503E+03  0.80318623245E+03  0.60267237270E+03 0.  0.
        4    1    3    3  502    0 -0.19761808994E+02  0.24560782157E+03  0.34297844132E+02  0.24878039738E+03  0.12699999809E+01 0.  1.
       -4    1    3    3    0  502  0.19761808994E+02 -0.24560782157E+03  0.49663919090E+03  0.55440583506E+03  0.12699999809E+01 0. -1.
</event>
<event>
 5   0  0.5891927E-03  0.6009045E+03  0.7818609E-02  0.9903531E-01
       -1   -1    0    0    0  501  0.00000000000E+00  0.00000000000E+00  0.47173492227E+03  0.47173492230E+03  0.50400001928E-02 0. -1.
        1   -1    0    0  501    0  0.00000000000E+00  0.00000000000E+00 -0.19136079267E+03  0.19136079274E+03  0.50400001928E-02 0.  1.
    10030    2    1    2    0    0  0.00000000000E+00  0.00000000000E+00  0.28037412960E+03  0.66309571504E+03  0.60090454712E+03 0.  0.
        4    1    3    3  502    0 -0.18001119474E+03  0.24018695859E+03  0.15483284956E+03  0.33774047656E+03  0.12699999809E+01 0. -1.
       -4    1    3    3    0  502  0.18001119474E+03 -0.24018695859E+03  0.12554128004E+03  0.32535523847E+03  0.12699999809E+01 0.  1.
</event>
<event>
 5   0  0.9303190E-03  0.6036817E+03  0.7818609E-02  0.9897797E-01
       -2   -1    0    0    0  501  0.00000000000E+00  0.00000000000E+00  0.78026859132E+02  0.78026859173E+02  0.25500000920E-02 0.  1.
        2   -1    0    0  501    0  0.00000000000E+00  0.00000000000E+00 -0.11676477199E+04  0.11676477199E+04  0.25500000920E-02 0. -1.
    10030    2    1    2    0    0  0.00000000000E+00  0.00000000000E+00 -0.10896208607E+04  0.12456745790E+04  0.60368165180E+03 0.  0.
        4    1    3    3  502    0 -0.27038484537E+02  0.21264489101E+03 -0.98330155856E+03  0.10063957955E+04  0.12699999809E+01 0. -1.
       -4    1    3    3    0  502  0.27038484537E+02 -0.21264489101E+03 -0.10631930217E+03  0.23927878349E+03  0.12699999809E+01 0.  1.
</event>
<event>
 5   0  0.5891927E-03  0.6006401E+03  0.7818609E-02  0.9904079E-01
       -1   -1    0    0    0  501  0.00000000000E+00  0.00000000000E+00  0.59044933451E+02  0.59044933666E+02  0.50400001928E-02 0. -1.
        1   -1    0    0  501    0  0.00000000000E+00  0.00000000000E+00 -0.15275170954E+04  0.15275170954E+04  0.50400001928E-02 0.  1.
    10030    2    1    2    0    0  0.00000000000E+00  0.00000000000E+00 -0.14684721619E+04  0.15865620291E+04  0.60064014325E+03 0.  0.
        4    1    3    3  502    0 -0.27509793456E+03  0.94069136940E+02 -0.93300698210E+03  0.97725714000E+03  0.12699999809E+01 0.  1.
       -4    1    3    3    0  502  0.27509793456E+03 -0.94069136940E+02 -0.53546517985E+03  0.60930488908E+03  0.12699999809E+01 0. -1.
</event>
<event>
 5   0  0.9162342E-03  0.6005272E+03  0.7818609E-02  0.9904313E-01
       -2   -1    0    0    0  501  0.00000000000E+00  0.00000000000E+00  0.12243397321E+03  0.12243397324E+03  0.25500000920E-02 0. -1.
        2   -1    0    0  501    0  0.00000000000E+00  0.00000000000E+00 -0.73638238814E+03  0.73638238814E+03  0.25500000920E-02 0.  1.
    10030    2    1    2    0    0  0.00000000000E+00  0.00000000000E+00 -0.61394841492E+03  0.85881636138E+03  0.60052717373E+03 0.  0.
        5    1    3    3  502    0  0.10117945292E+03  0.26291344212E+03 -0.15852298472E+03  0.32328375527E+03  0.46999998093E+01 0. -1.
       -5    1    3    3    0  502 -0.10117945292E+03 -0.26291344212E+03 -0.45542543020E+03  0.53553260611E+03  0.46999998093E+01 0.  1.
</event>
<event>
 5   0  0.5790967E-03  0.5990233E+03  0.7818609E-02  0.9907435E-01
       -1   -1    0    0    0  501  0.00000000000E+00  0.00000000000E+00  0.57339127320E+02  0.57339127541E+02  0.50400001928E-02 0. -1.
        1   -1    0    0  501    0  0.00000000000E+00  0.00000000000E+00 -0.15645027116E+04  0.15645027117E+04  0.50400001928E-02 0.  1.
    10030    2    1    2    0    0  0.00000000000E+00  0.00000000000E+00 -0.15071635843E+04  0.16218418392E+04  0.59902327288E+03 0.  0.
        3    1    3    3  502    0  0.24798000669E+03  0.18743533343E+02 -0.12055099895E+04  0.12308938820E+04  0.10100000352E+00 0.  1.
       -3    1    3    3    0  502 -0.24798000669E+03 -0.18743533343E+02 -0.30165359481E+03  0.39094795718E+03  0.10100000352E+00 0. -1.
</event>
<event>
 5   0  0.9391405E-03  0.5997710E+03  0.7818609E-02  0.9905881E-01
        2   -1    0    0  501    0  0.00000000000E+00  0.00000000000E+00  0.69131599319E+03  0.69131599319E+03  0.25500000920E-02 0.  1.
       -2   -1    0    0    0  501  0.00000000000E+00  0.00000000000E+00 -0.13008711664E+03  0.13008711666E+03  0.25500000920E-02 0. -1.
    10030    2    1    2    0    0  0.00000000000E+00  0.00000000000E+00  0.56122887655E+03  0.82140310985E+03  0.59977097046E+03 0.  0.
        2    1    3    3  502    0  0.71470512158E+02  0.19847040440E+03  0.57252882755E+03  0.61015391002E+03  0.25500000920E-02 0.  1.
       -2    1    3    3    0  502 -0.71470512158E+02 -0.19847040440E+03 -0.11299951000E+02  0.21124919983E+03  0.25500000920E-02 0. -1.
</event>
<event>
 5   0  0.9303190E-03  0.5999726E+03  0.7818609E-02  0.9905463E-01
        2   -1    0    0  501    0  0.00000000000E+00  0.00000000000E+00  0.18613784899E+04  0.18613784899E+04  0.25500000920E-02 0. -1.
       -2   -1    0    0    0  501  0.00000000000E+00  0.00000000000E+00 -0.48346838990E+02  0.48346839058E+02  0.25500000920E-02 0.  1.
    10030    2    1    2    0    0  0.00000000000E+00  0.00000000000E+00  0.18130316509E+04  0.19097253290E+04  0.59997255344E+03 0.  0.
        4    1    3    3  502    0 -0.21874326814E+03  0.64976357302E+02  0.28668745619E+03  0.36641759619E+03  0.12699999809E+01 0.  1.
       -4    1    3    3    0  502  0.21874326814E+03 -0.64976357302E+02  0.15263441948E+04  0.15433077328E+04  0.12699999809E+01 0. -1.
</event>
<event>
 5   0  0.9391405E-03  0.6001938E+03  0.7818609E-02  0.9905004E-01
        2   -1    0    0  501    0  0.00000000000E+00  0.00000000000E+00  0.62441159224E+03  0.62441159225E+03  0.25500000920E-02 0.  1.
       -2   -1    0    0    0  501  0.00000000000E+00  0.00000000000E+00 -0.14422883238E+03  0.14422883241E+03  0.25500000920E-02 0. -1.
    10030    2    1    2    0    0  0.00000000000E+00  0.00000000000E+00  0.48018275986E+03  0.76864042465E+03  0.60019381832E+03 0.  0.
        2    1    3    3  502    0 -0.28361693499E+03 -0.78490871076E+02  0.31540832298E+03  0.43137198897E+03  0.25500000920E-02 0.  1.
       -2    1    3    3    0  502  0.28361693499E+03  0.78490871076E+02  0.16477443688E+03  0.33726843569E+03  0.25500000920E-02 0. -1.
</event>
<event>
 5   0  0.5891927E-03  0.5992885E+03  0.7818609E-02  0.9906883E-01
       -1   -1    0    0    0  501  0.00000000000E+00  0.00000000000E+00  0.42511484715E+02  0.42511485013E+02  0.50400001928E-02 0.  1.
        1   -1    0    0  501    0  0.00000000000E+00  0.00000000000E+00 -0.21120568281E+04  0.21120568281E+04  0.50400001928E-02 0. -1.
    10030    2    1    2    0    0  0.00000000000E+00  0.00000000000E+00 -0.20695453434E+04  0.21545683131E+04  0.59928848442E+03 0.  0.
        4    1    3    3  502    0 -0.29336595211E+03 -0.37601891493E+02 -0.12074766086E+04  0.12431728992E+04  0.12699999809E+01 0. -1.
       -4    1    3    3    0  502  0.29336595211E+03  0.37601891493E+02 -0.86206873473E+03  0.91139541386E+03  0.12699999809E+01 0.  1.
</event>
<event>
 5   0  0.9162342E-03  0.5990384E+03  0.7818609E-02  0.9907403E-01
       -2   -1    0    0    0  501  0.00000000000E+00  0.00000000000E+00  0.20779582494E+03  0.20779582495E+03  0.25500000920E-02 0. -1.
        2   -1    0    0  501    0  0.00000000000E+00  0.00000000000E+00 -0.43173029521E+03  0.43173029522E+03  0.25500000920E-02 0.  1.
    10030    2    1    2    0    0  0.00000000000E+00  0.00000000000E+00 -0.22393447027E+03  0.63952612017E+03  0.59903840561E+03 0.  0.
        5    1    3    3  502    0  0.17798413673E+03  0.21005225405E+03 -0.23778580525E+03  0.36381929791E+03  0.46999998093E+01 0.  1.
       -5    1    3    3    0  502 -0.17798413673E+03 -0.21005225405E+03  0.13851334974E+02  0.27570682226E+03  0.46999998093E+01 0. -1.
</event>
<event>
 5   0  0.3806250E-03  0.5997830E+03  0.7818609E-02  0.9905856E-01
       -4   -1    0    0    0  501  0.00000000000E+00  0.00000000000E+00  0.53419548963E+03  0.53419699928E+03  0.12699999809E+01 0. -1.
        4   -1    0    0  501    0  0.00000000000E+00  0.00000000000E+00 -0.16835164229E+03  0.16835643250E+03  0.12699999809E+01 0.  1.
    10030    2    1    2    0    0  0.00000000000E+00  0.00000000000E+00  0.36584384734E+03  0.70255343178E+03  0.59978296397E+03 0.  0.
        3    1    3    3  502    0 -0.63662119892E+02  0.48191428035E+02  0.52151918383E+03  0.52759600885E+03  0.10100000352E+00 0. -1.
       -3    1    3    3    0  502  0.63662119892E+02 -0.48191428035E+02 -0.15567533650E+03  0.17495742293E+03  0.10100000352E+00 0.  1.
</event>
<event>
 5   0  0.5891927E-03  0.6011570E+03  0.7818609E-02  0.9903008E-01
       -1   -1    0    0    0  501  0.00000000000E+00  0.00000000000E+00  0.11723594219E+03  0.11723594229E+03  0.50400001928E-02 0. -1.
        1   -1    0    0  501    0  0.00000000000E+00  0.00000000000E+00 -0.77064628570E+03  0.77064628572E+03  0.50400001928E-02 0.  1.
    10030    2    1    2    0    0  0.00000000000E+00  0.00000000000E+00 -0.65341034351E+03  0.88788222801E+03  0.60115702924E+03 0.  0.
        4    1    3    3  502    0  0.18587308092E+02  0.29550101594E+03 -0.40315802089E+03  0.50020429941E+03  0.12699999809E+01 0. -1.
       -4    1    3    3    0  502 -0.18587308092E+02 -0.29550101594E+03 -0.25025232262E+03  0.38767792860E+03  0.12699999809E+01 0.  1.
</event>
<event>
 5   0  0.5819446E-03  0.5999529E+03  0.7818609E-02  0.9905504E-01
       -1   -1    0    0    0  501  0.00000000000E+00  0.00000000000E+00  0.62360394179E+02  0.62360394382E+02  0.50400001928E-02 0.  1.
        1   -1    0    0  501    0  0.00000000000E+00  0.00000000000E+00 -0.14429973536E+04  0.14429973536E+04  0.50400001928E-02 0. -1.
    10030    2    1    2    0    0  0.00000000000E+00  0.00000000000E+00 -0.13806369594E+04  0.15053577480E+04  0.59995294459E+03 0.  0.
        5    1    3    3  502    0  0.85728947352E+02 -0.19779028987E+02  0.29162868160E+02  0.92807463489E+02  0.46999998093E+01 0.  1.
       -5    1    3    3    0  502 -0.85728947352E+02  0.19779028987E+02 -0.14097998276E+04  0.14125502845E+04  0.46999998093E+01 0. -1.
</event>
<event>
 5   0  0.6078658E-03  0.6030096E+03  0.7818609E-02  0.9899182E-01
       -1   -1    0    0    0  501  0.00000000000E+00  0.00000000000E+00  0.83594402947E+02  0.83594403099E+02  0.50400001928E-02 0.  1.
        1   -1    0    0  501    0  0.00000000000E+00  0.00000000000E+00 -0.10874548918E+04  0.10874548918E+04  0.50400001928E-02 0. -1.
    10030    2    1    2    0    0  0.00000000000E+00  0.00000000000E+00 -0.10038604888E+04  0.11710492949E+04  0.60300959365E+03 0.  0.
        2    1    3    3  502    0  0.37335479235E+02 -0.97932816340E+02  0.47079044712E+02  0.11489652294E+03  0.25500000920E-02 0.  1.
       -2    1    3    3    0  502 -0.37335479235E+02  0.97932816340E+02 -0.10509395336E+04  0.10561527720E+04  0.25500000920E-02 0. -1.
</event>
<event>
 5   0  0.9028473E-03  0.6009562E+03  0.7818609E-02  0.9903424E-01
       -2   -1    0    0    0  501  0.00000000000E+00  0.00000000000E+00  0.78818422974E+02  0.78818423015E+02  0.25500000920E-02 0. -1.
        2   -1    0    0  501    0  0.00000000000E+00  0.00000000000E+00 -0.11455075357E+04  0.11455075357E+04  0.25500000920E-02 0.  1.
    10030    2    1    2    0    0  0.00000000000E+00  0.00000000000E+00 -0.10666891127E+04  0.12243259587E+04  0.60095622967E+03 0.  0.
        1    1    3    3  502    0  0.25693883715E+03 -0.74953346640E+02 -0.25510977704E+03  0.36975203661E+03  0.50400001928E-02 0. -1.
       -1    1    3    3    0  502 -0.25693883715E+03  0.74953346640E+02 -0.81157933567E+03  0.85457392209E+03  0.50400001928E-02 0.  1.
</event>
<event>
 5   0  0.5891927E-03  0.6007582E+03  0.7818609E-02  0.9903834E-01
        1   -1    0    0  501    0  0.00000000000E+00  0.00000000000E+00  0.26993381267E+03  0.26993381272E+03  0.50400001928E-02 0.  1.
       -1   -1    0    0    0  501  0.00000000000E+00  0.00000000000E+00 -0.33425830090E+03  0.33425830094E+03  0.50400001928E-02 0. -1.
    10030    2    1    2    0    0  0.00000000000E+00  0.00000000000E+00 -0.64324488224E+02  0.60419211366E+03  0.60075824624E+03 0.  0.
        4    1    3    3  502    0  0.65121743929E+02  0.27468974278E+03  0.71043555913E+02  0.29110839228E+03  0.12699999809E+01 0.  1.
       -4    1    3    3    0  502 -0.65121743929E+02 -0.27468974278E+03 -0.13536804414E+03  0.31308372138E+03  0.12699999809E+01 0. -1.
</event>
<event>
 5   0  0.9822607E-03  0.6024271E+03  0.7818609E-02  0.9900383E-01
        2   -1    0    0  501    0  0.00000000000E+00  0.00000000000E+00  0.53266465259E+03  0.53266465259E+03  0.25500000920E-02 0. -1.
       -2   -1    0    0    0  501  0.00000000000E+00  0.00000000000E+00 -0.17033155168E+03  0.17033155169E+03  0.25500000920E-02 0.  1.
    10030    2    1    2    0    0  0.00000000000E+00  0.00000000000E+00  0.36233310091E+03  0.70299620429E+03  0.60242708042E+03 0.  0.
        3    1    3    3  502    0 -0.11745104662E+03  0.39792982370E+02  0.50149390893E+03  0.51659885858E+03  0.10100000352E+00 0. -1.
       -3    1    3    3    0  502  0.11745104662E+03 -0.39792982370E+02 -0.13916080802E+03  0.18639734570E+03  0.10100000352E+00 0.  1.
</event>
<event>
 5   0  0.9028473E-03  0.5994051E+03  0.7818609E-02  0.9906641E-01
       -2   -1    0    0    0  501  0.00000000000E+00  0.00000000000E+00  0.25072531115E+03  0.25072531116E+03  0.25500000920E-02 0. -1.
        2   -1    0    0  501    0  0.00000000000E+00  0.00000000000E+00 -0.35824711965E+03  0.35824711966E+03  0.25500000920E-02 0.  1.
    10030    2    1    2    0    0  0.00000000000E+00  0.00000000000E+00 -0.10752180850E+03  0.60897243082E+03  0.59940510692E+03 0.  0.
        1    1    3    3  502    0  0.54418787590E+02 -0.29083894906E+03 -0.53247739292E+01  0.29593420211E+03  0.50400001928E-02 0. -1.
       -1    1    3    3    0  502 -0.54418787590E+02  0.29083894906E+03 -0.10219703457E+03  0.31303822871E+03  0.50400001928E-02 0.  1.
</event>
<event>
 5   0  0.9028473E-03  0.6012966E+03  0.7818609E-02  0.9902720E-01
        2   -1    0    0  501    0  0.00000000000E+00  0.00000000000E+00  0.44658525133E+03  0.44658525134E+03  0.25500000920E-02 0.  1.
       -2   -1    0    0    0  501  0.00000000000E+00  0.00000000000E+00 -0.20240121597E+03  0.20240121599E+03  0.25500000920E-02 0. -1.
    10030    2    1    2    0    0  0.00000000000E+00  0.00000000000E+00  0.24418403535E+03  0.64898646733E+03  0.60129659208E+03 0.  0.
        1    1    3    3  502    0  0.84502178254E+02  0.19298951763E+03 -0.10940418626E+03  0.23739176069E+03  0.50400001928E-02 0. -1.
       -1    1    3    3    0  502 -0.84502178254E+02 -0.19298951763E+03  0.35358822161E+03  0.41159470664E+03  0.50400001928E-02 0.  1.
</event>
<event>
 5   0  0.9162342E-03  0.5947216E+03  0.7818609E-02  0.9916418E-01
        2   -1    0    0  501    0  0.00000000000E+00  0.00000000000E+00  0.75281301798E+03  0.75281301798E+03  0.25500000920E-02 0. -1.
       -2   -1    0    0    0  501  0.00000000000E+00  0.00000000000E+00 -0.11745739547E+03  0.11745739550E+03  0.25500000920E-02 0.  1.
    10030    2    1    2    0    0  0.00000000000E+00  0.00000000000E+00  0.63535562251E+03  0.87027041348E+03  0.59472163701E+03 0.  0.
        5    1    3    3  502    0 -0.71163654677E+02  0.21162440303E+03  0.60499733275E+03  0.64489767897E+03  0.46999998093E+01 0. -1.
       -5    1    3    3    0  502  0.71163654677E+02 -0.21162440303E+03  0.30358289752E+02  0.22537273451E+03  0.46999998093E+01 0.  1.
</event>
<event>
 5   0  0.5819446E-03  0.6002216E+03  0.7818609E-02  0.9904946E-01
        1   -1    0    0  501    0  0.00000000000E+00  0.00000000000E+00  0.24310213357E+03  0.24310213362E+03  0.50400001928E-02 0.  1.
       -1   -1    0    0    0  501  0.00000000000E+00  0.00000000000E+00 -0.37048828891E+03  0.37048828894E+03  0.50400001928E-02 0. -1.
    10030    2    1    2    0    0  0.00000000000E+00  0.00000000000E+00 -0.12738615534E+03  0.61359042256E+03  0.60022160415E+03 0.  0.
        5    1    3    3  502    0 -0.10425398289E+03  0.16932292605E+02 -0.35082048278E+03  0.36640509906E+03  0.46999998093E+01 0. -1.
       -5    1    3    3    0  502  0.10425398289E+03 -0.16932292605E+02  0.22343432744E+03  0.24718532350E+03  0.46999998093E+01 0.  1.
</event>
<event>
 5   0  0.9822607E-03  0.6001947E+03  0.7818609E-02  0.9905002E-01
       -2   -1    0    0    0  501  0.00000000000E+00  0.00000000000E+00  0.81670231711E+03  0.81670231711E+03  0.25500000920E-02 0.  1.
        2   -1    0    0  501    0  0.00000000000E+00  0.00000000000E+00 -0.11027079577E+03  0.11027079579E+03  0.25500000920E-02 0. -1.
    10030    2    1    2    0    0  0.00000000000E+00  0.00000000000E+00  0.70643152134E+03  0.92697311291E+03  0.60019468317E+03 0.  0.
        3    1    3    3  502    0 -0.27182518369E+02 -0.29148701335E+03  0.45513610780E+03  0.54115843806E+03  0.10100000352E+00 0. -1.
       -3    1    3    3    0  502  0.27182518369E+02  0.29148701335E+03  0.25129541355E+03  0.38581467485E+03  0.10100000352E+00 0.  1.
</event>
<event>
 5   0  0.6078658E-03  0.6008154E+03  0.7818609E-02  0.9903716E-01
        1   -1    0    0  501    0  0.00000000000E+00  0.00000000000E+00  0.40980762478E+03  0.40980762481E+03  0.50400001928E-02 0.  1.
       -1   -1    0    0    0  501  0.00000000000E+00  0.00000000000E+00 -0.22021253488E+03  0.22021253493E+03  0.50400001928E-02 0. -1.
    10030    2    1    2    0    0  0.00000000000E+00  0.00000000000E+00  0.18959508990E+03  0.63002015974E+03  0.60081536562E+03 0.  0.
        2    1    3    3  502    0 -0.90349659401E+02 -0.62742792209E+02 -0.19833508972E+03  0.22679622296E+03  0.25500000920E-02 0. -1.
       -2    1    3    3    0  502  0.90349659401E+02  0.62742792209E+02  0.38793017962E+03  0.40322393678E+03  0.25500000920E-02 0.  1.
</event>
<event>
 5   0  0.5765045E-03  0.6014442E+03  0.7818609E-02  0.9902414E-01
        1   -1    0    0  501    0  0.00000000000E+00  0.00000000000E+00  0.44122871688E+03  0.44122871690E+03  0.50400001928E-02 0.  1.
       -1   -1    0    0    0  501  0.00000000000E+00  0.00000000000E+00 -0.20495894243E+03  0.20495894249E+03  0.50400001928E-02 0. -1.
    10030    2    1    2    0    0  0.00000000000E+00  0.00000000000E+00  0.23626977445E+03  0.64618765940E+03  0.60144416602E+03 0.  0.
        1    1    3    3  502    0  0.53228364940E+02 -0.22902292401E+03 -0.83293144068E+02  0.24944439547E+03  0.50400001928E-02 0. -1.
       -1    1    3    3    0  502 -0.53228364940E+02  0.22902292401E+03  0.31956291852E+03  0.39674326393E+03  0.50400001928E-02 0.  1.
</event>
<event>
 5   0  0.5790967E-03  0.5994268E+03  0.7818609E-02  0.9906596E-01
        1   -1    0    0  501    0  0.00000000000E+00  0.00000000000E+00  0.66599578239E+03  0.66599578241E+03  0.50400001928E-02 0.  1.
       -1   -1    0    0    0  501  0.00000000000E+00  0.00000000000E+00 -0.13487790678E+03  0.13487790688E+03  0.50400001928E-02 0. -1.
    10030    2    1    2    0    0  0.00000000000E+00  0.00000000000E+00  0.53111787560E+03  0.80087368929E+03  0.59942678319E+03 0.  0.
        3    1    3    3  502    0 -0.22180534568E+03  0.15833995122E+03  0.98904032958E+02  0.28991579719E+03  0.10100000352E+00 0. -1.
       -3    1    3    3    0  502  0.22180534568E+03 -0.15833995122E+03  0.43221384265E+03  0.51095789210E+03  0.10100000352E+00 0.  1.
</event>
<event>
 5   0  0.5790967E-03  0.6001883E+03  0.7818609E-02  0.9905015E-01
        1   -1    0    0  501    0  0.00000000000E+00  0.00000000000E+00  0.77431382627E+03  0.77431382628E+03  0.50400001928E-02 0. -1.
       -1   -1    0    0    0  501  0.00000000000E+00  0.00000000000E+00 -0.11630492531E+03  0.11630492542E+03  0.50400001928E-02 0.  1.
    10030    2    1    2    0    0  0.00000000000E+00  0.00000000000E+00  0.65800890096E+03  0.89061875170E+03  0.60018834306E+03 0.  0.
        3    1    3    3  502    0 -0.12737884327E+03 -0.94246920371E+02  0.70717642609E+03  0.72471122493E+03  0.10100000352E+00 0. -1.
       -3    1    3    3    0  502  0.12737884327E+03  0.94246920371E+02 -0.49167525137E+02  0.16590752678E+03  0.10100000352E+00 0.  1.
</event>
<event>
 5   0  0.9391405E-03  0.6015306E+03  0.7818609E-02  0.9902236E-01
       -2   -1    0    0    0  501  0.00000000000E+00  0.00000000000E+00  0.43636198661E+02  0.43636198735E+02  0.25500000920E-02 0.  1.
        2   -1    0    0  501    0  0.00000000000E+00  0.00000000000E+00 -0.20730441504E+04  0.20730441504E+04  0.25500000920E-02 0. -1.
    10030    2    1    2    0    0  0.00000000000E+00  0.00000000000E+00 -0.20294079518E+04  0.21166803492E+04  0.60153060258E+03 0.  0.
        2    1    3    3  502    0  0.12172150340E+03  0.15652169859E+02 -0.19809313580E+04  0.19847292409E+04  0.25500000920E-02 0. -1.
       -2    1    3    3    0  502 -0.12172150340E+03 -0.15652169859E+02 -0.48476593793E+02  0.13195110823E+03  0.25500000920E-02 0.  1.
</event>
<event>
 5   0  0.5819446E-03  0.6004470E+03  0.7818609E-02  0.9904479E-01
       -1   -1    0    0    0  501  0.00000000000E+00  0.00000000000E+00  0.23718759243E+03  0.23718759248E+03  0.50400001928E-02 0. -1.
        1   -1    0    0  501    0  0.00000000000E+00  0.00000000000E+00 -0.38001201763E+03  0.38001201767E+03  0.50400001928E-02 0.  1.
    10030    2    1    2    0    0  0.00000000000E+00  0.00000000000E+00 -0.14282442520E+03  0.61719961015E+03  0.60044695214E+03 0.  0.
        5    1    3    3  502    0 -0.14954555855E+03  0.13295443405E+03  0.15859708326E+03  0.25537400108E+03  0.46999998093E+01 0. -1.
       -5    1    3    3    0  502  0.14954555855E+03 -0.13295443405E+03 -0.30142150846E+03  0.36182560906E+03  0.46999998093E+01 0.  1.
</event>
<event>
 5   0  0.9162342E-03  0.6002485E+03  0.7818609E-02  0.9904891E-01
       -2   -1    0    0    0  501  0.00000000000E+00  0.00000000000E+00  0.11246343229E+03  0.11246343232E+03  0.25500000920E-02 0.  1.
        2   -1    0    0  501    0  0.00000000000E+00  0.00000000000E+00 -0.80092309562E+03  0.80092309562E+03  0.25500000920E-02 0. -1.
    10030    2    1    2    0    0  0.00000000000E+00  0.00000000000E+00 -0.68845966333E+03  0.91338652794E+03  0.60024848305E+03 0.  0.
        5    1    3    3  502    0  0.26214687936E+03  0.44589696732E+02 -0.55586516358E+03  0.61621213677E+03  0.46999998093E+01 0. -1.
       -5    1    3    3    0  502 -0.26214687936E+03 -0.44589696732E+02 -0.13259449974E+03  0.29717439118E+03  0.46999998093E+01 0.  1.
</event>
<event>
 5   0  0.3806250E-03  0.6011699E+03  0.7818609E-02  0.9902982E-01
        4   -1    0    0  501    0  0.00000000000E+00  0.00000000000E+00  0.15495038269E+04  0.15495043473E+04  0.12699999809E+01 0. -1.
       -4   -1    0    0    0  501  0.00000000000E+00  0.00000000000E+00 -0.58302398917E+02  0.58316229468E+02  0.12699999809E+01 0.  1.
    10030    2    1    2    0    0  0.00000000000E+00  0.00000000000E+00  0.14912014280E+04  0.16078205768E+04  0.60116994971E+03 0.  0.
        4    1    3    3  502    0 -0.18516139021E+03 -0.19293123919E+03  0.37847931101E+03  0.46341709641E+03  0.12699999809E+01 0.  1.
       -4    1    3    3    0  502  0.18516139021E+03  0.19293123919E+03  0.11127221169E+04  0.11444034804E+04  0.12699999809E+01 0. -1.
</event>
<event>
 5   0  0.9162342E-03  0.6017159E+03  0.7818609E-02  0.9901852E-01
       -2   -1    0    0    0  501  0.00000000000E+00  0.00000000000E+00  0.16680485412E+03  0.16680485414E+03  0.25500000920E-02 0. -1.
        2   -1    0    0  501    0  0.00000000000E+00  0.00000000000E+00 -0.54264319080E+03  0.54264319081E+03  0.25500000920E-02 0.  1.
    10030    2    1    2    0    0  0.00000000000E+00  0.00000000000E+00 -0.37583833668E+03  0.70944804494E+03  0.60171594058E+03 0.  0.
        5    1    3    3  502    0  0.27915066431E+03  0.54855317788E+02 -0.72642739899E+02  0.29365499644E+03  0.46999998093E+01 0. -1.
       -5    1    3    3    0  502 -0.27915066431E+03 -0.54855317788E+02 -0.30319559678E+03  0.41579304850E+03  0.46999998093E+01 0.  1.
</event>
<event>
 5   0  0.5765045E-03  0.6005268E+03  0.7818609E-02  0.9904314E-01
        1   -1    0    0  501    0  0.00000000000E+00  0.00000000000E+00  0.11802831122E+04  0.11802831122E+04  0.50400001928E-02 0. -1.
       -1   -1    0    0    0  501  0.00000000000E+00  0.00000000000E+00 -0.76386855114E+02  0.76386855280E+02  0.50400001928E-02 0.  1.
    10030    2    1    2    0    0  0.00000000000E+00  0.00000000000E+00  0.11038962571E+04  0.12566699675E+04  0.60052681938E+03 0.  0.
        1    1    3    3  502    0 -0.44692317800E+02  0.23222124507E+02 -0.67484436727E+02  0.84207004238E+02  0.50400001928E-02 0.  1.
       -1    1    3    3    0  502  0.44692317800E+02 -0.23222124507E+02  0.11713806939E+04  0.11724629633E+04  0.50400001928E-02 0. -1.
</event>
<event>
 5   0  0.6078658E-03  0.6001552E+03  0.7818609E-02  0.9905084E-01
        1   -1    0    0  501    0  0.00000000000E+00  0.00000000000E+00  0.25669133869E+03  0.25669133874E+03  0.50400001928E-02 0.  1.
       -1   -1    0    0    0  501  0.00000000000E+00  0.00000000000E+00 -0.35079709298E+03  0.35079709301E+03  0.50400001928E-02 0. -1.
    10030    2    1    2    0    0  0.00000000000E+00  0.00000000000E+00 -0.94105754290E+02  0.60748843175E+03  0.60015523135E+03 0.  0.
        2    1    3    3  502    0 -0.15022767161E+03  0.23272464076E+03 -0.16386426310E+03  0.32183941409E+03  0.25500000920E-02 0. -1.
       -2    1    3    3    0  502  0.15022767161E+03 -0.23272464076E+03  0.69758508808E+02  0.28564901766E+03  0.25500000920E-02 0.  1.
</event>
<event>
 5   0  0.9028473E-03  0.6002424E+03  0.7818609E-02  0.9904903E-01
       -2   -1    0    0    0  501  0.00000000000E+00  0.00000000000E+00  0.66666553704E+03  0.66666553704E+03  0.25500000920E-02 0.  1.
        2   -1    0    0  501    0  0.00000000000E+00  0.00000000000E+00 -0.13510932572E+03  0.13510932575E+03  0.25500000920E-02 0. -1.
    10030    2    1    2    0    0  0.00000000000E+00  0.00000000000E+00  0.53155621131E+03  0.80177486279E+03  0.60024238839E+03 0.  0.
        1    1    3    3  502    0  0.24061745950E+03  0.60857228276E+01  0.26313404637E+02  0.24212846410E+03  0.50400001928E-02 0. -1.
       -1    1    3    3    0  502 -0.24061745950E+03 -0.60857228276E+01  0.50524280667E+03  0.55964639869E+03  0.50400001928E-02 0.  1.
</event>
<event>
 5   0  0.9028473E-03  0.6000989E+03  0.7818609E-02  0.9905201E-01
       -2   -1    0    0    0  501  0.00000000000E+00  0.00000000000E+00  0.13256630620E+03  0.13256630622E+03  0.25500000920E-02 0.  1.
        2   -1    0    0  501    0  0.00000000000E+00  0.00000000000E+00 -0.67912937964E+03  0.67912937965E+03  0.25500000920E-02 0. -1.
    10030    2    1    2    0    0  0.00000000000E+00  0.00000000000E+00 -0.54656307345E+03  0.81169568587E+03  0.60009890285E+03 0.  0.
        1    1    3    3  502    0  0.16591211633E+02  0.32892102536E+02  0.12949569910E+03  0.13463392895E+03  0.50400001928E-02 0.  1.
       -1    1    3    3    0  502 -0.16591211633E+02 -0.32892102536E+02 -0.67605877255E+03  0.67706175692E+03  0.50400001928E-02 0. -1.
</event>
<event>
 5   0  0.5819446E-03  0.5992728E+03  0.7818609E-02  0.9906916E-01
       -1   -1    0    0    0  501  0.00000000000E+00  0.00000000000E+00  0.11033648667E+03  0.11033648678E+03  0.50400001928E-02 0. -1.
        1   -1    0    0  501    0  0.00000000000E+00  0.00000000000E+00 -0.81371071230E+03  0.81371071232E+03  0.50400001928E-02 0.  1.
    10030    2    1    2    0    0  0.00000000000E+00  0.00000000000E+00 -0.70337422564E+03  0.92404719910E+03  0.59927283008E+03 0.  0.
        5    1    3    3  502    0  0.57642318052E+02 -0.20436637814E+00  0.10164861098E+03  0.11694959901E+03  0.46999998093E+01 0. -1.
       -5    1    3    3    0  502 -0.57642318052E+02  0.20436637814E+00 -0.80502283662E+03  0.80709760009E+03  0.46999998093E+01 0.  1.
</event>
<event>
 5   0  0.6078658E-03  0.6008797E+03  0.7818609E-02  0.9903583E-01
       -1   -1    0    0    0  501  0.00000000000E+00  0.00000000000E+00  0.29282834479E+04  0.29282834479E+04  0.50400001928E-02 0. -1.
        1   -1    0    0  501    0  0.00000000000E+00  0.00000000000E+00 -0.30824916573E+02  0.30824916985E+02  0.50400001928E-02 0.  1.
    10030    2    1    2    0    0  0.00000000000E+00  0.00000000000E+00  0.28974585314E+04  0.29591083649E+04  0.60087966716E+03 0.  0.
        2    1    3    3  502    0 -0.13088760222E+03 -0.15607756276E+03  0.36115209059E+03  0.41463550566E+03  0.25500000920E-02 0.  1.
       -2    1    3    3    0  502  0.13088760222E+03  0.15607756276E+03  0.25363064408E+04  0.25444728593E+04  0.25500000920E-02 0. -1.
</event>
<event>
 5   0  0.9162342E-03  0.5977551E+03  0.7818609E-02  0.9910075E-01
       -2   -1    0    0    0  501  0.00000000000E+00  0.00000000000E+00  0.40326269328E+02  0.40326269408E+02  0.25500000920E-02 0.  1.
        2   -1    0    0  501    0  0.00000000000E+00  0.00000000000E+00 -0.22151263369E+04  0.22151263369E+04  0.25500000920E-02 0. -1.
    10030    2    1    2    0    0  0.00000000000E+00  0.00000000000E+00 -0.21748000675E+04  0.22554526063E+04  0.59775507141E+03 0.  0.
        5    1    3    3  502    0 -0.19288769122E+03 -0.15601541108E+03 -0.45874256880E+03  0.52154894722E+03  0.46999998093E+01 0.  1.
       -5    1    3    3    0  502  0.19288769122E+03  0.15601541108E+03 -0.17160574987E+04  0.17339036590E+04  0.46999998093E+01 0. -1.
</event>
<event>
 5   0  0.5819446E-03  0.6015723E+03  0.7818609E-02  0.9902149E-01
        1   -1    0    0  501    0  0.00000000000E+00  0.00000000000E+00  0.18977574007E+03  0.18977574014E+03  0.50400001928E-02 0. -1.
       -1   -1    0    0    0  501  0.00000000000E+00  0.00000000000E+00 -0.47673278426E+03  0.47673278428E+03  0.50400001928E-02 0.  1.
    10030    2    1    2    0    0  0.00000000000E+00  0.00000000000E+00 -0.28695704419E+03  0.66650852442E+03  0.60157232975E+03 0.  0.
        5    1    3    3  502    0  0.28062240910E+03 -0.10787242197E+03 -0.13455760597E+03  0.32941347154E+03  0.46999998093E+01 0.  1.
       -5    1    3    3    0  502 -0.28062240910E+03  0.10787242197E+03 -0.15239943822E+03  0.33709505288E+03  0.46999998093E+01 0. -1.
</event>
<event>
 5   0  0.6078658E-03  0.6002761E+03  0.7818609E-02  0.9904833E-01
        1   -1    0    0  501    0  0.00000000000E+00  0.00000000000E+00  0.17200103146E+03  0.17200103153E+03  0.50400001928E-02 0.  1.
       -1   -1    0    0    0  501  0.00000000000E+00  0.00000000000E+00 -0.52373438034E+03  0.52373438036E+03  0.50400001928E-02 0. -1.
    10030    2    1    2    0    0  0.00000000000E+00  0.00000000000E+00 -0.35173334888E+03  0.69573541189E+03  0.60027611534E+03 0.  0.
        2    1    3    3  502    0  0.14104949378E+03 -0.10964221579E+03 -0.45539732241E+03  0.48918615725E+03  0.25500000920E-02 0. -1.
       -2    1    3    3    0  502 -0.14104949378E+03  0.10964221579E+03  0.10366397353E+03  0.20654925465E+03  0.25500000920E-02 0.  1.
</event>
<event>
 5   0  0.9162342E-03  0.5997982E+03  0.7818609E-02  0.9905825E-01
       -2   -1    0    0    0  501  0.00000000000E+00  0.00000000000E+00  0.59907241640E+02  0.59907241694E+02  0.25500000920E-02 0. -1.
        2   -1    0    0  501    0  0.00000000000E+00  0.00000000000E+00 -0.15013123492E+04  0.15013123492E+04  0.25500000920E-02 0.  1.
    10030    2    1    2    0    0  0.00000000000E+00  0.00000000000E+00 -0.14414051076E+04  0.15612195909E+04  0.59979823850E+03 0.  0.
        5    1    3    3  502    0  0.95712548988E+02  0.27977319150E+03 -0.85041674136E+03  0.90036917689E+03  0.46999998093E+01 0. -1.
       -5    1    3    3    0  502 -0.95712548988E+02 -0.27977319150E+03 -0.59098836624E+03  0.66085041405E+03  0.46999998093E+01 0.  1.
</event>
<event>
 5   0  0.9028473E-03  0.5996301E+03  0.7818609E-02  0.9906174E-01
       -2   -1    0    0    0  501  0.00000000000E+00  0.00000000000E+00  0.49155208216E+02  0.49155208282E+02  0.25500000920E-02 0.  1.
        2   -1    0    0  501    0  0.00000000000E+00  0.00000000000E+00 -0.18286786241E+04  0.18286786241E+04  0.25500000920E-02 0. -1.
    10030    2    1    2    0    0  0.00000000000E+00  0.00000000000E+00 -0.17795234159E+04  0.18778338324E+04  0.59963014798E+03 0.  0.
        1    1    3    3  502    0  0.28306425900E+03 -0.68381868357E+02 -0.66638843909E+03  0.72723792972E+03  0.50400001928E-02 0.  1.
       -1    1    3    3    0  502 -0.28306425900E+03  0.68381868357E+02 -0.11131349768E+04  0.11505959027E+04  0.50400001928E-02 0. -1.
</event>
<event>
 5   0  0.6078658E-03  0.5999758E+03  0.7818609E-02  0.9905456E-01
        1   -1    0    0  501    0  0.00000000000E+00  0.00000000000E+00  0.32316168576E+03  0.32316168580E+03  0.50400001928E-02 0.  1.
       -1   -1    0    0    0  501  0.00000000000E+00  0.00000000000E+00 -0.27847589041E+03  0.27847589045E+03  0.50400001928E-02 0. -1.
    10030    2    1    2    0    0  0.00000000000E+00  0.00000000000E+00  0.44685795354E+02  0.60163757625E+03  0.59997579356E+03 0.  0.
        2    1    3    3  502    0  0.20542797718E+03  0.21801750408E+03  0.38526132373E+02  0.30202077541E+03  0.25500000920E-02 0. -1.
       -2    1    3    3    0  502 -0.20542797718E+03 -0.21801750408E+03  0.61596629803E+01  0.29961680085E+03  0.25500000920E-02 0.  1.
</event>
<event>
 5   0  0.5819446E-03  0.5988367E+03  0.7818609E-02  0.9907823E-01
        1   -1    0    0  501    0  0.00000000000E+00  0.00000000000E+00  0.14743763974E+04  0.14743763974E+04  0.50400001928E-02 0. -1.
       -1   -1    0    0    0  501  0.00000000000E+00  0.00000000000E+00 -0.60806278435E+02  0.60806278644E+02  0.50400001928E-02 0.  1.
    10030    2    1    2    0    0  0.00000000000E+00  0.00000000000E+00  0.14135701190E+04  0.15351826761E+04  0.59883667859E+03 0.  0.
        5    1    3    3  502    0  0.50006503561E+02 -0.27372942468E+03  0.98995417589E+03  0.10283286482E+04  0.46999998093E+01 0. -1.
       -5    1    3    3    0  502 -0.50006503561E+02  0.27372942468E+03  0.42361594310E+03  0.50685402789E+03  0.46999998093E+01 0.  1.
</event>
<event>
 5   0  0.5790967E-03  0.5999610E+03  0.7818609E-02  0.9905487E-01
       -1   -1    0    0    0  501  0.00000000000E+00  0.00000000000E+00  0.39608561704E+03  0.39608561707E+03  0.50400001928E-02 0. -1.
        1   -1    0    0  501    0  0.00000000000E+00  0.00000000000E+00 -0.22719407152E+03  0.22719407158E+03  0.50400001928E-02 0.  1.
    10030    2    1    2    0    0  0.00000000000E+00  0.00000000000E+00  0.16889154552E+03  0.62327968864E+03  0.59996101217E+03 0.  0.
        3    1    3    3  502    0 -0.69009519774E+02 -0.18765387699E+03 -0.14787982712E+03  0.24868603668E+03  0.10100000352E+00 0.  1.
       -3    1    3    3    0  502  0.69009519774E+02  0.18765387699E+03  0.31677137264E+03  0.37459365196E+03  0.10100000352E+00 0. -1.
</event>
<event>
 5   0  0.5790967E-03  0.5995718E+03  0.7818609E-02  0.9906295E-01
       -1   -1    0    0    0  501  0.00000000000E+00  0.00000000000E+00  0.43368711420E+03  0.43368711423E+03  0.50400001928E-02 0.  1.
        1   -1    0    0  501    0  0.00000000000E+00  0.00000000000E+00 -0.20722678859E+03  0.20722678865E+03  0.50400001928E-02 0. -1.
    10030    2    1    2    0    0  0.00000000000E+00  0.00000000000E+00  0.22646032561E+03  0.64091390288E+03  0.59957180707E+03 0.  0.
        3    1    3    3  502    0  0.26430975456E+03 -0.11020924503E+03  0.20803520193E+03  0.35395533544E+03  0.10100000352E+00 0.  1.
       -3    1    3    3    0  502 -0.26430975456E+03  0.11020924503E+03  0.18425123681E+02  0.28695856744E+03  0.10100000352E+00 0. -1.
</event>
<event>
 5   0  0.5819446E-03  0.6003030E+03  0.7818609E-02  0.9904778E-01
        1   -1    0    0  501    0  0.00000000000E+00  0.00000000000E+00  0.10212457062E+03  0.10212457074E+03  0.50400001928E-02 0.  1.
       -1   -1    0    0    0  501  0.00000000000E+00  0.00000000000E+00 -0.88216695254E+03  0.88216695256E+03  0.50400001928E-02 0. -1.
    10030    2    1    2    0    0  0.00000000000E+00  0.00000000000E+00 -0.78004238193E+03  0.98429152330E+03  0.60030299452E+03 0.  0.
        5    1    3    3  502    0 -0.23742186314E+03 -0.12926375950E+03 -0.17629525952E+03  0.32276983927E+03  0.46999998093E+01 0.  1.
       -5    1    3    3    0  502  0.23742186314E+03  0.12926375950E+03 -0.60374712241E+03  0.66152168402E+03  0.46999998093E+01 0. -1.
</event>
<event>
 5   0  0.5891927E-03  0.6002699E+03  0.7818609E-02  0.9904846E-01
        1   -1    0    0  501    0  0.00000000000E+00  0.00000000000E+00  0.34083687092E+03  0.34083687096E+03  0.50400001928E-02 0.  1.
       -1   -1    0    0    0  501  0.00000000000E+00  0.00000000000E+00 -0.26429357815E+03  0.26429357820E+03  0.50400001928E-02 0. -1.
    10030    2    1    2    0    0  0.00000000000E+00  0.00000000000E+00  0.76543292769E+02  0.60513044916E+03  0.60026992664E+03 0.  0.
        4    1    3    3  502    0 -0.31729368457E+02 -0.28056296173E+03  0.14086531542E+03  0.31554235580E+03  0.12699999809E+01 0.  1.
       -4    1    3    3    0  502  0.31729368457E+02  0.28056296173E+03 -0.64322022654E+02  0.28958809336E+03  0.12699999809E+01 0. -1.
</event>
<event>
 5   0  0.5790967E-03  0.5991705E+03  0.7818609E-02  0.9907129E-01
       -1   -1    0    0    0  501  0.00000000000E+00  0.00000000000E+00  0.44205962716E+02  0.44205963004E+02  0.50400001928E-02 0. -1.
        1   -1    0    0  501    0  0.00000000000E+00  0.00000000000E+00 -0.20302987497E+04  0.20302987497E+04  0.50400001928E-02 0.  1.
    10030    2    1    2    0    0  0.00000000000E+00  0.00000000000E+00 -0.19860927870E+04  0.20745047128E+04  0.59917046369E+03 0.  0.
        3    1    3    3  502    0  0.16315167798E+03 -0.19829592998E+03 -0.45877993644E+03  0.52575544329E+03  0.10100000352E+00 0. -1.
       -3    1    3    3    0  502 -0.16315167798E+03  0.19829592998E+03 -0.15273128506E+04  0.15487492695E+04  0.10100000352E+00 0.  1.
</event>
<event>
 5   0  0.9303190E-03  0.5985847E+03  0.7818609E-02  0.9908347E-01
       -2   -1    0    0    0  501  0.00000000000E+00  0.00000000000E+00  0.14724007220E+03  0.14724007222E+03  0.25500000920E-02 0.  1.
        2   -1    0    0  501    0  0.00000000000E+00  0.00000000000E+00 -0.60836640715E+03  0.60836640715E+03  0.25500000920E-02 0. -1.
    10030    2    1    2    0    0  0.00000000000E+00  0.00000000000E+00 -0.46112633495E+03  0.75560647937E+03  0.59858470986E+03 0.  0.
        4    1    3    3  502    0 -0.10094419701E+03 -0.16164798269E+02 -0.58563985996E+03  0.59449700595E+03  0.12699999809E+01 0. -1.
       -4    1    3    3    0  502  0.10094419701E+03  0.16164798269E+02  0.12451352501E+03  0.16110947341E+03  0.12699999809E+01 0.  1.
</event>
<event>
 5   0  0.5790967E-03  0.5991047E+03  0.7818609E-02  0.9907265E-01
       -1   -1    0    0    0  501  0.00000000000E+00  0.00000000000E+00  0.11502186081E+03  0.11502186092E+03  0.50400001928E-02 0.  1.
        1   -1    0    0  501    0  0.00000000000E+00  0.00000000000E+00 -0.78012665914E+03  0.78012665915E+03  0.50400001928E-02 0. -1.
    10030    2    1    2    0    0  0.00000000000E+00  0.00000000000E+00 -0.66510479833E+03  0.89514852007E+03  0.59910473227E+03 0.  0.
        3    1    3    3  502    0  0.57672960698E+02  0.68900201145E+02 -0.75951737770E+03  0.76481374552E+03  0.10100000352E+00 0. -1.
       -3    1    3    3    0  502 -0.57672960698E+02 -0.68900201145E+02  0.94412579370E+02  0.13033477455E+03  0.10100000352E+00 0.  1.
</event>
<event>
 5   0  0.9822607E-03  0.6005083E+03  0.7818609E-02  0.9904352E-01
       -2   -1    0    0    0  501  0.00000000000E+00  0.00000000000E+00  0.25209897352E+03  0.25209897353E+03  0.25500000920E-02 0.  1.
        2   -1    0    0  501    0  0.00000000000E+00  0.00000000000E+00 -0.35760774213E+03  0.35760774214E+03  0.25500000920E-02 0. -1.
    10030    2    1    2    0    0  0.00000000000E+00  0.00000000000E+00 -0.10550876862E+03  0.60970671567E+03  0.60050826712E+03 0.  0.
        3    1    3    3  502    0 -0.23464482489E+03  0.17451524098E+02 -0.24213165807E+03  0.33762479112E+03  0.10100000352E+00 0. -1.
       -3    1    3    3    0  502  0.23464482489E+03 -0.17451524098E+02  0.13662288945E+03  0.27208192455E+03  0.10100000352E+00 0.  1.
</event>
<event>
 5   0  0.9822607E-03  0.6007932E+03  0.7818609E-02  0.9903762E-01
        2   -1    0    0  501    0  0.00000000000E+00  0.00000000000E+00  0.10451121790E+04  0.10451121790E+04  0.25500000920E-02 0.  1.
       -2   -1    0    0    0  501  0.00000000000E+00  0.00000000000E+00 -0.86342991852E+02  0.86342991890E+02  0.25500000920E-02 0. -1.
    10030    2    1    2    0    0  0.00000000000E+00  0.00000000000E+00  0.95876918712E+03  0.11314551709E+04  0.60079318364E+03 0.  0.
        3    1    3    3  502    0 -0.27642476887E+03 -0.99953548620E+02  0.36273226959E+03  0.46687907892E+03  0.10100000352E+00 0. -1.
       -3    1    3    3    0  502  0.27642476887E+03  0.99953548620E+02  0.59603691753E+03  0.66457609194E+03  0.10100000352E+00 0.  1.
</event>
<event>
 5   0  0.3806250E-03  0.6002737E+03  0.7818609E-02  0.9904838E-01
        4   -1    0    0  501    0  0.00000000000E+00  0.00000000000E+00  0.16527342784E+03  0.16527830726E+03  0.12699999809E+01 0. -1.
       -4   -1    0    0    0  501  0.00000000000E+00  0.00000000000E+00 -0.54503541265E+03  0.54503689228E+03  0.12699999809E+01 0.  1.
    10030    2    1    2    0    0  0.00000000000E+00  0.00000000000E+00 -0.37976198481E+03  0.71031519953E+03  0.60027370222E+03 0.  0.
        2    1    3    3  502    0  0.28619996958E+03  0.74886794804E+02 -0.24979567387E+03  0.38719030633E+03  0.25500000920E-02 0.  1.
       -2    1    3    3    0  502 -0.28619996958E+03 -0.74886794804E+02 -0.12996631094E+03  0.32312489320E+03  0.25500000920E-02 0. -1.
</event>
<event>
 5   0  0.9162342E-03  0.5988131E+03  0.7818609E-02  0.9907872E-01
       -2   -1    0    0    0  501  0.00000000000E+00  0.00000000000E+00  0.11984027791E+03  0.11984027794E+03  0.25500000920E-02 0.  1.
        2   -1    0    0  501    0  0.00000000000E+00  0.00000000000E+00 -0.74803128478E+03  0.74803128478E+03  0.25500000920E-02 0. -1.
    10030    2    1    2    0    0  0.00000000000E+00  0.00000000000E+00 -0.62819100686E+03  0.86787156272E+03  0.59881308291E+03 0.  0.
        5    1    3    3  502    0 -0.25240373237E+02 -0.26142040335E+03 -0.10585452907E+03  0.28320482879E+03  0.46999998093E+01 0. -1.
       -5    1    3    3    0  502  0.25240373237E+02  0.26142040335E+03 -0.52233647780E+03  0.58466673393E+03  0.46999998093E+01 0.  1.
</event>
<event>
 5   0  0.5819446E-03  0.5995382E+03  0.7818609E-02  0.9906365E-01
        1   -1    0    0  501    0  0.00000000000E+00  0.00000000000E+00  0.50583917122E+03  0.50583917124E+03  0.50400001928E-02 0. -1.
       -1   -1    0    0    0  501  0.00000000000E+00  0.00000000000E+00 -0.17764836653E+03  0.17764836660E+03  0.50400001928E-02 0.  1.
    10030    2    1    2    0    0  0.00000000000E+00  0.00000000000E+00  0.32819080469E+03  0.68348753784E+03  0.59953816401E+03 0.  0.
        5    1    3    3  502    0 -0.20380600464E+03 -0.47076026128E+02  0.40883262706E+03  0.45925945468E+03  0.46999998093E+01 0. -1.
       -5    1    3    3    0  502  0.20380600464E+03  0.47076026128E+02 -0.80641822373E+02  0.22422808316E+03  0.46999998093E+01 0.  1.
</event>
<event>
 5   0  0.6078658E-03  0.5963486E+03  0.7818609E-02  0.9913011E-01
        1   -1    0    0  501    0  0.00000000000E+00  0.00000000000E+00  0.20051393583E+03  0.20051393589E+03  0.50400001928E-02 0. -1.
       -1   -1    0    0    0  501  0.00000000000E+00  0.00000000000E+00 -0.44340013766E+03  0.44340013768E+03  0.50400001928E-02 0.  1.
    10030    2    1    2    0    0  0.00000000000E+00  0.00000000000E+00 -0.24288620183E+03  0.64391407358E+03  0.59634857853E+03 0.  0.
        2    1    3    3  502    0 -0.29565043283E+03  0.35692084066E+02 -0.10525375733E+03  0.31585037080E+03  0.25500000920E-02 0. -1.
       -2    1    3    3    0  502  0.29565043283E+03 -0.35692084066E+02 -0.13763244450E+03  0.32806370278E+03  0.25500000920E-02 0.  1.
</event>
<event>
 5   0  0.9162342E-03  0.5999905E+03  0.7818609E-02  0.9905426E-01
       -2   -1    0    0    0  501  0.00000000000E+00  0.00000000000E+00  0.54370866589E+03  0.54370866590E+03  0.25500000920E-02 0. -1.
        2   -1    0    0  501    0  0.00000000000E+00  0.00000000000E+00 -0.16552457375E+03  0.16552457377E+03  0.25500000920E-02 0.  1.
    10030    2    1    2    0    0  0.00000000000E+00  0.00000000000E+00  0.37818409214E+03  0.70923323967E+03  0.59999048385E+03 0.  0.
        5    1    3    3  502    0  0.24736154941E+03  0.79431100119E+02  0.36631653797E+03  0.44911794863E+03  0.46999998093E+01 0. -1.
       -5    1    3    3    0  502 -0.24736154941E+03 -0.79431100119E+02  0.11867554174E+02  0.26011529104E+03  0.46999998093E+01 0.  1.
</event>
<event>
 5   0  0.9028473E-03  0.5989710E+03  0.7818609E-02  0.9907543E-01
        2   -1    0    0  501    0  0.00000000000E+00  0.00000000000E+00  0.71217537898E+03  0.71217537898E+03  0.25500000920E-02 0. -1.
       -2   -1    0    0    0  501  0.00000000000E+00  0.00000000000E+00 -0.12594028223E+03  0.12594028225E+03  0.25500000920E-02 0.  1.
    10030    2    1    2    0    0  0.00000000000E+00  0.00000000000E+00  0.58623509675E+03  0.83811566123E+03  0.59897101177E+03 0.  0.
        1    1    3    3  502    0  0.29176218134E+03 -0.18780370373E+02  0.20228746298E+03  0.35552509121E+03  0.50400001928E-02 0.  1.
       -1    1    3    3    0  502 -0.29176218134E+03  0.18780370373E+02  0.38394763377E+03  0.48259057002E+03  0.50400001928E-02 0. -1.
</event>
<event>
 5   0  0.6078658E-03  0.6007918E+03  0.7818609E-02  0.9903765E-01
        1   -1    0    0  501    0  0.00000000000E+00  0.00000000000E+00  0.25849736044E+03  0.25849736049E+03  0.50400001928E-02 0. -1.
       -1   -1    0    0    0  501  0.00000000000E+00  0.00000000000E+00 -0.34908550728E+03  0.34908550732E+03  0.50400001928E-02 0.  1.
    10030    2    1    2    0    0  0.00000000000E+00  0.00000000000E+00 -0.90588146847E+02  0.60758286780E+03  0.60079175169E+03 0.  0.
        2    1    3    3  502    0  0.11784513481E+03  0.88312037586E+02  0.21948829246E+03  0.26431345466E+03  0.25500000920E-02 0. -1.
       -2    1    3    3    0  502 -0.11784513481E+03 -0.88312037586E+02 -0.31007643931E+03  0.34326941314E+03  0.25500000920E-02 0.  1.
</event>
<event>
 5   0  0.9028473E-03  0.6004100E+03  0.7818609E-02  0.9904556E-01
        2   -1    0    0  501    0  0.00000000000E+00  0.00000000000E+00  0.13749830474E+04  0.13749830474E+04  0.25500000920E-02 0. -1.
       -2   -1    0    0    0  501  0.00000000000E+00  0.00000000000E+00 -0.65544841506E+02  0.65544841555E+02  0.25500000920E-02 0.  1.
    10030    2    1    2    0    0  0.00000000000E+00  0.00000000000E+00  0.13094382059E+04  0.14405278889E+04  0.60041001308E+03 0.  0.
        1    1    3    3  502    0  0.12089190383E+03  0.85512643205E+02  0.12812644357E+04  0.12897929364E+04  0.50400001928E-02 0. -1.
       -1    1    3    3    0  502 -0.12089190383E+03 -0.85512643205E+02  0.28173770142E+02  0.15073495251E+03  0.50400001928E-02 0.  1.
</event>
<event>
 5   0  0.5891927E-03  0.5992804E+03  0.7818609E-02  0.9906900E-01
       -1   -1    0    0    0  501  0.00000000000E+00  0.00000000000E+00  0.40299684890E+03  0.40299684894E+03  0.50400001928E-02 0. -1.
        1   -1    0    0  501    0  0.00000000000E+00  0.00000000000E+00 -0.22279141265E+03  0.22279141271E+03  0.50400001928E-02 0.  1.
    10030    2    1    2    0    0  0.00000000000E+00  0.00000000000E+00  0.18020543625E+03  0.62578826164E+03  0.59928035940E+03 0.  0.
        4    1    3    3  502    0  0.11958115710E+03  0.25123447120E+03 -0.26010212053E+02  0.27945761160E+03  0.12699999809E+01 0.  1.
       -4    1    3    3    0  502 -0.11958115710E+03 -0.25123447120E+03  0.20621564831E+03  0.34633065004E+03  0.12699999809E+01 0. -1.
</event>
<event>
 5   0  0.3806250E-03  0.6001198E+03  0.7818609E-02  0.9905158E-01
        3   -1    0    0  501    0  0.00000000000E+00  0.00000000000E+00  0.21604077791E+04  0.21604077814E+04  0.10100000352E+00 0.  1.
       -3   -1    0    0    0  501  0.00000000000E+00  0.00000000000E+00 -0.41675374622E+02  0.41675497008E+02  0.10100000352E+00 0. -1.
    10030    2    1    2    0    0  0.00000000000E+00  0.00000000000E+00  0.21187324045E+04  0.22020832784E+04  0.60011979098E+03 0.  0.
        4    1    3    3  502    0 -0.16889982113E+03 -0.13977680057E+03  0.18110987100E+04  0.18243203814E+04  0.12699999809E+01 0.  1.
       -4    1    3    3    0  502  0.16889982113E+03  0.13977680057E+03  0.30763369445E+03  0.37776289709E+03  0.12699999809E+01 0. -1.
</event>
<event>
 5   0  0.9822607E-03  0.5992990E+03  0.7818609E-02  0.9906862E-01
       -2   -1    0    0    0  501  0.00000000000E+00  0.00000000000E+00  0.66154122617E+03  0.66154122617E+03  0.25500000920E-02 0.  1.
        2   -1    0    0  501    0  0.00000000000E+00  0.00000000000E+00 -0.13572822916E+03  0.13572822919E+03  0.25500000920E-02 0. -1.
    10030    2    1    2    0    0  0.00000000000E+00  0.00000000000E+00  0.52581299700E+03  0.79726945536E+03  0.59929898767E+03 0.  0.
        3    1    3    3  502    0  0.22644620859E+02 -0.22715516699E+03  0.52113428236E+03  0.56894041797E+03  0.10100000352E+00 0.  1.
       -3    1    3    3    0  502 -0.22644620859E+02  0.22715516699E+03  0.46787146416E+01  0.22832903739E+03  0.10100000352E+00 0. -1.
</event>
<event>
 5   0  0.5891927E-03  0.5991660E+03  0.7818609E-02  0.9907138E-01
        1   -1    0    0  501    0  0.00000000000E+00  0.00000000000E+00  0.15315063402E+04  0.15315063402E+04  0.50400001928E-02 0. -1.
       -1   -1    0    0    0  501  0.00000000000E+00  0.00000000000E+00 -0.58602416293E+02  0.58602416510E+02  0.50400001928E-02 0.  1.
    10030    2    1    2    0    0  0.00000000000E+00  0.00000000000E+00  0.14729039239E+04  0.15901087567E+04  0.59916599463E+03 0.  0.
        4    1    3    3  502    0 -0.83765864866E+02 -0.28756931522E+03  0.72063342416E+03  0.78040180426E+03  0.12699999809E+01 0. -1.
       -4    1    3    3    0  502  0.83765864866E+02  0.28756931522E+03  0.75227049969E+03  0.80970695241E+03  0.12699999809E+01 0.  1.
</event>
<event>
 5   0  0.9822607E-03  0.5997010E+03  0.7818609E-02  0.9906027E-01
        2   -1    0    0  501    0  0.00000000000E+00  0.00000000000E+00  0.45712025635E+03  0.45712025635E+03  0.25500000920E-02 0.  1.
       -2   -1    0    0    0  501  0.00000000000E+00  0.00000000000E+00 -0.19668853865E+03  0.19668853867E+03  0.25500000920E-02 0. -1.
    10030    2    1    2    0    0  0.00000000000E+00  0.00000000000E+00  0.26043171770E+03  0.65380879502E+03  0.59970097621E+03 0.  0.
        3    1    3    3  502    0 -0.16043963947E+03 -0.70838136956E+02 -0.13493831218E+03  0.22128551208E+03  0.10100000352E+00 0. -1.
       -3    1    3    3    0  502  0.16043963947E+03  0.70838136956E+02  0.39537002988E+03  0.43252328294E+03  0.10100000352E+00 0.  1.
</event>
<event>
 5   0  0.9303190E-03  0.6008906E+03  0.7818609E-02  0.9903560E-01
        2   -1    0    0  501    0  0.00000000000E+00  0.00000000000E+00  0.60789597133E+03  0.60789597133E+03  0.25500000920E-02 0.  1.
       -2   -1    0    0    0  501  0.00000000000E+00  0.00000000000E+00 -0.14849150619E+03  0.14849150622E+03  0.25500000920E-02 0. -1.
    10030    2    1    2    0    0  0.00000000000E+00  0.00000000000E+00  0.45940446513E+03  0.75638747755E+03  0.60089063365E+03 0.  0.
        4    1    3    3  502    0 -0.15229375906E+03 -0.23473468983E+03  0.91970990310E+02  0.29454038707E+03  0.12699999809E+01 0. -1.
       -4    1    3    3    0  502  0.15229375906E+03  0.23473468983E+03  0.36743347482E+03  0.46184709047E+03  0.12699999809E+01 0.  1.
</event>
<event>
 5   0  0.9391405E-03  0.5978217E+03  0.7818609E-02  0.9909936E-01
       -2   -1    0    0    0  501  0.00000000000E+00  0.00000000000E+00  0.40982226955E+03  0.40982226956E+03  0.25500000920E-02 0.  1.
        2   -1    0    0  501    0  0.00000000000E+00  0.00000000000E+00 -0.21801570614E+03  0.21801570616E+03  0.25500000920E-02 0. -1.
    10030    2    1    2    0    0  0.00000000000E+00  0.00000000000E+00  0.19180656341E+03  0.62783797572E+03  0.59782168411E+03 0.  0.
        2    1    3    3  502    0 -0.28417236114E+03  0.90713954918E+02  0.11596033098E+03  0.32004648228E+03  0.25500000920E-02 0. -1.
       -2    1    3    3    0  502  0.28417236114E+03 -0.90713954918E+02  0.75846232437E+02  0.30779149344E+03  0.25500000920E-02 0.  1.
</event>
<event>
 5   0  0.9391405E-03  0.6001782E+03  0.7818609E-02  0.9905036E-01
       -2   -1    0    0    0  501  0.00000000000E+00  0.00000000000E+00  0.22850179866E+03  0.22850179867E+03  0.25500000920E-02 0. -1.
        2   -1    0    0  501    0  0.00000000000E+00  0.00000000000E+00 -0.39410403965E+03  0.39410403965E+03  0.25500000920E-02 0.  1.
    10030    2    1    2    0    0  0.00000000000E+00  0.00000000000E+00 -0.16560224099E+03  0.62260583833E+03  0.60017824660E+03 0.  0.
        2    1    3    3  502    0  0.18442884849E+03 -0.23004321126E+03 -0.14074166645E+03  0.32671408890E+03  0.25500000920E-02 0.  1.
       -2    1    3    3    0  502 -0.18442884849E+03  0.23004321126E+03 -0.24860574540E+02  0.29589174943E+03  0.25500000920E-02 0. -1.
</event>
<event>
 5   0  0.6078658E-03  0.6005500E+03  0.7818609E-02  0.9904266E-01
        1   -1    0    0  501    0  0.00000000000E+00  0.00000000000E+00  0.10299658156E+03  0.10299658168E+03  0.50400001928E-02 0. -1.
       -1   -1    0    0    0  501  0.00000000000E+00  0.00000000000E+00 -0.87541822986E+03  0.87541822988E+03  0.50400001928E-02 0.  1.
    10030    2    1    2    0    0  0.00000000000E+00  0.00000000000E+00 -0.77242164831E+03  0.97841481156E+03  0.60055003180E+03 0.  0.
        2    1    3    3  502    0 -0.15503544769E+03  0.11498203545E+03 -0.11466186648E+02  0.19336062671E+03  0.25500000920E-02 0. -1.
       -2    1    3    3    0  502  0.15503544769E+03 -0.11498203545E+03 -0.76095546166E+03  0.78505418485E+03  0.25500000920E-02 0.  1.
</event>
<event>
 5   0  0.9391405E-03  0.6001713E+03  0.7818609E-02  0.9905051E-01
       -2   -1    0    0    0  501  0.00000000000E+00  0.00000000000E+00  0.98156819601E+02  0.98156819634E+02  0.25500000920E-02 0.  1.
        2   -1    0    0  501    0  0.00000000000E+00  0.00000000000E+00 -0.91742361745E+03  0.91742361745E+03  0.25500000920E-02 0. -1.
    10030    2    1    2    0    0  0.00000000000E+00  0.00000000000E+00 -0.81926679785E+03  0.10155804371E+04  0.60017125734E+03 0.  0.
        2    1    3    3  502    0  0.24810272520E+03 -0.16854746678E+03 -0.42552284330E+03  0.52060820295E+03  0.25500000920E-02 0. -1.
       -2    1    3    3    0  502 -0.24810272520E+03  0.16854746678E+03 -0.39374395455E+03  0.49497223413E+03  0.25500000920E-02 0.  1.
</event>
<event>
 5   0  0.9162342E-03  0.5995482E+03  0.7818609E-02  0.9906344E-01
        2   -1    0    0  501    0  0.00000000000E+00  0.00000000000E+00  0.95855064812E+03  0.95855064812E+03  0.25500000920E-02 0. -1.
       -2   -1    0    0    0  501  0.00000000000E+00  0.00000000000E+00 -0.93750409318E+02  0.93750409353E+02  0.25500000920E-02 0.  1.
    10030    2    1    2    0    0  0.00000000000E+00  0.00000000000E+00  0.86480023880E+03  0.10523010575E+04  0.59954821535E+03 0.  0.
        5    1    3    3  502    0  0.48818107152E+02 -0.29005100254E+03  0.33112234727E+03  0.44291860485E+03  0.46999998093E+01 0. -1.
       -5    1    3    3    0  502 -0.48818107152E+02  0.29005100254E+03  0.53367789153E+03  0.60938245263E+03  0.46999998093E+01 0.  1.
</event>
<event>
 5   0  0.9162342E-03  0.6002044E+03  0.7818609E-02  0.9904982E-01
       -2   -1    0    0    0  501  0.00000000000E+00  0.00000000000E+00  0.10167797827E+04  0.10167797827E+04  0.25500000920E-02 0. -1.
        2   -1    0    0  501    0  0.00000000000E+00  0.00000000000E+00 -0.88575070061E+02  0.88575070098E+02  0.25500000920E-02 0.  1.
    10030    2    1    2    0    0  0.00000000000E+00  0.00000000000E+00  0.92820471266E+03  0.11053548528E+04  0.60020443355E+03 0.  0.
        5    1    3    3  502    0  0.42461943769E+02  0.29628833995E+03  0.50314550950E+03  0.58546331293E+03  0.46999998093E+01 0. -1.
       -5    1    3    3    0  502 -0.42461943769E+02 -0.29628833995E+03  0.42505920316E+03  0.51989153989E+03  0.46999998093E+01 0.  1.
</event>
<event>
 5   0  0.9822607E-03  0.6020136E+03  0.7818609E-02  0.9901237E-01
        2   -1    0    0  501    0  0.00000000000E+00  0.00000000000E+00  0.17831676949E+04  0.17831676949E+04  0.25500000920E-02 0. -1.
       -2   -1    0    0    0  501  0.00000000000E+00  0.00000000000E+00 -0.50811308302E+02  0.50811308366E+02  0.25500000920E-02 0.  1.
    10030    2    1    2    0    0  0.00000000000E+00  0.00000000000E+00  0.17323563866E+04  0.18339790033E+04  0.60201356650E+03 0.  0.
        3    1    3    3  502    0 -0.26675495403E+03 -0.79119601912E+02  0.12160108652E+04  0.12474375942E+04  0.10100000352E+00 0.  1.
       -3    1    3    3    0  502  0.26675495403E+03  0.79119601912E+02  0.51634552146E+03  0.58654140915E+03  0.10100000352E+00 0. -1.
</event>
<event>
 5   0  0.5819446E-03  0.5996055E+03  0.7818609E-02  0.9906225E-01
       -1   -1    0    0    0  501  0.00000000000E+00  0.00000000000E+00  0.10306465588E+04  0.10306465588E+04  0.50400001928E-02 0. -1.
        1   -1    0    0  501    0  0.00000000000E+00  0.00000000000E+00 -0.87209046184E+02  0.87209046330E+02  0.50400001928E-02 0.  1.
    10030    2    1    2    0    0  0.00000000000E+00  0.00000000000E+00  0.94343751261E+03  0.11178556051E+04  0.59960554845E+03 0.  0.
        5    1    3    3  502    0  0.93616267796E+02 -0.28290754236E+03  0.41105158356E+03  0.50772647899E+03  0.46999998093E+01 0.  1.
       -5    1    3    3    0  502 -0.93616267796E+02  0.28290754236E+03  0.53238592905E+03  0.61012912615E+03  0.46999998093E+01 0. -1.
</event>
<event>
 5   0  0.3806250E-03  0.5994710E+03  0.7818609E-02  0.9906504E-01
        3   -1    0    0  501    0  0.00000000000E+00  0.00000000000E+00  0.94502200813E+02  0.94502254785E+02  0.10100000352E+00 0.  1.
       -3   -1    0    0    0  501  0.00000000000E+00  0.00000000000E+00 -0.95068001747E+03  0.95068002284E+03  0.10100000352E+00 0. -1.
    10030    2    1    2    0    0  0.00000000000E+00  0.00000000000E+00 -0.85617781666E+03  0.10451822776E+04  0.59947104994E+03 0.  0.
        5    1    3    3  502    0 -0.18658542027E+03  0.20730681547E+02 -0.20781466841E+02  0.18893871910E+03  0.46999998093E+01 0.  1.
       -5    1    3    3    0  502  0.18658542027E+03 -0.20730681547E+02 -0.83539634982E+03  0.85624355852E+03  0.46999998093E+01 0. -1.
</event>
<event>
 5   0  0.5765045E-03  0.5994702E+03  0.7818609E-02  0.9906506E-01
        1   -1    0    0  501    0  0.00000000000E+00  0.00000000000E+00  0.23611134604E+03  0.23611134610E+03  0.50400001928E-02 0. -1.
       -1   -1    0    0    0  501  0.00000000000E+00  0.00000000000E+00 -0.38050326745E+03  0.38050326748E+03  0.50400001928E-02 0.  1.
    10030    2    1    2    0    0  0.00000000000E+00  0.00000000000E+00 -0.14439192141E+03  0.61661461358E+03  0.59947022838E+03 0.  0.
        1    1    3    3  502    0 -0.27667684604E+03  0.18698409373E+02 -0.18920983106E+03  0.33570830768E+03  0.50400001928E-02 0.  1.
       -1    1    3    3    0  502  0.27667684604E+03 -0.18698409373E+02  0.44817909658E+02  0.28090630591E+03  0.50400001928E-02 0. -1.
</event>
<event>
 5   0  0.9822607E-03  0.5998742E+03  0.7818609E-02  0.9905667E-01
       -2   -1    0    0    0  501  0.00000000000E+00  0.00000000000E+00  0.71863872051E+02  0.71863872097E+02  0.25500000920E-02 0. -1.
        2   -1    0    0  501    0  0.00000000000E+00  0.00000000000E+00 -0.12518426759E+04  0.12518426759E+04  0.25500000920E-02 0.  1.
    10030    2    1    2    0    0  0.00000000000E+00  0.00000000000E+00 -0.11799788039E+04  0.13237065480E+04  0.59987419322E+03 0.  0.
        3    1    3    3  502    0 -0.14257773358E+03 -0.18826943086E+03 -0.18197891399E+03  0.29814446842E+03  0.10100000352E+00 0. -1.
       -3    1    3    3    0  502  0.14257773358E+03  0.18826943086E+03 -0.99799988989E+03  0.10255620796E+04  0.10100000352E+00 0.  1.
</event>
<event>
 5   0  0.3806250E-03  0.5984071E+03  0.7818609E-02  0.9908716E-01
       -4   -1    0    0    0  501  0.00000000000E+00  0.00000000000E+00  0.35911755299E+03  0.35911979863E+03  0.12699999809E+01 0.  1.
        4   -1    0    0  501    0  0.00000000000E+00  0.00000000000E+00 -0.24928072579E+03  0.24928396088E+03  0.12699999809E+01 0. -1.
    10030    2    1    2    0    0  0.00000000000E+00  0.00000000000E+00  0.10983682720E+03  0.60840375951E+03  0.59840705709E+03 0.  0.
        4    1    3    3  502    0  0.78795555136E+02 -0.25770376104E+03  0.18709470905E+03  0.32806403494E+03  0.12699999809E+01 0.  1.
       -4    1    3    3    0  502 -0.78795555136E+02  0.25770376104E+03 -0.77257881850E+02  0.28033972457E+03  0.12699999809E+01 0. -1.
</event>
<event>
 5   0  0.9303190E-03  0.5998625E+03  0.7818609E-02  0.9905691E-01
        2   -1    0    0  501    0  0.00000000000E+00  0.00000000000E+00  0.14285823062E+04  0.14285823062E+04  0.25500000920E-02 0.  1.
       -2   -1    0    0    0  501  0.00000000000E+00  0.00000000000E+00 -0.62970652841E+02  0.62970652893E+02  0.25500000920E-02 0. -1.
    10030    2    1    2    0    0  0.00000000000E+00  0.00000000000E+00  0.13656116534E+04  0.14915529591E+04  0.59986251925E+03 0.  0.
        4    1    3    3  502    0 -0.70943651873E+02  0.57674178739E+02 -0.27468748142E+02  0.95474905911E+02  0.12699999809E+01 0. -1.
       -4    1    3    3    0  502  0.70943651873E+02 -0.57674178739E+02  0.13930804015E+04  0.13960780532E+04  0.12699999809E+01 0.  1.
</event>
<event>
 5   0  0.3806250E-03  0.6004501E+03  0.7818609E-02  0.9904473E-01
       -3   -1    0    0    0  501  0.00000000000E+00  0.00000000000E+00  0.10678013965E+04  0.10678014013E+04  0.10100000352E+00 0.  1.
        3   -1    0    0  501    0  0.00000000000E+00  0.00000000000E+00 -0.84411796463E+02  0.84411856887E+02  0.10100000352E+00 0. -1.
    10030    2    1    2    0    0  0.00000000000E+00  0.00000000000E+00  0.98338960003E+03  0.11522132582E+04  0.60045007022E+03 0.  0.
        2    1    3    3  502    0 -0.73053887815E+02 -0.28461506867E+03  0.60986737356E+03  0.67696441648E+03  0.25500000920E-02 0.  1.
       -2    1    3    3    0  502  0.73053887815E+02  0.28461506867E+03  0.37352222647E+03  0.47524884168E+03  0.25500000920E-02 0. -1.
</event>
<event>
 5   0  0.5891927E-03  0.6010616E+03  0.7818609E-02  0.9903206E-01
       -1   -1    0    0    0  501  0.00000000000E+00  0.00000000000E+00  0.85929218689E+02  0.85929218837E+02  0.50400001928E-02 0.  1.
        1   -1    0    0  501    0  0.00000000000E+00  0.00000000000E+00 -0.10510831567E+04  0.10510831567E+04  0.50400001928E-02 0. -1.
    10030    2    1    2    0    0  0.00000000000E+00  0.00000000000E+00 -0.96515393800E+03  0.11370123755E+04  0.60106157596E+03 0.  0.
        4    1    3    3  502    0 -0.13249966340E+03 -0.19241468338E+03 -0.84018621433E+03  0.87206310484E+03  0.12699999809E+01 0. -1.
       -4    1    3    3    0  502  0.13249966340E+03  0.19241468338E+03 -0.12496772367E+03  0.26494927069E+03  0.12699999809E+01 0.  1.
</event>
<event>
 5   0  0.9303190E-03  0.6000496E+03  0.7818609E-02  0.9905303E-01
        2   -1    0    0  501    0  0.00000000000E+00  0.00000000000E+00  0.18965898912E+04  0.18965898912E+04  0.25500000920E-02 0. -1.
       -2   -1    0    0    0  501  0.00000000000E+00  0.00000000000E+00 -0.47461436629E+02  0.47461436698E+02  0.25500000920E-02 0.  1.
    10030    2    1    2    0    0  0.00000000000E+00  0.00000000000E+00  0.18491284546E+04  0.19440513279E+04  0.60004960129E+03 0.  0.
        4    1    3    3  502    0  0.21901550514E+03  0.20128125947E+03  0.10513455098E+04  0.10926165525E+04  0.12699999809E+01 0. -1.
       -4    1    3    3    0  502 -0.21901550514E+03 -0.20128125947E+03  0.79778294477E+03  0.85143477540E+03  0.12699999809E+01 0.  1.
</event>
<event>
 5   0  0.9028473E-03  0.5979757E+03  0.7818609E-02  0.9909615E-01
        2   -1    0    0  501    0  0.00000000000E+00  0.00000000000E+00  0.14042202415E+04  0.14042202415E+04  0.25500000920E-02 0. -1.
       -2   -1    0    0    0  501  0.00000000000E+00  0.00000000000E+00 -0.63660754224E+02  0.63660754276E+02  0.25500000920E-02 0.  1.
    10030    2    1    2    0    0  0.00000000000E+00  0.00000000000E+00  0.13405594872E+04  0.14678809957E+04  0.59797565070E+03 0.  0.
        1    1    3    3  502    0 -0.25584813281E+03 -0.99590846921E+02  0.96090722539E+03  0.99935944468E+03  0.50400001928E-02 0. -1.
       -1    1    3    3    0  502  0.25584813281E+03  0.99590846921E+02  0.37965226185E+03  0.46852155106E+03  0.50400001928E-02 0.  1.
</event>
<event>
 5   0  0.9391405E-03  0.6005615E+03  0.7818609E-02  0.9904242E-01
       -2   -1    0    0    0  501  0.00000000000E+00  0.00000000000E+00  0.58271300146E+02  0.58271300202E+02  0.25500000920E-02 0.  1.
        2   -1    0    0  501    0  0.00000000000E+00  0.00000000000E+00 -0.15473919837E+04  0.15473919837E+04  0.25500000920E-02 0. -1.
    10030    2    1    2    0    0  0.00000000000E+00  0.00000000000E+00 -0.14891206835E+04  0.16056632839E+04  0.60056154646E+03 0.  0.
        2    1    3    3  502    0 -0.34400546925E+02  0.16533062924E+03 -0.80715224668E+02  0.18716987496E+03  0.25500000920E-02 0.  1.
       -2    1    3    3    0  502  0.34400546925E+02 -0.16533062924E+03 -0.14084054589E+04  0.14184934089E+04  0.25500000920E-02 0. -1.
</event>
<event>
 5   0  0.5790967E-03  0.5978634E+03  0.7818609E-02  0.9909849E-01
        1   -1    0    0  501    0  0.00000000000E+00  0.00000000000E+00  0.85911514809E+03  0.85911514811E+03  0.50400001928E-02 0.  1.
       -1   -1    0    0    0  501  0.00000000000E+00  0.00000000000E+00 -0.10401420125E+03  0.10401420137E+03  0.50400001928E-02 0. -1.
    10030    2    1    2    0    0  0.00000000000E+00  0.00000000000E+00  0.75510094685E+03  0.96312934948E+03  0.59786344920E+03 0.  0.
        3    1    3    3  502    0 -0.61347684111E+02 -0.18633641676E+03  0.14191079502E+02  0.19668806648E+03  0.10100000352E+00 0. -1.
       -3    1    3    3    0  502  0.61347684111E+02  0.18633641676E+03  0.74090986735E+03  0.76644128300E+03  0.10100000352E+00 0.  1.
</event>
<event>
 5   0  0.3806250E-03  0.6009099E+03  0.7818609E-02  0.9903520E-01
        3   -1    0    0  501    0  0.00000000000E+00  0.00000000000E+00  0.45166753822E+03  0.45166754951E+03  0.10100000352E+00 0. -1.
       -3   -1    0    0    0  501  0.00000000000E+00  0.00000000000E+00 -0.19986643138E+03  0.19986645690E+03  0.10100000352E+00 0.  1.
    10030    2    1    2    0    0  0.00000000000E+00  0.00000000000E+00  0.25180110684E+03  0.65153400641E+03  0.60090994675E+03 0.  0.
        2    1    3    3  502    0 -0.11357104758E+03 -0.23051089266E+02 -0.17465941635E+03  0.20960831875E+03  0.25500000920E-02 0.  1.
       -2    1    3    3    0  502  0.11357104758E+03  0.23051089266E+02  0.42646052319E+03  0.44192568766E+03  0.25500000920E-02 0. -1.
</event>
<event>
 5   0  0.5891927E-03  0.5998073E+03  0.7818609E-02  0.9905806E-01
        1   -1    0    0  501    0  0.00000000000E+00  0.00000000000E+00  0.20039219073E+03  0.20039219079E+03  0.50400001928E-02 0. -1.
       -1   -1    0    0    0  501  0.00000000000E+00  0.00000000000E+00 -0.44883080331E+03  0.44883080334E+03  0.50400001928E-02 0.  1.
    10030    2    1    2    0    0  0.00000000000E+00  0.00000000000E+00 -0.24843861258E+03  0.64922299414E+03  0.59980726229E+03 0.  0.
        4    1    3    3  502    0 -0.16440043411E+03 -0.11245258233E+03 -0.36689471490E+03  0.41747626367E+03  0.12699999809E+01 0.  1.
       -4    1    3    3    0  502  0.16440043411E+03  0.11245258233E+03  0.11845610231E+03  0.23174673047E+03  0.12699999809E+01 0. -1.
</event>
<event>
 5   0  0.6078658E-03  0.6005136E+03  0.7818609E-02  0.9904341E-01
        1   -1    0    0  501    0  0.00000000000E+00  0.00000000000E+00  0.41946997281E+03  0.41946997284E+03  0.50400001928E-02 0.  1.
       -1   -1    0    0    0  501  0.00000000000E+00  0.00000000000E+00 -0.21492396651E+03  0.21492396657E+03  0.50400001928E-02 0. -1.
    10030    2    1    2    0    0  0.00000000000E+00  0.00000000000E+00  0.20454600630E+03  0.63439393942E+03  0.60051361489E+03 0.  0.
        2    1    3    3  502    0 -0.91066130211E+02  0.18833172512E+03 -0.12526764275E+03  0.24383162446E+03  0.25500000920E-02 0. -1.
       -2    1    3    3    0  502  0.91066130211E+02 -0.18833172512E+03  0.32981364905E+03  0.39056231496E+03  0.25500000920E-02 0.  1.
</event>
<event>
 5   0  0.9391405E-03  0.5972769E+03  0.7818609E-02  0.9911072E-01
        2   -1    0    0  501    0  0.00000000000E+00  0.00000000000E+00  0.19123261861E+03  0.19123261863E+03  0.25500000920E-02 0. -1.
       -2   -1    0    0    0  501  0.00000000000E+00  0.00000000000E+00 -0.46636880567E+03  0.46636880568E+03  0.25500000920E-02 0.  1.
    10030    2    1    2    0    0  0.00000000000E+00  0.00000000000E+00 -0.27513618707E+03  0.65760142431E+03  0.59727691385E+03 0.  0.
        2    1    3    3  502    0  0.19054921541E+03 -0.89023596974E+01 -0.39055048426E+03  0.43464690988E+03  0.25500000920E-02 0.  1.
       -2    1    3    3    0  502 -0.19054921541E+03  0.89023596974E+01  0.11541429720E+03  0.22295451443E+03  0.25500000920E-02 0. -1.
</event>
<event>
 5   0  0.9162342E-03  0.6000898E+03  0.7818609E-02  0.9905220E-01
        2   -1    0    0  501    0  0.00000000000E+00  0.00000000000E+00  0.19206381571E+03  0.19206381572E+03  0.25500000920E-02 0. -1.
       -2   -1    0    0    0  501  0.00000000000E+00  0.00000000000E+00 -0.46873447865E+03  0.46873447866E+03  0.25500000920E-02 0.  1.
    10030    2    1    2    0    0  0.00000000000E+00  0.00000000000E+00 -0.27667066295E+03  0.66079829438E+03  0.60008976839E+03 0.  0.
        5    1    3    3  502    0  0.29702134677E+03 -0.11727658025E+01 -0.91853787084E+02  0.31093771726E+03  0.46999998093E+01 0. -1.
       -5    1    3    3    0  502 -0.29702134677E+03  0.11727658025E+01 -0.18481687586E+03  0.34986057712E+03  0.46999998093E+01 0.  1.
</event>
<event>
 5   0  0.5765045E-03  0.6086242E+03  0.7818609E-02  0.9887673E-01
       -1   -1    0    0    0  501  0.00000000000E+00  0.00000000000E+00  0.10461148903E+03  0.10461148915E+03  0.50400001928E-02 0.  1.
        1   -1    0    0  501    0  0.00000000000E+00  0.00000000000E+00 -0.88523596261E+03  0.88523596263E+03  0.50400001928E-02 0. -1.
    10030    2    1    2    0    0  0.00000000000E+00  0.00000000000E+00 -0.78062447359E+03  0.98984745177E+03  0.60862419359E+03 0.  0.
        1    1    3    3  502    0 -0.34024972564E+02  0.28939859629E+03 -0.24763040283E+03  0.38240039582E+03  0.50400001928E-02 0.  1.
       -1    1    3    3    0  502  0.34024972564E+02 -0.28939859629E+03 -0.53299407076E+03  0.60744705595E+03  0.50400001928E-02 0. -1.
</event>
<event>
 5   0  0.9028473E-03  0.6006412E+03  0.7818609E-02  0.9904077E-01
        2   -1    0    0  501    0  0.00000000000E+00  0.00000000000E+00  0.10333910389E+04  0.10333910389E+04  0.25500000920E-02 0.  1.
       -2   -1    0    0    0  501  0.00000000000E+00  0.00000000000E+00 -0.87278142204E+02  0.87278142241E+02  0.25500000920E-02 0. -1.
    10030    2    1    2    0    0  0.00000000000E+00  0.00000000000E+00  0.94611289671E+03  0.11206691812E+04  0.60064115766E+03 0.  0.
        1    1    3    3  502    0 -0.28628757025E+03 -0.74531255745E+02  0.37652162228E+03  0.47883610248E+03  0.50400001928E-02 0.  1.
       -1    1    3    3    0  502  0.28628757025E+03  0.74531255745E+02  0.56959127442E+03  0.64183307868E+03  0.50400001928E-02 0. -1.
</event>
<event>
 5   0  0.5891927E-03  0.5998598E+03  0.7818609E-02  0.9905697E-01
       -1   -1    0    0    0  501  0.00000000000E+00  0.00000000000E+00  0.20692491573E+03  0.20692491579E+03  0.50400001928E-02 0.  1.
        1   -1    0    0  501    0  0.00000000000E+00  0.00000000000E+00 -0.43473716661E+03  0.43473716664E+03  0.50400001928E-02 0. -1.
    10030    2    1    2    0    0  0.00000000000E+00  0.00000000000E+00 -0.22781225088E+03  0.64166208244E+03  0.59985982228E+03 0.  0.
        4    1    3    3  502    0 -0.19974041007E+03  0.14923803050E+03  0.64408171447E+02  0.25752329334E+03  0.12699999809E+01 0.  1.
       -4    1    3    3    0  502  0.19974041007E+03 -0.14923803050E+03 -0.29222042233E+03  0.38413878910E+03  0.12699999809E+01 0. -1.
</event>
<event>
 5   0  0.9162342E-03  0.6013241E+03  0.7818609E-02  0.9902663E-01
       -2   -1    0    0    0  501  0.00000000000E+00  0.00000000000E+00  0.20365524788E+03  0.20365524790E+03  0.25500000920E-02 0. -1.
        2   -1    0    0  501    0  0.00000000000E+00  0.00000000000E+00 -0.44387598839E+03  0.44387598840E+03  0.25500000920E-02 0.  1.
    10030    2    1    2    0    0  0.00000000000E+00  0.00000000000E+00 -0.24022074051E+03  0.64753123630E+03  0.60132412043E+03 0.  0.
        5    1    3    3  502    0  0.17384593694E+03  0.22681106755E+03 -0.19611995268E+02  0.28648279269E+03  0.46999998093E+01 0. -1.
       -5    1    3    3    0  502 -0.17384593694E+03 -0.22681106755E+03 -0.22060874525E+03  0.36104844361E+03  0.46999998093E+01 0.  1.
</event>
<event>
 5   0  0.9303190E-03  0.6014475E+03  0.7818609E-02  0.9902408E-01
       -2   -1    0    0    0  501  0.00000000000E+00  0.00000000000E+00  0.86778261473E+02  0.86778261510E+02  0.25500000920E-02 0.  1.
        2   -1    0    0  501    0  0.00000000000E+00  0.00000000000E+00 -0.10421362277E+04  0.10421362277E+04  0.25500000920E-02 0. -1.
    10030    2    1    2    0    0  0.00000000000E+00  0.00000000000E+00 -0.95535796626E+03  0.11289144893E+04  0.60144748760E+03 0.  0.
        4    1    3    3  502    0  0.50541521540E+02 -0.25461575809E+03 -0.19271213053E+03  0.32330049152E+03  0.12699999809E+01 0.  1.
       -4    1    3    3    0  502 -0.50541521540E+02  0.25461575809E+03 -0.76264583574E+03  0.80561399773E+03  0.12699999809E+01 0. -1.
</event>
<event>
 5   0  0.9162342E-03  0.6001735E+03  0.7818609E-02  0.9905046E-01
       -2   -1    0    0    0  501  0.00000000000E+00  0.00000000000E+00  0.85482587285E+02  0.85482587323E+02  0.25500000920E-02 0. -1.
        2   -1    0    0  501    0  0.00000000000E+00  0.00000000000E+00 -0.10534550874E+04  0.10534550874E+04  0.25500000920E-02 0.  1.
    10030    2    1    2    0    0  0.00000000000E+00  0.00000000000E+00 -0.96797250008E+03  0.11389376747E+04  0.60017352984E+03 0.  0.
        5    1    3    3  502    0  0.12967185869E+03 -0.26445460017E+03 -0.59265145879E+03  0.66182238410E+03  0.46999998093E+01 0. -1.
       -5    1    3    3    0  502 -0.12967185869E+03  0.26445460017E+03 -0.37532104129E+03  0.47711529060E+03  0.46999998093E+01 0.  1.
</event>
<event>
 5   0  0.9162342E-03  0.5998453E+03  0.7818609E-02  0.9905727E-01
        2   -1    0    0  501    0  0.00000000000E+00  0.00000000000E+00  0.73307559506E+02  0.73307559550E+02  0.25500000920E-02 0.  1.
       -2   -1    0    0    0  501  0.00000000000E+00  0.00000000000E+00 -0.12270713312E+04  0.12270713312E+04  0.25500000920E-02 0. -1.
    10030    2    1    2    0    0  0.00000000000E+00  0.00000000000E+00 -0.11537637716E+04  0.13003788907E+04  0.59984532892E+03 0.  0.
        5    1    3    3  502    0  0.36154646069E+02  0.22919708337E+03 -0.16502868986E+03  0.28477187350E+03  0.46999998093E+01 0.  1.
       -5    1    3    3    0  502 -0.36154646069E+02 -0.22919708337E+03 -0.98873508178E+03  0.10156070172E+04  0.46999998093E+01 0. -1.
</event>
<event>
 5   0  0.9162342E-03  0.6001093E+03  0.7818609E-02  0.9905179E-01
       -2   -1    0    0    0  501  0.00000000000E+00  0.00000000000E+00  0.12152122213E+03  0.12152122215E+03  0.25500000920E-02 0. -1.
        2   -1    0    0  501    0  0.00000000000E+00  0.00000000000E+00 -0.74088131522E+03  0.74088131523E+03  0.25500000920E-02 0.  1.
    10030    2    1    2    0    0  0.00000000000E+00  0.00000000000E+00 -0.61936009309E+03  0.86240253738E+03  0.60010933301E+03 0.  0.
        5    1    3    3  502    0 -0.27230326873E+03  0.63660578740E+02 -0.15351432304E+03  0.31904619857E+03  0.46999998093E+01 0. -1.
       -5    1    3    3    0  502  0.27230326873E+03 -0.63660578740E+02 -0.46584577006E+03  0.54335633881E+03  0.46999998093E+01 0.  1.
</event>
<event>
 5   0  0.9028473E-03  0.6006599E+03  0.7818609E-02  0.9904038E-01
       -2   -1    0    0    0  501  0.00000000000E+00  0.00000000000E+00  0.69733853984E+02  0.69733854030E+02  0.25500000920E-02 0.  1.
        2   -1    0    0  501    0  0.00000000000E+00  0.00000000000E+00 -0.12934619634E+04  0.12934619634E+04  0.25500000920E-02 0. -1.
    10030    2    1    2    0    0  0.00000000000E+00  0.00000000000E+00 -0.12237281094E+04  0.13631958174E+04  0.60065992949E+03 0.  0.
        1    1    3    3  502    0  0.26616268045E+03  0.75524285060E+02 -0.87703218310E+03  0.91963685242E+03  0.50400001928E-02 0. -1.
       -1    1    3    3    0  502 -0.26616268045E+03 -0.75524285060E+02 -0.34669592633E+03  0.44355896503E+03  0.50400001928E-02 0.  1.
</event>
<event>
 5   0  0.6078658E-03  0.5998251E+03  0.7818609E-02  0.9905769E-01
        1   -1    0    0  501    0  0.00000000000E+00  0.00000000000E+00  0.29705917365E+03  0.29705917369E+03  0.50400001928E-02 0. -1.
       -1   -1    0    0    0  501  0.00000000000E+00  0.00000000000E+00 -0.30279332830E+03  0.30279332834E+03  0.50400001928E-02 0.  1.
    10030    2    1    2    0    0  0.00000000000E+00  0.00000000000E+00 -0.57341546509E+01  0.59985250203E+03  0.59982509423E+03 0.  0.
        2    1    3    3  502    0  0.28504510979E+03  0.16490710012E+02 -0.94658404301E+02  0.30080370949E+03  0.25500000920E-02 0.  1.
       -2    1    3    3    0  502 -0.28504510979E+03 -0.16490710012E+02  0.88924249650E+02  0.29904879254E+03  0.25500000920E-02 0. -1.
</event>
<event>
 5   0  0.9303190E-03  0.6007565E+03  0.7818609E-02  0.9903838E-01
        2   -1    0    0  501    0  0.00000000000E+00  0.00000000000E+00  0.83161027362E+03  0.83161027363E+03  0.25500000920E-02 0.  1.
       -2   -1    0    0    0  501  0.00000000000E+00  0.00000000000E+00 -0.10849685860E+03  0.10849685863E+03  0.25500000920E-02 0. -1.
    10030    2    1    2    0    0  0.00000000000E+00  0.00000000000E+00  0.72311341502E+03  0.94010713226E+03  0.60075653066E+03 0.  0.
        4    1    3    3  502    0  0.47183142135E+02 -0.29122063695E+03  0.27317563102E+03  0.40207243945E+03  0.12699999809E+01 0. -1.
       -4    1    3    3    0  502 -0.47183142135E+02  0.29122063695E+03  0.44993778401E+03  0.53803469281E+03  0.12699999809E+01 0.  1.
</event>
<event>
 5   0  0.5790967E-03  0.5992945E+03  0.7818609E-02  0.9906871E-01
        1   -1    0    0  501    0  0.00000000000E+00  0.00000000000E+00  0.38706050698E+03  0.38706050701E+03  0.50400001928E-02 0.  1.
       -1   -1    0    0    0  501  0.00000000000E+00  0.00000000000E+00 -0.23197529722E+03  0.23197529728E+03  0.50400001928E-02 0. -1.
    10030    2    1    2    0    0  0.00000000000E+00  0.00000000000E+00  0.15508520976E+03  0.61903580429E+03  0.59929450582E+03 0.  0.
        3    1    3    3  502    0 -0.17893320428E+03  0.11152944848E+03 -0.14238542225E+03  0.25441998377E+03  0.10100000352E+00 0. -1.
       -3    1    3    3    0  502  0.17893320428E+03 -0.11152944848E+03  0.29747063200E+03  0.36461582052E+03  0.10100000352E+00 0.  1.
</event>
<event>
 5   0  0.9822607E-03  0.5997151E+03  0.7818609E-02  0.9905997E-01
       -2   -1    0    0    0  501  0.00000000000E+00  0.00000000000E+00  0.29437431350E+03  0.29437431351E+03  0.25500000920E-02 0.  1.
        2   -1    0    0  501    0  0.00000000000E+00  0.00000000000E+00 -0.30544294263E+03  0.30544294264E+03  0.25500000920E-02 0. -1.
    10030    2    1    2    0    0  0.00000000000E+00  0.00000000000E+00 -0.11068629126E+02  0.59981725615E+03  0.59971512089E+03 0.  0.
        3    1    3    3  502    0 -0.29527803650E+03 -0.26690507198E+02 -0.50408918385E+02  0.30073671420E+03  0.10100000352E+00 0. -1.
       -3    1    3    3    0  502  0.29527803650E+03  0.26690507198E+02  0.39340289259E+02  0.29908054195E+03  0.10100000352E+00 0.  1.
</event>
<event>
 5   0  0.5891927E-03  0.5967560E+03  0.7818609E-02  0.9912159E-01
       -1   -1    0    0    0  501  0.00000000000E+00  0.00000000000E+00  0.37913188017E+03  0.37913188020E+03  0.50400001928E-02 0.  1.
        1   -1    0    0  501    0  0.00000000000E+00  0.00000000000E+00 -0.23482440803E+03  0.23482440808E+03  0.50400001928E-02 0. -1.
    10030    2    1    2    0    0  0.00000000000E+00  0.00000000000E+00  0.14430747214E+03  0.61395628828E+03  0.59675596135E+03 0.  0.
        4    1    3    3  502    0 -0.26928623029E+03  0.99461809659E+02 -0.11555299615E+02  0.28730273798E+03  0.12699999809E+01 0. -1.
       -4    1    3    3    0  502  0.26928623029E+03 -0.99461809659E+02  0.15586277176E+03  0.32665355030E+03  0.12699999809E+01 0.  1.
</event>
<event>
 5   0  0.9028473E-03  0.5995078E+03  0.7818609E-02  0.9906428E-01
        2   -1    0    0  501    0  0.00000000000E+00  0.00000000000E+00  0.85001485789E+03  0.85001485789E+03  0.25500000920E-02 0. -1.
       -2   -1    0    0    0  501  0.00000000000E+00  0.00000000000E+00 -0.10570684274E+03  0.10570684277E+03  0.25500000920E-02 0.  1.
    10030    2    1    2    0    0  0.00000000000E+00  0.00000000000E+00  0.74430801515E+03  0.95572170066E+03  0.59950775450E+03 0.  0.
        1    1    3    3  502    0 -0.24622247606E+03 -0.14987856166E+03  0.24105003913E+03  0.37575818335E+03  0.50400001928E-02 0.  1.
       -1    1    3    3    0  502  0.24622247606E+03  0.14987856166E+03  0.50325797602E+03  0.57996351731E+03  0.50400001928E-02 0. -1.
</event>
<event>
 5   0  0.5819446E-03  0.6003201E+03  0.7818609E-02  0.9904742E-01
       -1   -1    0    0    0  501  0.00000000000E+00  0.00000000000E+00  0.18274206226E+03  0.18274206233E+03  0.50400001928E-02 0. -1.
        1   -1    0    0  501    0  0.00000000000E+00  0.00000000000E+00 -0.49302305421E+03  0.49302305424E+03  0.50400001928E-02 0.  1.
    10030    2    1    2    0    0  0.00000000000E+00  0.00000000000E+00 -0.31028099195E+03  0.67576511657E+03  0.60032008030E+03 0.  0.
        5    1    3    3  502    0  0.35521145755E+02  0.10972065178E+03 -0.46704296567E+03  0.48109416438E+03  0.46999998093E+01 0.  1.
       -5    1    3    3    0  502 -0.35521145755E+02 -0.10972065178E+03  0.15676197372E+03  0.19467095219E+03  0.46999998093E+01 0. -1.
</event>
<event>
 5   0  0.5891927E-03  0.5998331E+03  0.7818609E-02  0.9905752E-01
       -1   -1    0    0    0  501  0.00000000000E+00  0.00000000000E+00  0.12360621556E+03  0.12360621566E+03  0.50400001928E-02 0.  1.
        1   -1    0    0  501    0  0.00000000000E+00  0.00000000000E+00 -0.72771374764E+03  0.72771374766E+03  0.50400001928E-02 0. -1.
    10030    2    1    2    0    0  0.00000000000E+00  0.00000000000E+00 -0.60410753208E+03  0.85131996332E+03  0.59983311815E+03 0.  0.
        4    1    3    3  502    0 -0.11222963617E+03 -0.14228720754E+03  0.37108687417E+02  0.18498596770E+03  0.12699999809E+01 0.  1.
       -4    1    3    3    0  502  0.11222963617E+03  0.14228720754E+03 -0.64121621950E+03  0.66633399562E+03  0.12699999809E+01 0. -1.
</event>
<event>
 5   0  0.9822607E-03  0.5998412E+03  0.7818609E-02  0.9905736E-01
       -2   -1    0    0    0  501  0.00000000000E+00  0.00000000000E+00  0.18581812130E+03  0.18581812132E+03  0.25500000920E-02 0. -1.
        2   -1    0    0  501    0  0.00000000000E+00  0.00000000000E+00 -0.48408827967E+03  0.48408827968E+03  0.25500000920E-02 0.  1.
    10030    2    1    2    0    0  0.00000000000E+00  0.00000000000E+00 -0.29827015837E+03  0.66990640099E+03  0.59984122792E+03 0.  0.
        3    1    3    3  502    0  0.26143164356E+03 -0.92054467974E+02 -0.21155544594E+02  0.27797139529E+03  0.10100000352E+00 0. -1.
       -3    1    3    3    0  502 -0.26143164356E+03  0.92054467974E+02 -0.27711461378E+03  0.39193500571E+03  0.10100000352E+00 0.  1.
</event>
<event>
 5   0  0.5819446E-03  0.6000659E+03  0.7818609E-02  0.9905269E-01
       -1   -1    0    0    0  501  0.00000000000E+00  0.00000000000E+00  0.12634411997E+03  0.12634412007E+03  0.50400001928E-02 0.  1.
        1   -1    0    0  501    0  0.00000000000E+00  0.00000000000E+00 -0.71249681720E+03  0.71249681722E+03  0.50400001928E-02 0. -1.
    10030    2    1    2    0    0  0.00000000000E+00  0.00000000000E+00 -0.58615269723E+03  0.83884093728E+03  0.60006594103E+03 0.  0.
        5    1    3    3  502    0  0.27873318864E+03  0.84937959293E+02 -0.39281974464E+03  0.48911766391E+03  0.46999998093E+01 0. -1.
       -5    1    3    3    0  502 -0.27873318864E+03 -0.84937959293E+02 -0.19333295260E+03  0.34972327337E+03  0.46999998093E+01 0.  1.
</event>
<event>
 5   0  0.5790967E-03  0.6056304E+03  0.7818609E-02  0.9893793E-01
        1   -1    0    0  501    0  0.00000000000E+00  0.00000000000E+00  0.27632330311E+03  0.27632330315E+03  0.50400001928E-02 0. -1.
       -1   -1    0    0    0  501  0.00000000000E+00  0.00000000000E+00 -0.33184699033E+03  0.33184699037E+03  0.50400001928E-02 0.  1.
    10030    2    1    2    0    0  0.00000000000E+00  0.00000000000E+00 -0.55523687224E+02  0.60817029352E+03  0.60563043688E+03 0.  0.
        3    1    3    3  502    0  0.22489459673E+02 -0.17915956234E+03  0.21634838441E+03  0.28179879030E+03  0.10100000352E+00 0. -1.
       -3    1    3    3    0  502 -0.22489459673E+02  0.17915956234E+03 -0.27187207164E+03  0.32637150322E+03  0.10100000352E+00 0.  1.
</event>
<event>
 5   0  0.6078658E-03  0.6003747E+03  0.7818609E-02  0.9904629E-01
        1   -1    0    0  501    0  0.00000000000E+00  0.00000000000E+00  0.15064865160E+04  0.15064865160E+04  0.50400001928E-02 0.  1.
       -1   -1    0    0    0  501  0.00000000000E+00  0.00000000000E+00 -0.59816294533E+02  0.59816294745E+02  0.50400001928E-02 0. -1.
    10030    2    1    2    0    0  0.00000000000E+00  0.00000000000E+00  0.14466702214E+04  0.15663028107E+04  0.60037468741E+03 0.  0.
        2    1    3    3  502    0 -0.22453681791E+03  0.15929625708E+03  0.41113695020E+03  0.49479861756E+03  0.25500000920E-02 0. -1.
       -2    1    3    3    0  502  0.22453681791E+03 -0.15929625708E+03  0.10355332712E+04  0.10715041931E+04  0.25500000920E-02 0.  1.
</event>
<event>
 5   0  0.9391405E-03  0.6011693E+03  0.7818609E-02  0.9902983E-01
       -2   -1    0    0    0  501  0.00000000000E+00  0.00000000000E+00  0.19369496536E+03  0.19369496538E+03  0.25500000920E-02 0.  1.
        2   -1    0    0  501    0  0.00000000000E+00  0.00000000000E+00 -0.46646085110E+03  0.46646085110E+03  0.25500000920E-02 0. -1.
    10030    2    1    2    0    0  0.00000000000E+00  0.00000000000E+00 -0.27276588574E+03  0.66015581648E+03  0.60116925538E+03 0.  0.
        2    1    3    3  502    0 -0.19390188331E+03 -0.19497582601E+03 -0.26969307316E+03  0.38515953421E+03  0.25500000920E-02 0. -1.
       -2    1    3    3    0  502  0.19390188331E+03  0.19497582601E+03 -0.30728125766E+01  0.27499628227E+03  0.25500000920E-02 0.  1.
</event>
<event>
 5   0  0.6078658E-03  0.6016634E+03  0.7818609E-02  0.9901961E-01
       -1   -1    0    0    0  501  0.00000000000E+00  0.00000000000E+00  0.26386401833E+03  0.26386401837E+03  0.50400001928E-02 0. -1.
        1   -1    0    0  501    0  0.00000000000E+00  0.00000000000E+00 -0.34297860251E+03  0.34297860255E+03  0.50400001928E-02 0.  1.
    10030    2    1    2    0    0  0.00000000000E+00  0.00000000000E+00 -0.79114584186E+02  0.60684262092E+03  0.60166340186E+03 0.  0.
        2    1    3    3  502    0 -0.77238199090E+02 -0.95312331091E+02 -0.31660257292E+03  0.33953993733E+03  0.25500000920E-02 0.  1.
       -2    1    3    3    0  502  0.77238199090E+02  0.95312331091E+02  0.23748798873E+03  0.26730268359E+03  0.25500000920E-02 0. -1.
</event>
<event>
 5   0  0.6078658E-03  0.6049739E+03  0.7818609E-02  0.9895140E-01
       -1   -1    0    0    0  501  0.00000000000E+00  0.00000000000E+00  0.12016973009E+03  0.12016973020E+03  0.50400001928E-02 0. -1.
        1   -1    0    0  501    0  0.00000000000E+00  0.00000000000E+00 -0.76140942160E+03  0.76140942162E+03  0.50400001928E-02 0.  1.
    10030    2    1    2    0    0  0.00000000000E+00  0.00000000000E+00 -0.64123969151E+03  0.88157915182E+03  0.60497393245E+03 0.  0.
        2    1    3    3  502    0  0.13825928937E+03 -0.30407729827E+02 -0.71015835016E+03  0.72413061214E+03  0.25500000920E-02 0.  1.
       -2    1    3    3    0  502 -0.13825928937E+03  0.30407729827E+02  0.68918658648E+02  0.15744853968E+03  0.25500000920E-02 0. -1.
</event>
<event>
 5   0  0.5790967E-03  0.6003030E+03  0.7818609E-02  0.9904778E-01
        1   -1    0    0  501    0  0.00000000000E+00  0.00000000000E+00  0.29761753474E+03  0.29761753478E+03  0.50400001928E-02 0.  1.
       -1   -1    0    0    0  501  0.00000000000E+00  0.00000000000E+00 -0.30270705418E+03  0.30270705422E+03  0.50400001928E-02 0. -1.
    10030    2    1    2    0    0  0.00000000000E+00  0.00000000000E+00 -0.50895194399E+01  0.60032458900E+03  0.60030301427E+03 0.  0.
        3    1    3    3  502    0  0.12147080436E+03  0.25722501629E+03  0.93224290302E+02  0.29935036967E+03  0.10100000352E+00 0.  1.
       -3    1    3    3    0  502 -0.12147080436E+03 -0.25722501629E+03 -0.98313809742E+02  0.30097421933E+03  0.10100000352E+00 0. -1.
</event>
<event>
 5   0  0.9028473E-03  0.5969024E+03  0.7818609E-02  0.9911854E-01
       -2   -1    0    0    0  501  0.00000000000E+00  0.00000000000E+00  0.67090338472E+03  0.67090338473E+03  0.25500000920E-02 0. -1.
        2   -1    0    0  501    0  0.00000000000E+00  0.00000000000E+00 -0.13276591900E+03  0.13276591903E+03  0.25500000920E-02 0.  1.
    10030    2    1    2    0    0  0.00000000000E+00  0.00000000000E+00  0.53813746572E+03  0.80366930375E+03  0.59690235197E+03 0.  0.
        1    1    3    3  502    0 -0.16566601379E+02  0.15286546532E+03 -0.75332907428E+02  0.17122309930E+03  0.50400001928E-02 0.  1.
       -1    1    3    3    0  502  0.16566601379E+02 -0.15286546532E+03  0.61347037315E+03  0.63244620445E+03  0.50400001928E-02 0. -1.
</event>
<event>
 5   0  0.3806250E-03  0.6001335E+03  0.7818609E-02  0.9905129E-01
        3   -1    0    0  501    0  0.00000000000E+00  0.00000000000E+00  0.31266241670E+03  0.31266243301E+03  0.10100000352E+00 0. -1.
       -3   -1    0    0    0  501  0.00000000000E+00  0.00000000000E+00 -0.28797848197E+03  0.28797849968E+03  0.10100000352E+00 0.  1.
    10030    2    1    2    0    0  0.00000000000E+00  0.00000000000E+00  0.24683934729E+02  0.60064093270E+03  0.60013351298E+03 0.  0.
        1    1    3    3  502    0  0.28520258132E+03 -0.26412847158E+02  0.10187098257E+03  0.30399975001E+03  0.50400001928E-02 0.  1.
       -1    1    3    3    0  502 -0.28520258132E+03  0.26412847158E+02 -0.77187047840E+02  0.29664118269E+03  0.50400001928E-02 0. -1.
</event>
<event>
 5   0  0.9303190E-03  0.5998514E+03  0.7818609E-02  0.9905714E-01
        2   -1    0    0  501    0  0.00000000000E+00  0.00000000000E+00  0.18106313313E+04  0.18106313313E+04  0.25500000920E-02 0.  1.
       -2   -1    0    0    0  501  0.00000000000E+00  0.00000000000E+00 -0.49681804087E+02  0.49681804153E+02  0.25500000920E-02 0. -1.
    10030    2    1    2    0    0  0.00000000000E+00  0.00000000000E+00  0.17609495272E+04  0.18603131355E+04  0.59985141873E+03 0.  0.
        4    1    3    3  502    0 -0.76964799856E+02  0.21823489715E+03  0.28875574517E+03  0.37004262459E+03  0.12699999809E+01 0. -1.
       -4    1    3    3    0  502  0.76964799856E+02 -0.21823489715E+03  0.14721937820E+04  0.14902705109E+04  0.12699999809E+01 0.  1.
</event>
<event>
 5   0  0.5765045E-03  0.6006039E+03  0.7818609E-02  0.9904154E-01
       -1   -1    0    0    0  501  0.00000000000E+00  0.00000000000E+00  0.79204587921E+02  0.79204588081E+02  0.50400001928E-02 0. -1.
        1   -1    0    0  501    0  0.00000000000E+00  0.00000000000E+00 -0.11385863654E+04  0.11385863654E+04  0.50400001928E-02 0.  1.
    10030    2    1    2    0    0  0.00000000000E+00  0.00000000000E+00 -0.10593817775E+04  0.12177909535E+04  0.60060390938E+03 0.  0.
        1    1    3    3  502    0 -0.13623656980E+03  0.11929402319E+03 -0.43953053225E+02  0.18634199160E+03  0.50400001928E-02 0. -1.
       -1    1    3    3    0  502  0.13623656980E+03 -0.11929402319E+03 -0.10154287243E+04  0.10314489619E+04  0.50400001928E-02 0.  1.
</event>
<event>
 5   0  0.9028473E-03  0.5989536E+03  0.7818609E-02  0.9907579E-01
       -2   -1    0    0    0  501  0.00000000000E+00  0.00000000000E+00  0.20125368904E+03  0.20125368906E+03  0.25500000920E-02 0. -1.
        2   -1    0    0  501    0  0.00000000000E+00  0.00000000000E+00 -0.44563826701E+03  0.44563826702E+03  0.25500000920E-02 0.  1.
    10030    2    1    2    0    0  0.00000000000E+00  0.00000000000E+00 -0.24438457796E+03  0.64689195608E+03  0.59895357157E+03 0.  0.
        1    1    3    3  502    0 -0.15674472867E+03  0.17078999888E+03  0.82582853159E+02  0.24608547569E+03  0.50400001928E-02 0. -1.
       -1    1    3    3    0  502  0.15674472867E+03 -0.17078999888E+03 -0.32696743112E+03  0.40080648039E+03  0.50400001928E-02 0.  1.
</event>
<event>
 5   0  0.3806250E-03  0.6083706E+03  0.7818609E-02  0.9888190E-01
       -3   -1    0    0    0  501  0.00000000000E+00  0.00000000000E+00  0.26642304261E+03  0.26642306176E+03  0.10100000352E+00 0.  1.
        3   -1    0    0  501    0  0.00000000000E+00  0.00000000000E+00 -0.34729982601E+03  0.34729984070E+03  0.10100000352E+00 0. -1.
    10030    2    1    2    0    0  0.00000000000E+00  0.00000000000E+00 -0.80876783397E+02  0.61372290246E+03  0.60837056709E+03 0.  0.
        3    1    3    3  502    0 -0.94363231225E+01  0.50386502204E+02 -0.34291095917E+03  0.34672147311E+03  0.10100000352E+00 0. -1.
       -3    1    3    3    0  502  0.94363231225E+01 -0.50386502204E+02  0.26203417577E+03  0.26700142934E+03  0.10100000352E+00 0.  1.
</event>
<event>
 5   0  0.9303190E-03  0.6001248E+03  0.7818609E-02  0.9905147E-01
       -2   -1    0    0    0  501  0.00000000000E+00  0.00000000000E+00  0.73324446297E+02  0.73324446341E+02  0.25500000920E-02 0. -1.
        2   -1    0    0  501    0  0.00000000000E+00  0.00000000000E+00 -0.12279321966E+04  0.12279321966E+04  0.25500000920E-02 0.  1.
    10030    2    1    2    0    0  0.00000000000E+00  0.00000000000E+00 -0.11546077503E+04  0.13012566429E+04  0.60012481514E+03 0.  0.
        4    1    3    3  502    0 -0.10314171230E+03 -0.23962212708E+02  0.31460252476E+02  0.11047063338E+03  0.12699999809E+01 0. -1.
       -4    1    3    3    0  502  0.10314171230E+03  0.23962212708E+02 -0.11860680028E+04  0.11907860096E+04  0.12699999809E+01 0.  1.
</event>
<event>
 5   0  0.9162342E-03  0.5991692E+03  0.7818609E-02  0.9907131E-01
       -2   -1    0    0    0  501  0.00000000000E+00  0.00000000000E+00  0.15782914409E+03  0.15782914411E+03  0.25500000920E-02 0. -1.
        2   -1    0    0  501    0  0.00000000000E+00  0.00000000000E+00 -0.56865873709E+03  0.56865873709E+03  0.25500000920E-02 0.  1.
    10030    2    1    2    0    0  0.00000000000E+00  0.00000000000E+00 -0.41082959299E+03  0.72648788121E+03  0.59916916398E+03 0.  0.
        5    1    3    3  502    0  0.91447453058E+02 -0.18592694974E+03 -0.46770955808E+03  0.51157187963E+03  0.46999998093E+01 0.  1.
       -5    1    3    3    0  502 -0.91447453058E+02  0.18592694974E+03  0.56879965082E+02  0.21491600158E+03  0.46999998093E+01 0. -1.
</event>
<event>
 5   0  0.9028473E-03  0.5992181E+03  0.7818609E-02  0.9907030E-01
       -2   -1    0    0    0  501  0.00000000000E+00  0.00000000000E+00  0.15288040947E+03  0.15288040949E+03  0.25500000920E-02 0.  1.
        2   -1    0    0  501    0  0.00000000000E+00  0.00000000000E+00 -0.58716206674E+03  0.58716206674E+03  0.25500000920E-02 0. -1.
    10030    2    1    2    0    0  0.00000000000E+00  0.00000000000E+00 -0.43428165727E+03  0.74004247623E+03  0.59921808116E+03 0.  0.
        1    1    3    3  502    0  0.11355628002E+03  0.16340067572E+03  0.59487791875E+02  0.20768631867E+03  0.50400001928E-02 0.  1.
       -1    1    3    3    0  502 -0.11355628002E+03 -0.16340067572E+03 -0.49376944914E+03  0.53235615756E+03  0.50400001928E-02 0. -1.
</event>
<event>
 5   0  0.9162342E-03  0.5988219E+03  0.7818609E-02  0.9907853E-01
        2   -1    0    0  501    0  0.00000000000E+00  0.00000000000E+00  0.13515454840E+04  0.13515454840E+04  0.25500000920E-02 0. -1.
       -2   -1    0    0    0  501  0.00000000000E+00  0.00000000000E+00 -0.66329190222E+02  0.66329190271E+02  0.25500000920E-02 0.  1.
    10030    2    1    2    0    0  0.00000000000E+00  0.00000000000E+00  0.12852162938E+04  0.14178746743E+04  0.59882190187E+03 0.  0.
        5    1    3    3  502    0  0.10856686337E+03  0.27853530317E+03  0.68050351853E+03  0.74328716366E+03  0.46999998093E+01 0. -1.
       -5    1    3    3    0  502 -0.10856686337E+03 -0.27853530317E+03  0.60471277528E+03  0.67458751065E+03  0.46999998093E+01 0.  1.
</event>
<event>
 5   0  0.9028473E-03  0.5998478E+03  0.7818609E-02  0.9905722E-01
        2   -1    0    0  501    0  0.00000000000E+00  0.00000000000E+00  0.45278765153E+03  0.45278765153E+03  0.25500000920E-02 0. -1.
       -2   -1    0    0    0  501  0.00000000000E+00  0.00000000000E+00 -0.19866784140E+03  0.19866784142E+03  0.25500000920E-02 0.  1.
    10030    2    1    2    0    0  0.00000000000E+00  0.00000000000E+00  0.25411981012E+03  0.65145549295E+03  0.59984779853E+03 0.  0.
        1    1    3    3  502    0  0.27704308069E+03  0.11467161520E+03  0.13488368482E+03  0.32877964710E+03  0.50400001928E-02 0.  1.
       -1    1    3    3    0  502 -0.27704308069E+03 -0.11467161520E+03  0.11923612530E+03  0.32267584585E+03  0.50400001928E-02 0. -1.
</event>
<event>
 5   0  0.5891927E-03  0.6000505E+03  0.7818609E-02  0.9905301E-01
        1   -1    0    0  501    0  0.00000000000E+00  0.00000000000E+00  0.90316480308E+03  0.90316480309E+03  0.50400001928E-02 0.  1.
       -1   -1    0    0    0  501  0.00000000000E+00  0.00000000000E+00 -0.99666373612E+02  0.99666373740E+02  0.50400001928E-02 0. -1.
    10030    2    1    2    0    0  0.00000000000E+00  0.00000000000E+00  0.80349842946E+03  0.10028311768E+04  0.60005053377E+03 0.  0.
        4    1    3    3  502    0 -0.22469100201E+03 -0.19422032553E+03  0.47277153599E+03  0.55832080328E+03  0.12699999809E+01 0.  1.
       -4    1    3    3    0  502  0.22469100201E+03  0.19422032553E+03  0.33072689347E+03  0.44451037355E+03  0.12699999809E+01 0. -1.
</event>
<event>
 5   0  0.5790967E-03  0.5999630E+03  0.7818609E-02  0.9905483E-01
       -1   -1    0    0    0  501  0.00000000000E+00  0.00000000000E+00  0.14452692638E+03  0.14452692646E+03  0.50400001928E-02 0.  1.
        1   -1    0    0  501    0  0.00000000000E+00  0.00000000000E+00 -0.62264459325E+03  0.62264459327E+03  0.50400001928E-02 0. -1.
    10030    2    1    2    0    0  0.00000000000E+00  0.00000000000E+00 -0.47811766687E+03  0.76717151973E+03  0.59996302996E+03 0.  0.
        3    1    3    3  502    0  0.64864440929E+01  0.20073369806E+03 -0.52398995494E+03  0.56116091683E+03  0.10100000352E+00 0. -1.
       -3    1    3    3    0  502 -0.64864440929E+01 -0.20073369806E+03  0.45872288071E+02  0.20601060290E+03  0.10100000352E+00 0.  1.
</event>
<event>
 5   0  0.9028473E-03  0.5988034E+03  0.7818609E-02  0.9907892E-01
       -2   -1    0    0    0  501  0.00000000000E+00  0.00000000000E+00  0.26403075059E+03  0.26403075060E+03  0.25500000920E-02 0.  1.
        2   -1    0    0  501    0  0.00000000000E+00  0.00000000000E+00 -0.33951113291E+03  0.33951113292E+03  0.25500000920E-02 0. -1.
    10030    2    1    2    0    0  0.00000000000E+00  0.00000000000E+00 -0.75480382319E+02  0.60354188352E+03  0.59880340434E+03 0.  0.
        1    1    3    3  502    0 -0.12709223596E+03  0.11431947830E+03 -0.28549010517E+03  0.33275513481E+03  0.50400001928E-02 0. -1.
       -1    1    3    3    0  502  0.12709223596E+03 -0.11431947830E+03  0.21000972286E+03  0.27078674872E+03  0.50400001928E-02 0.  1.
</event>
<event>
 5   0  0.6078658E-03  0.6001443E+03  0.7818609E-02  0.9905107E-01
        1   -1    0    0  501    0  0.00000000000E+00  0.00000000000E+00  0.24719878476E+03  0.24719878481E+03  0.50400001928E-02 0. -1.
       -1   -1    0    0    0  501  0.00000000000E+00  0.00000000000E+00 -0.36425455786E+03  0.36425455790E+03  0.50400001928E-02 0.  1.
    10030    2    1    2    0    0  0.00000000000E+00  0.00000000000E+00 -0.11705577310E+03  0.61145334271E+03  0.60014426290E+03 0.  0.
        2    1    3    3  502    0  0.20767377812E+03 -0.80127092405E+02 -0.26355243920E+03  0.34497628508E+03  0.25500000920E-02 0.  1.
       -2    1    3    3    0  502 -0.20767377812E+03  0.80127092405E+02  0.14649666610E+03  0.26647705762E+03  0.25500000920E-02 0. -1.
</event>
<event>
 5   0  0.9391405E-03  0.5997440E+03  0.7818609E-02  0.9905937E-01
       -2   -1    0    0    0  501  0.00000000000E+00  0.00000000000E+00  0.65999644052E+03  0.65999644053E+03  0.25500000920E-02 0. -1.
        2   -1    0    0  501    0  0.00000000000E+00  0.00000000000E+00 -0.13624804369E+03  0.13624804371E+03  0.25500000920E-02 0.  1.
    10030    2    1    2    0    0  0.00000000000E+00  0.00000000000E+00  0.52374839683E+03  0.79624448424E+03  0.59974402498E+03 0.  0.
        2    1    3    3  502    0  0.17984775287E+01  0.29971276716E+03  0.24912286621E+03  0.38973475570E+03  0.25500000920E-02 0.  1.
       -2    1    3    3    0  502 -0.17984775287E+01 -0.29971276716E+03  0.27462553062E+03  0.40650972854E+03  0.25500000920E-02 0. -1.
</event>
<event>
 5   0  0.5891927E-03  0.6039518E+03  0.7818609E-02  0.9897241E-01
       -1   -1    0    0    0  501  0.00000000000E+00  0.00000000000E+00  0.53427477418E+03  0.53427477421E+03  0.50400001928E-02 0. -1.
        1   -1    0    0  501    0  0.00000000000E+00  0.00000000000E+00 -0.17067893996E+03  0.17067894004E+03  0.50400001928E-02 0.  1.
    10030    2    1    2    0    0  0.00000000000E+00  0.00000000000E+00  0.36359583422E+03  0.70495371424E+03  0.60395182636E+03 0.  0.
        4    1    3    3  502    0 -0.17553836674E+03 -0.44967051938E+02 -0.10016142886E+03  0.20704994250E+03  0.12699999809E+01 0.  1.
       -4    1    3    3    0  502  0.17553836674E+03  0.44967051938E+02  0.46375726308E+03  0.49790377174E+03  0.12699999809E+01 0. -1.
</event>
<event>
 5   0  0.9162342E-03  0.6001093E+03  0.7818609E-02  0.9905179E-01
        2   -1    0    0  501    0  0.00000000000E+00  0.00000000000E+00  0.76141465661E+03  0.76141465662E+03  0.25500000920E-02 0.  1.
       -2   -1    0    0    0  501  0.00000000000E+00  0.00000000000E+00 -0.11824410735E+03  0.11824410738E+03  0.25500000920E-02 0. -1.
    10030    2    1    2    0    0  0.00000000000E+00  0.00000000000E+00  0.64317054926E+03  0.87965876399E+03  0.60010931140E+03 0.  0.
        5    1    3    3  502    0 -0.28082695380E+03 -0.32926035775E+02  0.46862794742E+03  0.54734097683E+03  0.46999998093E+01 0.  1.
       -5    1    3    3    0  502  0.28082695380E+03  0.32926035775E+02  0.17454260184E+03  0.33231778716E+03  0.46999998093E+01 0. -1.
</event>
<event>
 5   0  0.5891927E-03  0.6004958E+03  0.7818609E-02  0.9904378E-01
        1   -1    0    0  501    0  0.00000000000E+00  0.00000000000E+00  0.89857404797E+03  0.89857404798E+03  0.50400001928E-02 0. -1.
       -1   -1    0    0    0  501  0.00000000000E+00  0.00000000000E+00 -0.10032428773E+03  0.10032428786E+03  0.50400001928E-02 0.  1.
    10030    2    1    2    0    0  0.00000000000E+00  0.00000000000E+00  0.79824976024E+03  0.99889833583E+03  0.60049579983E+03 0.  0.
        4    1    3    3  502    0 -0.16630583200E+02 -0.95368326411E+02 -0.73646445838E+02  0.12164335520E+03  0.12699999809E+01 0.  1.
       -4    1    3    3    0  502  0.16630583200E+02  0.95368326411E+02  0.87189620607E+03  0.87725498063E+03  0.12699999809E+01 0. -1.
</event>
<event>
 5   0  0.9028473E-03  0.5996714E+03  0.7818609E-02  0.9906088E-01
       -2   -1    0    0    0  501  0.00000000000E+00  0.00000000000E+00  0.12459678634E+03  0.12459678637E+03  0.25500000920E-02 0.  1.
        2   -1    0    0  501    0  0.00000000000E+00  0.00000000000E+00 -0.72153893390E+03  0.72153893391E+03  0.25500000920E-02 0. -1.
    10030    2    1    2    0    0  0.00000000000E+00  0.00000000000E+00 -0.59694214756E+03  0.84613572028E+03  0.59967135132E+03 0.  0.
        1    1    3    3  502    0 -0.26287977558E+03 -0.11275737979E+03 -0.42531533294E+03  0.51255549510E+03  0.50400001928E-02 0. -1.
       -1    1    3    3    0  502  0.26287977558E+03  0.11275737979E+03 -0.17162681462E+03  0.33358022517E+03  0.50400001928E-02 0.  1.
</event>
<event>
 5   0  0.6078658E-03  0.6083816E+03  0.7818609E-02  0.9888168E-01
       -1   -1    0    0    0  501  0.00000000000E+00  0.00000000000E+00  0.41957222347E+02  0.41957222650E+02  0.50400001928E-02 0. -1.
        1   -1    0    0  501    0  0.00000000000E+00  0.00000000000E+00 -0.22053899217E+04  0.22053899217E+04  0.50400001928E-02 0.  1.
    10030    2    1    2    0    0  0.00000000000E+00  0.00000000000E+00 -0.21634326993E+04  0.22473471443E+04  0.60838157648E+03 0.  0.
        2    1    3    3  502    0  0.22598160945E+03 -0.43343459131E+02 -0.18166755507E+04  0.18311898863E+04  0.25500000920E-02 0.  1.
       -2    1    3    3    0  502 -0.22598160945E+03  0.43343459131E+02 -0.34675714863E+03  0.41615725800E+03  0.25500000920E-02 0. -1.
</event>
<event>
 5   0  0.3806250E-03  0.5975927E+03  0.7818609E-02  0.9910413E-01
        4   -1    0    0  501    0  0.00000000000E+00  0.00000000000E+00  0.21837395984E+03  0.21837765278E+03  0.12699999809E+01 0. -1.
       -4   -1    0    0    0  501  0.00000000000E+00  0.00000000000E+00 -0.40882838773E+03  0.40883036031E+03  0.12699999809E+01 0.  1.
    10030    2    1    2    0    0  0.00000000000E+00  0.00000000000E+00 -0.19045442789E+03  0.62720801309E+03  0.59759267280E+03 0.  0.
        1    1    3    3  502    0 -0.21590486506E+03  0.19715954896E+03 -0.15986201069E+03  0.33323064233E+03  0.50400001928E-02 0.  1.
       -1    1    3    3    0  502  0.21590486506E+03 -0.19715954896E+03 -0.30592417194E+02  0.29397737076E+03  0.50400001928E-02 0. -1.
</event>
<event>
 5   0  0.5790967E-03  0.6002794E+03  0.7818609E-02  0.9904827E-01
        1   -1    0    0  501    0  0.00000000000E+00  0.00000000000E+00  0.55894830469E+03  0.55894830471E+03  0.50400001928E-02 0.  1.
       -1   -1    0    0    0  501  0.00000000000E+00  0.00000000000E+00 -0.16116666981E+03  0.16116666988E+03  0.50400001928E-02 0. -1.
    10030    2    1    2    0    0  0.00000000000E+00  0.00000000000E+00  0.39778163488E+03  0.72011497460E+03  0.60027939127E+03 0.  0.
        3    1    3    3  502    0  0.18663483810E+03 -0.14820782807E+03 -0.19974667806E+02  0.23915919520E+03  0.10100000352E+00 0. -1.
       -3    1    3    3    0  502 -0.18663483810E+03  0.14820782807E+03  0.41775630269E+03  0.48095577939E+03  0.10100000352E+00 0.  1.
</event>
<event>
 5   0  0.5819446E-03  0.6012497E+03  0.7818609E-02  0.9902817E-01
       -1   -1    0    0    0  501  0.00000000000E+00  0.00000000000E+00  0.51578513247E+02  0.51578513494E+02  0.50400001928E-02 0.  1.
        1   -1    0    0  501    0  0.00000000000E+00  0.00000000000E+00 -0.17521888317E+04  0.17521888317E+04  0.50400001928E-02 0. -1.
    10030    2    1    2    0    0  0.00000000000E+00  0.00000000000E+00 -0.17006103185E+04  0.18037673452E+04  0.60124968223E+03 0.  0.
        5    1    3    3  502    0 -0.25706271694E+03  0.75423500855E+02 -0.12592706040E+04  0.12874604805E+04  0.46999998093E+01 0. -1.
       -5    1    3    3    0  502  0.25706271694E+03 -0.75423500855E+02 -0.44133971448E+03  0.51630686466E+03  0.46999998093E+01 0.  1.
</event>
<event>
 5   0  0.5891927E-03  0.6004616E+03  0.7818609E-02  0.9904449E-01
        1   -1    0    0  501    0  0.00000000000E+00  0.00000000000E+00  0.65505312540E+03  0.65505312542E+03  0.50400001928E-02 0. -1.
       -1   -1    0    0    0  501  0.00000000000E+00  0.00000000000E+00 -0.13760489897E+03  0.13760489907E+03  0.50400001928E-02 0.  1.
    10030    2    1    2    0    0  0.00000000000E+00  0.00000000000E+00  0.51744822643E+03  0.79265802449E+03  0.60046155310E+03 0.  0.
        4    1    3    3  502    0  0.16290792833E+03 -0.17648538836E+03  0.49652501593E+03  0.55156576196E+03  0.12699999809E+01 0. -1.
       -4    1    3    3    0  502 -0.16290792833E+03  0.17648538836E+03  0.20923210496E+02  0.24109226253E+03  0.12699999809E+01 0.  1.
</event>
<event>
 5   0  0.9303190E-03  0.5999009E+03  0.7818609E-02  0.9905612E-01
       -2   -1    0    0    0  501  0.00000000000E+00  0.00000000000E+00  0.19650938674E+03  0.19650938675E+03  0.25500000920E-02 0. -1.
        2   -1    0    0  501    0  0.00000000000E+00  0.00000000000E+00 -0.45784205671E+03  0.45784205672E+03  0.25500000920E-02 0.  1.
    10030    2    1    2    0    0  0.00000000000E+00  0.00000000000E+00 -0.26133266997E+03  0.65435144347E+03  0.59990086446E+03 0.  0.
        4    1    3    3  502    0  0.13416148775E+03 -0.20822397953E+03 -0.31517067407E+03  0.40086244167E+03  0.12699999809E+01 0.  1.
       -4    1    3    3    0  502 -0.13416148775E+03  0.20822397953E+03  0.53838004102E+02  0.25348900180E+03  0.12699999809E+01 0. -1.
</event>
<event>
 5   0  0.9028473E-03  0.6005815E+03  0.7818609E-02  0.9904200E-01
        2   -1    0    0  501    0  0.00000000000E+00  0.00000000000E+00  0.35131042095E+03  0.35131042095E+03  0.25500000920E-02 0.  1.
       -2   -1    0    0    0  501  0.00000000000E+00  0.00000000000E+00 -0.25668053982E+03  0.25668053984E+03  0.25500000920E-02 0. -1.
    10030    2    1    2    0    0  0.00000000000E+00  0.00000000000E+00  0.94629881123E+02  0.60799096079E+03  0.60058154650E+03 0.  0.
        1    1    3    3  502    0 -0.39139381402E+02  0.16692935338E+03 -0.20225694215E+03  0.26515122264E+03  0.50400001928E-02 0. -1.
       -1    1    3    3    0  502  0.39139381402E+02 -0.16692935338E+03  0.29688682327E+03  0.34283973815E+03  0.50400001928E-02 0.  1.
</event>
<event>
 5   0  0.9162342E-03  0.6017137E+03  0.7818609E-02  0.9901857E-01
        2   -1    0    0  501    0  0.00000000000E+00  0.00000000000E+00  0.10262934374E+04  0.10262934374E+04  0.25500000920E-02 0. -1.
       -2   -1    0    0    0  501  0.00000000000E+00  0.00000000000E+00 -0.88195861623E+02  0.88195861660E+02  0.25500000920E-02 0.  1.
    10030    2    1    2    0    0  0.00000000000E+00  0.00000000000E+00  0.93809757577E+03  0.11144892991E+04  0.60171366616E+03 0.  0.
        5    1    3    3  502    0 -0.18070850529E+03  0.16303287975E+03  0.14158530901E+03  0.28160925675E+03  0.46999998093E+01 0.  1.
       -5    1    3    3    0  502  0.18070850529E+03 -0.16303287975E+03  0.79651226676E+03  0.83288004230E+03  0.46999998093E+01 0. -1.
</event>
<event>
 5   0  0.9391405E-03  0.6002618E+03  0.7818609E-02  0.9904863E-01
       -2   -1    0    0    0  501  0.00000000000E+00  0.00000000000E+00  0.57744653276E+02  0.57744653332E+02  0.25500000920E-02 0.  1.
        2   -1    0    0  501    0  0.00000000000E+00  0.00000000000E+00 -0.15599460922E+04  0.15599460922E+04  0.25500000920E-02 0. -1.
    10030    2    1    2    0    0  0.00000000000E+00  0.00000000000E+00 -0.15022014389E+04  0.16176907455E+04  0.60026176380E+03 0.  0.
        2    1    3    3  502    0  0.11310652948E+03  0.53801487620E+02 -0.16054567592E+02  0.12627523996E+03  0.25500000920E-02 0.  1.
       -2    1    3    3    0  502 -0.11310652948E+03 -0.53801487620E+02 -0.14861468713E+04  0.14914155056E+04  0.25500000920E-02 0. -1.
</event>
<event>
 5   0  0.3806250E-03  0.6006853E+03  0.7818609E-02  0.9903985E-01
       -4   -1    0    0    0  501  0.00000000000E+00  0.00000000000E+00  0.94427115891E+02  0.94435655954E+02  0.12699999809E+01 0. -1.
        4   -1    0    0  501    0  0.00000000000E+00  0.00000000000E+00 -0.95524241011E+03  0.95524325435E+03  0.12699999809E+01 0.  1.
    10030    2    1    2    0    0  0.00000000000E+00  0.00000000000E+00 -0.86081529422E+03  0.10496789103E+04  0.60068531193E+03 0.  0.
        3    1    3    3  502    0  0.10824807182E+03 -0.13241913746E+02 -0.91942647280E+03  0.92587150427E+03  0.10100000352E+00 0.  1.
       -3    1    3    3    0  502 -0.10824807182E+03  0.13241913746E+02  0.58611178578E+02  0.12380740603E+03  0.10100000352E+00 0. -1.
</event>
<event>
 5   0  0.5765045E-03  0.6016739E+03  0.7818609E-02  0.9901939E-01
       -1   -1    0    0    0  501  0.00000000000E+00  0.00000000000E+00  0.25755553070E+03  0.25755553075E+03  0.50400001928E-02 0. -1.
        1   -1    0    0  501    0  0.00000000000E+00  0.00000000000E+00 -0.35139165526E+03  0.35139165530E+03  0.50400001928E-02 0.  1.
    10030    2    1    2    0    0  0.00000000000E+00  0.00000000000E+00 -0.93836124564E+02  0.60894718604E+03  0.60167387937E+03 0.  0.
        1    1    3    3  502    0 -0.98187351283E+02 -0.22576510919E+03  0.12806563255E+03  0.27750936335E+03  0.50400001928E-02 0. -1.
       -1    1    3    3    0  502  0.98187351283E+02  0.22576510919E+03 -0.22190175711E+03  0.33143782270E+03  0.50400001928E-02 0.  1.
</event>
<event>
 5   0  0.9162342E-03  0.6040285E+03  0.7818609E-02  0.9897083E-01
       -2   -1    0    0    0  501  0.00000000000E+00  0.00000000000E+00  0.17601895324E+03  0.17601895326E+03  0.25500000920E-02 0. -1.
        2   -1    0    0  501    0  0.00000000000E+00  0.00000000000E+00 -0.51819760599E+03  0.51819760600E+03  0.25500000920E-02 0.  1.
    10030    2    1    2    0    0  0.00000000000E+00  0.00000000000E+00 -0.34217865276E+03  0.69421655926E+03  0.60402847677E+03 0.  0.
        5    1    3    3  502    0 -0.24544873786E+03 -0.16965566597E+03 -0.22453392149E+03  0.37345106750E+03  0.46999998093E+01 0. -1.
       -5    1    3    3    0  502  0.24544873786E+03  0.16965566597E+03 -0.11764473126E+03  0.32076549176E+03  0.46999998093E+01 0.  1.
</event>
<event>
 5   0  0.9028473E-03  0.5917807E+03  0.7818609E-02  0.9922607E-01
        2   -1    0    0  501    0  0.00000000000E+00  0.00000000000E+00  0.12808573309E+04  0.12808573309E+04  0.25500000920E-02 0. -1.
       -2   -1    0    0    0  501  0.00000000000E+00  0.00000000000E+00 -0.68353522661E+02  0.68353522709E+02  0.25500000920E-02 0.  1.
    10030    2    1    2    0    0  0.00000000000E+00  0.00000000000E+00  0.12125038082E+04  0.13492108536E+04  0.59178073854E+03 0.  0.
        1    1    3    3  502    0 -0.11252642323E+03 -0.16253598766E+02 -0.16565015498E+02  0.11489462634E+03  0.50400001928E-02 0.  1.
       -1    1    3    3    0  502  0.11252642323E+03  0.16253598766E+02  0.12290688237E+04  0.12343162273E+04  0.50400001928E-02 0. -1.
</event>
<event>
 5   0  0.5819446E-03  0.6005300E+03  0.7818609E-02  0.9904307E-01
        1   -1    0    0  501    0  0.00000000000E+00  0.00000000000E+00  0.95524187573E+03  0.95524187574E+03  0.50400001928E-02 0. -1.
       -1   -1    0    0    0  501  0.00000000000E+00  0.00000000000E+00 -0.94383505303E+02  0.94383505438E+02  0.50400001928E-02 0.  1.
    10030    2    1    2    0    0  0.00000000000E+00  0.00000000000E+00  0.86085837043E+03  0.10496253812E+04  0.60053002164E+03 0.  0.
        5    1    3    3  502    0 -0.17553945105E+03 -0.17759259592E+02  0.85500298956E+03  0.87303017836E+03  0.46999998093E+01 0. -1.
       -5    1    3    3    0  502  0.17553945105E+03  0.17759259592E+02  0.58553808708E+01  0.17659520282E+03  0.46999998093E+01 0.  1.
</event>
<event>
 5   0  0.5765045E-03  0.6002998E+03  0.7818609E-02  0.9904784E-01
        1   -1    0    0  501    0  0.00000000000E+00  0.00000000000E+00  0.64830977867E+02  0.64830978062E+02  0.50400001928E-02 0.  1.
       -1   -1    0    0    0  501  0.00000000000E+00  0.00000000000E+00 -0.13896126645E+04  0.13896126645E+04  0.50400001928E-02 0. -1.
    10030    2    1    2    0    0  0.00000000000E+00  0.00000000000E+00 -0.13247816866E+04  0.14544436426E+04  0.60029975193E+03 0.  0.
        1    1    3    3  502    0 -0.69411801823E+02  0.14398226810E+03 -0.46864324970E+02  0.16656877480E+03  0.50400001928E-02 0.  1.
       -1    1    3    3    0  502  0.69411801823E+02 -0.14398226810E+03 -0.12779173616E+04  0.12878748677E+04  0.50400001928E-02 0. -1.
</event>
<event>
 5   0  0.9162342E-03  0.5998374E+03  0.7818609E-02  0.9905743E-01
        2   -1    0    0  501    0  0.00000000000E+00  0.00000000000E+00  0.12433901560E+04  0.12433901560E+04  0.25500000920E-02 0. -1.
       -2   -1    0    0    0  501  0.00000000000E+00  0.00000000000E+00 -0.72343522726E+02  0.72343522771E+02  0.25500000920E-02 0.  1.
    10030    2    1    2    0    0  0.00000000000E+00  0.00000000000E+00  0.11710466333E+04  0.13157336788E+04  0.59983739144E+03 0.  0.
        5    1    3    3  502    0  0.38780334828E+01  0.15117827714E+03  0.17503199704E+02  0.15231008706E+03  0.46999998093E+01 0.  1.
       -5    1    3    3    0  502 -0.38780334828E+01 -0.15117827714E+03  0.11535434336E+04  0.11634235917E+04  0.46999998093E+01 0. -1.
</event>
<event>
 5   0  0.5790967E-03  0.5994992E+03  0.7818609E-02  0.9906446E-01
        1   -1    0    0  501    0  0.00000000000E+00  0.00000000000E+00  0.10246261792E+04  0.10246261792E+04  0.50400001928E-02 0. -1.
       -1   -1    0    0    0  501  0.00000000000E+00  0.00000000000E+00 -0.87690334563E+02  0.87690334708E+02  0.50400001928E-02 0.  1.
    10030    2    1    2    0    0  0.00000000000E+00  0.00000000000E+00  0.93693584464E+03  0.11123165139E+04  0.59949916612E+03 0.  0.
        3    1    3    3  502    0 -0.13844543702E+03 -0.38848263630E+02 -0.19520592463E+02  0.14511164788E+03  0.10100000352E+00 0.  1.
       -3    1    3    3    0  502  0.13844543702E+03  0.38848263630E+02  0.95645643711E+03  0.96720486604E+03  0.10100000352E+00 0. -1.
</event>
<event>
 5   0  0.9822607E-03  0.5989179E+03  0.7818609E-02  0.9907654E-01
        2   -1    0    0  501    0  0.00000000000E+00  0.00000000000E+00  0.56215309637E+03  0.56215309638E+03  0.25500000920E-02 0.  1.
       -2   -1    0    0    0  501  0.00000000000E+00  0.00000000000E+00 -0.15952180142E+03  0.15952180144E+03  0.25500000920E-02 0. -1.
    10030    2    1    2    0    0  0.00000000000E+00  0.00000000000E+00  0.40263129495E+03  0.72167489782E+03  0.59891793968E+03 0.  0.
        3    1    3    3  502    0 -0.17423114182E+03  0.89245293007E+02 -0.71747646099E+02  0.20849208145E+03  0.10100000352E+00 0. -1.
       -3    1    3    3    0  502  0.17423114182E+03 -0.89245293007E+02  0.47437894105E+03  0.51318281637E+03  0.10100000352E+00 0.  1.
</event>
<event>
 5   0  0.6078658E-03  0.6002935E+03  0.7818609E-02  0.9904797E-01
        1   -1    0    0  501    0  0.00000000000E+00  0.00000000000E+00  0.53868603320E+03  0.53868603322E+03  0.50400001928E-02 0. -1.
       -1   -1    0    0    0  501  0.00000000000E+00  0.00000000000E+00 -0.16723671440E+03  0.16723671448E+03  0.50400001928E-02 0.  1.
    10030    2    1    2    0    0  0.00000000000E+00  0.00000000000E+00  0.37144931879E+03  0.70592274770E+03  0.60029353594E+03 0.  0.
        2    1    3    3  502    0  0.23039409996E+03 -0.51935843502E+02  0.40354553366E+03  0.46757648666E+03  0.25500000920E-02 0. -1.
       -2    1    3    3    0  502 -0.23039409996E+03  0.51935843502E+02 -0.32096214868E+02  0.23834626104E+03  0.25500000920E-02 0.  1.
</event>
<event>
 5   0  0.9028473E-03  0.5980271E+03  0.7818609E-02  0.9909508E-01
        2   -1    0    0  501    0  0.00000000000E+00  0.00000000000E+00  0.23977321728E+04  0.23977321728E+04  0.25500000920E-02 0.  1.
       -2   -1    0    0    0  501  0.00000000000E+00  0.00000000000E+00 -0.37289026384E+02  0.37289026471E+02  0.25500000920E-02 0. -1.
    10030    2    1    2    0    0  0.00000000000E+00  0.00000000000E+00  0.23604431464E+04  0.24350211992E+04  0.59802708421E+03 0.  0.
        1    1    3    3  502    0 -0.18442637643E+03  0.12268000885E+03  0.36235940528E+03  0.42469731753E+03  0.50400001928E-02 0. -1.
       -1    1    3    3    0  502  0.18442637643E+03 -0.12268000885E+03  0.19980837411E+04  0.20103238817E+04  0.50400001928E-02 0.  1.
</event>
<event>
 5   0  0.3806250E-03  0.6041106E+03  0.7818609E-02  0.9896914E-01
        4   -1    0    0  501    0  0.00000000000E+00  0.00000000000E+00  0.93799931244E+02  0.93808528404E+02  0.12699999809E+01 0. -1.
       -4   -1    0    0    0  501  0.00000000000E+00  0.00000000000E+00 -0.97262748621E+03  0.97262831535E+03  0.12699999809E+01 0.  1.
    10030    2    1    2    0    0  0.00000000000E+00  0.00000000000E+00 -0.87882755496E+03  0.10664368438E+04  0.60411064414E+03 0.  0.
        3    1    3    3  502    0 -0.25092195658E+03  0.10774099282E+03 -0.21150905104E+03  0.34540706232E+03  0.10100000352E+00 0. -1.
       -3    1    3    3    0  502  0.25092195658E+03 -0.10774099282E+03 -0.66731850393E+03  0.72102978143E+03  0.10100000352E+00 0.  1.
</event>
<event>
 5   0  0.3806250E-03  0.5995578E+03  0.7818609E-02  0.9906324E-01
        3   -1    0    0  501    0  0.00000000000E+00  0.00000000000E+00  0.46382691596E+03  0.46382692696E+03  0.10100000352E+00 0.  1.
       -3   -1    0    0    0  501  0.00000000000E+00  0.00000000000E+00 -0.19375196451E+03  0.19375199084E+03  0.10100000352E+00 0. -1.
    10030    2    1    2    0    0  0.00000000000E+00  0.00000000000E+00  0.27007495145E+03  0.65757891780E+03  0.59955779849E+03 0.  0.
        3    1    3    3  502    0  0.13699910278E+03  0.24414361169E+03  0.25261504477E+03  0.37707986997E+03  0.10100000352E+00 0.  1.
       -3    1    3    3    0  502 -0.13699910278E+03 -0.24414361169E+03  0.17459906677E+02  0.28049904783E+03  0.10100000352E+00 0. -1.
</event>
<event>
 5   0  0.9303190E-03  0.5991627E+03  0.7818609E-02  0.9907145E-01
        2   -1    0    0  501    0  0.00000000000E+00  0.00000000000E+00  0.30771519697E+03  0.30771519698E+03  0.25500000920E-02 0.  1.
       -2   -1    0    0    0  501  0.00000000000E+00  0.00000000000E+00 -0.29166250444E+03  0.29166250445E+03  0.25500000920E-02 0. -1.
    10030    2    1    2    0    0  0.00000000000E+00  0.00000000000E+00  0.16052692528E+02  0.59937770144E+03  0.59916269914E+03 0.  0.
        4    1    3    3  502    0 -0.22230585064E+03 -0.96206260565E+02  0.18436165134E+03  0.30441150961E+03  0.12699999809E+01 0.  1.
       -4    1    3    3    0  502  0.22230585064E+03  0.96206260565E+02 -0.16830895882E+03  0.29496619182E+03  0.12699999809E+01 0. -1.
</event>
<event>
 5   0  0.6078658E-03  0.6005080E+03  0.7818609E-02  0.9904353E-01
       -1   -1    0    0    0  501  0.00000000000E+00  0.00000000000E+00  0.66942178578E+02  0.66942178767E+02  0.50400001928E-02 0. -1.
        1   -1    0    0  501    0  0.00000000000E+00  0.00000000000E+00 -0.13467216150E+04  0.13467216150E+04  0.50400001928E-02 0.  1.
    10030    2    1    2    0    0  0.00000000000E+00  0.00000000000E+00 -0.12797794365E+04  0.14136637938E+04  0.60050804820E+03 0.  0.
        2    1    3    3  502    0  0.26178306075E+03  0.13886342970E+03 -0.52603589714E+03  0.60376086996E+03  0.25500000920E-02 0. -1.
       -2    1    3    3    0  502 -0.26178306075E+03 -0.13886342970E+03 -0.75374353931E+03  0.80990292385E+03  0.25500000920E-02 0.  1.
</event>
<event>
 5   0  0.3806250E-03  0.5980747E+03  0.7818609E-02  0.9909408E-01
        4   -1    0    0  501    0  0.00000000000E+00  0.00000000000E+00  0.92595761855E+03  0.92595848948E+03  0.12699999809E+01 0. -1.
       -4   -1    0    0    0  501  0.00000000000E+00  0.00000000000E+00 -0.96568818118E+02  0.96577168796E+02  0.12699999809E+01 0.  1.
    10030    2    1    2    0    0  0.00000000000E+00  0.00000000000E+00  0.82938880043E+03  0.10225356583E+04  0.59807473628E+03 0.  0.
        2    1    3    3  502    0 -0.12400063273E+03 -0.32329319736E+02  0.87663953831E+03  0.88595610612E+03  0.25500000920E-02 0. -1.
       -2    1    3    3    0  502  0.12400063273E+03  0.32329319736E+02 -0.47250737882E+02  0.13657955216E+03  0.25500000920E-02 0.  1.
</event>
<event>
 5   0  0.5790967E-03  0.5967845E+03  0.7818609E-02  0.9912100E-01
        1   -1    0    0  501    0  0.00000000000E+00  0.00000000000E+00  0.56527652821E+03  0.56527652823E+03  0.50400001928E-02 0.  1.
       -1   -1    0    0    0  501  0.00000000000E+00  0.00000000000E+00 -0.15751215121E+03  0.15751215129E+03  0.50400001928E-02 0. -1.
    10030    2    1    2    0    0  0.00000000000E+00  0.00000000000E+00  0.40776437700E+03  0.72278867953E+03  0.59678445699E+03 0.  0.
        3    1    3    3  502    0  0.44310065976E+02  0.19350029001E+03  0.47370300979E+03  0.51361492956E+03  0.10100000352E+00 0.  1.
       -3    1    3    3    0  502 -0.44310065976E+02 -0.19350029001E+03 -0.65938632793E+02  0.20917374997E+03  0.10100000352E+00 0. -1.
</event>
<event>
 5   0  0.6078658E-03  0.5999424E+03  0.7818609E-02  0.9905525E-01
       -1   -1    0    0    0  501  0.00000000000E+00  0.00000000000E+00  0.14358985698E+03  0.14358985707E+03  0.50400001928E-02 0. -1.
        1   -1    0    0  501    0  0.00000000000E+00  0.00000000000E+00 -0.62666495201E+03  0.62666495203E+03  0.50400001928E-02 0.  1.
    10030    2    1    2    0    0  0.00000000000E+00  0.00000000000E+00 -0.48307509504E+03  0.77025480910E+03  0.59994243349E+03 0.  0.
        2    1    3    3  502    0 -0.10240802104E+03 -0.23815033007E+03 -0.47761854152E+02  0.26359851517E+03  0.25500000920E-02 0. -1.
       -2    1    3    3    0  502  0.10240802104E+03  0.23815033007E+03 -0.43531324088E+03  0.50665629393E+03  0.25500000920E-02 0.  1.
</event>
<event>
 5   0  0.5765045E-03  0.5990405E+03  0.7818609E-02  0.9907399E-01
        1   -1    0    0  501    0  0.00000000000E+00  0.00000000000E+00  0.48441847062E+03  0.48441847065E+03  0.50400001928E-02 0. -1.
       -1   -1    0    0    0  501  0.00000000000E+00  0.00000000000E+00 -0.18519602519E+03  0.18519602526E+03  0.50400001928E-02 0.  1.
    10030    2    1    2    0    0  0.00000000000E+00  0.00000000000E+00  0.29922244543E+03  0.66961449591E+03  0.59904048384E+03 0.  0.
        1    1    3    3  502    0 -0.25440224221E+03 -0.13552358875E+03  0.24059609656E+03  0.37546454647E+03  0.50400001928E-02 0. -1.
       -1    1    3    3    0  502  0.25440224221E+03  0.13552358875E+03  0.58626348872E+02  0.29414994944E+03  0.50400001928E-02 0.  1.
</event>
<event>
 5   0  0.5790967E-03  0.5989746E+03  0.7818609E-02  0.9907536E-01
        1   -1    0    0  501    0  0.00000000000E+00  0.00000000000E+00  0.15387263877E+03  0.15387263885E+03  0.50400001928E-02 0. -1.
       -1   -1    0    0    0  501  0.00000000000E+00  0.00000000000E+00 -0.58290190208E+03  0.58290190210E+03  0.50400001928E-02 0.  1.
    10030    2    1    2    0    0  0.00000000000E+00  0.00000000000E+00 -0.42902926330E+03  0.73677454095E+03  0.59897463671E+03 0.  0.
        3    1    3    3  502    0 -0.11253198868E+03 -0.19793742276E+03  0.24794327666E+02  0.22903589389E+03  0.10100000352E+00 0. -1.
       -3    1    3    3    0  502  0.11253198868E+03  0.19793742276E+03 -0.45382359097E+03  0.50773864707E+03  0.10100000352E+00 0.  1.
</event>
<event>
 5   0  0.5819446E-03  0.6018660E+03  0.7818609E-02  0.9901542E-01
       -1   -1    0    0    0  501  0.00000000000E+00  0.00000000000E+00  0.18103292419E+03  0.18103292426E+03  0.50400001928E-02 0. -1.
        1   -1    0    0  501    0  0.00000000000E+00  0.00000000000E+00 -0.50024424446E+03  0.50024424449E+03  0.50400001928E-02 0.  1.
    10030    2    1    2    0    0  0.00000000000E+00  0.00000000000E+00 -0.31921132027E+03  0.68127716875E+03  0.60186602635E+03 0.  0.
        5    1    3    3  502    0 -0.12528170420E+03  0.23031479476E+02 -0.46817682007E+03  0.48521910443E+03  0.46999998093E+01 0.  1.
       -5    1    3    3    0  502  0.12528170420E+03 -0.23031479476E+02  0.14896549980E+03  0.19605806432E+03  0.46999998093E+01 0. -1.
</event>
<event>
 5   0  0.5819446E-03  0.6011818E+03  0.7818609E-02  0.9902957E-01
       -1   -1    0    0    0  501  0.00000000000E+00  0.00000000000E+00  0.11855711795E+03  0.11855711806E+03  0.50400001928E-02 0.  1.
        1   -1    0    0  501    0  0.00000000000E+00  0.00000000000E+00 -0.76212121176E+03  0.76212121178E+03  0.50400001928E-02 0. -1.
    10030    2    1    2    0    0  0.00000000000E+00  0.00000000000E+00 -0.64356409381E+03  0.88067832984E+03  0.60118181759E+03 0.  0.
        5    1    3    3  502    0 -0.14838849075E+03  0.20354114693E+02  0.59937453082E+02  0.16139399757E+03  0.46999998093E+01 0.  1.
       -5    1    3    3    0  502  0.14838849075E+03 -0.20354114693E+02 -0.70350154689E+03  0.71928433227E+03  0.46999998093E+01 0. -1.
</event>
<event>
 5   0  0.9303190E-03  0.6001467E+03  0.7818609E-02  0.9905102E-01
        2   -1    0    0  501    0  0.00000000000E+00  0.00000000000E+00  0.13555619045E+04  0.13555619045E+04  0.25500000920E-02 0. -1.
       -2   -1    0    0    0  501  0.00000000000E+00  0.00000000000E+00 -0.66425603604E+02  0.66425603653E+02  0.25500000920E-02 0.  1.
    10030    2    1    2    0    0  0.00000000000E+00  0.00000000000E+00  0.12891363009E+04  0.14219875082E+04  0.60014670795E+03 0.  0.
        4    1    3    3  502    0 -0.15657667247E+02  0.24946623820E+02 -0.62986009607E+02  0.69543848684E+02  0.12699999809E+01 0.  1.
       -4    1    3    3    0  502  0.15657667247E+02 -0.24946623820E+02  0.13521223105E+04  0.13524436595E+04  0.12699999809E+01 0. -1.
</event>
<event>
 5   0  0.5891927E-03  0.6004002E+03  0.7818609E-02  0.9904576E-01
        1   -1    0    0  501    0  0.00000000000E+00  0.00000000000E+00  0.35793808898E+03  0.35793808901E+03  0.50400001928E-02 0. -1.
       -1   -1    0    0    0  501  0.00000000000E+00  0.00000000000E+00 -0.25177563650E+03  0.25177563655E+03  0.50400001928E-02 0.  1.
    10030    2    1    2    0    0  0.00000000000E+00  0.00000000000E+00  0.10616245247E+03  0.60971372557E+03  0.60040016725E+03 0.  0.
        4    1    3    3  502    0 -0.85536475318E+02 -0.24447543508E+03 -0.10104178827E+03  0.27802119136E+03  0.12699999809E+01 0.  1.
       -4    1    3    3    0  502  0.85536475318E+02  0.24447543508E+03  0.20720424075E+03  0.33169253421E+03  0.12699999809E+01 0. -1.
</event>
<event>
 5   0  0.9822607E-03  0.6005860E+03  0.7818609E-02  0.9904191E-01
        2   -1    0    0  501    0  0.00000000000E+00  0.00000000000E+00  0.89812812613E+03  0.89812812613E+03  0.25500000920E-02 0.  1.
       -2   -1    0    0    0  501  0.00000000000E+00  0.00000000000E+00 -0.10040425887E+03  0.10040425890E+03  0.25500000920E-02 0. -1.
    10030    2    1    2    0    0  0.00000000000E+00  0.00000000000E+00  0.79772386726E+03  0.99853238503E+03  0.60058601012E+03 0.  0.
        3    1    3    3  502    0 -0.55702323713E+01  0.91038666356E+02  0.87454134837E+03  0.87928473572E+03  0.10100000352E+00 0.  1.
       -3    1    3    3    0  502  0.55702323713E+01 -0.91038666356E+02 -0.76817481109E+02  0.11924764931E+03  0.10100000352E+00 0. -1.
</event>
<event>
 5   0  0.3806250E-03  0.5985469E+03  0.7818609E-02  0.9908425E-01
       -3   -1    0    0    0  501  0.00000000000E+00  0.00000000000E+00  0.16153032771E+04  0.16153032803E+04  0.10100000352E+00 0. -1.
        3   -1    0    0  501    0  0.00000000000E+00  0.00000000000E+00 -0.55447487176E+02  0.55447579164E+02  0.10100000352E+00 0.  1.
    10030    2    1    2    0    0  0.00000000000E+00  0.00000000000E+00  0.15598557900E+04  0.16707508595E+04  0.59854686442E+03 0.  0.
        5    1    3    3  502    0  0.91826351449E+01 -0.27093569546E+03  0.11335817951E+04  0.11655557679E+04  0.46999998093E+01 0. -1.
       -5    1    3    3    0  502 -0.91826351449E+01  0.27093569546E+03  0.42627399490E+03  0.50519509161E+03  0.46999998093E+01 0.  1.
</event>
<event>
 5   0  0.9028473E-03  0.6033342E+03  0.7818609E-02  0.9898513E-01
        2   -1    0    0  501    0  0.00000000000E+00  0.00000000000E+00  0.31937318801E+03  0.31937318802E+03  0.25500000920E-02 0. -1.
       -2   -1    0    0    0  501  0.00000000000E+00  0.00000000000E+00 -0.28494267647E+03  0.28494267648E+03  0.25500000920E-02 0.  1.
    10030    2    1    2    0    0  0.00000000000E+00  0.00000000000E+00  0.34430511540E+02  0.60431586450E+03  0.60333423901E+03 0.  0.
        1    1    3    3  502    0  0.13135502579E+03 -0.25382030181E+03 -0.79503553576E+02  0.29664743968E+03  0.50400001928E-02 0.  1.
       -1    1    3    3    0  502 -0.13135502579E+03  0.25382030181E+03  0.11393406512E+03  0.30766842482E+03  0.50400001928E-02 0. -1.
</event>
<event>
 5   0  0.6078658E-03  0.6001466E+03  0.7818609E-02  0.9905102E-01
       -1   -1    0    0    0  501  0.00000000000E+00  0.00000000000E+00  0.11970007423E+03  0.11970007433E+03  0.50400001928E-02 0. -1.
        1   -1    0    0  501    0  0.00000000000E+00  0.00000000000E+00 -0.75224678910E+03  0.75224678911E+03  0.50400001928E-02 0.  1.
    10030    2    1    2    0    0  0.00000000000E+00  0.00000000000E+00 -0.63254671487E+03  0.87194686344E+03  0.60014663723E+03 0.  0.
        2    1    3    3  502    0 -0.89145072745E+02 -0.18320606013E+03 -0.63634694213E+03  0.66816819381E+03  0.25500000920E-02 0.  1.
       -2    1    3    3    0  502  0.89145072745E+02  0.18320606013E+03  0.38002272551E+01  0.20377866963E+03  0.25500000920E-02 0. -1.
</event>
<event>
 5   0  0.9028473E-03  0.5975606E+03  0.7818609E-02  0.9910480E-01
        2   -1    0    0  501    0  0.00000000000E+00  0.00000000000E+00  0.33176310454E+03  0.33176310455E+03  0.25500000920E-02 0. -1.
       -2   -1    0    0    0  501  0.00000000000E+00  0.00000000000E+00 -0.26907649950E+03  0.26907649951E+03  0.25500000920E-02 0.  1.
    10030    2    1    2    0    0  0.00000000000E+00  0.00000000000E+00  0.62686605043E+02  0.60083960406E+03  0.59756055706E+03 0.  0.
        1    1    3    3  502    0 -0.27525331230E+03 -0.71494130472E+02  0.12346404756E+03  0.31003091408E+03  0.50400001928E-02 0. -1.
       -1    1    3    3    0  502  0.27525331230E+03  0.71494130472E+02 -0.60777442518E+02  0.29080868998E+03  0.50400001928E-02 0.  1.
</event>
<event>
 5   0  0.9028473E-03  0.5986349E+03  0.7818609E-02  0.9908242E-01
       -2   -1    0    0    0  501  0.00000000000E+00  0.00000000000E+00  0.18792320525E+03  0.18792320526E+03  0.25500000920E-02 0. -1.
        2   -1    0    0  501    0  0.00000000000E+00  0.00000000000E+00 -0.47674222516E+03  0.47674222516E+03  0.25500000920E-02 0.  1.
    10030    2    1    2    0    0  0.00000000000E+00  0.00000000000E+00 -0.28881901991E+03  0.66466543043E+03  0.59863487047E+03 0.  0.
        1    1    3    3  502    0  0.34969191050E+02  0.27860138952E+03 -0.29294448132E+02  0.28231142960E+03  0.50400001928E-02 0. -1.
       -1    1    3    3    0  502 -0.34969191050E+02 -0.27860138952E+03 -0.25952457178E+03  0.38235400083E+03  0.50400001928E-02 0.  1.
</event>
<event>
 5   0  0.6078658E-03  0.6029827E+03  0.7818609E-02  0.9899237E-01
        1   -1    0    0  501    0  0.00000000000E+00  0.00000000000E+00  0.51270285270E+03  0.51270285272E+03  0.50400001928E-02 0.  1.
       -1   -1    0    0    0  501  0.00000000000E+00  0.00000000000E+00 -0.17728991175E+03  0.17728991182E+03  0.50400001928E-02 0. -1.
    10030    2    1    2    0    0  0.00000000000E+00  0.00000000000E+00  0.33541294095E+03  0.68999276454E+03  0.60298273123E+03 0.  0.
        2    1    3    3  502    0 -0.13313963914E+03 -0.25843106124E+03  0.76275112609E+02  0.30055061093E+03  0.25500000920E-02 0.  1.
       -2    1    3    3    0  502  0.13313963914E+03  0.25843106124E+03  0.25913782834E+03  0.38944215361E+03  0.25500000920E-02 0. -1.
</event>
<event>
 5   0  0.9028473E-03  0.5970236E+03  0.7818609E-02  0.9911601E-01
       -2   -1    0    0    0  501  0.00000000000E+00  0.00000000000E+00  0.12238696872E+03  0.12238696875E+03  0.25500000920E-02 0. -1.
        2   -1    0    0  501    0  0.00000000000E+00  0.00000000000E+00 -0.72809456685E+03  0.72809456686E+03  0.25500000920E-02 0.  1.
    10030    2    1    2    0    0  0.00000000000E+00  0.00000000000E+00 -0.60570759813E+03  0.85048153560E+03  0.59702357405E+03 0.  0.
        1    1    3    3  502    0 -0.15256112155E+03  0.20588218709E+03 -0.52098423881E+03  0.58059189444E+03  0.50400001928E-02 0. -1.
       -1    1    3    3    0  502  0.15256112155E+03 -0.20588218709E+03 -0.84723359314E+02  0.26988964116E+03  0.50400001928E-02 0.  1.
</event>
<event>
 5   0  0.5891927E-03  0.5997395E+03  0.7818609E-02  0.9905947E-01
       -1   -1    0    0    0  501  0.00000000000E+00  0.00000000000E+00  0.13029750588E+03  0.13029750598E+03  0.50400001928E-02 0. -1.
        1   -1    0    0  501    0  0.00000000000E+00  0.00000000000E+00 -0.69012726955E+03  0.69012726956E+03  0.50400001928E-02 0.  1.
    10030    2    1    2    0    0  0.00000000000E+00  0.00000000000E+00 -0.55982976366E+03  0.82042477554E+03  0.59973948348E+03 0.  0.
        4    1    3    3  502    0 -0.15883393971E+03  0.46254930105E+02 -0.62205066362E+03  0.64367412560E+03  0.12699999809E+01 0.  1.
       -4    1    3    3    0  502  0.15883393971E+03 -0.46254930105E+02  0.62220899952E+02  0.17675064994E+03  0.12699999809E+01 0. -1.
</event>
<event>
 5   0  0.3806250E-03  0.5960813E+03  0.7818609E-02  0.9913570E-01
        4   -1    0    0  501    0  0.00000000000E+00  0.00000000000E+00  0.83540950455E+03  0.83541046988E+03  0.12699999809E+01 0.  1.
       -4   -1    0    0    0  501  0.00000000000E+00  0.00000000000E+00 -0.10632413311E+03  0.10633171766E+03  0.12699999809E+01 0. -1.
    10030    2    1    2    0    0  0.00000000000E+00  0.00000000000E+00  0.72908537144E+03  0.94174218755E+03  0.59608126036E+03 0.  0.
        4    1    3    3  502    0  0.10800023085E+03  0.17083008805E+03  0.71060557514E+03  0.73878878251E+03  0.12699999809E+01 0.  1.
       -4    1    3    3    0  502 -0.10800023085E+03 -0.17083008805E+03  0.18479796306E+02  0.20295340504E+03  0.12699999809E+01 0. -1.
</event>
<event>
 5   0  0.5891927E-03  0.6003115E+03  0.7818609E-02  0.9904760E-01
        1   -1    0    0  501    0  0.00000000000E+00  0.00000000000E+00  0.22511632031E+03  0.22511632037E+03  0.50400001928E-02 0. -1.
       -1   -1    0    0    0  501  0.00000000000E+00  0.00000000000E+00 -0.40020851196E+03  0.40020851199E+03  0.50400001928E-02 0.  1.
    10030    2    1    2    0    0  0.00000000000E+00  0.00000000000E+00 -0.17509219164E+03  0.62532483236E+03  0.60031147781E+03 0.  0.
        4    1    3    3  502    0  0.11571650916E+03 -0.40073758307E+02  0.19790806930E+03  0.23273468455E+03  0.12699999809E+01 0. -1.
       -4    1    3    3    0  502 -0.11571650916E+03  0.40073758307E+02 -0.37300026094E+03  0.39259014781E+03  0.12699999809E+01 0.  1.
</event>
<event>
 5   0  0.9028473E-03  0.5986383E+03  0.7818609E-02  0.9908235E-01
       -2   -1    0    0    0  501  0.00000000000E+00  0.00000000000E+00  0.75338511133E+02  0.75338511177E+02  0.25500000920E-02 0.  1.
        2   -1    0    0  501    0  0.00000000000E+00  0.00000000000E+00 -0.11891918962E+04  0.11891918962E+04  0.25500000920E-02 0. -1.
    10030    2    1    2    0    0  0.00000000000E+00  0.00000000000E+00 -0.11138533851E+04  0.12645304074E+04  0.59863827790E+03 0.  0.
        1    1    3    3  502    0 -0.21111000660E+02  0.26829449416E+02 -0.11850658925E+04  0.11855575327E+04  0.50400001928E-02 0. -1.
       -1    1    3    3    0  502  0.21111000660E+02 -0.26829449416E+02  0.71212507410E+02  0.78972874722E+02  0.50400001928E-02 0.  1.
</event>
<event>
 5   0  0.5765045E-03  0.5995180E+03  0.7818609E-02  0.9906407E-01
       -1   -1    0    0    0  501  0.00000000000E+00  0.00000000000E+00  0.12754664164E+03  0.12754664174E+03  0.50400001928E-02 0. -1.
        1   -1    0    0  501    0  0.00000000000E+00  0.00000000000E+00 -0.70449096833E+03  0.70449096834E+03  0.50400001928E-02 0.  1.
    10030    2    1    2    0    0  0.00000000000E+00  0.00000000000E+00 -0.57694432668E+03  0.83203761009E+03  0.59951799681E+03 0.  0.
        1    1    3    3  502    0 -0.29376680057E+03  0.59585910888E+02 -0.29188389249E+03  0.41838453677E+03  0.50400001928E-02 0. -1.
       -1    1    3    3    0  502  0.29376680057E+03 -0.59585910888E+02 -0.28506043420E+03  0.41365307331E+03  0.50400001928E-02 0.  1.
</event>
<event>
 5   0  0.6078658E-03  0.6009145E+03  0.7818609E-02  0.9903511E-01
       -1   -1    0    0    0  501  0.00000000000E+00  0.00000000000E+00  0.22481194252E+03  0.22481194257E+03  0.50400001928E-02 0.  1.
        1   -1    0    0  501    0  0.00000000000E+00  0.00000000000E+00 -0.40155592617E+03  0.40155592620E+03  0.50400001928E-02 0. -1.
    10030    2    1    2    0    0  0.00000000000E+00  0.00000000000E+00 -0.17674398365E+03  0.62636786877E+03  0.60091452909E+03 0.  0.
        2    1    3    3  502    0  0.56841516852E+02 -0.24643658779E+03 -0.25745454490E+03  0.36089443406E+03  0.25500000920E-02 0. -1.
       -2    1    3    3    0  502 -0.56841516852E+02  0.24643658779E+03  0.80710561245E+02  0.26547343472E+03  0.25500000920E-02 0.  1.
</event>
<event>
 5   0  0.9391405E-03  0.5996984E+03  0.7818609E-02  0.9906032E-01
        2   -1    0    0  501    0  0.00000000000E+00  0.00000000000E+00  0.14160244250E+04  0.14160244250E+04  0.25500000920E-02 0. -1.
       -2   -1    0    0    0  501  0.00000000000E+00  0.00000000000E+00 -0.63494349120E+02  0.63494349171E+02  0.25500000920E-02 0.  1.
    10030    2    1    2    0    0  0.00000000000E+00  0.00000000000E+00  0.13525300759E+04  0.14795187742E+04  0.59969842168E+03 0.  0.
        2    1    3    3  502    0  0.21456416336E+03  0.89676033692E+02  0.11432585484E+04  0.11666703389E+04  0.25500000920E-02 0. -1.
       -2    1    3    3    0  502 -0.21456416336E+03 -0.89676033692E+02  0.20927152747E+03  0.31284843524E+03  0.25500000920E-02 0.  1.
</event>
<event>
 5   0  0.9391405E-03  0.6008957E+03  0.7818609E-02  0.9903549E-01
        2   -1    0    0  501    0  0.00000000000E+00  0.00000000000E+00  0.50066763773E+03  0.50066763773E+03  0.25500000920E-02 0.  1.
       -2   -1    0    0    0  501  0.00000000000E+00  0.00000000000E+00 -0.18029708717E+03  0.18029708719E+03  0.25500000920E-02 0. -1.
    10030    2    1    2    0    0  0.00000000000E+00  0.00000000000E+00  0.32037055056E+03  0.68096472492E+03  0.60089572050E+03 0.  0.
        2    1    3    3  502    0  0.14991861893E+03 -0.50429640150E+02 -0.12929324728E+03  0.20429264476E+03  0.25500000920E-02 0. -1.
       -2    1    3    3    0  502 -0.14991861893E+03  0.50429640150E+02  0.44966379784E+03  0.47667208015E+03  0.25500000920E-02 0.  1.
</event>
<event>
 5   0  0.9162342E-03  0.5999633E+03  0.7818609E-02  0.9905482E-01
       -2   -1    0    0    0  501  0.00000000000E+00  0.00000000000E+00  0.89254037170E+02  0.89254037207E+02  0.25500000920E-02 0.  1.
        2   -1    0    0  501    0  0.00000000000E+00  0.00000000000E+00 -0.10082343185E+04  0.10082343185E+04  0.25500000920E-02 0. -1.
    10030    2    1    2    0    0  0.00000000000E+00  0.00000000000E+00 -0.91898028136E+03  0.10974883557E+04  0.59996327676E+03 0.  0.
        5    1    3    3  502    0 -0.18776345112E+03  0.20215873433E+03 -0.24426144171E+03  0.36852273926E+03  0.46999998093E+01 0. -1.
       -5    1    3    3    0  502  0.18776345112E+03 -0.20215873433E+03 -0.67471883964E+03  0.72896561648E+03  0.46999998093E+01 0.  1.
</event>
<event>
 5   0  0.9028473E-03  0.5999952E+03  0.7818609E-02  0.9905416E-01
       -2   -1    0    0    0  501  0.00000000000E+00  0.00000000000E+00  0.35275129301E+03  0.35275129302E+03  0.25500000920E-02 0. -1.
        2   -1    0    0  501    0  0.00000000000E+00  0.00000000000E+00 -0.25513315360E+03  0.25513315361E+03  0.25500000920E-02 0.  1.
    10030    2    1    2    0    0  0.00000000000E+00  0.00000000000E+00  0.97618139413E+02  0.60788444663E+03  0.59999516607E+03 0.  0.
        1    1    3    3  502    0 -0.16043129651E+03 -0.54152755901E+02 -0.20209174520E+03  0.26365089679E+03  0.50400001928E-02 0.  1.
       -1    1    3    3    0  502  0.16043129651E+03  0.54152755901E+02  0.29970988462E+03  0.34423354984E+03  0.50400001928E-02 0. -1.
</event>
<event>
 5   0  0.5765045E-03  0.6001741E+03  0.7818609E-02  0.9905045E-01
       -1   -1    0    0    0  501  0.00000000000E+00  0.00000000000E+00  0.12389054773E+03  0.12389054784E+03  0.50400001928E-02 0.  1.
        1   -1    0    0  501    0  0.00000000000E+00  0.00000000000E+00 -0.72686941305E+03  0.72686941307E+03  0.50400001928E-02 0. -1.
    10030    2    1    2    0    0  0.00000000000E+00  0.00000000000E+00 -0.60297886531E+03  0.85075996090E+03  0.60017414061E+03 0.  0.
        1    1    3    3  502    0  0.29357414215E+03  0.23457411567E+02 -0.38311977232E+03  0.48323574688E+03  0.50400001928E-02 0. -1.
       -1    1    3    3    0  502 -0.29357414215E+03 -0.23457411567E+02 -0.21985909299E+03  0.36752421402E+03  0.50400001928E-02 0.  1.
</event>
<event>
 5   0  0.9303190E-03  0.5998325E+03  0.7818609E-02  0.9905754E-01
        2   -1    0    0  501    0  0.00000000000E+00  0.00000000000E+00  0.19379443247E+03  0.19379443248E+03  0.25500000920E-02 0. -1.
       -2   -1    0    0    0  501  0.00000000000E+00  0.00000000000E+00 -0.46415031495E+03  0.46415031495E+03  0.25500000920E-02 0.  1.
    10030    2    1    2    0    0  0.00000000000E+00  0.00000000000E+00 -0.27035588248E+03  0.65794474744E+03  0.59983246618E+03 0.  0.
        4    1    3    3  502    0  0.22760533996E+03 -0.18686360037E+03 -0.72878024355E+02  0.30337273321E+03  0.12699999809E+01 0.  1.
       -4    1    3    3    0  502 -0.22760533996E+03  0.18686360037E+03 -0.19747785812E+03  0.35457201422E+03  0.12699999809E+01 0. -1.
</event>
<event>
 5   0  0.9162342E-03  0.5990177E+03  0.7818609E-02  0.9907446E-01
       -2   -1    0    0    0  501  0.00000000000E+00  0.00000000000E+00  0.57872029210E+02  0.57872029266E+02  0.25500000920E-02 0. -1.
        2   -1    0    0  501    0  0.00000000000E+00  0.00000000000E+00 -0.15500677094E+04  0.15500677094E+04  0.25500000920E-02 0.  1.
    10030    2    1    2    0    0  0.00000000000E+00  0.00000000000E+00 -0.14921956802E+04  0.16079397386E+04  0.59901774198E+03 0.  0.
        5    1    3    3  502    0  0.20159346339E+03 -0.17830751495E+02 -0.13386256539E+04  0.13538458521E+04  0.46999998093E+01 0.  1.
       -5    1    3    3    0  502 -0.20159346339E+03  0.17830751495E+02 -0.15357002629E+03  0.25409388649E+03  0.46999998093E+01 0. -1.
</event>
<event>
 5   0  0.9028473E-03  0.5999889E+03  0.7818609E-02  0.9905429E-01
       -2   -1    0    0    0  501  0.00000000000E+00  0.00000000000E+00  0.14918524780E+03  0.14918524783E+03  0.25500000920E-02 0.  1.
        2   -1    0    0  501    0  0.00000000000E+00  0.00000000000E+00 -0.60325456284E+03  0.60325456284E+03  0.25500000920E-02 0. -1.
    10030    2    1    2    0    0  0.00000000000E+00  0.00000000000E+00 -0.45406931503E+03  0.75243981067E+03  0.59998893809E+03 0.  0.
        1    1    3    3  502    0 -0.24169659309E+02  0.26940624668E+03 -0.38974175118E+03  0.47440755772E+03  0.50400001928E-02 0. -1.
       -1    1    3    3    0  502  0.24169659309E+02 -0.26940624668E+03 -0.64327563851E+02  0.27803225295E+03  0.50400001928E-02 0.  1.
</event>
<event>
 5   0  0.5765045E-03  0.5987445E+03  0.7818609E-02  0.9908014E-01
       -1   -1    0    0    0  501  0.00000000000E+00  0.00000000000E+00  0.31386155501E+03  0.31386155505E+03  0.50400001928E-02 0.  1.
        1   -1    0    0  501    0  0.00000000000E+00  0.00000000000E+00 -0.28555187912E+03  0.28555187917E+03  0.50400001928E-02 0. -1.
    10030    2    1    2    0    0  0.00000000000E+00  0.00000000000E+00  0.28309675885E+02  0.59941343422E+03  0.59874454267E+03 0.  0.
        1    1    3    3  502    0 -0.13019100351E+03  0.85982655895E+02  0.26994182374E+03  0.31178727161E+03  0.50400001928E-02 0.  1.
       -1    1    3    3    0  502  0.13019100351E+03 -0.85982655895E+02 -0.24163214786E+03  0.28762616260E+03  0.50400001928E-02 0. -1.
</event>
<event>
 5   0  0.3806250E-03  0.5999561E+03  0.7818609E-02  0.9905497E-01
        4   -1    0    0  501    0  0.00000000000E+00  0.00000000000E+00  0.52621038020E+03  0.52621191276E+03  0.12699999809E+01 0. -1.
       -4   -1    0    0    0  501  0.00000000000E+00  0.00000000000E+00 -0.17100509407E+03  0.17100980995E+03  0.12699999809E+01 0.  1.
    10030    2    1    2    0    0  0.00000000000E+00  0.00000000000E+00  0.35520528613E+03  0.69722172271E+03  0.59995611117E+03 0.  0.
        2    1    3    3  502    0  0.18963416450E+03  0.13154572501E+03  0.40029805936E+03  0.46206485524E+03  0.25500000920E-02 0. -1.
       -2    1    3    3    0  502 -0.18963416450E+03 -0.13154572501E+03 -0.45092773227E+02  0.23515686747E+03  0.25500000920E-02 0.  1.
</event>
<event>
 5   0  0.6078658E-03  0.6002010E+03  0.7818609E-02  0.9904989E-01
        1   -1    0    0  501    0  0.00000000000E+00  0.00000000000E+00  0.40589425837E+03  0.40589425840E+03  0.50400001928E-02 0.  1.
       -1   -1    0    0    0  501  0.00000000000E+00  0.00000000000E+00 -0.22188121955E+03  0.22188121961E+03  0.50400001928E-02 0. -1.
    10030    2    1    2    0    0  0.00000000000E+00  0.00000000000E+00  0.18401303882E+03  0.62777547801E+03  0.60020100994E+03 0.  0.
        2    1    3    3  502    0  0.16582454875E+03 -0.52076344839E+02 -0.16387671434E+03  0.23888345311E+03  0.25500000920E-02 0. -1.
       -2    1    3    3    0  502 -0.16582454875E+03  0.52076344839E+02  0.34788975316E+03  0.38889202489E+03  0.25500000920E-02 0.  1.
</event>
<event>
 5   0  0.9391405E-03  0.6001214E+03  0.7818609E-02  0.9905154E-01
        2   -1    0    0  501    0  0.00000000000E+00  0.00000000000E+00  0.44384387333E+03  0.44384387334E+03  0.25500000920E-02 0.  1.
       -2   -1    0    0    0  501  0.00000000000E+00  0.00000000000E+00 -0.20285604526E+03  0.20285604528E+03  0.25500000920E-02 0. -1.
    10030    2    1    2    0    0  0.00000000000E+00  0.00000000000E+00  0.24098782807E+03  0.64669991862E+03  0.60012136394E+03 0.  0.
        2    1    3    3  502    0 -0.21682136091E+03  0.19773347772E+03  0.18801819981E+03  0.34851237313E+03  0.25500000920E-02 0.  1.
       -2    1    3    3    0  502  0.21682136091E+03 -0.19773347772E+03  0.52969628266E+02  0.29818754549E+03  0.25500000920E-02 0. -1.
</event>
<event>
 5   0  0.9303190E-03  0.6126608E+03  0.7818609E-02  0.9879482E-01
        2   -1    0    0  501    0  0.00000000000E+00  0.00000000000E+00  0.73261668456E+03  0.73261668456E+03  0.25500000920E-02 0. -1.
       -2   -1    0    0    0  501  0.00000000000E+00  0.00000000000E+00 -0.12808648893E+03  0.12808648896E+03  0.25500000920E-02 0.  1.
    10030    2    1    2    0    0  0.00000000000E+00  0.00000000000E+00  0.60453019562E+03  0.86070317352E+03  0.61266075073E+03 0.  0.
        4    1    3    3  502    0 -0.11429331946E+03 -0.13501848651E+03  0.65360319066E+03  0.67712015057E+03  0.12699999809E+01 0. -1.
       -4    1    3    3    0  502  0.11429331946E+03  0.13501848651E+03 -0.49072995036E+02  0.18358302295E+03  0.12699999809E+01 0.  1.
</event>
<event>
 5   0  0.9162342E-03  0.6011436E+03  0.7818609E-02  0.9903036E-01
        2   -1    0    0  501    0  0.00000000000E+00  0.00000000000E+00  0.88926727715E+03  0.88926727715E+03  0.25500000920E-02 0.  1.
       -2   -1    0    0    0  501  0.00000000000E+00  0.00000000000E+00 -0.10159308155E+03  0.10159308158E+03  0.25500000920E-02 0. -1.
    10030    2    1    2    0    0  0.00000000000E+00  0.00000000000E+00  0.78767419560E+03  0.99086035873E+03  0.60114358691E+03 0.  0.
        5    1    3    3  502    0 -0.42446614821E+02  0.21119002877E+03  0.73926494069E+03  0.77002447097E+03  0.46999998093E+01 0.  1.
       -5    1    3    3    0  502  0.42446614821E+02 -0.21119002877E+03  0.48409254912E+02  0.22083588776E+03  0.46999998093E+01 0. -1.
</event>
<event>
 5   0  0.5891927E-03  0.6001095E+03  0.7818609E-02  0.9905179E-01
        1   -1    0    0  501    0  0.00000000000E+00  0.00000000000E+00  0.11527322926E+03  0.11527322937E+03  0.50400001928E-02 0. -1.
       -1   -1    0    0    0  501  0.00000000000E+00  0.00000000000E+00 -0.78103870648E+03  0.78103870650E+03  0.50400001928E-02 0.  1.
    10030    2    1    2    0    0  0.00000000000E+00  0.00000000000E+00 -0.66576547722E+03  0.89631193587E+03  0.60010950311E+03 0.  0.
        4    1    3    3  502    0 -0.22198829888E+02  0.43259686388E+01 -0.77975981725E+03  0.78008876902E+03  0.12699999809E+01 0.  1.
       -4    1    3    3    0  502  0.22198829888E+02 -0.43259686388E+01  0.11399434003E+03  0.11622316685E+03  0.12699999809E+01 0. -1.
</event>
<event>
 5   0  0.5891927E-03  0.6015072E+03  0.7818609E-02  0.9902284E-01
        1   -1    0    0  501    0  0.00000000000E+00  0.00000000000E+00  0.47783710619E+03  0.47783710622E+03  0.50400001928E-02 0.  1.
       -1   -1    0    0    0  501  0.00000000000E+00  0.00000000000E+00 -0.18929618499E+03  0.18929618506E+03  0.50400001928E-02 0. -1.
    10030    2    1    2    0    0  0.00000000000E+00  0.00000000000E+00  0.28854092121E+03  0.66713329128E+03  0.60150724444E+03 0.  0.
        4    1    3    3  502    0 -0.23452569528E+03  0.70110037760E+02  0.33807297192E+03  0.41738790876E+03  0.12699999809E+01 0.  1.
       -4    1    3    3    0  502  0.23452569528E+03 -0.70110037760E+02 -0.49532050711E+02  0.24974538251E+03  0.12699999809E+01 0. -1.
</event>
<event>
 5   0  0.9391405E-03  0.6015572E+03  0.7818609E-02  0.9902181E-01
        2   -1    0    0  501    0  0.00000000000E+00  0.00000000000E+00  0.66565186652E+03  0.66565186652E+03  0.25500000920E-02 0. -1.
       -2   -1    0    0    0  501  0.00000000000E+00  0.00000000000E+00 -0.13590854668E+03  0.13590854671E+03  0.25500000920E-02 0.  1.
    10030    2    1    2    0    0  0.00000000000E+00  0.00000000000E+00  0.52974331984E+03  0.80156041323E+03  0.60155723846E+03 0.  0.
        2    1    3    3  502    0  0.85905878253E+02 -0.67710479451E+02  0.63821045256E+03  0.64751610845E+03  0.25500000920E-02 0. -1.
       -2    1    3    3    0  502 -0.85905878253E+02  0.67710479451E+02 -0.10846713272E+03  0.15404430477E+03  0.25500000920E-02 0.  1.
</event>
<event>
 5   0  0.9028473E-03  0.6003004E+03  0.7818609E-02  0.9904783E-01
       -2   -1    0    0    0  501  0.00000000000E+00  0.00000000000E+00  0.47406779014E+03  0.47406779015E+03  0.25500000920E-02 0. -1.
        2   -1    0    0  501    0  0.00000000000E+00  0.00000000000E+00 -0.19003640993E+03  0.19003640995E+03  0.25500000920E-02 0.  1.
    10030    2    1    2    0    0  0.00000000000E+00  0.00000000000E+00  0.28403138021E+03  0.66410420010E+03  0.60030039450E+03 0.  0.
        1    1    3    3  502    0 -0.17982002657E+02  0.29932634016E+03  0.12756898866E+03  0.32587337606E+03  0.50400001928E-02 0. -1.
       -1    1    3    3    0  502  0.17982002657E+02 -0.29932634016E+03  0.15646239155E+03  0.33823082404E+03  0.50400001928E-02 0.  1.
</event>
<event>
 5   0  0.9028473E-03  0.6005959E+03  0.7818609E-02  0.9904170E-01
       -2   -1    0    0    0  501  0.00000000000E+00  0.00000000000E+00  0.21022995122E+03  0.21022995123E+03  0.25500000920E-02 0. -1.
        2   -1    0    0  501    0  0.00000000000E+00  0.00000000000E+00 -0.42895344843E+03  0.42895344843E+03  0.25500000920E-02 0.  1.
    10030    2    1    2    0    0  0.00000000000E+00  0.00000000000E+00 -0.21872349721E+03  0.63918339967E+03  0.60059591255E+03 0.  0.
        1    1    3    3  502    0 -0.15228616934E+03 -0.87989128415E+01  0.16592785615E+03  0.22538977730E+03  0.50400001928E-02 0.  1.
       -1    1    3    3    0  502  0.15228616934E+03  0.87989128415E+01 -0.38465135336E+03  0.41379362236E+03  0.50400001928E-02 0. -1.
</event>
<event>
 5   0  0.3806250E-03  0.6002138E+03  0.7818609E-02  0.9904963E-01
       -4   -1    0    0    0  501  0.00000000000E+00  0.00000000000E+00  0.22634960047E+03  0.22635316329E+03  0.12699999809E+01 0.  1.
        4   -1    0    0  501    0  0.00000000000E+00  0.00000000000E+00 -0.39789077033E+03  0.39789279714E+03  0.12699999809E+01 0. -1.
    10030    2    1    2    0    0  0.00000000000E+00  0.00000000000E+00 -0.17154116986E+03  0.62424596043E+03  0.60021383369E+03 0.  0.
        1    1    3    3  502    0  0.18927438234E+03  0.17872272554E+03  0.69531891882E+02  0.26944626263E+03  0.50400001928E-02 0.  1.
       -1    1    3    3    0  502 -0.18927438234E+03 -0.17872272554E+03 -0.24107306174E+03  0.35479969780E+03  0.50400001928E-02 0. -1.
</event>
<event>
 5   0  0.9162342E-03  0.5999011E+03  0.7818609E-02  0.9905611E-01
        2   -1    0    0  501    0  0.00000000000E+00  0.00000000000E+00  0.72620935368E+02  0.72620935413E+02  0.25500000920E-02 0.  1.
       -2   -1    0    0    0  501  0.00000000000E+00  0.00000000000E+00 -0.12389034284E+04  0.12389034284E+04  0.25500000920E-02 0. -1.
    10030    2    1    2    0    0  0.00000000000E+00  0.00000000000E+00 -0.11662824930E+04  0.13115243638E+04  0.59990107795E+03 0.  0.
        5    1    3    3  502    0  0.14950365913E+03 -0.37865225960E+02 -0.20793839436E+02  0.15569069717E+03  0.46999998093E+01 0.  1.
       -5    1    3    3    0  502 -0.14950365913E+03  0.37865225960E+02 -0.11454886536E+04  0.11558336666E+04  0.46999998093E+01 0. -1.
</event>
<event>
 5   0  0.5891927E-03  0.6002033E+03  0.7818609E-02  0.9904984E-01
       -1   -1    0    0    0  501  0.00000000000E+00  0.00000000000E+00  0.24533548268E+03  0.24533548274E+03  0.50400001928E-02 0. -1.
        1   -1    0    0  501    0  0.00000000000E+00  0.00000000000E+00 -0.36709327099E+03  0.36709327103E+03  0.50400001928E-02 0.  1.
    10030    2    1    2    0    0  0.00000000000E+00  0.00000000000E+00 -0.12175778831E+03  0.61242875376E+03  0.60020331507E+03 0.  0.
        4    1    3    3  502    0  0.22427550700E+03 -0.24678534337E+02  0.14101715937E+03  0.26607514959E+03  0.12699999809E+01 0. -1.
       -4    1    3    3    0  502 -0.22427550700E+03  0.24678534337E+02 -0.26277494768E+03  0.34635360417E+03  0.12699999809E+01 0.  1.
</event>
<event>
 5   0  0.5765045E-03  0.6008637E+03  0.7818609E-02  0.9903616E-01
       -1   -1    0    0    0  501  0.00000000000E+00  0.00000000000E+00  0.20198464376E+03  0.20198464382E+03  0.50400001928E-02 0.  1.
        1   -1    0    0  501    0  0.00000000000E+00  0.00000000000E+00 -0.44686209733E+03  0.44686209736E+03  0.50400001928E-02 0. -1.
    10030    2    1    2    0    0  0.00000000000E+00  0.00000000000E+00 -0.24487745357E+03  0.64884674118E+03  0.60086365032E+03 0.  0.
        1    1    3    3  502    0  0.24748602633E+03  0.67205501063E+01 -0.30622003213E+03  0.39378319813E+03  0.50400001928E-02 0. -1.
       -1    1    3    3    0  502 -0.24748602633E+03 -0.67205501063E+01  0.61342578560E+02  0.25506354305E+03  0.50400001928E-02 0.  1.
</event>
<event>
 5   0  0.5765045E-03  0.6001533E+03  0.7818609E-02  0.9905088E-01
        1   -1    0    0  501    0  0.00000000000E+00  0.00000000000E+00  0.97663723100E+03  0.97663723102E+03  0.50400001928E-02 0.  1.
       -1   -1    0    0    0  501  0.00000000000E+00  0.00000000000E+00 -0.92200050479E+02  0.92200050617E+02  0.50400001928E-02 0. -1.
    10030    2    1    2    0    0  0.00000000000E+00  0.00000000000E+00  0.88443718053E+03  0.10688372816E+04  0.60015332067E+03 0.  0.
        1    1    3    3  502    0 -0.20941771356E+02  0.29917198096E+03  0.42409406982E+03  0.51942103544E+03  0.50400001928E-02 0. -1.
       -1    1    3    3    0  502  0.20941771356E+02 -0.29917198096E+03  0.46034311071E+03  0.54941624619E+03  0.50400001928E-02 0.  1.
</event>
<event>
 5   0  0.3806250E-03  0.6004530E+03  0.7818609E-02  0.9904467E-01
        4   -1    0    0  501    0  0.00000000000E+00  0.00000000000E+00  0.35712523005E+03  0.35712748821E+03  0.12699999809E+01 0. -1.
       -4   -1    0    0    0  501  0.00000000000E+00  0.00000000000E+00 -0.25238850772E+03  0.25239170298E+03  0.12699999809E+01 0.  1.
    10030    2    1    2    0    0  0.00000000000E+00  0.00000000000E+00  0.10473672232E+03  0.60951919119E+03  0.60045304847E+03 0.  0.
        1    1    3    3  502    0  0.10910847707E+03 -0.83157097659E+02  0.32345145715E+03  0.35134115588E+03  0.50400001928E-02 0. -1.
       -1    1    3    3    0  502 -0.10910847707E+03  0.83157097659E+02 -0.21871473482E+03  0.25817803531E+03  0.50400001928E-02 0.  1.
</event>
<event>
 5   0  0.3806250E-03  0.5999848E+03  0.7818609E-02  0.9905438E-01
        3   -1    0    0  501    0  0.00000000000E+00  0.00000000000E+00  0.20247457621E+03  0.20247460140E+03  0.10100000352E+00 0. -1.
       -3   -1    0    0    0  501  0.00000000000E+00  0.00000000000E+00 -0.44447759812E+03  0.44447760959E+03  0.10100000352E+00 0.  1.
    10030    2    1    2    0    0  0.00000000000E+00  0.00000000000E+00 -0.24200302191E+03  0.64695221099E+03  0.59998475038E+03 0.  0.
        4    1    3    3  502    0  0.18816109800E+03  0.19558376132E+03 -0.25882003257E+03  0.37502937039E+03  0.12699999809E+01 0.  1.
       -4    1    3    3    0  502 -0.18816109800E+03 -0.19558376132E+03  0.16817010660E+02  0.27192284060E+03  0.12699999809E+01 0. -1.
</event>
<event>
 5   0  0.5765045E-03  0.5999674E+03  0.7818609E-02  0.9905474E-01
        1   -1    0    0  501    0  0.00000000000E+00  0.00000000000E+00  0.17198744626E+03  0.17198744633E+03  0.50400001928E-02 0. -1.
       -1   -1    0    0    0  501  0.00000000000E+00  0.00000000000E+00 -0.52323708576E+03  0.52323708578E+03  0.50400001928E-02 0.  1.
    10030    2    1    2    0    0  0.00000000000E+00  0.00000000000E+00 -0.35124963950E+03  0.69522453211E+03  0.59996736644E+03 0.  0.
        1    1    3    3  502    0  0.20515474332E+03  0.20847290528E+03 -0.98405221045E+02  0.30859845835E+03  0.50400001928E-02 0.  1.
       -1    1    3    3    0  502 -0.20515474332E+03 -0.20847290528E+03 -0.25284441846E+03  0.38662607376E+03  0.50400001928E-02 0. -1.
</event>
<event>
 5   0  0.9028473E-03  0.5987579E+03  0.7818609E-02  0.9907986E-01
       -2   -1    0    0    0  501  0.00000000000E+00  0.00000000000E+00  0.47730802058E+02  0.47730802126E+02  0.25500000920E-02 0.  1.
        2   -1    0    0  501    0  0.00000000000E+00  0.00000000000E+00 -0.18777757483E+04  0.18777757483E+04  0.25500000920E-02 0. -1.
    10030    2    1    2    0    0  0.00000000000E+00  0.00000000000E+00 -0.18300449463E+04  0.19255065505E+04  0.59875785630E+03 0.  0.
        1    1    3    3  502    0  0.27080254256E+03 -0.76335392706E+02 -0.12440235210E+04  0.12754433073E+04  0.50400001928E-02 0. -1.
       -1    1    3    3    0  502 -0.27080254256E+03  0.76335392706E+02 -0.58602142526E+03  0.65006324317E+03  0.50400001928E-02 0.  1.
</event>
<event>
 5   0  0.5765045E-03  0.6035227E+03  0.7818609E-02  0.9898124E-01
        1   -1    0    0  501    0  0.00000000000E+00  0.00000000000E+00  0.21094420710E+03  0.21094420716E+03  0.50400001928E-02 0. -1.
       -1   -1    0    0    0  501  0.00000000000E+00  0.00000000000E+00 -0.43167768391E+03  0.43167768394E+03  0.50400001928E-02 0.  1.
    10030    2    1    2    0    0  0.00000000000E+00  0.00000000000E+00 -0.22073347681E+03  0.64262189110E+03  0.60352268154E+03 0.  0.
        1    1    3    3  502    0 -0.14440828091E+03  0.29591065772E+02 -0.39073197352E+03  0.41761328753E+03  0.50400001928E-02 0.  1.
       -1    1    3    3    0  502  0.14440828091E+03 -0.29591065772E+02  0.16999849671E+03  0.22500860356E+03  0.50400001928E-02 0. -1.
</event>
<event>
 5   0  0.9303190E-03  0.5998975E+03  0.7818609E-02  0.9905619E-01
        2   -1    0    0  501    0  0.00000000000E+00  0.00000000000E+00  0.67469448375E+03  0.67469448375E+03  0.25500000920E-02 0.  1.
       -2   -1    0    0    0  501  0.00000000000E+00  0.00000000000E+00 -0.13334813744E+03  0.13334813747E+03  0.25500000920E-02 0. -1.
    10030    2    1    2    0    0  0.00000000000E+00  0.00000000000E+00  0.54134634631E+03  0.80804262122E+03  0.59989750045E+03 0.  0.
        4    1    3    3  502    0  0.18235990632E+03 -0.23534700723E+03  0.22165593163E+03  0.37118231931E+03  0.12699999809E+01 0. -1.
       -4    1    3    3    0  502 -0.18235990632E+03  0.23534700723E+03  0.31969041468E+03  0.43686030190E+03  0.12699999809E+01 0.  1.
</event>
<event>
 5   0  0.9822607E-03  0.6010186E+03  0.7818609E-02  0.9903295E-01
        2   -1    0    0  501    0  0.00000000000E+00  0.00000000000E+00  0.84074789419E+03  0.84074789419E+03  0.25500000920E-02 0. -1.
       -2   -1    0    0    0  501  0.00000000000E+00  0.00000000000E+00 -0.10741131990E+03  0.10741131993E+03  0.25500000920E-02 0.  1.
    10030    2    1    2    0    0  0.00000000000E+00  0.00000000000E+00  0.73333657429E+03  0.94815921413E+03  0.60101860550E+03 0.  0.
        3    1    3    3  502    0  0.18887273406E+03  0.47938696079E+01 -0.19944158506E+01  0.18894411542E+03  0.10100000352E+00 0.  1.
       -3    1    3    3    0  502 -0.18887273406E+03 -0.47938696079E+01  0.73533099014E+03  0.75921509871E+03  0.10100000352E+00 0. -1.
</event>
<event>
 5   0  0.9391405E-03  0.5979995E+03  0.7818609E-02  0.9909565E-01
        2   -1    0    0  501    0  0.00000000000E+00  0.00000000000E+00  0.11109875177E+04  0.11109875177E+04  0.25500000920E-02 0.  1.
       -2   -1    0    0    0  501  0.00000000000E+00  0.00000000000E+00 -0.80469704974E+02  0.80469705014E+02  0.25500000920E-02 0. -1.
    10030    2    1    2    0    0  0.00000000000E+00  0.00000000000E+00  0.10305178127E+04  0.11914572227E+04  0.59799945755E+03 0.  0.
        2    1    3    3  502    0 -0.13773838034E+03 -0.25013760801E+03  0.69190058225E+03  0.74850991983E+03  0.25500000920E-02 0.  1.
       -2    1    3    3    0  502  0.13773838034E+03  0.25013760801E+03  0.33861723049E+03  0.44294730290E+03  0.25500000920E-02 0. -1.
</event>
<event>
 5   0  0.5819446E-03  0.6014652E+03  0.7818609E-02  0.9902371E-01
        1   -1    0    0  501    0  0.00000000000E+00  0.00000000000E+00  0.73905269731E+03  0.73905269732E+03  0.50400001928E-02 0.  1.
       -1   -1    0    0    0  501  0.00000000000E+00  0.00000000000E+00 -0.12237299885E+03  0.12237299896E+03  0.50400001928E-02 0. -1.
    10030    2    1    2    0    0  0.00000000000E+00  0.00000000000E+00  0.61667969845E+03  0.86142569628E+03  0.60146519411E+03 0.  0.
        5    1    3    3  502    0  0.24318924789E+03  0.13683825797E+03  0.14787913102E+03  0.31584180616E+03  0.46999998093E+01 0. -1.
       -5    1    3    3    0  502 -0.24318924789E+03 -0.13683825797E+03  0.46880056743E+03  0.54558389012E+03  0.46999998093E+01 0.  1.
</event>
<event>
 5   0  0.5765045E-03  0.6008930E+03  0.7818609E-02  0.9903555E-01
       -1   -1    0    0    0  501  0.00000000000E+00  0.00000000000E+00  0.32773151004E+03  0.32773151008E+03  0.50400001928E-02 0.  1.
        1   -1    0    0  501    0  0.00000000000E+00  0.00000000000E+00 -0.27543306325E+03  0.27543306329E+03  0.50400001928E-02 0. -1.
    10030    2    1    2    0    0  0.00000000000E+00  0.00000000000E+00  0.52298446794E+02  0.60316457337E+03  0.60089298135E+03 0.  0.
        1    1    3    3  502    0 -0.47889710617E+02  0.13840627252E+03 -0.23717505021E+03  0.27875029170E+03  0.50400001928E-02 0. -1.
       -1    1    3    3    0  502  0.47889710617E+02 -0.13840627252E+03  0.28947349701E+03  0.32441428167E+03  0.50400001928E-02 0.  1.
</event>
<event>
 5   0  0.9303190E-03  0.6001161E+03  0.7818609E-02  0.9905165E-01
        2   -1    0    0  501    0  0.00000000000E+00  0.00000000000E+00  0.71395502069E+03  0.71395502069E+03  0.25500000920E-02 0. -1.
       -2   -1    0    0    0  501  0.00000000000E+00  0.00000000000E+00 -0.12610713949E+03  0.12610713952E+03  0.25500000920E-02 0.  1.
    10030    2    1    2    0    0  0.00000000000E+00  0.00000000000E+00  0.58784788119E+03  0.84006216021E+03  0.60011607343E+03 0.  0.
        4    1    3    3  502    0  0.40856899847E+02 -0.29716498556E+03  0.28336493306E+03  0.41264223377E+03  0.12699999809E+01 0.  1.
       -4    1    3    3    0  502 -0.40856899847E+02  0.29716498556E+03  0.30448294814E+03  0.42741992644E+03  0.12699999809E+01 0. -1.
</event>
<event>
 5   0  0.9303190E-03  0.6006645E+03  0.7818609E-02  0.9904028E-01
        2   -1    0    0  501    0  0.00000000000E+00  0.00000000000E+00  0.10608170112E+04  0.10608170112E+04  0.25500000920E-02 0. -1.
       -2   -1    0    0    0  501  0.00000000000E+00  0.00000000000E+00 -0.85028301993E+02  0.85028302031E+02  0.25500000920E-02 0.  1.
    10030    2    1    2    0    0  0.00000000000E+00  0.00000000000E+00  0.97578870924E+03  0.11458453133E+04  0.60066452938E+03 0.  0.
        4    1    3    3  502    0 -0.22144070924E+03  0.75702418917E+02  0.12881884382E+03  0.26713807546E+03  0.12699999809E+01 0.  1.
       -4    1    3    3    0  502  0.22144070924E+03 -0.75702418917E+02  0.84696986542E+03  0.87870723780E+03  0.12699999809E+01 0. -1.
</event>
<event>
 5   0  0.9162342E-03  0.5997945E+03  0.7818609E-02  0.9905833E-01
       -2   -1    0    0    0  501  0.00000000000E+00  0.00000000000E+00  0.93547235974E+02  0.93547236009E+02  0.25500000920E-02 0. -1.
        2   -1    0    0  501    0  0.00000000000E+00  0.00000000000E+00 -0.96142185488E+03  0.96142185488E+03  0.25500000920E-02 0.  1.
    10030    2    1    2    0    0  0.00000000000E+00  0.00000000000E+00 -0.86787461890E+03  0.10549690909E+04  0.59979448863E+03 0.  0.
        5    1    3    3  502    0 -0.17711561795E+03 -0.24164134460E+03 -0.45589066587E+03  0.54554456350E+03  0.46999998093E+01 0.  1.
       -5    1    3    3    0  502  0.17711561795E+03  0.24164134460E+03 -0.41198395303E+03  0.50942452738E+03  0.46999998093E+01 0. -1.
</event>
<event>
 5   0  0.9822607E-03  0.5994293E+03  0.7818609E-02  0.9906591E-01
        2   -1    0    0  501    0  0.00000000000E+00  0.00000000000E+00  0.43444381568E+03  0.43444381569E+03  0.25500000920E-02 0.  1.
       -2   -1    0    0    0  501  0.00000000000E+00  0.00000000000E+00 -0.20676751302E+03  0.20676751304E+03  0.25500000920E-02 0. -1.
    10030    2    1    2    0    0  0.00000000000E+00  0.00000000000E+00  0.22767630266E+03  0.64121132872E+03  0.59942928631E+03 0.  0.
        3    1    3    3  502    0  0.44516714202E+02 -0.28558717182E+03  0.29020166576E+02  0.29048915783E+03  0.10100000352E+00 0.  1.
       -3    1    3    3    0  502 -0.44516714202E+02  0.28558717182E+03  0.19865613608E+03  0.35072217089E+03  0.10100000352E+00 0. -1.
</event>
<event>
 5   0  0.3806250E-03  0.5999249E+03  0.7818609E-02  0.9905562E-01
        3   -1    0    0  501    0  0.00000000000E+00  0.00000000000E+00  0.18839375924E+03  0.18839378632E+03  0.10100000352E+00 0. -1.
       -3   -1    0    0    0  501  0.00000000000E+00  0.00000000000E+00 -0.47760319127E+03  0.47760320195E+03  0.10100000352E+00 0.  1.
    10030    2    1    2    0    0  0.00000000000E+00  0.00000000000E+00 -0.28920943202E+03  0.66599698826E+03  0.59992490597E+03 0.  0.
        3    1    3    3  502    0 -0.15274397266E+03  0.47500799407E+02  0.13709472690E+03  0.21067040959E+03  0.10100000352E+00 0. -1.
       -3    1    3    3    0  502  0.15274397266E+03 -0.47500799407E+02 -0.42630415893E+03  0.45532657868E+03  0.10100000352E+00 0.  1.
</event>
<event>
 5   0  0.9303190E-03  0.5990305E+03  0.7818609E-02  0.9907419E-01
       -2   -1    0    0    0  501  0.00000000000E+00  0.00000000000E+00  0.62193916448E+02  0.62193916500E+02  0.25500000920E-02 0.  1.
        2   -1    0    0  501    0  0.00000000000E+00  0.00000000000E+00 -0.14424142118E+04  0.14424142118E+04  0.25500000920E-02 0. -1.
    10030    2    1    2    0    0  0.00000000000E+00  0.00000000000E+00 -0.13802202953E+04  0.15046081283E+04  0.59903051345E+03 0.  0.
        4    1    3    3  502    0 -0.26453112815E+03  0.71978915754E+01 -0.33775654544E+03  0.42907997424E+03  0.12699999809E+01 0.  1.
       -4    1    3    3    0  502  0.26453112815E+03 -0.71978915754E+01 -0.10424637499E+04  0.10755281541E+04  0.12699999809E+01 0. -1.
</event>
<event>
 5   0  0.3806250E-03  0.5929687E+03  0.7818609E-02  0.9920102E-01
       -3   -1    0    0    0  501  0.00000000000E+00  0.00000000000E+00  0.79533972255E+02  0.79534036385E+02  0.10100000352E+00 0.  1.
        3   -1    0    0  501    0  0.00000000000E+00  0.00000000000E+00 -0.11052248793E+04  0.11052248839E+04  0.10100000352E+00 0. -1.
    10030    2    1    2    0    0  0.00000000000E+00  0.00000000000E+00 -0.10256909070E+04  0.11847589203E+04  0.59296868587E+03 0.  0.
        1    1    3    3  502    0  0.76731878887E+02 -0.10326688008E+03 -0.10465472608E+04  0.10544254354E+04  0.50400001928E-02 0. -1.
       -1    1    3    3    0  502 -0.76731878887E+02  0.10326688008E+03  0.20856353763E+02  0.13033348487E+03  0.50400001928E-02 0.  1.
</event>
<event>
 5   0  0.5819446E-03  0.6010193E+03  0.7818609E-02  0.9903294E-01
        1   -1    0    0  501    0  0.00000000000E+00  0.00000000000E+00  0.56869713048E+03  0.56869713050E+03  0.50400001928E-02 0. -1.
       -1   -1    0    0    0  501  0.00000000000E+00  0.00000000000E+00 -0.15879463018E+03  0.15879463026E+03  0.50400001928E-02 0.  1.
    10030    2    1    2    0    0  0.00000000000E+00  0.00000000000E+00  0.40990250030E+03  0.72749176076E+03  0.60101930270E+03 0.  0.
        5    1    3    3  502    0 -0.65830462649E+02  0.28428140867E+03  0.29168420576E+03  0.41261523847E+03  0.46999998093E+01 0. -1.
       -5    1    3    3    0  502  0.65830462649E+02 -0.28428140867E+03  0.11821829454E+03  0.31487652229E+03  0.46999998093E+01 0.  1.
</event>
<event>
 5   0  0.6078658E-03  0.6005344E+03  0.7818609E-02  0.9904298E-01
       -1   -1    0    0    0  501  0.00000000000E+00  0.00000000000E+00  0.81935901925E+02  0.81935902080E+02  0.50400001928E-02 0.  1.
        1   -1    0    0  501    0  0.00000000000E+00  0.00000000000E+00 -0.11003771842E+04  0.11003771842E+04  0.50400001928E-02 0. -1.
    10030    2    1    2    0    0  0.00000000000E+00  0.00000000000E+00 -0.10184412823E+04  0.11823130863E+04  0.60053441914E+03 0.  0.
        2    1    3    3  502    0  0.36952084857E+01  0.67772938151E+02  0.66635051971E+02  0.95116012685E+02  0.25500000920E-02 0.  1.
       -2    1    3    3    0  502 -0.36952084857E+01 -0.67772938151E+02 -0.10850763342E+04  0.10871970736E+04  0.25500000920E-02 0. -1.
</event>
<event>
 5   0  0.3806250E-03  0.6001980E+03  0.7818609E-02  0.9904995E-01
        3   -1    0    0  501    0  0.00000000000E+00  0.00000000000E+00  0.51320413347E+03  0.51320414341E+03  0.10100000352E+00 0.  1.
       -3   -1    0    0    0  501  0.00000000000E+00  0.00000000000E+00 -0.17548454177E+03  0.17548457083E+03  0.10100000352E+00 0. -1.
    10030    2    1    2    0    0  0.00000000000E+00  0.00000000000E+00  0.33771959170E+03  0.68868871425E+03  0.60019798609E+03 0.  0.
        4    1    3    3  502    0 -0.88268993258E+02 -0.22636206005E+03  0.37097337502E+03  0.44345693734E+03  0.12699999809E+01 0.  1.
       -4    1    3    3    0  502  0.88268993258E+02  0.22636206005E+03 -0.33253783313E+02  0.24523177691E+03  0.12699999809E+01 0. -1.
</event>
<event>
 5   0  0.9303190E-03  0.6000085E+03  0.7818609E-02  0.9905388E-01
       -2   -1    0    0    0  501  0.00000000000E+00  0.00000000000E+00  0.13041940888E+04  0.13041940888E+04  0.25500000920E-02 0. -1.
        2   -1    0    0  501    0  0.00000000000E+00  0.00000000000E+00 -0.69010082701E+02  0.69010082748E+02  0.25500000920E-02 0.  1.
    10030    2    1    2    0    0  0.00000000000E+00  0.00000000000E+00  0.12351840061E+04  0.13732041716E+04  0.60000847315E+03 0.  0.
        4    1    3    3  502    0 -0.27041910388E+02  0.30462960830E+02  0.12978294536E+04  0.12984691604E+04  0.12699999809E+01 0. -1.
       -4    1    3    3    0  502  0.27041910388E+02 -0.30462960830E+02 -0.62645447514E+02  0.74735011167E+02  0.12699999809E+01 0.  1.
</event>
<event>
 5   0  0.9822607E-03  0.6004695E+03  0.7818609E-02  0.9904432E-01
       -2   -1    0    0    0  501  0.00000000000E+00  0.00000000000E+00  0.49958979335E+03  0.49958979336E+03  0.25500000920E-02 0.  1.
        2   -1    0    0  501    0  0.00000000000E+00  0.00000000000E+00 -0.18042983084E+03  0.18042983086E+03  0.25500000920E-02 0. -1.
    10030    2    1    2    0    0  0.00000000000E+00  0.00000000000E+00  0.31915996251E+03  0.68001962421E+03  0.60046948935E+03 0.  0.
        3    1    3    3  502    0  0.13043743743E+03 -0.26426720036E+03  0.94624450480E+02  0.30952362608E+03  0.10100000352E+00 0. -1.
       -3    1    3    3    0  502 -0.13043743743E+03  0.26426720036E+03  0.22453551203E+03  0.37049599814E+03  0.10100000352E+00 0.  1.
</event>
<event>
 5   0  0.5819446E-03  0.5992025E+03  0.7818609E-02  0.9907062E-01
        1   -1    0    0  501    0  0.00000000000E+00  0.00000000000E+00  0.65516882271E+03  0.65516882273E+03  0.50400001928E-02 0. -1.
       -1   -1    0    0    0  501  0.00000000000E+00  0.00000000000E+00 -0.13700426184E+03  0.13700426194E+03  0.50400001928E-02 0.  1.
    10030    2    1    2    0    0  0.00000000000E+00  0.00000000000E+00  0.51816456087E+03  0.79217308467E+03  0.59920253999E+03 0.  0.
        5    1    3    3  502    0 -0.18234066178E+03 -0.34785148972E+02 -0.51755094760E+02  0.19276618832E+03  0.46999998093E+01 0.  1.
       -5    1    3    3    0  502  0.18234066178E+03  0.34785148972E+02  0.56991965563E+03  0.59940689635E+03  0.46999998093E+01 0. -1.
</event>
<event>
 5   0  0.9391405E-03  0.6003459E+03  0.7818609E-02  0.9904689E-01
       -2   -1    0    0    0  501  0.00000000000E+00  0.00000000000E+00  0.24647368841E+03  0.24647368842E+03  0.25500000920E-02 0.  1.
        2   -1    0    0  501    0  0.00000000000E+00  0.00000000000E+00 -0.36557168187E+03  0.36557168188E+03  0.25500000920E-02 0. -1.
    10030    2    1    2    0    0  0.00000000000E+00  0.00000000000E+00 -0.11909799347E+03  0.61204537030E+03  0.60034590301E+03 0.  0.
        2    1    3    3  502    0 -0.11579810132E+03 -0.20511108479E+03 -0.24925058102E+03  0.34293674274E+03  0.25500000920E-02 0. -1.
       -2    1    3    3    0  502  0.11579810132E+03  0.20511108479E+03  0.13015258755E+03  0.26910862756E+03  0.25500000920E-02 0.  1.
</event>
<event>
 5   0  0.3806250E-03  0.5994802E+03  0.7818609E-02  0.9906485E-01
       -3   -1    0    0    0  501  0.00000000000E+00  0.00000000000E+00  0.42880915673E+03  0.42880916862E+03  0.10100000352E+00 0. -1.
        3   -1    0    0  501    0  0.00000000000E+00  0.00000000000E+00 -0.20952002423E+03  0.20952004858E+03  0.10100000352E+00 0.  1.
    10030    2    1    2    0    0  0.00000000000E+00  0.00000000000E+00  0.21928913249E+03  0.63832921720E+03  0.59948016306E+03 0.  0.
        1    1    3    3  502    0 -0.17056116590E+03  0.74179869673E+02  0.35993106976E+03  0.40514705896E+03  0.50400001928E-02 0. -1.
       -1    1    3    3    0  502  0.17056116590E+03 -0.74179869673E+02 -0.14064193727E+03  0.23318215824E+03  0.50400001928E-02 0.  1.
</event>
<event>
 5   0  0.9303190E-03  0.6007289E+03  0.7818609E-02  0.9903895E-01
        2   -1    0    0  501    0  0.00000000000E+00  0.00000000000E+00  0.95080397579E+03  0.95080397580E+03  0.25500000920E-02 0. -1.
       -2   -1    0    0    0  501  0.00000000000E+00  0.00000000000E+00 -0.94886844956E+02  0.94886844990E+02  0.25500000920E-02 0.  1.
    10030    2    1    2    0    0  0.00000000000E+00  0.00000000000E+00  0.85591713084E+03  0.10456908208E+04  0.60072885549E+03 0.  0.
        4    1    3    3  502    0  0.81957897789E+02 -0.15122957969E+03  0.85657368774E+03  0.87367475540E+03  0.12699999809E+01 0. -1.
       -4    1    3    3    0  502 -0.81957897789E+02  0.15122957969E+03 -0.65655690800E+00  0.17201606539E+03  0.12699999809E+01 0.  1.
</event>
<event>
 5   0  0.5765045E-03  0.5998755E+03  0.7818609E-02  0.9905664E-01
       -1   -1    0    0    0  501  0.00000000000E+00  0.00000000000E+00  0.60431938863E+02  0.60431939074E+02  0.50400001928E-02 0.  1.
        1   -1    0    0  501    0  0.00000000000E+00  0.00000000000E+00 -0.14886607857E+04  0.14886607857E+04  0.50400001928E-02 0. -1.
    10030    2    1    2    0    0  0.00000000000E+00  0.00000000000E+00 -0.14282288469E+04  0.15490927248E+04  0.59987551295E+03 0.  0.
        1    1    3    3  502    0 -0.10442751242E+03  0.13489183418E+03 -0.77042476400E+02  0.18718027534E+03  0.50400001928E-02 0.  1.
       -1    1    3    3    0  502  0.10442751242E+03 -0.13489183418E+03 -0.13511863705E+04  0.13619124495E+04  0.50400001928E-02 0. -1.
</event>
<event>
 5   0  0.9391405E-03  0.5988060E+03  0.7818609E-02  0.9907886E-01
        2   -1    0    0  501    0  0.00000000000E+00  0.00000000000E+00  0.17427768846E+04  0.17427768846E+04  0.25500000920E-02 0.  1.
       -2   -1    0    0    0  501  0.00000000000E+00  0.00000000000E+00 -0.51436393308E+02  0.51436393371E+02  0.25500000920E-02 0. -1.
    10030    2    1    2    0    0  0.00000000000E+00  0.00000000000E+00  0.16913404913E+04  0.17942132780E+04  0.59880600313E+03 0.  0.
        2    1    3    3  502    0 -0.98097196518E+02 -0.67212502677E+02  0.16689850634E+04  0.16732159820E+04  0.25500000920E-02 0.  1.
       -2    1    3    3    0  502  0.98097196518E+02  0.67212502677E+02  0.22355427917E+02  0.12099729602E+03  0.25500000920E-02 0. -1.
</event>
<event>
 5   0  0.5819446E-03  0.5994563E+03  0.7818609E-02  0.9906535E-01
        1   -1    0    0  501    0  0.00000000000E+00  0.00000000000E+00  0.22766804616E+03  0.22766804622E+03  0.50400001928E-02 0. -1.
       -1   -1    0    0    0  501  0.00000000000E+00  0.00000000000E+00 -0.39459624863E+03  0.39459624866E+03  0.50400001928E-02 0.  1.
    10030    2    1    2    0    0  0.00000000000E+00  0.00000000000E+00 -0.16692820246E+03  0.62226429488E+03  0.59945627689E+03 0.  0.
        5    1    3    3  502    0 -0.95129032593E+02  0.23037113828E+03 -0.25621245647E+03  0.35747350537E+03  0.46999998093E+01 0.  1.
       -5    1    3    3    0  502  0.95129032593E+02 -0.23037113828E+03  0.89284254009E+02  0.26479078950E+03  0.46999998093E+01 0. -1.
</event>
<event>
 5   0  0.3806250E-03  0.6013863E+03  0.7818609E-02  0.9902534E-01
       -3   -1    0    0    0  501  0.00000000000E+00  0.00000000000E+00  0.55483945607E+03  0.55483946527E+03  0.10100000352E+00 0. -1.
        3   -1    0    0  501    0  0.00000000000E+00  0.00000000000E+00 -0.16295948717E+03  0.16295951847E+03  0.10100000352E+00 0.  1.
    10030    2    1    2    0    0  0.00000000000E+00  0.00000000000E+00  0.39187996890E+03  0.71779898374E+03  0.60138629102E+03 0.  0.
        2    1    3    3  502    0  0.29984921894E+03 -0.21929908209E+02  0.20201347904E+03  0.36221529605E+03  0.25500000920E-02 0. -1.
       -2    1    3    3    0  502 -0.29984921894E+03  0.21929908209E+02  0.18986648986E+03  0.35558368769E+03  0.25500000920E-02 0.  1.
</event>
<event>
 5   0  0.5765045E-03  0.5997212E+03  0.7818609E-02  0.9905985E-01
        1   -1    0    0  501    0  0.00000000000E+00  0.00000000000E+00  0.65734253724E+03  0.65734253726E+03  0.50400001928E-02 0.  1.
       -1   -1    0    0    0  501  0.00000000000E+00  0.00000000000E+00 -0.13678771210E+03  0.13678771219E+03  0.50400001928E-02 0. -1.
    10030    2    1    2    0    0  0.00000000000E+00  0.00000000000E+00  0.52055482514E+03  0.79413024946E+03  0.59972120783E+03 0.  0.
        1    1    3    3  502    0  0.27938902952E+02  0.11603282305E+03 -0.10398173321E+03  0.15829213243E+03  0.50400001928E-02 0. -1.
       -1    1    3    3    0  502 -0.27938902952E+02 -0.11603282305E+03  0.62453655835E+03  0.63583811703E+03  0.50400001928E-02 0.  1.
</event>
<event>
 5   0  0.9162342E-03  0.6015528E+03  0.7818609E-02  0.9902190E-01
       -2   -1    0    0    0  501  0.00000000000E+00  0.00000000000E+00  0.52997063470E+02  0.52997063532E+02  0.25500000920E-02 0.  1.
        2   -1    0    0  501    0  0.00000000000E+00  0.00000000000E+00 -0.17070088099E+04  0.17070088099E+04  0.25500000920E-02 0. -1.
    10030    2    1    2    0    0  0.00000000000E+00  0.00000000000E+00 -0.16540117464E+04  0.17600058734E+04  0.60155283823E+03 0.  0.
        5    1    3    3  502    0 -0.23548985000E+02  0.22482966828E+03 -0.14073230254E+04  0.14253712227E+04  0.46999998093E+01 0. -1.
       -5    1    3    3    0  502  0.23548985000E+02 -0.22482966828E+03 -0.24668872094E+03  0.33463465073E+03  0.46999998093E+01 0.  1.
</event>
<event>
 5   0  0.5819446E-03  0.5991480E+03  0.7818609E-02  0.9907175E-01
        1   -1    0    0  501    0  0.00000000000E+00  0.00000000000E+00  0.22844469200E+03  0.22844469206E+03  0.50400001928E-02 0.  1.
       -1   -1    0    0    0  501  0.00000000000E+00  0.00000000000E+00 -0.39285035985E+03  0.39285035988E+03  0.50400001928E-02 0. -1.
    10030    2    1    2    0    0  0.00000000000E+00  0.00000000000E+00 -0.16440566785E+03  0.62129505194E+03  0.59914799335E+03 0.  0.
        5    1    3    3  502    0 -0.41484997878E+02 -0.18588206544E+03 -0.32193977963E+03  0.37408616522E+03  0.46999998093E+01 0. -1.
       -5    1    3    3    0  502  0.41484997878E+02  0.18588206544E+03  0.15753411178E+03  0.24720888672E+03  0.46999998093E+01 0.  1.
</event>
<event>
 5   0  0.9822607E-03  0.5993699E+03  0.7818609E-02  0.9906714E-01
        2   -1    0    0  501    0  0.00000000000E+00  0.00000000000E+00  0.76806231153E+03  0.76806231153E+03  0.25500000920E-02 0. -1.
       -2   -1    0    0    0  501  0.00000000000E+00  0.00000000000E+00 -0.11693200390E+03  0.11693200393E+03  0.25500000920E-02 0.  1.
    10030    2    1    2    0    0  0.00000000000E+00  0.00000000000E+00  0.65113030763E+03  0.88499431546E+03  0.59936988653E+03 0.  0.
        3    1    3    3  502    0 -0.14965538929E+03 -0.17249320602E+03  0.39023275807E+02  0.23167535027E+03  0.10100000352E+00 0.  1.
       -3    1    3    3    0  502  0.14965538929E+03  0.17249320602E+03  0.61210703182E+03  0.65331896519E+03  0.10100000352E+00 0. -1.
</event>
<event>
 5   0  0.5765045E-03  0.5977826E+03  0.7818609E-02  0.9910017E-01
       -1   -1    0    0    0  501  0.00000000000E+00  0.00000000000E+00  0.13123682886E+03  0.13123682895E+03  0.50400001928E-02 0.  1.
        1   -1    0    0  501    0  0.00000000000E+00  0.00000000000E+00 -0.68072351502E+03  0.68072351504E+03  0.50400001928E-02 0. -1.
    10030    2    1    2    0    0  0.00000000000E+00  0.00000000000E+00 -0.54948668617E+03  0.81196034400E+03  0.59778255407E+03 0.  0.
        1    1    3    3  502    0 -0.87579851961E+02 -0.47347667511E+02 -0.65753931597E+03  0.66503382181E+03  0.50400001928E-02 0. -1.
       -1    1    3    3    0  502  0.87579851961E+02  0.47347667511E+02  0.10805262980E+03  0.14692652218E+03  0.50400001928E-02 0.  1.
</event>
<event>
 5   0  0.5790967E-03  0.5984003E+03  0.7818609E-02  0.9908730E-01
       -1   -1    0    0    0  501  0.00000000000E+00  0.00000000000E+00  0.32269522388E+03  0.32269522392E+03  0.50400001928E-02 0. -1.
        1   -1    0    0  501    0  0.00000000000E+00  0.00000000000E+00 -0.27741572775E+03  0.27741572779E+03  0.50400001928E-02 0.  1.
    10030    2    1    2    0    0  0.00000000000E+00  0.00000000000E+00  0.45279496134E+02  0.60011095171E+03  0.59840030214E+03 0.  0.
        3    1    3    3  502    0  0.21670209744E+03  0.19764644176E+03  0.81942584971E+02  0.30452998606E+03  0.10100000352E+00 0.  1.
       -3    1    3    3    0  502 -0.21670209744E+03 -0.19764644176E+03 -0.36663088837E+02  0.29558096566E+03  0.10100000352E+00 0. -1.
</event>
<event>
 5   0  0.9822607E-03  0.5993396E+03  0.7818609E-02  0.9906777E-01
        2   -1    0    0  501    0  0.00000000000E+00  0.00000000000E+00  0.70615266348E+03  0.70615266349E+03  0.25500000920E-02 0.  1.
       -2   -1    0    0    0  501  0.00000000000E+00  0.00000000000E+00 -0.12717080060E+03  0.12717080062E+03  0.25500000920E-02 0. -1.
    10030    2    1    2    0    0  0.00000000000E+00  0.00000000000E+00  0.57898186289E+03  0.83332346411E+03  0.59933963518E+03 0.  0.
        3    1    3    3  502    0 -0.75285499905E+02 -0.13701749407E+03  0.64495654411E+03  0.66363442811E+03  0.10100000352E+00 0.  1.
       -3    1    3    3    0  502  0.75285499905E+02  0.13701749407E+03 -0.65974681226E+02  0.16968903601E+03  0.10100000352E+00 0. -1.
</event>
<event>
 5   0  0.9162342E-03  0.6005395E+03  0.7818609E-02  0.9904287E-01
        2   -1    0    0  501    0  0.00000000000E+00  0.00000000000E+00  0.15819698985E+03  0.15819698987E+03  0.25500000920E-02 0.  1.
       -2   -1    0    0    0  501  0.00000000000E+00  0.00000000000E+00 -0.56993446763E+03  0.56993446764E+03  0.25500000920E-02 0. -1.
    10030    2    1    2    0    0  0.00000000000E+00  0.00000000000E+00 -0.41173747778E+03  0.72813145751E+03  0.60053948147E+03 0.  0.
        5    1    3    3  502    0  0.89833536438E+01 -0.22552308835E+03 -0.44591931348E+03  0.49980745108E+03  0.46999998093E+01 0. -1.
       -5    1    3    3    0  502 -0.89833536438E+01  0.22552308835E+03  0.34181835698E+02  0.22832400643E+03  0.46999998093E+01 0.  1.
</event>
<event>
 5   0  0.9162342E-03  0.6000405E+03  0.7818609E-02  0.9905322E-01
        2   -1    0    0  501    0  0.00000000000E+00  0.00000000000E+00  0.67407832730E+03  0.67407832730E+03  0.25500000920E-02 0. -1.
       -2   -1    0    0    0  501  0.00000000000E+00  0.00000000000E+00 -0.13353364649E+03  0.13353364652E+03  0.25500000920E-02 0.  1.
    10030    2    1    2    0    0  0.00000000000E+00  0.00000000000E+00  0.54054468080E+03  0.80761197382E+03  0.60004045556E+03 0.  0.
        5    1    3    3  502    0 -0.17581838916E+02  0.29704697530E+03  0.21912666777E+03  0.36957355576E+03  0.46999998093E+01 0.  1.
       -5    1    3    3    0  502  0.17581838916E+02 -0.29704697530E+03  0.32141801304E+03  0.43803841806E+03  0.46999998093E+01 0. -1.
</event>
<event>
 5   0  0.5891927E-03  0.6004482E+03  0.7818609E-02  0.9904477E-01
        1   -1    0    0  501    0  0.00000000000E+00  0.00000000000E+00  0.20332192352E+03  0.20332192359E+03  0.50400001928E-02 0. -1.
       -1   -1    0    0    0  501  0.00000000000E+00  0.00000000000E+00 -0.44330941468E+03  0.44330941471E+03  0.50400001928E-02 0.  1.
    10030    2    1    2    0    0  0.00000000000E+00  0.00000000000E+00 -0.23998749115E+03  0.64663133829E+03  0.60044824236E+03 0.  0.
        4    1    3    3  502    0  0.53410276868E+02  0.12956217199E+01  0.19815849845E+03  0.20523825111E+03  0.12699999809E+01 0. -1.
       -4    1    3    3    0  502 -0.53410276868E+02 -0.12956217199E+01 -0.43814598960E+03  0.44139308718E+03  0.12699999809E+01 0.  1.
</event>
<event>
 5   0  0.5819446E-03  0.5995394E+03  0.7818609E-02  0.9906362E-01
       -1   -1    0    0    0  501  0.00000000000E+00  0.00000000000E+00  0.12101349568E+03  0.12101349578E+03  0.50400001928E-02 0.  1.
        1   -1    0    0  501    0  0.00000000000E+00  0.00000000000E+00 -0.74257738795E+03  0.74257738797E+03  0.50400001928E-02 0. -1.
    10030    2    1    2    0    0  0.00000000000E+00  0.00000000000E+00 -0.62156389227E+03  0.86359088376E+03  0.59953944184E+03 0.  0.
        5    1    3    3  502    0 -0.85828560417E+02 -0.24998591594E+03 -0.10717563066E+03  0.28525112753E+03  0.46999998093E+01 0.  1.
       -5    1    3    3    0  502  0.85828560417E+02  0.24998591594E+03 -0.51438826161E+03  0.57833975623E+03  0.46999998093E+01 0. -1.
</event>
<event>
 5   0  0.6078658E-03  0.6006721E+03  0.7818609E-02  0.9904013E-01
       -1   -1    0    0    0  501  0.00000000000E+00  0.00000000000E+00  0.23406598963E+03  0.23406598969E+03  0.50400001928E-02 0. -1.
        1   -1    0    0  501    0  0.00000000000E+00  0.00000000000E+00 -0.38536882387E+03  0.38536882391E+03  0.50400001928E-02 0.  1.
    10030    2    1    2    0    0  0.00000000000E+00  0.00000000000E+00 -0.15130283424E+03  0.61943481359E+03  0.60067207413E+03 0.  0.
        2    1    3    3  502    0  0.17414399488E+03  0.19656803482E+03 -0.22593127768E+03  0.34642468952E+03  0.25500000920E-02 0.  1.
       -2    1    3    3    0  502 -0.17414399488E+03 -0.19656803482E+03  0.74628443443E+02  0.27301012407E+03  0.25500000920E-02 0. -1.
</event>
<event>
 5   0  0.5765045E-03  0.6000847E+03  0.7818609E-02  0.9905230E-01
        1   -1    0    0  501    0  0.00000000000E+00  0.00000000000E+00  0.83443864991E+03  0.83443864993E+03  0.50400001928E-02 0. -1.
       -1   -1    0    0    0  501  0.00000000000E+00  0.00000000000E+00 -0.10788740805E+03  0.10788740817E+03  0.50400001928E-02 0.  1.
    10030    2    1    2    0    0  0.00000000000E+00  0.00000000000E+00  0.72655124186E+03  0.94232605810E+03  0.60008473795E+03 0.  0.
        1    1    3    3  502    0  0.11067328262E+03  0.81315577724E+02  0.78218559458E+03  0.79415055440E+03  0.50400001928E-02 0. -1.
       -1    1    3    3    0  502 -0.11067328262E+03 -0.81315577724E+02 -0.55634352717E+02  0.14817550369E+03  0.50400001928E-02 0.  1.
</event>
<event>
 5   0  0.3806250E-03  0.5981500E+03  0.7818609E-02  0.9909252E-01
        3   -1    0    0  501    0  0.00000000000E+00  0.00000000000E+00  0.44460382307E+03  0.44460383454E+03  0.10100000352E+00 0. -1.
       -3   -1    0    0    0  501  0.00000000000E+00  0.00000000000E+00 -0.20118099920E+03  0.20118102455E+03  0.10100000352E+00 0.  1.
    10030    2    1    2    0    0  0.00000000000E+00  0.00000000000E+00  0.24342282387E+03  0.64578485909E+03  0.59814999210E+03 0.  0.
        4    1    3    3  502    0 -0.27014643365E+03 -0.10354274580E+03  0.39886290867E+02  0.29204918237E+03  0.12699999809E+01 0.  1.
       -4    1    3    3    0  502  0.27014643365E+03  0.10354274580E+03  0.20353653300E+03  0.35373567673E+03  0.12699999809E+01 0. -1.
</event>
<event>
 5   0  0.5891927E-03  0.5935632E+03  0.7818609E-02  0.9918851E-01
        1   -1    0    0  501    0  0.00000000000E+00  0.00000000000E+00  0.29229774634E+03  0.29229774639E+03  0.50400001928E-02 0. -1.
       -1   -1    0    0    0  501  0.00000000000E+00  0.00000000000E+00 -0.30133427342E+03  0.30133427346E+03  0.50400001928E-02 0.  1.
    10030    2    1    2    0    0  0.00000000000E+00  0.00000000000E+00 -0.90365270767E+01  0.59363201985E+03  0.59356323687E+03 0.  0.
        4    1    3    3  502    0 -0.24836665403E+03  0.15116942332E+03 -0.64019079816E+02  0.29772175746E+03  0.12699999809E+01 0.  1.
       -4    1    3    3    0  502  0.24836665403E+03 -0.15116942332E+03  0.54982552739E+02  0.29591026239E+03  0.12699999809E+01 0. -1.
</event>
<event>
 5   0  0.9822607E-03  0.5999022E+03  0.7818609E-02  0.9905609E-01
        2   -1    0    0  501    0  0.00000000000E+00  0.00000000000E+00  0.12728063986E+04  0.12728063986E+04  0.25500000920E-02 0.  1.
       -2   -1    0    0    0  501  0.00000000000E+00  0.00000000000E+00 -0.70686829764E+02  0.70686829810E+02  0.25500000920E-02 0. -1.
    10030    2    1    2    0    0  0.00000000000E+00  0.00000000000E+00  0.12021195688E+04  0.13434932284E+04  0.59990215620E+03 0.  0.
        3    1    3    3  502    0  0.25712969807E+03  0.15444737252E+03  0.59885804200E+03  0.66977655765E+03  0.10100000352E+00 0.  1.
       -3    1    3    3    0  502 -0.25712969807E+03 -0.15444737252E+03  0.60326152684E+03  0.67371667077E+03  0.10100000352E+00 0. -1.
</event>
<event>
 5   0  0.9162342E-03  0.5992868E+03  0.7818609E-02  0.9906887E-01
        2   -1    0    0  501    0  0.00000000000E+00  0.00000000000E+00  0.41851271355E+03  0.41851271356E+03  0.25500000920E-02 0.  1.
       -2   -1    0    0    0  501  0.00000000000E+00  0.00000000000E+00 -0.21453631486E+03  0.21453631487E+03  0.25500000920E-02 0. -1.
    10030    2    1    2    0    0  0.00000000000E+00  0.00000000000E+00  0.20397639870E+03  0.63304902843E+03  0.59928682713E+03 0.  0.
        5    1    3    3  502    0  0.23357457317E+03  0.18763248896E+03  0.10090415237E+03  0.31617522058E+03  0.46999998093E+01 0. -1.
       -5    1    3    3    0  502 -0.23357457317E+03 -0.18763248896E+03  0.10307224633E+03  0.31687380786E+03  0.46999998093E+01 0.  1.
</event>
<event>
 5   0  0.9162342E-03  0.6004687E+03  0.7818609E-02  0.9904434E-01
       -2   -1    0    0    0  501  0.00000000000E+00  0.00000000000E+00  0.28912508982E+03  0.28912508983E+03  0.25500000920E-02 0.  1.
        2   -1    0    0  501    0  0.00000000000E+00  0.00000000000E+00 -0.31177045937E+03  0.31177045938E+03  0.25500000920E-02 0. -1.
    10030    2    1    2    0    0  0.00000000000E+00  0.00000000000E+00 -0.22645369553E+02  0.60089554921E+03  0.60046869052E+03 0.  0.
        5    1    3    3  502    0 -0.28227395007E+03  0.79065292699E+02  0.53443247945E+02  0.29800700352E+03  0.46999998093E+01 0.  1.
       -5    1    3    3    0  502  0.28227395007E+03 -0.79065292699E+02 -0.76088617498E+02  0.30288854569E+03  0.46999998093E+01 0. -1.
</event>
<event>
 5   0  0.5765045E-03  0.5981119E+03  0.7818609E-02  0.9909331E-01
        1   -1    0    0  501    0  0.00000000000E+00  0.00000000000E+00  0.21031317382E+04  0.21031317382E+04  0.50400001928E-02 0. -1.
       -1   -1    0    0    0  501  0.00000000000E+00  0.00000000000E+00 -0.42524425430E+02  0.42524425729E+02  0.50400001928E-02 0.  1.
    10030    2    1    2    0    0  0.00000000000E+00  0.00000000000E+00  0.20606073128E+04  0.21456561640E+04  0.59811192631E+03 0.  0.
        1    1    3    3  502    0 -0.63865408940E+02 -0.28796603359E+03  0.12071889680E+04  0.12427020687E+04  0.50400001928E-02 0. -1.
       -1    1    3    3    0  502  0.63865408940E+02  0.28796603359E+03  0.85341834479E+03  0.90295409529E+03  0.50400001928E-02 0.  1.
</event>
<event>
 5   0  0.9028473E-03  0.6002398E+03  0.7818609E-02  0.9904909E-01
        2   -1    0    0  501    0  0.00000000000E+00  0.00000000000E+00  0.79546317691E+03  0.79546317692E+03  0.25500000920E-02 0.  1.
       -2   -1    0    0    0  501  0.00000000000E+00  0.00000000000E+00 -0.11323208461E+03  0.11323208464E+03  0.25500000920E-02 0. -1.
    10030    2    1    2    0    0  0.00000000000E+00  0.00000000000E+00  0.68223109231E+03  0.90869526155E+03  0.60023979796E+03 0.  0.
        1    1    3    3  502    0 -0.18540324663E+03 -0.21142177984E+03  0.18234912918E+03  0.33514882931E+03  0.50400001928E-02 0. -1.
       -1    1    3    3    0  502  0.18540324663E+03  0.21142177984E+03  0.49988196312E+03  0.57354643224E+03  0.50400001928E-02 0.  1.
</event>
<event>
 5   0  0.9028473E-03  0.6010004E+03  0.7818609E-02  0.9903333E-01
       -2   -1    0    0    0  501  0.00000000000E+00  0.00000000000E+00  0.10145312025E+03  0.10145312029E+03  0.25500000920E-02 0.  1.
        2   -1    0    0  501    0  0.00000000000E+00  0.00000000000E+00 -0.89006988228E+03  0.89006988228E+03  0.25500000920E-02 0. -1.
    10030    2    1    2    0    0  0.00000000000E+00  0.00000000000E+00 -0.78861676203E+03  0.99152300257E+03  0.60100038875E+03 0.  0.
        1    1    3    3  502    0 -0.14063810828E+03 -0.58845950986E+02 -0.82153152814E+03  0.83555728422E+03  0.50400001928E-02 0. -1.
       -1    1    3    3    0  502  0.14063810828E+03  0.58845950986E+02  0.32914766114E+02  0.15596571835E+03  0.50400001928E-02 0.  1.
</event>
<event>
 5   0  0.5765045E-03  0.5994469E+03  0.7818609E-02  0.9906554E-01
        1   -1    0    0  501    0  0.00000000000E+00  0.00000000000E+00  0.18597677108E+03  0.18597677115E+03  0.50400001928E-02 0. -1.
       -1   -1    0    0    0  501  0.00000000000E+00  0.00000000000E+00 -0.48303958505E+03  0.48303958508E+03  0.50400001928E-02 0.  1.
    10030    2    1    2    0    0  0.00000000000E+00  0.00000000000E+00 -0.29706281397E+03  0.66901635622E+03  0.59944688626E+03 0.  0.
        1    1    3    3  502    0  0.13103889834E+03 -0.61683853560E+02  0.14433084127E+03  0.20446878107E+03  0.50400001928E-02 0. -1.
       -1    1    3    3    0  502 -0.13103889834E+03  0.61683853560E+02 -0.44139365524E+03  0.46454757515E+03  0.50400001928E-02 0.  1.
</event>
<event>
 5   0  0.9303190E-03  0.5996496E+03  0.7818609E-02  0.9906133E-01
        2   -1    0    0  501    0  0.00000000000E+00  0.00000000000E+00  0.12384805097E+04  0.12384805097E+04  0.25500000920E-02 0. -1.
       -2   -1    0    0    0  501  0.00000000000E+00  0.00000000000E+00 -0.72584840370E+02  0.72584840415E+02  0.25500000920E-02 0.  1.
    10030    2    1    2    0    0  0.00000000000E+00  0.00000000000E+00  0.11658956693E+04  0.13110653501E+04  0.59964959811E+03 0.  0.
        4    1    3    3  502    0 -0.29023829945E+03  0.53521175702E+02  0.46745138774E+03  0.55282474576E+03  0.12699999809E+01 0. -1.
       -4    1    3    3    0  502  0.29023829945E+03 -0.53521175702E+02  0.69844428158E+03  0.75824060435E+03  0.12699999809E+01 0.  1.
</event>
<event>
 5   0  0.6078658E-03  0.6016397E+03  0.7818609E-02  0.9902010E-01
       -1   -1    0    0    0  501  0.00000000000E+00  0.00000000000E+00  0.77735423629E+02  0.77735423792E+02  0.50400001928E-02 0. -1.
        1   -1    0    0  501    0  0.00000000000E+00  0.00000000000E+00 -0.11641100059E+04  0.11641100059E+04  0.50400001928E-02 0.  1.
    10030    2    1    2    0    0  0.00000000000E+00  0.00000000000E+00 -0.10863745823E+04  0.12418454297E+04  0.60163970803E+03 0.  0.
        2    1    3    3  502    0 -0.27963424120E+03  0.38082740972E+02 -0.75816106583E+03  0.80898319251E+03  0.25500000920E-02 0.  1.
       -2    1    3    3    0  502  0.27963424120E+03 -0.38082740972E+02 -0.32821351647E+03  0.43286223722E+03  0.25500000920E-02 0. -1.
</event>
<event>
 5   0  0.9391405E-03  0.5968802E+03  0.7818609E-02  0.9911900E-01
        2   -1    0    0  501    0  0.00000000000E+00  0.00000000000E+00  0.12660543396E+04  0.12660543396E+04  0.25500000920E-02 0.  1.
       -2   -1    0    0    0  501  0.00000000000E+00  0.00000000000E+00 -0.70349667087E+02  0.70349667133E+02  0.25500000920E-02 0. -1.
    10030    2    1    2    0    0  0.00000000000E+00  0.00000000000E+00  0.11957046725E+04  0.13364040067E+04  0.59688022697E+03 0.  0.
        2    1    3    3  502    0 -0.20653548328E+03 -0.21012904900E+03  0.70418342737E+03  0.76333834076E+03  0.25500000920E-02 0. -1.
       -2    1    3    3    0  502  0.20653548328E+03  0.21012904900E+03  0.49152124516E+03  0.57306566599E+03  0.25500000920E-02 0.  1.
</event>
<event>
 5   0  0.5765045E-03  0.6003762E+03  0.7818609E-02  0.9904626E-01
        1   -1    0    0  501    0  0.00000000000E+00  0.00000000000E+00  0.52595151284E+03  0.52595151286E+03  0.50400001928E-02 0.  1.
       -1   -1    0    0    0  501  0.00000000000E+00  0.00000000000E+00 -0.17133309665E+03  0.17133309673E+03  0.50400001928E-02 0. -1.
    10030    2    1    2    0    0  0.00000000000E+00  0.00000000000E+00  0.35461841618E+03  0.69728460959E+03  0.60037622011E+03 0.  0.
        1    1    3    3  502    0 -0.23864173464E+03 -0.40945302494E+02  0.38339537095E+03  0.45345165763E+03  0.50400001928E-02 0.  1.
       -1    1    3    3    0  502  0.23864173464E+03  0.40945302494E+02 -0.28776954771E+02  0.24383295196E+03  0.50400001928E-02 0. -1.
</event>
<event>
 5   0  0.9391405E-03  0.5997535E+03  0.7818609E-02  0.9905918E-01
       -2   -1    0    0    0  501  0.00000000000E+00  0.00000000000E+00  0.98099964546E+02  0.98099964580E+02  0.25500000920E-02 0. -1.
        2   -1    0    0  501    0  0.00000000000E+00  0.00000000000E+00 -0.91667793387E+03  0.91667793388E+03  0.25500000920E-02 0.  1.
    10030    2    1    2    0    0  0.00000000000E+00  0.00000000000E+00 -0.81857796933E+03  0.10147778985E+04  0.59975352548E+03 0.  0.
        2    1    3    3  502    0  0.17297841143E+03  0.17590031074E+03 -0.12083731065E+03  0.27470730932E+03  0.25500000920E-02 0.  1.
       -2    1    3    3    0  502 -0.17297841143E+03 -0.17590031074E+03 -0.69774065867E+03  0.74007058914E+03  0.25500000920E-02 0. -1.
</event>
<event>
 5   0  0.9162342E-03  0.5997924E+03  0.7818609E-02  0.9905837E-01
       -2   -1    0    0    0  501  0.00000000000E+00  0.00000000000E+00  0.26512030508E+03  0.26512030509E+03  0.25500000920E-02 0.  1.
        2   -1    0    0  501    0  0.00000000000E+00  0.00000000000E+00 -0.33923360987E+03  0.33923360988E+03  0.25500000920E-02 0. -1.
    10030    2    1    2    0    0  0.00000000000E+00  0.00000000000E+00 -0.74113304794E+02  0.60435391498E+03  0.59979235790E+03 0.  0.
        5    1    3    3  502    0 -0.22595689312E+03  0.13190817930E+03  0.11054751551E+03  0.28407592031E+03  0.46999998093E+01 0.  1.
       -5    1    3    3    0  502  0.22595689312E+03 -0.13190817930E+03 -0.18466082030E+03  0.32027799467E+03  0.46999998093E+01 0. -1.
</event>
<event>
 5   0  0.9162342E-03  0.5996327E+03  0.7818609E-02  0.9906168E-01
       -2   -1    0    0    0  501  0.00000000000E+00  0.00000000000E+00  0.72140911811E+02  0.72140911856E+02  0.25500000920E-02 0.  1.
        2   -1    0    0  501    0  0.00000000000E+00  0.00000000000E+00 -0.12460312362E+04  0.12460312362E+04  0.25500000920E-02 0. -1.
    10030    2    1    2    0    0  0.00000000000E+00  0.00000000000E+00 -0.11738903244E+04  0.13181721481E+04  0.59963265274E+03 0.  0.
        5    1    3    3  502    0 -0.50533923205E+02  0.29491336496E+03 -0.54640043008E+03  0.62297920529E+03  0.46999998093E+01 0. -1.
       -5    1    3    3    0  502  0.50533923205E+02 -0.29491336496E+03 -0.62748989434E+03  0.69519294281E+03  0.46999998093E+01 0.  1.
</event>
<event>
 5   0  0.9162342E-03  0.6003928E+03  0.7818609E-02  0.9904592E-01
       -2   -1    0    0    0  501  0.00000000000E+00  0.00000000000E+00  0.12845485004E+03  0.12845485006E+03  0.25500000920E-02 0. -1.
        2   -1    0    0  501    0  0.00000000000E+00  0.00000000000E+00 -0.70155285661E+03  0.70155285662E+03  0.25500000920E-02 0.  1.
    10030    2    1    2    0    0  0.00000000000E+00  0.00000000000E+00 -0.57309800658E+03  0.83000770668E+03  0.60039276145E+03 0.  0.
        5    1    3    3  502    0 -0.33375789205E+02  0.12813263028E+03 -0.65894660369E+03  0.67213438445E+03  0.46999998093E+01 0.  1.
       -5    1    3    3    0  502  0.33375789205E+02 -0.12813263028E+03  0.85848597116E+02  0.15787332223E+03  0.46999998093E+01 0. -1.
</event>
<event>
 5   0  0.5765045E-03  0.5999000E+03  0.7818609E-02  0.9905613E-01
        1   -1    0    0  501    0  0.00000000000E+00  0.00000000000E+00  0.10562382731E+04  0.10562382731E+04  0.50400001928E-02 0.  1.
       -1   -1    0    0    0  501  0.00000000000E+00  0.00000000000E+00 -0.85179654538E+02  0.85179654687E+02  0.50400001928E-02 0. -1.
    10030    2    1    2    0    0  0.00000000000E+00  0.00000000000E+00  0.97105861852E+03  0.11414179278E+04  0.59990002934E+03 0.  0.
        1    1    3    3  502    0  0.75218081131E+02  0.14937057696E+03  0.95929547346E+03  0.97376441423E+03  0.50400001928E-02 0.  1.
       -1    1    3    3    0  502 -0.75218081131E+02 -0.14937057696E+03  0.11763145059E+02  0.16765351353E+03  0.50400001928E-02 0. -1.
</event>
<event>
 5   0  0.3806250E-03  0.6000129E+03  0.7818609E-02  0.9905379E-01
        3   -1    0    0  501    0  0.00000000000E+00  0.00000000000E+00  0.24113676201E+03  0.24113678316E+03  0.10100000352E+00 0. -1.
       -3   -1    0    0    0  501  0.00000000000E+00  0.00000000000E+00 -0.37324824276E+03  0.37324825642E+03  0.10100000352E+00 0.  1.
    10030    2    1    2    0    0  0.00000000000E+00  0.00000000000E+00 -0.13211148075E+03  0.61438503958E+03  0.60001294446E+03 0.  0.
        3    1    3    3  502    0  0.19740325470E+03 -0.62848711673E+02  0.15613466484E+03  0.25941482087E+03  0.10100000352E+00 0. -1.
       -3    1    3    3    0  502 -0.19740325470E+03  0.62848711673E+02 -0.28824614559E+03  0.35497021871E+03  0.10100000352E+00 0.  1.
</event>
<event>
 5   0  0.5765045E-03  0.6003858E+03  0.7818609E-02  0.9904606E-01
        1   -1    0    0  501    0  0.00000000000E+00  0.00000000000E+00  0.50522649359E+03  0.50522649361E+03  0.50400001928E-02 0.  1.
       -1   -1    0    0    0  501  0.00000000000E+00  0.00000000000E+00 -0.17836708655E+03  0.17836708662E+03  0.50400001928E-02 0. -1.
    10030    2    1    2    0    0  0.00000000000E+00  0.00000000000E+00  0.32685940703E+03  0.68359358023E+03  0.60038580177E+03 0.  0.
        1    1    3    3  502    0  0.60174130994E+02  0.19820593473E+03  0.41081914189E+03  0.46008573763E+03  0.50400001928E-02 0.  1.
       -1    1    3    3    0  502 -0.60174130994E+02 -0.19820593473E+03 -0.83959734856E+02  0.22350784260E+03  0.50400001928E-02 0. -1.
</event>
<event>
 5   0  0.5790967E-03  0.5997339E+03  0.7818609E-02  0.9905958E-01
        1   -1    0    0  501    0  0.00000000000E+00  0.00000000000E+00  0.32075349498E+03  0.32075349502E+03  0.50400001928E-02 0. -1.
       -1   -1    0    0    0  501  0.00000000000E+00  0.00000000000E+00 -0.28034045177E+03  0.28034045181E+03  0.50400001928E-02 0.  1.
    10030    2    1    2    0    0  0.00000000000E+00  0.00000000000E+00  0.40413043209E+02  0.60109394683E+03  0.59973387336E+03 0.  0.
        3    1    3    3  502    0  0.27033823361E+03  0.46934615305E+02  0.14145421203E+03  0.30869875764E+03  0.10100000352E+00 0.  1.
       -3    1    3    3    0  502 -0.27033823361E+03 -0.46934615305E+02 -0.10104116882E+03  0.29239518919E+03  0.10100000352E+00 0. -1.
</event>
<event>
 5   0  0.9028473E-03  0.5992452E+03  0.7818609E-02  0.9906973E-01
       -2   -1    0    0    0  501  0.00000000000E+00  0.00000000000E+00  0.91620013191E+03  0.91620013192E+03  0.25500000920E-02 0. -1.
        2   -1    0    0  501    0  0.00000000000E+00  0.00000000000E+00 -0.97984807253E+02  0.97984807286E+02  0.25500000920E-02 0.  1.
    10030    2    1    2    0    0  0.00000000000E+00  0.00000000000E+00  0.81821532466E+03  0.10141849392E+04  0.59924516969E+03 0.  0.
        1    1    3    3  502    0  0.67733826172E+02  0.17892046987E+03  0.18842871867E+02  0.19223802847E+03  0.50400001928E-02 0. -1.
       -1    1    3    3    0  502 -0.67733826172E+02 -0.17892046987E+03  0.79937245280E+03  0.82194691073E+03  0.50400001928E-02 0.  1.
</event>
<event>
 5   0  0.5790967E-03  0.6002267E+03  0.7818609E-02  0.9904936E-01
        1   -1    0    0  501    0  0.00000000000E+00  0.00000000000E+00  0.24058631221E+03  0.24058631227E+03  0.50400001928E-02 0.  1.
       -1   -1    0    0    0  501  0.00000000000E+00  0.00000000000E+00 -0.37436880143E+03  0.37436880147E+03  0.50400001928E-02 0. -1.
    10030    2    1    2    0    0  0.00000000000E+00  0.00000000000E+00 -0.13378248922E+03  0.61495511373E+03  0.60022665509E+03 0.  0.
        3    1    3    3  502    0 -0.10668594728E+03  0.38908276958E+02 -0.35150686494E+03  0.36939522420E+03  0.10100000352E+00 0. -1.
       -3    1    3    3    0  502  0.10668594728E+03 -0.38908276958E+02  0.21772437572E+03  0.24555988953E+03  0.10100000352E+00 0.  1.
</event>
<event>
 5   0  0.9028473E-03  0.6018813E+03  0.7818609E-02  0.9901511E-01
       -2   -1    0    0    0  501  0.00000000000E+00  0.00000000000E+00  0.43938153935E+03  0.43938153936E+03  0.25500000920E-02 0.  1.
        2   -1    0    0  501    0  0.00000000000E+00  0.00000000000E+00 -0.20611991190E+03  0.20611991191E+03  0.25500000920E-02 0. -1.
    10030    2    1    2    0    0  0.00000000000E+00  0.00000000000E+00  0.23326162745E+03  0.64550145127E+03  0.60188133112E+03 0.  0.
        1    1    3    3  502    0  0.18142968736E+03  0.75109708702E+02  0.36120893447E+03  0.41113269654E+03  0.50400001928E-02 0.  1.
       -1    1    3    3    0  502 -0.18142968736E+03 -0.75109708702E+02 -0.12794730702E+03  0.23436875473E+03  0.50400001928E-02 0. -1.
</event>
<event>
 5   0  0.9822607E-03  0.5994737E+03  0.7818609E-02  0.9906499E-01
       -2   -1    0    0    0  501  0.00000000000E+00  0.00000000000E+00  0.97936712901E+02  0.97936712934E+02  0.25500000920E-02 0. -1.
        2   -1    0    0  501    0  0.00000000000E+00  0.00000000000E+00 -0.91734920823E+03  0.91734920823E+03  0.25500000920E-02 0.  1.
    10030    2    1    2    0    0  0.00000000000E+00  0.00000000000E+00 -0.81941249533E+03  0.10152859212E+04  0.59947365599E+03 0.  0.
        3    1    3    3  502    0 -0.63248458971E+02  0.72534733635E+02 -0.89047168919E+03  0.89565701839E+03  0.10100000352E+00 0.  1.
       -3    1    3    3    0  502  0.63248458971E+02 -0.72534733635E+02  0.71059193862E+02  0.11962890277E+03  0.10100000352E+00 0. -1.
</event>
<event>
 5   0  0.9391405E-03  0.5937782E+03  0.7818609E-02  0.9918399E-01
        2   -1    0    0  501    0  0.00000000000E+00  0.00000000000E+00  0.18150555398E+04  0.18150555398E+04  0.25500000920E-02 0.  1.
       -2   -1    0    0    0  501  0.00000000000E+00  0.00000000000E+00 -0.48562224591E+02  0.48562224658E+02  0.25500000920E-02 0. -1.
    10030    2    1    2    0    0  0.00000000000E+00  0.00000000000E+00  0.17664933152E+04  0.18636177644E+04  0.59377819035E+03 0.  0.
        2    1    3    3  502    0  0.22490594920E+03  0.15870653811E+03  0.53413483740E+03  0.60089140097E+03  0.25500000920E-02 0. -1.
       -2    1    3    3    0  502 -0.22490594920E+03 -0.15870653811E+03  0.12323584778E+04  0.12627263635E+04  0.25500000920E-02 0.  1.
</event>
<event>
 5   0  0.6078658E-03  0.6005884E+03  0.7818609E-02  0.9904186E-01
        1   -1    0    0  501    0  0.00000000000E+00  0.00000000000E+00  0.11406152226E+03  0.11406152238E+03  0.50400001928E-02 0.  1.
       -1   -1    0    0    0  501  0.00000000000E+00  0.00000000000E+00 -0.79059628053E+03  0.79059628055E+03  0.50400001928E-02 0. -1.
    10030    2    1    2    0    0  0.00000000000E+00  0.00000000000E+00 -0.67653475827E+03  0.90465780293E+03  0.60058842916E+03 0.  0.
        2    1    3    3  502    0  0.11531366409E+03 -0.57630696121E+02  0.70261306008E+02  0.14681685663E+03  0.25500000920E-02 0.  1.
       -2    1    3    3    0  502 -0.11531366409E+03  0.57630696121E+02 -0.74679606428E+03  0.75784094630E+03  0.25500000920E-02 0. -1.
</event>
<event>
 5   0  0.9162342E-03  0.6004588E+03  0.7818609E-02  0.9904455E-01
        2   -1    0    0  501    0  0.00000000000E+00  0.00000000000E+00  0.41426577441E+03  0.41426577442E+03  0.25500000920E-02 0.  1.
       -2   -1    0    0    0  501  0.00000000000E+00  0.00000000000E+00 -0.21758424110E+03  0.21758424111E+03  0.25500000920E-02 0. -1.
    10030    2    1    2    0    0  0.00000000000E+00  0.00000000000E+00  0.19668153331E+03  0.63185001553E+03  0.60045883838E+03 0.  0.
        5    1    3    3  502    0  0.13969270031E+03 -0.16228807848E+03  0.31973014965E+03  0.38483883579E+03  0.46999998093E+01 0.  1.
       -5    1    3    3    0  502 -0.13969270031E+03  0.16228807848E+03 -0.12304861634E+03  0.24701117974E+03  0.46999998093E+01 0. -1.
</event>
<event>
 5   0  0.5819446E-03  0.5991167E+03  0.7818609E-02  0.9907240E-01
        1   -1    0    0  501    0  0.00000000000E+00  0.00000000000E+00  0.19732733121E+03  0.19732733127E+03  0.50400001928E-02 0.  1.
       -1   -1    0    0    0  501  0.00000000000E+00  0.00000000000E+00 -0.45475312090E+03  0.45475312093E+03  0.50400001928E-02 0. -1.
    10030    2    1    2    0    0  0.00000000000E+00  0.00000000000E+00 -0.25742578969E+03  0.65208045220E+03  0.59911674901E+03 0.  0.
        5    1    3    3  502    0  0.15540408610E+03  0.14343986838E+03  0.10214069612E+03  0.23490474158E+03  0.46999998093E+01 0.  1.
       -5    1    3    3    0  502 -0.15540408610E+03 -0.14343986838E+03 -0.35956648581E+03  0.41717571062E+03  0.46999998093E+01 0. -1.
</event>
<event>
 5   0  0.9162342E-03  0.5990181E+03  0.7818609E-02  0.9907445E-01
       -2   -1    0    0    0  501  0.00000000000E+00  0.00000000000E+00  0.12048968494E+03  0.12048968496E+03  0.25500000920E-02 0. -1.
        2   -1    0    0  501    0  0.00000000000E+00  0.00000000000E+00 -0.74450915103E+03  0.74450915103E+03  0.25500000920E-02 0.  1.
    10030    2    1    2    0    0  0.00000000000E+00  0.00000000000E+00 -0.62401946609E+03  0.86499883599E+03  0.59901810675E+03 0.  0.
        5    1    3    3  502    0  0.49726381382E+01 -0.25744077714E+03 -0.53282374917E+03  0.59179702479E+03  0.46999998093E+01 0.  1.
       -5    1    3    3    0  502 -0.49726381382E+01  0.25744077714E+03 -0.91195716917E+02  0.27320181121E+03  0.46999998093E+01 0. -1.
</event>
<event>
 5   0  0.9028473E-03  0.5997190E+03  0.7818609E-02  0.9905989E-01
       -2   -1    0    0    0  501  0.00000000000E+00  0.00000000000E+00  0.11987608044E+03  0.11987608047E+03  0.25500000920E-02 0. -1.
        2   -1    0    0  501    0  0.00000000000E+00  0.00000000000E+00 -0.75007234016E+03  0.75007234017E+03  0.25500000920E-02 0.  1.
    10030    2    1    2    0    0  0.00000000000E+00  0.00000000000E+00 -0.63019625972E+03  0.86994842063E+03  0.59971904155E+03 0.  0.
        1    1    3    3  502    0 -0.65980337930E+02 -0.11250602047E+03 -0.70677100542E+03  0.71870457336E+03  0.50400001928E-02 0.  1.
       -1    1    3    3    0  502  0.65980337930E+02  0.11250602047E+03  0.76574745698E+02  0.15124384728E+03  0.50400001928E-02 0. -1.
</event>
<event>
 5   0  0.9303190E-03  0.6002403E+03  0.7818609E-02  0.9904908E-01
        2   -1    0    0  501    0  0.00000000000E+00  0.00000000000E+00  0.44345526210E+03  0.44345526211E+03  0.25500000920E-02 0. -1.
       -2   -1    0    0    0  501  0.00000000000E+00  0.00000000000E+00 -0.20311431930E+03  0.20311431931E+03  0.25500000920E-02 0.  1.
    10030    2    1    2    0    0  0.00000000000E+00  0.00000000000E+00  0.24034094281E+03  0.64656958142E+03  0.60024033089E+03 0.  0.
        4    1    3    3  502    0  0.23317826419E+03 -0.12229070807E+03 -0.34971699551E+02  0.26561579930E+03  0.12699999809E+01 0.  1.
       -4    1    3    3    0  502 -0.23317826419E+03  0.12229070807E+03  0.27531264236E+03  0.38095378212E+03  0.12699999809E+01 0. -1.
</event>
<event>
 5   0  0.6078658E-03  0.5995166E+03  0.7818609E-02  0.9906409E-01
        1   -1    0    0  501    0  0.00000000000E+00  0.00000000000E+00  0.27865435927E+03  0.27865435931E+03  0.50400001928E-02 0. -1.
       -1   -1    0    0    0  501  0.00000000000E+00  0.00000000000E+00 -0.32246056338E+03  0.32246056342E+03  0.50400001928E-02 0.  1.
    10030    2    1    2    0    0  0.00000000000E+00  0.00000000000E+00 -0.43806204112E+02  0.60111492273E+03  0.59951661096E+03 0.  0.
        2    1    3    3  502    0  0.13804068674E+03  0.90886357193E+02 -0.27264876143E+03  0.31883053215E+03  0.25500000920E-02 0.  1.
       -2    1    3    3    0  502 -0.13804068674E+03 -0.90886357193E+02  0.22884255732E+03  0.28228439058E+03  0.25500000920E-02 0. -1.
</event>
<event>
 5   0  0.6078658E-03  0.6008205E+03  0.7818609E-02  0.9903705E-01
       -1   -1    0    0    0  501  0.00000000000E+00  0.00000000000E+00  0.74030358065E+03  0.74030358067E+03  0.50400001928E-02 0. -1.
        1   -1    0    0  501    0  0.00000000000E+00  0.00000000000E+00 -0.12190445404E+03  0.12190445414E+03  0.50400001928E-02 0.  1.
    10030    2    1    2    0    0  0.00000000000E+00  0.00000000000E+00  0.61839912661E+03  0.86220803481E+03  0.60082045196E+03 0.  0.
        2    1    3    3  502    0 -0.21011513559E+03 -0.11306827178E+03  0.47274241072E+02  0.24324403006E+03  0.25500000920E-02 0. -1.
       -2    1    3    3    0  502  0.21011513559E+03  0.11306827178E+03  0.57112488554E+03  0.61896400475E+03  0.25500000920E-02 0.  1.
</event>
<event>
 5   0  0.9162342E-03  0.5979488E+03  0.7818609E-02  0.9909671E-01
       -2   -1    0    0    0  501  0.00000000000E+00  0.00000000000E+00  0.16635905082E+03  0.16635905084E+03  0.25500000920E-02 0.  1.
        2   -1    0    0  501    0  0.00000000000E+00  0.00000000000E+00 -0.53730584887E+03  0.53730584887E+03  0.25500000920E-02 0. -1.
    10030    2    1    2    0    0  0.00000000000E+00  0.00000000000E+00 -0.37094679805E+03  0.70366489971E+03  0.59794879723E+03 0.  0.
        5    1    3    3  502    0 -0.27091810399E+03  0.82098801520E+02 -0.29851198323E+03  0.41142232123E+03  0.46999998093E+01 0. -1.
       -5    1    3    3    0  502  0.27091810399E+03 -0.82098801520E+02 -0.72434814820E+02  0.29224257848E+03  0.46999998093E+01 0.  1.
</event>
<event>
 5   0  0.9822607E-03  0.6007609E+03  0.7818609E-02  0.9903829E-01
        2   -1    0    0  501    0  0.00000000000E+00  0.00000000000E+00  0.12240254695E+04  0.12240254695E+04  0.25500000920E-02 0.  1.
       -2   -1    0    0    0  501  0.00000000000E+00  0.00000000000E+00 -0.73714495296E+02  0.73714495340E+02  0.25500000920E-02 0. -1.
    10030    2    1    2    0    0  0.00000000000E+00  0.00000000000E+00  0.11503109742E+04  0.12977399649E+04  0.60076091666E+03 0.  0.
        3    1    3    3  502    0 -0.15800461400E+03 -0.21766840411E+03  0.86403135548E+03  0.90492827652E+03  0.10100000352E+00 0.  1.
       -3    1    3    3    0  502  0.15800461400E+03  0.21766840411E+03  0.28627961877E+03  0.39281168837E+03  0.10100000352E+00 0. -1.
</event>
<event>
 5   0  0.3806250E-03  0.5999939E+03  0.7818609E-02  0.9905419E-01
       -4   -1    0    0    0  501  0.00000000000E+00  0.00000000000E+00  0.56663742114E+03  0.56663884436E+03  0.12699999809E+01 0. -1.
        4   -1    0    0  501    0  0.00000000000E+00  0.00000000000E+00 -0.15882434872E+03  0.15882942626E+03  0.12699999809E+01 0.  1.
    10030    2    1    2    0    0  0.00000000000E+00  0.00000000000E+00  0.40781307243E+03  0.72546827062E+03  0.59999392466E+03 0.  0.
        3    1    3    3  502    0 -0.24659030709E+03 -0.10942644006E+03  0.36256138888E+03  0.45192001089E+03  0.10100000352E+00 0. -1.
       -3    1    3    3    0  502  0.24659030709E+03  0.10942644006E+03  0.45251683553E+02  0.27354825973E+03  0.10100000352E+00 0.  1.
</event>
<event>
 5   0  0.9303190E-03  0.5996080E+03  0.7818609E-02  0.9906220E-01
       -2   -1    0    0    0  501  0.00000000000E+00  0.00000000000E+00  0.49731047057E+02  0.49731047122E+02  0.25500000920E-02 0.  1.
        2   -1    0    0  501    0  0.00000000000E+00  0.00000000000E+00 -0.18073709242E+04  0.18073709242E+04  0.25500000920E-02 0. -1.
    10030    2    1    2    0    0  0.00000000000E+00  0.00000000000E+00 -0.17576398772E+04  0.18571019714E+04  0.59960803379E+03 0.  0.
        4    1    3    3  502    0  0.16651132360E+02  0.17129942313E+03 -0.16391167532E+04  0.16481280582E+04  0.12699999809E+01 0. -1.
       -4    1    3    3    0  502 -0.16651132360E+02 -0.17129942313E+03 -0.11852312394E+03  0.20897391316E+03  0.12699999809E+01 0.  1.
</event>
<event>
 5   0  0.6078658E-03  0.5958170E+03  0.7818609E-02  0.9914123E-01
       -1   -1    0    0    0  501  0.00000000000E+00  0.00000000000E+00  0.24088595902E+03  0.24088595907E+03  0.50400001928E-02 0. -1.
        1   -1    0    0  501    0  0.00000000000E+00  0.00000000000E+00 -0.36842943891E+03  0.36842943894E+03  0.50400001928E-02 0.  1.
    10030    2    1    2    0    0  0.00000000000E+00  0.00000000000E+00 -0.12754347989E+03  0.60931539801E+03  0.59581701469E+03 0.  0.
        2    1    3    3  502    0 -0.73583222713E+02  0.27622395839E+03 -0.14954876121E+03  0.32261276763E+03  0.25500000920E-02 0.  1.
       -2    1    3    3    0  502  0.73583222713E+02 -0.27622395839E+03  0.22005281322E+02  0.28670263038E+03  0.25500000920E-02 0. -1.
</event>
<event>
 5   0  0.3806250E-03  0.6002193E+03  0.7818609E-02  0.9904951E-01
        3   -1    0    0  501    0  0.00000000000E+00  0.00000000000E+00  0.11181834504E+04  0.11181834550E+04  0.10100000352E+00 0.  1.
       -3   -1    0    0    0  501  0.00000000000E+00  0.00000000000E+00 -0.80546493200E+02  0.80546556524E+02  0.10100000352E+00 0. -1.
    10030    2    1    2    0    0  0.00000000000E+00  0.00000000000E+00  0.10376369572E+04  0.11987300115E+04  0.60021928117E+03 0.  0.
        1    1    3    3  502    0  0.26054004784E+03  0.14853664685E+03  0.49680042903E+03  0.58030588339E+03  0.50400001928E-02 0. -1.
       -1    1    3    3    0  502 -0.26054004784E+03 -0.14853664685E+03  0.54083652816E+03  0.61842412809E+03  0.50400001928E-02 0.  1.
</event>
<event>
 5   0  0.5790967E-03  0.6006045E+03  0.7818609E-02  0.9904153E-01
       -1   -1    0    0    0  501  0.00000000000E+00  0.00000000000E+00  0.30533959797E+03  0.30533959801E+03  0.50400001928E-02 0.  1.
        1   -1    0    0  501    0  0.00000000000E+00  0.00000000000E+00 -0.29534801743E+03  0.29534801748E+03  0.50400001928E-02 0. -1.
    10030    2    1    2    0    0  0.00000000000E+00  0.00000000000E+00  0.99915805355E+01  0.60068761548E+03  0.60060451190E+03 0.  0.
        3    1    3    3  502    0 -0.25719713603E+03  0.82775543528E+02  0.13608366821E+03  0.30252426736E+03  0.10100000352E+00 0. -1.
       -3    1    3    3    0  502  0.25719713603E+03 -0.82775543528E+02 -0.12609208768E+03  0.29816334812E+03  0.10100000352E+00 0.  1.
</event>
<event>
 5   0  0.9028473E-03  0.6004811E+03  0.7818609E-02  0.9904408E-01
       -2   -1    0    0    0  501  0.00000000000E+00  0.00000000000E+00  0.66422870682E+03  0.66422870682E+03  0.25500000920E-02 0. -1.
        2   -1    0    0  501    0  0.00000000000E+00  0.00000000000E+00 -0.13571288338E+03  0.13571288340E+03  0.25500000920E-02 0.  1.
    10030    2    1    2    0    0  0.00000000000E+00  0.00000000000E+00  0.52851582344E+03  0.79994159023E+03  0.60048111723E+03 0.  0.
        1    1    3    3  502    0 -0.92429384859E+02  0.25580979451E+03  0.94896730453E+02  0.28807504514E+03  0.50400001928E-02 0.  1.
       -1    1    3    3    0  502  0.92429384859E+02 -0.25580979451E+03  0.43361909298E+03  0.51186654509E+03  0.50400001928E-02 0. -1.
</event>
<event>
 5   0  0.6078658E-03  0.5997097E+03  0.7818609E-02  0.9906009E-01
        1   -1    0    0  501    0  0.00000000000E+00  0.00000000000E+00  0.51328937232E+03  0.51328937235E+03  0.50400001928E-02 0.  1.
       -1   -1    0    0    0  501  0.00000000000E+00  0.00000000000E+00 -0.17517004050E+03  0.17517004057E+03  0.50400001928E-02 0. -1.
    10030    2    1    2    0    0  0.00000000000E+00  0.00000000000E+00  0.33811933182E+03  0.68845941292E+03  0.59970966366E+03 0.  0.
        2    1    3    3  502    0  0.13933639302E+03  0.22471560889E+03  0.67048569117E+01  0.26449327101E+03  0.25500000920E-02 0. -1.
       -2    1    3    3    0  502 -0.13933639302E+03 -0.22471560889E+03  0.33141447491E+03  0.42396614191E+03  0.25500000920E-02 0.  1.
</event>
<event>
 5   0  0.9028473E-03  0.5951330E+03  0.7818609E-02  0.9915555E-01
        2   -1    0    0  501    0  0.00000000000E+00  0.00000000000E+00  0.25983599563E+03  0.25983599565E+03  0.25500000920E-02 0.  1.
       -2   -1    0    0    0  501  0.00000000000E+00  0.00000000000E+00 -0.34077581260E+03  0.34077581261E+03  0.25500000920E-02 0. -1.
    10030    2    1    2    0    0  0.00000000000E+00  0.00000000000E+00 -0.80939816962E+02  0.60061180825E+03  0.59513300215E+03 0.  0.
        1    1    3    3  502    0 -0.16019084638E+03 -0.14539554028E+03  0.16572659466E+03  0.27251839314E+03  0.50400001928E-02 0.  1.
       -1    1    3    3    0  502  0.16019084638E+03  0.14539554028E+03 -0.24666641162E+03  0.32809341512E+03  0.50400001928E-02 0. -1.
</event>
<event>
 5   0  0.3806250E-03  0.6006873E+03  0.7818609E-02  0.9903981E-01
       -3   -1    0    0    0  501  0.00000000000E+00  0.00000000000E+00  0.84433288013E+03  0.84433288617E+03  0.10100000352E+00 0.  1.
        3   -1    0    0  501    0  0.00000000000E+00  0.00000000000E+00 -0.10683734696E+03  0.10683739470E+03  0.10100000352E+00 0. -1.
    10030    2    1    2    0    0  0.00000000000E+00  0.00000000000E+00  0.73749553317E+03  0.95117028086E+03  0.60068730780E+03 0.  0.
        3    1    3    3  502    0  0.27808559394E+02 -0.72839784228E+02  0.82802870523E+03  0.83169134721E+03  0.10100000352E+00 0.  1.
       -3    1    3    3    0  502 -0.27808559394E+02  0.72839784228E+02 -0.90533172060E+02  0.11947893365E+03  0.10100000352E+00 0. -1.
</event>
<event>
 5   0  0.9822607E-03  0.6004802E+03  0.7818609E-02  0.9904410E-01
        2   -1    0    0  501    0  0.00000000000E+00  0.00000000000E+00  0.44566865103E+03  0.44566865104E+03  0.25500000920E-02 0.  1.
       -2   -1    0    0    0  501  0.00000000000E+00  0.00000000000E+00 -0.20226711406E+03  0.20226711408E+03  0.25500000920E-02 0. -1.
    10030    2    1    2    0    0  0.00000000000E+00  0.00000000000E+00  0.24340153697E+03  0.64793576512E+03  0.60048018079E+03 0.  0.
        3    1    3    3  502    0  0.15484510157E+03  0.17720880301E+03  0.32288734356E+03  0.39954500644E+03  0.10100000352E+00 0. -1.
       -3    1    3    3    0  502 -0.15484510157E+03 -0.17720880301E+03 -0.79485806590E+02  0.24839075867E+03  0.10100000352E+00 0.  1.
</event>
<event>
 5   0  0.5765045E-03  0.6032437E+03  0.7818609E-02  0.9898699E-01
       -1   -1    0    0    0  501  0.00000000000E+00  0.00000000000E+00  0.10673920933E+03  0.10673920945E+03  0.50400001928E-02 0. -1.
        1   -1    0    0  501    0  0.00000000000E+00  0.00000000000E+00 -0.85231804988E+03  0.85231804990E+03  0.50400001928E-02 0.  1.
    10030    2    1    2    0    0  0.00000000000E+00  0.00000000000E+00 -0.74557884055E+03  0.95905725935E+03  0.60324374778E+03 0.  0.
        1    1    3    3  502    0  0.85188027982E+02  0.16443467923E+03  0.57111983197E+01  0.18527919920E+03  0.50400001928E-02 0. -1.
       -1    1    3    3    0  502 -0.85188027982E+02 -0.16443467923E+03 -0.75129003887E+03  0.77377806015E+03  0.50400001928E-02 0.  1.
</event>
<event>
 5   0  0.5765045E-03  0.6028880E+03  0.7818609E-02  0.9899432E-01
        1   -1    0    0  501    0  0.00000000000E+00  0.00000000000E+00  0.10286183551E+04  0.10286183551E+04  0.50400001928E-02 0.  1.
       -1   -1    0    0    0  501  0.00000000000E+00  0.00000000000E+00 -0.88340320521E+02  0.88340320665E+02  0.50400001928E-02 0. -1.
    10030    2    1    2    0    0  0.00000000000E+00  0.00000000000E+00  0.94027803459E+03  0.11169586758E+04  0.60288796728E+03 0.  0.
        1    1    3    3  502    0 -0.12600274722E+03  0.13588093251E+03  0.29652220236E+02  0.18766878887E+03  0.50400001928E-02 0. -1.
       -1    1    3    3    0  502  0.12600274722E+03 -0.13588093251E+03  0.91062581435E+03  0.92928988691E+03  0.50400001928E-02 0.  1.
</event>
<event>
 5   0  0.9028473E-03  0.5996684E+03  0.7818609E-02  0.9906094E-01
       -2   -1    0    0    0  501  0.00000000000E+00  0.00000000000E+00  0.53038010414E+02  0.53038010475E+02  0.25500000920E-02 0. -1.
        2   -1    0    0  501    0  0.00000000000E+00  0.00000000000E+00 -0.16950210616E+04  0.16950210616E+04  0.25500000920E-02 0.  1.
    10030    2    1    2    0    0  0.00000000000E+00  0.00000000000E+00 -0.16419830512E+04  0.17480590721E+04  0.59966839094E+03 0.  0.
        1    1    3    3  502    0 -0.17680227438E+03 -0.75745552902E+02 -0.15050560792E+03  0.24423016000E+03  0.50400001928E-02 0. -1.
       -1    1    3    3    0  502  0.17680227438E+03  0.75745552902E+02 -0.14914774433E+04  0.15038289121E+04  0.50400001928E-02 0.  1.
</event>
<event>
 5   0  0.3806250E-03  0.5984026E+03  0.7818609E-02  0.9908726E-01
        4   -1    0    0  501    0  0.00000000000E+00  0.00000000000E+00  0.10791826481E+04  0.10791833953E+04  0.12699999809E+01 0. -1.
       -4   -1    0    0    0  501  0.00000000000E+00  0.00000000000E+00 -0.82947350110E+02  0.82957071973E+02  0.12699999809E+01 0.  1.
    10030    2    1    2    0    0  0.00000000000E+00  0.00000000000E+00  0.99623529796E+03  0.11621404673E+04  0.59840262105E+03 0.  0.
        1    1    3    3  502    0  0.18995636717E+02 -0.14567392441E+03 -0.80879474200E+01  0.14712967541E+03  0.50400001928E-02 0.  1.
       -1    1    3    3    0  502 -0.18995636717E+02  0.14567392441E+03  0.10043232454E+04  0.10150107919E+04  0.50400001928E-02 0. -1.
</event>
<event>
 5   0  0.5765045E-03  0.5958642E+03  0.7818609E-02  0.9914024E-01
        1   -1    0    0  501    0  0.00000000000E+00  0.00000000000E+00  0.12005337968E+04  0.12005337968E+04  0.50400001928E-02 0. -1.
       -1   -1    0    0    0  501  0.00000000000E+00  0.00000000000E+00 -0.73936713586E+02  0.73936713758E+02  0.50400001928E-02 0.  1.
    10030    2    1    2    0    0  0.00000000000E+00  0.00000000000E+00  0.11265970832E+04  0.12744705106E+04  0.59586415768E+03 0.  0.
        1    1    3    3  502    0 -0.16164569330E+02  0.29675471840E+03  0.51849119984E+03  0.59762679034E+03  0.50400001928E-02 0. -1.
       -1    1    3    3    0  502  0.16164569330E+02 -0.29675471840E+03  0.60810588338E+03  0.67684372023E+03  0.50400001928E-02 0.  1.
</event>
<event>
 5   0  0.9822607E-03  0.5997643E+03  0.7818609E-02  0.9905895E-01
        2   -1    0    0  501    0  0.00000000000E+00  0.00000000000E+00  0.15858294519E+03  0.15858294521E+03  0.25500000920E-02 0. -1.
       -2   -1    0    0    0  501  0.00000000000E+00  0.00000000000E+00 -0.56708054502E+03  0.56708054502E+03  0.25500000920E-02 0.  1.
    10030    2    1    2    0    0  0.00000000000E+00  0.00000000000E+00 -0.40849759982E+03  0.72566349023E+03  0.59976429703E+03 0.  0.
        3    1    3    3  502    0  0.56895455003E+02  0.28932459230E+03 -0.13816176755E+03  0.32562938553E+03  0.10100000352E+00 0. -1.
       -3    1    3    3    0  502 -0.56895455003E+02 -0.28932459230E+03 -0.27033583228E+03  0.40003410470E+03  0.10100000352E+00 0.  1.
</event>
<event>
 5   0  0.5891927E-03  0.5990309E+03  0.7818609E-02  0.9907419E-01
       -1   -1    0    0    0  501  0.00000000000E+00  0.00000000000E+00  0.84327823968E+03  0.84327823969E+03  0.50400001928E-02 0.  1.
        1   -1    0    0  501    0  0.00000000000E+00  0.00000000000E+00 -0.10638185941E+03  0.10638185953E+03  0.50400001928E-02 0. -1.
    10030    2    1    2    0    0  0.00000000000E+00  0.00000000000E+00  0.73689638026E+03  0.94966009922E+03  0.59903090806E+03 0.  0.
        4    1    3    3  502    0  0.29558511845E+03 -0.23777919977E+01  0.29189676817E+03  0.41542935899E+03  0.12699999809E+01 0. -1.
       -4    1    3    3    0  502 -0.29558511845E+03  0.23777919977E+01  0.44499961209E+03  0.53423074023E+03  0.12699999809E+01 0.  1.
</event>
<event>
 5   0  0.5891927E-03  0.6003248E+03  0.7818609E-02  0.9904732E-01
       -1   -1    0    0    0  501  0.00000000000E+00  0.00000000000E+00  0.13569960289E+03  0.13569960298E+03  0.50400001928E-02 0. -1.
        1   -1    0    0  501    0  0.00000000000E+00  0.00000000000E+00 -0.66394789154E+03  0.66394789155E+03  0.50400001928E-02 0.  1.
    10030    2    1    2    0    0  0.00000000000E+00  0.00000000000E+00 -0.52824828865E+03  0.79964749454E+03  0.60032479631E+03 0.  0.
        4    1    3    3  502    0  0.56780687408E+02  0.16347395183E+02  0.12787281653E+03  0.14086998935E+03  0.12699999809E+01 0. -1.
       -4    1    3    3    0  502 -0.56780687408E+02 -0.16347395183E+02 -0.65612110517E+03  0.65877750519E+03  0.12699999809E+01 0.  1.
</event>
<event>
 5   0  0.5891927E-03  0.5927705E+03  0.7818609E-02  0.9920519E-01
        1   -1    0    0  501    0  0.00000000000E+00  0.00000000000E+00  0.21745888210E+03  0.21745888216E+03  0.50400001928E-02 0.  1.
       -1   -1    0    0    0  501  0.00000000000E+00  0.00000000000E+00 -0.40395784142E+03  0.40395784145E+03  0.50400001928E-02 0. -1.
    10030    2    1    2    0    0  0.00000000000E+00  0.00000000000E+00 -0.18649895931E+03  0.62141672361E+03  0.59277051424E+03 0.  0.
        4    1    3    3  502    0  0.69194256434E+02 -0.12571705365E+03 -0.36510768159E+03  0.39229817073E+03  0.12699999809E+01 0. -1.
       -4    1    3    3    0  502 -0.69194256434E+02  0.12571705365E+03  0.17860872227E+03  0.22911855288E+03  0.12699999809E+01 0.  1.
</event>
<event>
 5   0  0.9391405E-03  0.5995438E+03  0.7818609E-02  0.9906353E-01
       -2   -1    0    0    0  501  0.00000000000E+00  0.00000000000E+00  0.95703106177E+02  0.95703106211E+02  0.25500000920E-02 0. -1.
        2   -1    0    0  501    0  0.00000000000E+00  0.00000000000E+00 -0.93897877321E+03  0.93897877321E+03  0.25500000920E-02 0.  1.
    10030    2    1    2    0    0  0.00000000000E+00  0.00000000000E+00 -0.84327566703E+03  0.10346818794E+04  0.59954377738E+03 0.  0.
        2    1    3    3  502    0 -0.28586447202E+03 -0.90222805414E+02 -0.41796298699E+03  0.51434590450E+03  0.25500000920E-02 0.  1.
       -2    1    3    3    0  502  0.28586447202E+03  0.90222805414E+02 -0.42531268005E+03  0.52033597492E+03  0.25500000920E-02 0. -1.
</event>
<event>
 5   0  0.9303190E-03  0.6006270E+03  0.7818609E-02  0.9904106E-01
       -2   -1    0    0    0  501  0.00000000000E+00  0.00000000000E+00  0.32723485116E+03  0.32723485117E+03  0.25500000920E-02 0. -1.
        2   -1    0    0  501    0  0.00000000000E+00  0.00000000000E+00 -0.27560698385E+03  0.27560698386E+03  0.25500000920E-02 0.  1.
    10030    2    1    2    0    0  0.00000000000E+00  0.00000000000E+00  0.51627867310E+02  0.60284183504E+03  0.60062704017E+03 0.  0.
        4    1    3    3  502    0 -0.70974907500E+02 -0.17604627531E+03 -0.20776048506E+03  0.28141741346E+03  0.12699999809E+01 0.  1.
       -4    1    3    3    0  502  0.70974907500E+02  0.17604627531E+03  0.25938835237E+03  0.32142442158E+03  0.12699999809E+01 0. -1.
</event>
<event>
 5   0  0.9822607E-03  0.6002772E+03  0.7818609E-02  0.9904831E-01
        2   -1    0    0  501    0  0.00000000000E+00  0.00000000000E+00  0.68317474183E+03  0.68317474184E+03  0.25500000920E-02 0.  1.
       -2   -1    0    0    0  501  0.00000000000E+00  0.00000000000E+00 -0.13185962683E+03  0.13185962685E+03  0.25500000920E-02 0. -1.
    10030    2    1    2    0    0  0.00000000000E+00  0.00000000000E+00  0.55131511501E+03  0.81503436869E+03  0.60027715774E+03 0.  0.
        3    1    3    3  502    0 -0.59182500588E+02  0.22443064942E+03  0.17284519323E+02  0.23274546093E+03  0.10100000352E+00 0. -1.
       -3    1    3    3    0  502  0.59182500588E+02 -0.22443064942E+03  0.53403059568E+03  0.58228890776E+03  0.10100000352E+00 0.  1.
</event>
<event>
 5   0  0.5790967E-03  0.5993217E+03  0.7818609E-02  0.9906814E-01
        1   -1    0    0  501    0  0.00000000000E+00  0.00000000000E+00  0.54006826432E+03  0.54006826435E+03  0.50400001928E-02 0. -1.
       -1   -1    0    0    0  501  0.00000000000E+00  0.00000000000E+00 -0.16626903628E+03  0.16626903636E+03  0.50400001928E-02 0.  1.
    10030    2    1    2    0    0  0.00000000000E+00  0.00000000000E+00  0.37379922804E+03  0.70633730071E+03  0.59932171618E+03 0.  0.
        3    1    3    3  502    0 -0.18612157976E+03  0.22154101372E+03  0.95040191349E+02  0.30455592489E+03  0.10100000352E+00 0.  1.
       -3    1    3    3    0  502  0.18612157976E+03 -0.22154101372E+03  0.27875903669E+03  0.40178137582E+03  0.10100000352E+00 0. -1.
</event>
<event>
 5   0  0.9822607E-03  0.6007611E+03  0.7818609E-02  0.9903828E-01
       -2   -1    0    0    0  501  0.00000000000E+00  0.00000000000E+00  0.30048131713E+03  0.30048131714E+03  0.25500000920E-02 0.  1.
        2   -1    0    0  501    0  0.00000000000E+00  0.00000000000E+00 -0.30027978770E+03  0.30027978771E+03  0.25500000920E-02 0. -1.
    10030    2    1    2    0    0  0.00000000000E+00  0.00000000000E+00  0.20152943156E+00  0.60076110486E+03  0.60076107105E+03 0.  0.
        3    1    3    3  502    0 -0.88312312439E+02  0.87477513736E+01 -0.28687114594E+03  0.30028428573E+03  0.10100000352E+00 0. -1.
       -3    1    3    3    0  502  0.88312312439E+02 -0.87477513736E+01  0.28707267538E+03  0.30047681912E+03  0.10100000352E+00 0.  1.
</event>
<event>
 5   0  0.3806250E-03  0.5901563E+03  0.7818609E-02  0.9926042E-01
       -3   -1    0    0    0  501  0.00000000000E+00  0.00000000000E+00  0.91673868037E+03  0.91673868594E+03  0.10100000352E+00 0.  1.
        3   -1    0    0  501    0  0.00000000000E+00  0.00000000000E+00 -0.94979168134E+02  0.94979221835E+02  0.10100000352E+00 0. -1.
    10030    2    1    2    0    0  0.00000000000E+00  0.00000000000E+00  0.82175951224E+03  0.10117179078E+04  0.59015627503E+03 0.  0.
        4    1    3    3  502    0  0.16820124496E+03  0.43067882710E+02  0.18675473970E+01  0.17364216642E+03  0.12699999809E+01 0. -1.
       -4    1    3    3    0  502 -0.16820124496E+03 -0.43067882710E+02  0.81989196484E+03  0.83807574135E+03  0.12699999809E+01 0.  1.
</event>
<event>
 5   0  0.9391405E-03  0.6006711E+03  0.7818609E-02  0.9904015E-01
        2   -1    0    0  501    0  0.00000000000E+00  0.00000000000E+00  0.41739951616E+03  0.41739951617E+03  0.25500000920E-02 0. -1.
       -2   -1    0    0    0  501  0.00000000000E+00  0.00000000000E+00 -0.21610340481E+03  0.21610340482E+03  0.25500000920E-02 0.  1.
    10030    2    1    2    0    0  0.00000000000E+00  0.00000000000E+00  0.20129611135E+03  0.63350292099E+03  0.60067114669E+03 0.  0.
        2    1    3    3  502    0 -0.16947110857E+03  0.23952826253E+03  0.16823851222E+03  0.33822838762E+03  0.25500000920E-02 0. -1.
       -2    1    3    3    0  502  0.16947110857E+03 -0.23952826253E+03  0.33057599131E+02  0.29527453337E+03  0.25500000920E-02 0.  1.
</event>
<event>
 5   0  0.5790967E-03  0.6013647E+03  0.7818609E-02  0.9902579E-01
       -1   -1    0    0    0  501  0.00000000000E+00  0.00000000000E+00  0.41955051102E+03  0.41955051105E+03  0.50400001928E-02 0.  1.
        1   -1    0    0  501    0  0.00000000000E+00  0.00000000000E+00 -0.21549223699E+03  0.21549223705E+03  0.50400001928E-02 0. -1.
    10030    2    1    2    0    0  0.00000000000E+00  0.00000000000E+00  0.20405827403E+03  0.63504274810E+03  0.60136470857E+03 0.  0.
        3    1    3    3  502    0  0.12369170194E+03  0.26976493992E+03  0.50978117699E+02  0.30111715099E+03  0.10100000352E+00 0.  1.
       -3    1    3    3    0  502 -0.12369170194E+03 -0.26976493992E+03  0.15308015633E+03  0.33392559710E+03  0.10100000352E+00 0. -1.
</event>
<event>
 5   0  0.9162342E-03  0.5997219E+03  0.7818609E-02  0.9905983E-01
       -2   -1    0    0    0  501  0.00000000000E+00  0.00000000000E+00  0.24221317735E+03  0.24221317737E+03  0.25500000920E-02 0. -1.
        2   -1    0    0  501    0  0.00000000000E+00  0.00000000000E+00 -0.37122908419E+03  0.37122908420E+03  0.25500000920E-02 0.  1.
    10030    2    1    2    0    0  0.00000000000E+00  0.00000000000E+00 -0.12901590684E+03  0.61344226157E+03  0.59972185558E+03 0.  0.
        5    1    3    3  502    0  0.15559131490E+03  0.12156968013E+03  0.16627888606E+03  0.25818327279E+03  0.46999998093E+01 0. -1.
       -5    1    3    3    0  502 -0.15559131490E+03 -0.12156968013E+03 -0.29529479290E+03  0.35525898878E+03  0.46999998093E+01 0.  1.
</event>
<event>
 5   0  0.5819446E-03  0.5997879E+03  0.7818609E-02  0.9905846E-01
       -1   -1    0    0    0  501  0.00000000000E+00  0.00000000000E+00  0.17942573189E+03  0.17942573196E+03  0.50400001928E-02 0.  1.
        1   -1    0    0  501    0  0.00000000000E+00  0.00000000000E+00 -0.50124569756E+03  0.50124569759E+03  0.50400001928E-02 0. -1.
    10030    2    1    2    0    0  0.00000000000E+00  0.00000000000E+00 -0.32181996568E+03  0.68067142955E+03  0.59978788309E+03 0.  0.
        5    1    3    3  502    0 -0.17027710437E+03  0.23730765896E+03 -0.83898071821E+02  0.30392465140E+03  0.46999998093E+01 0.  1.
       -5    1    3    3    0  502  0.17027710437E+03 -0.23730765896E+03 -0.23792189385E+03  0.37674677815E+03  0.46999998093E+01 0. -1.
</event>
<event>
 5   0  0.9162342E-03  0.6010533E+03  0.7818609E-02  0.9903223E-01
        2   -1    0    0  501    0  0.00000000000E+00  0.00000000000E+00  0.16573653332E+04  0.16573653332E+04  0.25500000920E-02 0.  1.
       -2   -1    0    0    0  501  0.00000000000E+00  0.00000000000E+00 -0.54493870924E+02  0.54493870984E+02  0.25500000920E-02 0. -1.
    10030    2    1    2    0    0  0.00000000000E+00  0.00000000000E+00  0.16028714623E+04  0.17118592042E+04  0.60105325087E+03 0.  0.
        5    1    3    3  502    0 -0.24364864103E+03  0.13225232145E+03  0.47126714198E+03  0.54678162543E+03  0.46999998093E+01 0. -1.
       -5    1    3    3    0  502  0.24364864103E+03 -0.13225232145E+03  0.11316043203E+04  0.11650775788E+04  0.46999998093E+01 0.  1.
</event>
<event>
 5   0  0.9028473E-03  0.6006264E+03  0.7818609E-02  0.9904107E-01
        2   -1    0    0  501    0  0.00000000000E+00  0.00000000000E+00  0.10309409428E+04  0.10309409428E+04  0.25500000920E-02 0. -1.
       -2   -1    0    0    0  501  0.00000000000E+00  0.00000000000E+00 -0.87481253778E+02  0.87481253815E+02  0.25500000920E-02 0.  1.
    10030    2    1    2    0    0  0.00000000000E+00  0.00000000000E+00  0.94345968902E+03  0.11184221966E+04  0.60062636062E+03 0.  0.
        1    1    3    3  502    0  0.26421013228E+03 -0.10620384306E+03  0.64937934157E+03  0.70906965777E+03  0.50400001928E-02 0. -1.
       -1    1    3    3    0  502 -0.26421013228E+03  0.10620384306E+03  0.29408034745E+03  0.40935253885E+03  0.50400001928E-02 0.  1.
</event>
<event>
 5   0  0.9303190E-03  0.5972990E+03  0.7818609E-02  0.9911026E-01
        2   -1    0    0  501    0  0.00000000000E+00  0.00000000000E+00  0.88778279238E+03  0.88778279238E+03  0.25500000920E-02 0. -1.
       -2   -1    0    0    0  501  0.00000000000E+00  0.00000000000E+00 -0.10046547173E+03  0.10046547176E+03  0.25500000920E-02 0.  1.
    10030    2    1    2    0    0  0.00000000000E+00  0.00000000000E+00  0.78731732065E+03  0.98824826414E+03  0.59729897721E+03 0.  0.
        4    1    3    3  502    0  0.29339341489E+03 -0.55276298945E+02  0.38141749432E+03  0.48437184373E+03  0.12699999809E+01 0.  1.
       -4    1    3    3    0  502 -0.29339341489E+03  0.55276298945E+02  0.40589982634E+03  0.50387642041E+03  0.12699999809E+01 0. -1.
</event>
<event>
 5   0  0.5790967E-03  0.5907895E+03  0.7818609E-02  0.9924701E-01
        1   -1    0    0  501    0  0.00000000000E+00  0.00000000000E+00  0.49493106914E+03  0.49493106917E+03  0.50400001928E-02 0.  1.
       -1   -1    0    0    0  501  0.00000000000E+00  0.00000000000E+00 -0.17630343189E+03  0.17630343196E+03  0.50400001928E-02 0. -1.
    10030    2    1    2    0    0  0.00000000000E+00  0.00000000000E+00  0.31862763725E+03  0.67123450113E+03  0.59078945851E+03 0.  0.
        3    1    3    3  502    0  0.16951208117E+03 -0.13921498098E+03  0.38409912418E+03  0.44232036353E+03  0.10100000352E+00 0.  1.
       -3    1    3    3    0  502 -0.16951208117E+03  0.13921498098E+03 -0.65471486932E+02  0.22891413760E+03  0.10100000352E+00 0. -1.
</event>
<event>
 5   0  0.5891927E-03  0.5985625E+03  0.7818609E-02  0.9908393E-01
       -1   -1    0    0    0  501  0.00000000000E+00  0.00000000000E+00  0.86487458325E+03  0.86487458327E+03  0.50400001928E-02 0. -1.
        1   -1    0    0  501    0  0.00000000000E+00  0.00000000000E+00 -0.10356331416E+03  0.10356331428E+03  0.50400001928E-02 0.  1.
    10030    2    1    2    0    0  0.00000000000E+00  0.00000000000E+00  0.76131126909E+03  0.96843789755E+03  0.59856253889E+03 0.  0.
        4    1    3    3  502    0 -0.21934608115E+03 -0.11324743857E+03  0.65441738122E+03  0.69942934411E+03  0.12699999809E+01 0. -1.
       -4    1    3    3    0  502  0.21934608115E+03  0.11324743857E+03  0.10689388787E+03  0.26900855344E+03  0.12699999809E+01 0.  1.
</event>
<event>
 5   0  0.9028473E-03  0.5999466E+03  0.7818609E-02  0.9905517E-01
        2   -1    0    0  501    0  0.00000000000E+00  0.00000000000E+00  0.16676291213E+04  0.16676291213E+04  0.25500000920E-02 0. -1.
       -2   -1    0    0    0  501  0.00000000000E+00  0.00000000000E+00 -0.53959231780E+02  0.53959231840E+02  0.25500000920E-02 0.  1.
    10030    2    1    2    0    0  0.00000000000E+00  0.00000000000E+00  0.16136698896E+04  0.17215883532E+04  0.59994661874E+03 0.  0.
        1    1    3    3  502    0  0.37811083221E+02  0.24911641956E+03  0.12739257008E+04  0.12986051593E+04  0.50400001928E-02 0. -1.
       -1    1    3    3    0  502 -0.37811083221E+02 -0.24911641956E+03  0.33974418877E+03  0.42298319392E+03  0.50400001928E-02 0.  1.
</event>
<event>
 5   0  0.5891927E-03  0.6007507E+03  0.7818609E-02  0.9903850E-01
        1   -1    0    0  501    0  0.00000000000E+00  0.00000000000E+00  0.76042144174E+03  0.76042144175E+03  0.50400001928E-02 0.  1.
       -1   -1    0    0    0  501  0.00000000000E+00  0.00000000000E+00 -0.11865176695E+03  0.11865176706E+03  0.50400001928E-02 0. -1.
    10030    2    1    2    0    0  0.00000000000E+00  0.00000000000E+00  0.64176967479E+03  0.87907320881E+03  0.60075068953E+03 0.  0.
        4    1    3    3  502    0 -0.25221248145E+03  0.91493911067E+02  0.51851835618E+03  0.58381946709E+03  0.12699999809E+01 0.  1.
       -4    1    3    3    0  502  0.25221248145E+03 -0.91493911067E+02  0.12325131861E+03  0.29525374172E+03  0.12699999809E+01 0. -1.
</event>
<event>
 5   0  0.9303190E-03  0.5994846E+03  0.7818609E-02  0.9906476E-01
        2   -1    0    0  501    0  0.00000000000E+00  0.00000000000E+00  0.47856029351E+03  0.47856029351E+03  0.25500000920E-02 0. -1.
       -2   -1    0    0    0  501  0.00000000000E+00  0.00000000000E+00 -0.18774110461E+03  0.18774110462E+03  0.25500000920E-02 0.  1.
    10030    2    1    2    0    0  0.00000000000E+00  0.00000000000E+00  0.29081918890E+03  0.66630139814E+03  0.59948457239E+03 0.  0.
        4    1    3    3  502    0 -0.23818838858E+03 -0.95444181435E+02 -0.26778485964E+02  0.25799612484E+03  0.12699999809E+01 0.  1.
       -4    1    3    3    0  502  0.23818838858E+03  0.95444181435E+02  0.31759767486E+03  0.40830527330E+03  0.12699999809E+01 0. -1.
</event>
<event>
 5   0  0.9162342E-03  0.5999657E+03  0.7818609E-02  0.9905477E-01
       -2   -1    0    0    0  501  0.00000000000E+00  0.00000000000E+00  0.20985621492E+03  0.20985621494E+03  0.25500000920E-02 0. -1.
        2   -1    0    0  501    0  0.00000000000E+00  0.00000000000E+00 -0.42881605584E+03  0.42881605584E+03  0.25500000920E-02 0.  1.
    10030    2    1    2    0    0  0.00000000000E+00  0.00000000000E+00 -0.21895984092E+03  0.63867227078E+03  0.59996571363E+03 0.  0.
        5    1    3    3  502    0 -0.25380169733E+03 -0.36594331763E+02 -0.27512461223E+03  0.37612509746E+03  0.46999998093E+01 0.  1.
       -5    1    3    3    0  502  0.25380169733E+03  0.36594331763E+02  0.56164771316E+02  0.26254717332E+03  0.46999998093E+01 0. -1.
</event>
<event>
 5   0  0.9162342E-03  0.6010129E+03  0.7818609E-02  0.9903307E-01
        2   -1    0    0  501    0  0.00000000000E+00  0.00000000000E+00  0.76953770547E+03  0.76953770548E+03  0.25500000920E-02 0. -1.
       -2   -1    0    0    0  501  0.00000000000E+00  0.00000000000E+00 -0.11734853266E+03  0.11734853269E+03  0.25500000920E-02 0.  1.
    10030    2    1    2    0    0  0.00000000000E+00  0.00000000000E+00  0.65218917281E+03  0.88688623816E+03  0.60101288032E+03 0.  0.
        5    1    3    3  502    0 -0.49961906631E+01  0.19497863882E+03 -0.11182920850E+02  0.19541949553E+03  0.46999998093E+01 0.  1.
       -5    1    3    3    0  502  0.49961906631E+01 -0.19497863882E+03  0.66337209366E+03  0.69146674263E+03  0.46999998093E+01 0. -1.
</event>
<event>
 5   0  0.6078658E-03  0.6001108E+03  0.7818609E-02  0.9905176E-01
       -1   -1    0    0    0  501  0.00000000000E+00  0.00000000000E+00  0.15206699318E+03  0.15206699326E+03  0.50400001928E-02 0. -1.
        1   -1    0    0  501    0  0.00000000000E+00  0.00000000000E+00 -0.59206294522E+03  0.59206294524E+03  0.50400001928E-02 0.  1.
    10030    2    1    2    0    0  0.00000000000E+00  0.00000000000E+00 -0.43999595204E+03  0.74412993850E+03  0.60011076274E+03 0.  0.
        2    1    3    3  502    0  0.23599633036E+03 -0.40823162964E+02 -0.44413216197E+03  0.50459307950E+03  0.25500000920E-02 0.  1.
       -2    1    3    3    0  502 -0.23599633036E+03  0.40823162964E+02  0.41362099288E+01  0.23953685900E+03  0.25500000920E-02 0. -1.
</event>
<event>
 5   0  0.6078658E-03  0.5999145E+03  0.7818609E-02  0.9905583E-01
        1   -1    0    0  501    0  0.00000000000E+00  0.00000000000E+00  0.43194915238E+03  0.43194915241E+03  0.50400001928E-02 0. -1.
       -1   -1    0    0    0  501  0.00000000000E+00  0.00000000000E+00 -0.20829847702E+03  0.20829847708E+03  0.50400001928E-02 0.  1.
    10030    2    1    2    0    0  0.00000000000E+00  0.00000000000E+00  0.22365067536E+03  0.64024762949E+03  0.59991449598E+03 0.  0.
        2    1    3    3  502    0  0.19634264806E+03 -0.22672471266E+03  0.11657659634E+03  0.32178351977E+03  0.25500000920E-02 0.  1.
       -2    1    3    3    0  502 -0.19634264806E+03  0.22672471266E+03  0.10707407902E+03  0.31846410972E+03  0.25500000920E-02 0. -1.
</event>
<event>
 5   0  0.3806250E-03  0.6056393E+03  0.7818609E-02  0.9893775E-01
        3   -1    0    0  501    0  0.00000000000E+00  0.00000000000E+00  0.12246086510E+03  0.12246090675E+03  0.10100000352E+00 0. -1.
       -3   -1    0    0    0  501  0.00000000000E+00  0.00000000000E+00 -0.74880840011E+03  0.74880840693E+03  0.10100000352E+00 0.  1.
    10030    2    1    2    0    0  0.00000000000E+00  0.00000000000E+00 -0.62634753502E+03  0.87126931367E+03  0.60563931703E+03 0.  0.
        4    1    3    3  502    0  0.56030772760E+02  0.10515528485E+03 -0.71366420791E+03  0.72354356882E+03  0.12699999809E+01 0.  1.
       -4    1    3    3    0  502 -0.56030772760E+02 -0.10515528485E+03  0.87316672895E+02  0.14772574485E+03  0.12699999809E+01 0. -1.
</event>
<event>
 5   0  0.5765045E-03  0.6003862E+03  0.7818609E-02  0.9904605E-01
        1   -1    0    0  501    0  0.00000000000E+00  0.00000000000E+00  0.66437069594E+03  0.66437069596E+03  0.50400001928E-02 0. -1.
       -1   -1    0    0    0  501  0.00000000000E+00  0.00000000000E+00 -0.13564099871E+03  0.13564099880E+03  0.50400001928E-02 0.  1.
    10030    2    1    2    0    0  0.00000000000E+00  0.00000000000E+00  0.52872969723E+03  0.80001169477E+03  0.60038622488E+03 0.  0.
        1    1    3    3  502    0  0.29687731588E+03  0.37787701166E+02  0.23306245191E+03  0.37931801639E+03  0.50400001928E-02 0. -1.
       -1    1    3    3    0  502 -0.29687731588E+03 -0.37787701166E+02  0.29566724532E+03  0.42069367837E+03  0.50400001928E-02 0.  1.
</event>
<event>
 5   0  0.9162342E-03  0.6007462E+03  0.7818609E-02  0.9903859E-01
       -2   -1    0    0    0  501  0.00000000000E+00  0.00000000000E+00  0.14367809138E+03  0.14367809140E+03  0.25500000920E-02 0.  1.
        2   -1    0    0  501    0  0.00000000000E+00  0.00000000000E+00 -0.62795930299E+03  0.62795930300E+03  0.25500000920E-02 0. -1.
    10030    2    1    2    0    0  0.00000000000E+00  0.00000000000E+00 -0.48428121161E+03  0.77163739440E+03  0.60074618311E+03 0.  0.
        5    1    3    3  502    0  0.12228775800E+03 -0.25404497582E+03 -0.37506105820E+03  0.46923984579E+03  0.46999998093E+01 0.  1.
       -5    1    3    3    0  502 -0.12228775800E+03  0.25404497582E+03 -0.10922015341E+03  0.30239754862E+03  0.46999998093E+01 0. -1.
</event>
<event>
 5   0  0.9303190E-03  0.6007260E+03  0.7818609E-02  0.9903901E-01
       -2   -1    0    0    0  501  0.00000000000E+00  0.00000000000E+00  0.54887263669E+03  0.54887263669E+03  0.25500000920E-02 0.  1.
        2   -1    0    0  501    0  0.00000000000E+00  0.00000000000E+00 -0.16436951562E+03  0.16436951564E+03  0.25500000920E-02 0. -1.
    10030    2    1    2    0    0  0.00000000000E+00  0.00000000000E+00  0.38450312107E+03  0.71324215233E+03  0.60072599224E+03 0.  0.
        4    1    3    3  502    0 -0.21540599824E+03 -0.20786158100E+03  0.16292414694E+03  0.34081090283E+03  0.12699999809E+01 0. -1.
       -4    1    3    3    0  502  0.21540599824E+03  0.20786158100E+03  0.22157897413E+03  0.37243124950E+03  0.12699999809E+01 0.  1.
</event>
<event>
 5   0  0.9028473E-03  0.5976169E+03  0.7818609E-02  0.9910363E-01
       -2   -1    0    0    0  501  0.00000000000E+00  0.00000000000E+00  0.63336159538E+02  0.63336159590E+02  0.25500000920E-02 0. -1.
        2   -1    0    0  501    0  0.00000000000E+00  0.00000000000E+00 -0.14097235371E+04  0.14097235371E+04  0.25500000920E-02 0.  1.
    10030    2    1    2    0    0  0.00000000000E+00  0.00000000000E+00 -0.13463873776E+04  0.14730596967E+04  0.59761685013E+03 0.  0.
        1    1    3    3  502    0  0.15444002752E+03 -0.24260353096E+03 -0.87311250664E+03  0.91925711561E+03  0.50400001928E-02 0.  1.
       -1    1    3    3    0  502 -0.15444002752E+03  0.24260353096E+03 -0.47327487093E+03  0.55380258108E+03  0.50400001928E-02 0. -1.
</event>
<event>
 5   0  0.9028473E-03  0.5999924E+03  0.7818609E-02  0.9905422E-01
        2   -1    0    0  501    0  0.00000000000E+00  0.00000000000E+00  0.45595270227E+03  0.45595270227E+03  0.25500000920E-02 0. -1.
       -2   -1    0    0    0  501  0.00000000000E+00  0.00000000000E+00 -0.19738387588E+03  0.19738387590E+03  0.25500000920E-02 0.  1.
    10030    2    1    2    0    0  0.00000000000E+00  0.00000000000E+00  0.25856882638E+03  0.65333657817E+03  0.59999237195E+03 0.  0.
        1    1    3    3  502    0 -0.22580226686E+03 -0.13287916931E+03 -0.29838468578E+02  0.26369275983E+03  0.50400001928E-02 0.  1.
       -1    1    3    3    0  502  0.22580226686E+03  0.13287916931E+03  0.28840729496E+03  0.38964381834E+03  0.50400001928E-02 0. -1.
</event>
<event>
 5   0  0.6078658E-03  0.6007823E+03  0.7818609E-02  0.9903784E-01
        1   -1    0    0  501    0  0.00000000000E+00  0.00000000000E+00  0.10106085279E+04  0.10106085279E+04  0.50400001928E-02 0.  1.
       -1   -1    0    0    0  501  0.00000000000E+00  0.00000000000E+00 -0.89287626362E+02  0.89287626504E+02  0.50400001928E-02 0. -1.
    10030    2    1    2    0    0  0.00000000000E+00  0.00000000000E+00  0.92132090152E+03  0.10998961544E+04  0.60078227910E+03 0.  0.
        2    1    3    3  502    0 -0.86437669984E+02 -0.87096800356E+02  0.96263135816E+03  0.97042076191E+03  0.25500000920E-02 0.  1.
       -2    1    3    3    0  502  0.86437669984E+02  0.87096800356E+02 -0.41310456644E+02  0.12947539248E+03  0.25500000920E-02 0. -1.
</event>
<event>
 5   0  0.5819446E-03  0.5998545E+03  0.7818609E-02  0.9905708E-01
       -1   -1    0    0    0  501  0.00000000000E+00  0.00000000000E+00  0.17042204413E+03  0.17042204421E+03  0.50400001928E-02 0.  1.
        1   -1    0    0  501    0  0.00000000000E+00  0.00000000000E+00 -0.52784466773E+03  0.52784466775E+03  0.50400001928E-02 0. -1.
    10030    2    1    2    0    0  0.00000000000E+00  0.00000000000E+00 -0.35742262360E+03  0.69826671196E+03  0.59985454001E+03 0.  0.
        5    1    3    3  502    0  0.26814066544E+03 -0.13425689424E+03 -0.17503996521E+03  0.34725409938E+03  0.46999998093E+01 0.  1.
       -5    1    3    3    0  502 -0.26814066544E+03  0.13425689424E+03 -0.18238265838E+03  0.35101261258E+03  0.46999998093E+01 0. -1.
</event>
<event>
 5   0  0.9162342E-03  0.6093902E+03  0.7818609E-02  0.9886114E-01
       -2   -1    0    0    0  501  0.00000000000E+00  0.00000000000E+00  0.29293433354E+03  0.29293433355E+03  0.25500000920E-02 0. -1.
        2   -1    0    0  501    0  0.00000000000E+00  0.00000000000E+00 -0.31692800244E+03  0.31692800245E+03  0.25500000920E-02 0.  1.
    10030    2    1    2    0    0  0.00000000000E+00  0.00000000000E+00 -0.23993668901E+02  0.60986233601E+03  0.60939016462E+03 0.  0.
        5    1    3    3  502    0  0.49338728884E+02  0.30048160212E+03 -0.21673856383E+02  0.30531188878E+03  0.46999998093E+01 0. -1.
       -5    1    3    3    0  502 -0.49338728884E+02 -0.30048160212E+03 -0.23198125176E+01  0.30455044723E+03  0.46999998093E+01 0.  1.
</event>
<event>
 5   0  0.5891927E-03  0.5993126E+03  0.7818609E-02  0.9906833E-01
        1   -1    0    0  501    0  0.00000000000E+00  0.00000000000E+00  0.70852188472E+03  0.70852188473E+03  0.50400001928E-02 0.  1.
       -1   -1    0    0    0  501  0.00000000000E+00  0.00000000000E+00 -0.12673412019E+03  0.12673412029E+03  0.50400001928E-02 0. -1.
    10030    2    1    2    0    0  0.00000000000E+00  0.00000000000E+00  0.58178776453E+03  0.83525600502E+03  0.59931259871E+03 0.  0.
        4    1    3    3  502    0 -0.27689113012E+03 -0.44426728934E+02  0.43805760429E+03  0.52013316541E+03  0.12699999809E+01 0.  1.
       -4    1    3    3    0  502  0.27689113012E+03  0.44426728934E+02  0.14373016023E+03  0.31512283961E+03  0.12699999809E+01 0. -1.
</event>
<event>
 5   0  0.9391405E-03  0.6002180E+03  0.7818609E-02  0.9904954E-01
       -2   -1    0    0    0  501  0.00000000000E+00  0.00000000000E+00  0.10144268995E+03  0.10144268998E+03  0.25500000920E-02 0.  1.
        2   -1    0    0  501    0  0.00000000000E+00  0.00000000000E+00 -0.88784527501E+03  0.88784527501E+03  0.25500000920E-02 0. -1.
    10030    2    1    2    0    0  0.00000000000E+00  0.00000000000E+00 -0.78640258506E+03  0.98928796499E+03  0.60021800364E+03 0.  0.
        2    1    3    3  502    0 -0.38797472550E+01 -0.29934121804E+03 -0.42797805856E+03  0.52228865187E+03  0.25500000920E-02 0. -1.
       -2    1    3    3    0  502  0.38797472550E+01  0.29934121804E+03 -0.35842452650E+03  0.46699931312E+03  0.25500000920E-02 0.  1.
</event>
<event>
 5   0  0.5765045E-03  0.6010241E+03  0.7818609E-02  0.9903284E-01
       -1   -1    0    0    0  501  0.00000000000E+00  0.00000000000E+00  0.56105046755E+02  0.56105046981E+02  0.50400001928E-02 0.  1.
        1   -1    0    0  501    0  0.00000000000E+00  0.00000000000E+00 -0.16096142531E+04  0.16096142531E+04  0.50400001928E-02 0. -1.
    10030    2    1    2    0    0  0.00000000000E+00  0.00000000000E+00 -0.15535092063E+04  0.16657193001E+04  0.60102406981E+03 0.  0.
        1    1    3    3  502    0 -0.20747640533E+03 -0.23755936595E+02 -0.13756527292E+04  0.13914133946E+04  0.50400001928E-02 0. -1.
       -1    1    3    3    0  502  0.20747640533E+03  0.23755936595E+02 -0.17785647710E+03  0.27430590544E+03  0.50400001928E-02 0.  1.
</event>
<event>
 5   0  0.9822607E-03  0.5996079E+03  0.7818609E-02  0.9906220E-01
        2   -1    0    0  501    0  0.00000000000E+00  0.00000000000E+00  0.19836762166E+04  0.19836762166E+04  0.25500000920E-02 0.  1.
       -2   -1    0    0    0  501  0.00000000000E+00  0.00000000000E+00 -0.45311023521E+02  0.45311023593E+02  0.25500000920E-02 0. -1.
    10030    2    1    2    0    0  0.00000000000E+00  0.00000000000E+00  0.19383651931E+04  0.20289872402E+04  0.59960787114E+03 0.  0.
        3    1    3    3  502    0 -0.10127838637E+03  0.26707532473E+03  0.66097566004E+03  0.72005234115E+03  0.10100000352E+00 0.  1.
       -3    1    3    3    0  502  0.10127838637E+03 -0.26707532473E+03  0.12773895330E+04  0.13089348990E+04  0.10100000352E+00 0. -1.
</event>
<event>
 5   0  0.9162342E-03  0.6008004E+03  0.7818609E-02  0.9903747E-01
        2   -1    0    0  501    0  0.00000000000E+00  0.00000000000E+00  0.22429276626E+03  0.22429276627E+03  0.25500000920E-02 0. -1.
       -2   -1    0    0    0  501  0.00000000000E+00  0.00000000000E+00 -0.40233259764E+03  0.40233259765E+03  0.25500000920E-02 0.  1.
    10030    2    1    2    0    0  0.00000000000E+00  0.00000000000E+00 -0.17803983138E+03  0.62662536392E+03  0.60080043704E+03 0.  0.
        5    1    3    3  502    0 -0.27475194064E+03  0.12528942863E+02 -0.21492585638E+03  0.34908568724E+03  0.46999998093E+01 0.  1.
       -5    1    3    3    0  502  0.27475194064E+03 -0.12528942863E+02  0.36886024999E+02  0.27753967668E+03  0.46999998093E+01 0. -1.
</event>
<event>
 5   0  0.5765045E-03  0.6055340E+03  0.7818609E-02  0.9893991E-01
        1   -1    0    0  501    0  0.00000000000E+00  0.00000000000E+00  0.71721053709E+03  0.71721053710E+03  0.50400001928E-02 0.  1.
       -1   -1    0    0    0  501  0.00000000000E+00  0.00000000000E+00 -0.12781165609E+03  0.12781165619E+03  0.50400001928E-02 0. -1.
    10030    2    1    2    0    0  0.00000000000E+00  0.00000000000E+00  0.58939888099E+03  0.84502219330E+03  0.60553403393E+03 0.  0.
        1    1    3    3  502    0  0.29025217752E+03 -0.70670480878E+02  0.36345129343E+03  0.47046518059E+03  0.50400001928E-02 0.  1.
       -1    1    3    3    0  502 -0.29025217752E+03  0.70670480878E+02  0.22594758756E+03  0.37455701271E+03  0.50400001928E-02 0. -1.
</event>
<event>
 5   0  0.5891927E-03  0.5986748E+03  0.7818609E-02  0.9908159E-01
       -1   -1    0    0    0  501  0.00000000000E+00  0.00000000000E+00  0.13313360350E+03  0.13313360360E+03  0.50400001928E-02 0. -1.
        1   -1    0    0  501    0  0.00000000000E+00  0.00000000000E+00 -0.67302976435E+03  0.67302976437E+03  0.50400001928E-02 0.  1.
    10030    2    1    2    0    0  0.00000000000E+00  0.00000000000E+00 -0.53989616085E+03  0.80616336796E+03  0.59867479599E+03 0.  0.
        4    1    3    3  502    0 -0.69038835341E+02 -0.26435041971E+03 -0.43461535007E+03  0.51336110157E+03  0.12699999809E+01 0.  1.
       -4    1    3    3    0  502  0.69038835341E+02  0.26435041971E+03 -0.10528081078E+03  0.29280226640E+03  0.12699999809E+01 0. -1.
</event>
<event>
 5   0  0.5819446E-03  0.6006961E+03  0.7818609E-02  0.9903963E-01
       -1   -1    0    0    0  501  0.00000000000E+00  0.00000000000E+00  0.38580213181E+03  0.38580213184E+03  0.50400001928E-02 0.  1.
        1   -1    0    0  501    0  0.00000000000E+00  0.00000000000E+00 -0.23382180038E+03  0.23382180043E+03  0.50400001928E-02 0. -1.
    10030    2    1    2    0    0  0.00000000000E+00  0.00000000000E+00  0.15198033143E+03  0.61962393228E+03  0.60069609314E+03 0.  0.
        5    1    3    3  502    0  0.23169601352E+03  0.65932760727E+02 -0.10898312742E+03  0.26444202329E+03  0.46999998093E+01 0. -1.
       -5    1    3    3    0  502 -0.23169601352E+03 -0.65932760727E+02  0.26096345885E+03  0.35518190899E+03  0.46999998093E+01 0.  1.
</event>
<event>
 5   0  0.5819446E-03  0.5974758E+03  0.7818609E-02  0.9910657E-01
        1   -1    0    0  501    0  0.00000000000E+00  0.00000000000E+00  0.33606261904E+03  0.33606261908E+03  0.50400001928E-02 0. -1.
       -1   -1    0    0    0  501  0.00000000000E+00  0.00000000000E+00 -0.26555864075E+03  0.26555864080E+03  0.50400001928E-02 0.  1.
    10030    2    1    2    0    0  0.00000000000E+00  0.00000000000E+00  0.70503978290E+02  0.60162125987E+03  0.59747579815E+03 0.  0.
        5    1    3    3  502    0  0.25580595709E+03  0.89920471929E+02 -0.90916468329E+02  0.28602495200E+03  0.46999998093E+01 0.  1.
       -5    1    3    3    0  502 -0.25580595709E+03 -0.89920471929E+02  0.16142044662E+03  0.31559630787E+03  0.46999998093E+01 0. -1.
</event>
<event>
 5   0  0.9162342E-03  0.5998137E+03  0.7818609E-02  0.9905793E-01
       -2   -1    0    0    0  501  0.00000000000E+00  0.00000000000E+00  0.18136233669E+03  0.18136233670E+03  0.25500000920E-02 0. -1.
        2   -1    0    0  501    0  0.00000000000E+00  0.00000000000E+00 -0.49593596225E+03  0.49593596226E+03  0.25500000920E-02 0.  1.
    10030    2    1    2    0    0  0.00000000000E+00  0.00000000000E+00 -0.31457362557E+03  0.67729829896E+03  0.59981365429E+03 0.  0.
        5    1    3    3  502    0 -0.22238815467E+03  0.32618443218E+02 -0.38142731970E+03  0.44275201229E+03  0.46999998093E+01 0.  1.
       -5    1    3    3    0  502  0.22238815467E+03 -0.32618443218E+02  0.66853694138E+02  0.23454628667E+03  0.46999998093E+01 0. -1.
</event>
<event>
 5   0  0.9162342E-03  0.5998626E+03  0.7818609E-02  0.9905691E-01
        2   -1    0    0  501    0  0.00000000000E+00  0.00000000000E+00  0.38818475029E+03  0.38818475029E+03  0.25500000920E-02 0. -1.
       -2   -1    0    0    0  501  0.00000000000E+00  0.00000000000E+00 -0.23174220715E+03  0.23174220716E+03  0.25500000920E-02 0.  1.
    10030    2    1    2    0    0  0.00000000000E+00  0.00000000000E+00  0.15644254314E+03  0.61992695746E+03  0.59986262034E+03 0.  0.
        5    1    3    3  502    0 -0.12219569130E+03  0.26713234997E+03  0.15826143523E+02  0.29421766804E+03  0.46999998093E+01 0.  1.
       -5    1    3    3    0  502  0.12219569130E+03 -0.26713234997E+03  0.14061639962E+03  0.32570928941E+03  0.46999998093E+01 0. -1.
</event>
<event>
 5   0  0.9822607E-03  0.6002913E+03  0.7818609E-02  0.9904802E-01
       -2   -1    0    0    0  501  0.00000000000E+00  0.00000000000E+00  0.19497229489E+03  0.19497229491E+03  0.25500000920E-02 0.  1.
        2   -1    0    0  501    0  0.00000000000E+00  0.00000000000E+00 -0.46205233765E+03  0.46205233765E+03  0.25500000920E-02 0. -1.
    10030    2    1    2    0    0  0.00000000000E+00  0.00000000000E+00 -0.26708004275E+03  0.65702463256E+03  0.60029127810E+03 0.  0.
        3    1    3    3  502    0  0.24913633753E+03  0.25589151444E+02  0.47513439655E+02  0.25491421399E+03  0.10100000352E+00 0.  1.
       -3    1    3    3    0  502 -0.24913633753E+03 -0.25589151444E+02 -0.31459348241E+03  0.40211041857E+03  0.10100000352E+00 0. -1.
</event>
<event>
 5   0  0.9162342E-03  0.6000119E+03  0.7818609E-02  0.9905381E-01
        2   -1    0    0  501    0  0.00000000000E+00  0.00000000000E+00  0.11064498109E+04  0.11064498109E+04  0.25500000920E-02 0. -1.
       -2   -1    0    0    0  501  0.00000000000E+00  0.00000000000E+00 -0.81344463061E+02  0.81344463101E+02  0.25500000920E-02 0.  1.
    10030    2    1    2    0    0  0.00000000000E+00  0.00000000000E+00  0.10251053479E+04  0.11877942740E+04  0.60001188588E+03 0.  0.
        5    1    3    3  502    0 -0.56876148976E+02 -0.28933797806E+03  0.62152365296E+03  0.68794265971E+03  0.46999998093E+01 0. -1.
       -5    1    3    3    0  502  0.56876148976E+02  0.28933797806E+03  0.40358169489E+03  0.49985161430E+03  0.46999998093E+01 0.  1.
</event>
<event>
 5   0  0.6078658E-03  0.6005232E+03  0.7818609E-02  0.9904321E-01
       -1   -1    0    0    0  501  0.00000000000E+00  0.00000000000E+00  0.54641019706E+02  0.54641019938E+02  0.50400001928E-02 0. -1.
        1   -1    0    0  501    0  0.00000000000E+00  0.00000000000E+00 -0.16499879179E+04  0.16499879179E+04  0.50400001928E-02 0.  1.
    10030    2    1    2    0    0  0.00000000000E+00  0.00000000000E+00 -0.15953468982E+04  0.17046289378E+04  0.60052318037E+03 0.  0.
        2    1    3    3  502    0 -0.22580052864E+02  0.83205752812E+02  0.18750537254E+02  0.88230599806E+02  0.25500000920E-02 0. -1.
       -2    1    3    3    0  502  0.22580052864E+02 -0.83205752812E+02 -0.16140974354E+04  0.16163983380E+04  0.25500000920E-02 0.  1.
</event>
<event>
 5   0  0.9822607E-03  0.5991960E+03  0.7818609E-02  0.9907075E-01
       -2   -1    0    0    0  501  0.00000000000E+00  0.00000000000E+00  0.95513295406E+03  0.95513295406E+03  0.25500000920E-02 0.  1.
        2   -1    0    0  501    0  0.00000000000E+00  0.00000000000E+00 -0.93975365426E+02  0.93975365461E+02  0.25500000920E-02 0. -1.
    10030    2    1    2    0    0  0.00000000000E+00  0.00000000000E+00  0.86115758863E+03  0.10491083195E+04  0.59919602271E+03 0.  0.
        3    1    3    3  502    0  0.20192687537E+03 -0.21880576712E+03  0.37228458382E+03  0.47670352241E+03  0.10100000352E+00 0. -1.
       -3    1    3    3    0  502 -0.20192687537E+03  0.21880576712E+03  0.48887300481E+03  0.57240479712E+03  0.10100000352E+00 0.  1.
</event>
<event>
 5   0  0.9303190E-03  0.5997768E+03  0.7818609E-02  0.9905869E-01
        2   -1    0    0  501    0  0.00000000000E+00  0.00000000000E+00  0.14350991973E+04  0.14350991973E+04  0.25500000920E-02 0.  1.
       -2   -1    0    0    0  501  0.00000000000E+00  0.00000000000E+00 -0.62666774306E+02  0.62666774358E+02  0.25500000920E-02 0. -1.
    10030    2    1    2    0    0  0.00000000000E+00  0.00000000000E+00  0.13724324230E+04  0.14977659716E+04  0.59977675027E+03 0.  0.
        4    1    3    3  502    0  0.12238510960E+03  0.18988616294E+03  0.11787203682E+04  0.12001742328E+04  0.12699999809E+01 0.  1.
       -4    1    3    3    0  502 -0.12238510960E+03 -0.18988616294E+03  0.19371205481E+03  0.29759173881E+03  0.12699999809E+01 0. -1.
</event>
<event>
 5   0  0.9822607E-03  0.6000611E+03  0.7818609E-02  0.9905279E-01
        2   -1    0    0  501    0  0.00000000000E+00  0.00000000000E+00  0.55091645886E+03  0.55091645887E+03  0.25500000920E-02 0. -1.
       -2   -1    0    0    0  501  0.00000000000E+00  0.00000000000E+00 -0.16339740662E+03  0.16339740664E+03  0.25500000920E-02 0.  1.
    10030    2    1    2    0    0  0.00000000000E+00  0.00000000000E+00  0.38751905225E+03  0.71431386550E+03  0.60006106572E+03 0.  0.
        3    1    3    3  502    0  0.24022551112E+02  0.57393925031E+02 -0.15563341445E+03  0.16760941348E+03  0.10100000352E+00 0.  1.
       -3    1    3    3    0  502 -0.24022551112E+02 -0.57393925031E+02  0.54315246669E+03  0.54670445203E+03  0.10100000352E+00 0. -1.
</event>
<event>
 5   0  0.3806250E-03  0.5999430E+03  0.7818609E-02  0.9905524E-01
        4   -1    0    0  501    0  0.00000000000E+00  0.00000000000E+00  0.13372476022E+03  0.13373079076E+03  0.12699999809E+01 0. -1.
       -4   -1    0    0    0  501  0.00000000000E+00  0.00000000000E+00 -0.67287462562E+03  0.67287582413E+03  0.12699999809E+01 0.  1.
    10030    2    1    2    0    0  0.00000000000E+00  0.00000000000E+00 -0.53914986539E+03  0.80660661489E+03  0.59994304216E+03 0.  0.
        1    1    3    3  502    0 -0.24314394445E+02 -0.18482891295E+03  0.46390277432E+02  0.19210667533E+03  0.50400001928E-02 0. -1.
       -1    1    3    3    0  502  0.24314394445E+02  0.18482891295E+03 -0.58554014283E+03  0.61449993956E+03  0.50400001928E-02 0.  1.
</event>
<event>
 5   0  0.9391405E-03  0.6012533E+03  0.7818609E-02  0.9902809E-01
       -2   -1    0    0    0  501  0.00000000000E+00  0.00000000000E+00  0.53438344825E+02  0.53438344886E+02  0.25500000920E-02 0.  1.
        2   -1    0    0  501    0  0.00000000000E+00  0.00000000000E+00 -0.16912273515E+04  0.16912273515E+04  0.25500000920E-02 0. -1.
    10030    2    1    2    0    0  0.00000000000E+00  0.00000000000E+00 -0.16377890066E+04  0.17446656964E+04  0.60125332578E+03 0.  0.
        2    1    3    3  502    0 -0.40244541353E+02 -0.10663464632E+03 -0.16261024403E+04  0.16300919352E+04  0.25500000920E-02 0. -1.
       -2    1    3    3    0  502  0.40244541353E+02  0.10663464632E+03 -0.11686566354E+02  0.11457376115E+03  0.25500000920E-02 0.  1.
</event>
<event>
 5   0  0.6078658E-03  0.6002741E+03  0.7818609E-02  0.9904838E-01
        1   -1    0    0  501    0  0.00000000000E+00  0.00000000000E+00  0.16650688168E+04  0.16650688168E+04  0.50400001928E-02 0.  1.
       -1   -1    0    0    0  501  0.00000000000E+00  0.00000000000E+00 -0.54101218399E+02  0.54101218633E+02  0.50400001928E-02 0. -1.
    10030    2    1    2    0    0  0.00000000000E+00  0.00000000000E+00  0.16109675984E+04  0.17191700354E+04  0.60027411043E+03 0.  0.
        2    1    3    3  502    0 -0.22482263720E+03 -0.43591611571E+02  0.24986670962E+03  0.33893778099E+03  0.25500000920E-02 0. -1.
       -2    1    3    3    0  502  0.22482263720E+03  0.43591611571E+02  0.13611008888E+04  0.13802322544E+04  0.25500000920E-02 0.  1.
</event>
<event>
 5   0  0.6078658E-03  0.5992790E+03  0.7818609E-02  0.9906903E-01
       -1   -1    0    0    0  501  0.00000000000E+00  0.00000000000E+00  0.60313422353E+02  0.60313422563E+02  0.50400001928E-02 0. -1.
        1   -1    0    0  501    0  0.00000000000E+00  0.00000000000E+00 -0.14886211933E+04  0.14886211933E+04  0.50400001928E-02 0.  1.
    10030    2    1    2    0    0  0.00000000000E+00  0.00000000000E+00 -0.14283077709E+04  0.15489346158E+04  0.59927902991E+03 0.  0.
        2    1    3    3  502    0 -0.23158768960E+03  0.11294441070E+03 -0.31882252297E+03  0.40992328433E+03  0.25500000920E-02 0. -1.
       -2    1    3    3    0  502  0.23158768960E+03 -0.11294441070E+03 -0.11094852479E+04  0.11390113315E+04  0.25500000920E-02 0.  1.
</event>
<event>
 5   0  0.9303190E-03  0.6024313E+03  0.7818609E-02  0.9900375E-01
       -2   -1    0    0    0  501  0.00000000000E+00  0.00000000000E+00  0.24541760182E+03  0.24541760184E+03  0.25500000920E-02 0.  1.
        2   -1    0    0  501    0  0.00000000000E+00  0.00000000000E+00 -0.36969992719E+03  0.36969992720E+03  0.25500000920E-02 0. -1.
    10030    2    1    2    0    0  0.00000000000E+00  0.00000000000E+00 -0.12428232536E+03  0.61511752903E+03  0.60243130573E+03 0.  0.
        4    1    3    3  502    0 -0.17424557097E+02  0.29073771367E+03 -0.14055168689E+03  0.32340133414E+03  0.12699999809E+01 0. -1.
       -4    1    3    3    0  502  0.17424557097E+02 -0.29073771367E+03  0.16269361523E+02  0.29171619489E+03  0.12699999809E+01 0.  1.
</event>
<event>
 5   0  0.3806250E-03  0.6003044E+03  0.7818609E-02  0.9904775E-01
       -3   -1    0    0    0  501  0.00000000000E+00  0.00000000000E+00  0.27362468402E+03  0.27362470266E+03  0.10100000352E+00 0.  1.
        3   -1    0    0  501    0  0.00000000000E+00  0.00000000000E+00 -0.32925145924E+03  0.32925147473E+03  0.10100000352E+00 0. -1.
    10030    2    1    2    0    0  0.00000000000E+00  0.00000000000E+00 -0.55626775223E+02  0.60287617740E+03  0.60030437875E+03 0.  0.
        5    1    3    3  502    0  0.28230873384E+03  0.59109403945E+01  0.74288712897E+02  0.29201723114E+03  0.46999998093E+01 0.  1.
       -5    1    3    3    0  502 -0.28230873384E+03 -0.59109403945E+01 -0.12991548812E+03  0.31085894626E+03  0.46999998093E+01 0. -1.
</event>
<event>
 5   0  0.5790967E-03  0.6001492E+03  0.7818609E-02  0.9905096E-01
        1   -1    0    0  501    0  0.00000000000E+00  0.00000000000E+00  0.65966711984E+03  0.65966711986E+03  0.50400001928E-02 0.  1.
       -1   -1    0    0    0  501  0.00000000000E+00  0.00000000000E+00 -0.13650032680E+03  0.13650032689E+03  0.50400001928E-02 0. -1.
    10030    2    1    2    0    0  0.00000000000E+00  0.00000000000E+00  0.52316679304E+03  0.79616744675E+03  0.60014923971E+03 0.  0.
        3    1    3    3  502    0 -0.44031128458E+02 -0.18022602297E+03  0.57446399705E+03  0.60367959526E+03  0.10100000352E+00 0.  1.
       -3    1    3    3    0  502  0.44031128458E+02  0.18022602297E+03 -0.51297204010E+02  0.19248785149E+03  0.10100000352E+00 0. -1.
</event>
<event>
 5   0  0.3806250E-03  0.5990553E+03  0.7818609E-02  0.9907368E-01
        4   -1    0    0  501    0  0.00000000000E+00  0.00000000000E+00  0.22896582116E+03  0.22896934327E+03  0.12699999809E+01 0. -1.
       -4   -1    0    0    0  501  0.00000000000E+00  0.00000000000E+00 -0.39182742154E+03  0.39182947972E+03  0.12699999809E+01 0.  1.
    10030    2    1    2    0    0  0.00000000000E+00  0.00000000000E+00 -0.16286160039E+03  0.62079882299E+03  0.59905532110E+03 0.  0.
        2    1    3    3  502    0 -0.28868077807E+03 -0.48336009813E+02 -0.15531333377E+02  0.29311121404E+03  0.25500000920E-02 0. -1.
       -2    1    3    3    0  502  0.28868077807E+03  0.48336009813E+02 -0.14733026701E+03  0.32768760895E+03  0.25500000920E-02 0.  1.
</event>
<event>
 5   0  0.9028473E-03  0.6008611E+03  0.7818609E-02  0.9903621E-01
        2   -1    0    0  501    0  0.00000000000E+00  0.00000000000E+00  0.26509325236E+03  0.26509325237E+03  0.25500000920E-02 0. -1.
       -2   -1    0    0    0  501  0.00000000000E+00  0.00000000000E+00 -0.34047836742E+03  0.34047836743E+03  0.25500000920E-02 0.  1.
    10030    2    1    2    0    0  0.00000000000E+00  0.00000000000E+00 -0.75385115058E+02  0.60557161980E+03  0.60086110803E+03 0.  0.
        1    1    3    3  502    0  0.15590613973E+01 -0.16904744867E+03  0.21260709542E+03  0.27162703773E+03  0.50400001928E-02 0. -1.
       -1    1    3    3    0  502 -0.15590613973E+01  0.16904744867E+03 -0.28799221048E+03  0.33394458208E+03  0.50400001928E-02 0.  1.
</event>
<event>
 5   0  0.9822607E-03  0.6003058E+03  0.7818609E-02  0.9904772E-01
        2   -1    0    0  501    0  0.00000000000E+00  0.00000000000E+00  0.53339480161E+03  0.53339480162E+03  0.25500000920E-02 0. -1.
       -2   -1    0    0    0  501  0.00000000000E+00  0.00000000000E+00 -0.16890261193E+03  0.16890261194E+03  0.25500000920E-02 0.  1.
    10030    2    1    2    0    0  0.00000000000E+00  0.00000000000E+00  0.36449218969E+03  0.70229741356E+03  0.60030583935E+03 0.  0.
        3    1    3    3  502    0  0.13587539949E+03  0.14426772307E+02  0.49489939137E+03  0.51341569291E+03  0.10100000352E+00 0. -1.
       -3    1    3    3    0  502 -0.13587539949E+03 -0.14426772307E+02 -0.13040720168E+03  0.18888172065E+03  0.10100000352E+00 0.  1.
</event>
<event>
 5   0  0.9303190E-03  0.5982947E+03  0.7818609E-02  0.9908950E-01
       -2   -1    0    0    0  501  0.00000000000E+00  0.00000000000E+00  0.12000544811E+03  0.12000544814E+03  0.25500000920E-02 0.  1.
        2   -1    0    0  501    0  0.00000000000E+00  0.00000000000E+00 -0.74570892069E+03  0.74570892069E+03  0.25500000920E-02 0. -1.
    10030    2    1    2    0    0  0.00000000000E+00  0.00000000000E+00 -0.62570347257E+03  0.86571436883E+03  0.59829468726E+03 0.  0.
        4    1    3    3  502    0  0.37397214826E+02 -0.12762567287E+03  0.74873158025E+02  0.15262524937E+03  0.12699999809E+01 0.  1.
       -4    1    3    3    0  502 -0.37397214826E+02  0.12762567287E+03 -0.70057663060E+03  0.71308911946E+03  0.12699999809E+01 0. -1.
</event>
<event>
 5   0  0.5765045E-03  0.6005505E+03  0.7818609E-02  0.9904265E-01
       -1   -1    0    0    0  501  0.00000000000E+00  0.00000000000E+00  0.11711009169E+03  0.11711009180E+03  0.50400001928E-02 0.  1.
        1   -1    0    0  501    0  0.00000000000E+00  0.00000000000E+00 -0.76991851137E+03  0.76991851139E+03  0.50400001928E-02 0. -1.
    10030    2    1    2    0    0  0.00000000000E+00  0.00000000000E+00 -0.65280841968E+03  0.88702860319E+03  0.60055050584E+03 0.  0.
        1    1    3    3  502    0  0.87698821314E+01  0.19472344460E+03  0.10963156392E+02  0.19522889523E+03  0.50400001928E-02 0.  1.
       -1    1    3    3    0  502 -0.87698821314E+01 -0.19472344460E+03 -0.66377157607E+03  0.69179970796E+03  0.50400001928E-02 0. -1.
</event>
<event>
 5   0  0.9303190E-03  0.5960005E+03  0.7818609E-02  0.9913739E-01
       -2   -1    0    0    0  501  0.00000000000E+00  0.00000000000E+00  0.10839516944E+04  0.10839516944E+04  0.25500000920E-02 0.  1.
        2   -1    0    0  501    0  0.00000000000E+00  0.00000000000E+00 -0.81926308482E+02  0.81926308521E+02  0.25500000920E-02 0. -1.
    10030    2    1    2    0    0  0.00000000000E+00  0.00000000000E+00  0.10020253859E+04  0.11658780029E+04  0.59600054000E+03 0.  0.
        4    1    3    3  502    0  0.15127875947E+03 -0.88088193280E+02  0.29264470392E+02  0.17749032365E+03  0.12699999809E+01 0. -1.
       -4    1    3    3    0  502 -0.15127875947E+03  0.88088193280E+02  0.97276091553E+03  0.98838767928E+03  0.12699999809E+01 0.  1.
</event>
<event>
 5   0  0.5765045E-03  0.5915638E+03  0.7818609E-02  0.9923065E-01
        1   -1    0    0  501    0  0.00000000000E+00  0.00000000000E+00  0.16898637905E+03  0.16898637912E+03  0.50400001928E-02 0.  1.
       -1   -1    0    0    0  501  0.00000000000E+00  0.00000000000E+00 -0.51771593965E+03  0.51771593967E+03  0.50400001928E-02 0. -1.
    10030    2    1    2    0    0  0.00000000000E+00  0.00000000000E+00 -0.34872956060E+03  0.68670231879E+03  0.59156383273E+03 0.  0.
        1    1    3    3  502    0  0.12738247190E+03 -0.26215086216E+03 -0.11588897628E+03  0.31365526223E+03  0.50400001928E-02 0. -1.
       -1    1    3    3    0  502 -0.12738247190E+03  0.26215086216E+03 -0.23284058432E+03  0.37304705656E+03  0.50400001928E-02 0.  1.
</event>
<event>
 5   0  0.9822607E-03  0.5991944E+03  0.7818609E-02  0.9907079E-01
        2   -1    0    0  501    0  0.00000000000E+00  0.00000000000E+00  0.61458543834E+03  0.61458543834E+03  0.25500000920E-02 0.  1.
       -2   -1    0    0    0  501  0.00000000000E+00  0.00000000000E+00 -0.14604718177E+03  0.14604718180E+03  0.25500000920E-02 0. -1.
    10030    2    1    2    0    0  0.00000000000E+00  0.00000000000E+00  0.46853825656E+03  0.76063262014E+03  0.59919436325E+03 0.  0.
        3    1    3    3  502    0  0.15744457710E+03  0.25274505088E+03  0.19236644279E+03  0.35450488589E+03  0.10100000352E+00 0. -1.
       -3    1    3    3    0  502 -0.15744457710E+03 -0.25274505088E+03  0.27617181377E+03  0.40612773425E+03  0.10100000352E+00 0.  1.
</event>
<event>
 5   0  0.9822607E-03  0.6003974E+03  0.7818609E-02  0.9904582E-01
        2   -1    0    0  501    0  0.00000000000E+00  0.00000000000E+00  0.22756338124E+03  0.22756338125E+03  0.25500000920E-02 0. -1.
       -2   -1    0    0    0  501  0.00000000000E+00  0.00000000000E+00 -0.39601827512E+03  0.39601827513E+03  0.25500000920E-02 0.  1.
    10030    2    1    2    0    0  0.00000000000E+00  0.00000000000E+00 -0.16845489388E+03  0.62358165638E+03  0.60039739415E+03 0.  0.
        3    1    3    3  502    0 -0.21149012635E+03  0.19395483409E+03 -0.17579474144E+03  0.33652689719E+03  0.10100000352E+00 0.  1.
       -3    1    3    3    0  502  0.21149012635E+03 -0.19395483409E+03  0.73398475580E+01  0.28705475919E+03  0.10100000352E+00 0. -1.
</event>
<event>
 5   0  0.5891927E-03  0.6001346E+03  0.7818609E-02  0.9905127E-01
       -1   -1    0    0    0  501  0.00000000000E+00  0.00000000000E+00  0.59550262166E+02  0.59550262379E+02  0.50400001928E-02 0.  1.
        1   -1    0    0  501    0  0.00000000000E+00  0.00000000000E+00 -0.15120063158E+04  0.15120063159E+04  0.50400001928E-02 0. -1.
    10030    2    1    2    0    0  0.00000000000E+00  0.00000000000E+00 -0.14524560537E+04  0.15715565782E+04  0.60013456051E+03 0.  0.
        4    1    3    3  502    0  0.11097296794E+03 -0.24617585592E+03 -0.38357972282E+03  0.46909761064E+03  0.12699999809E+01 0. -1.
       -4    1    3    3    0  502 -0.11097296794E+03  0.24617585592E+03 -0.10688763309E+04  0.11024589676E+04  0.12699999809E+01 0.  1.
</event>
<event>
 5   0  0.5765045E-03  0.5997568E+03  0.7818609E-02  0.9905911E-01
        1   -1    0    0  501    0  0.00000000000E+00  0.00000000000E+00  0.10768176783E+04  0.10768176783E+04  0.50400001928E-02 0.  1.
       -1   -1    0    0    0  501  0.00000000000E+00  0.00000000000E+00 -0.83511856040E+02  0.83511856192E+02  0.50400001928E-02 0. -1.
    10030    2    1    2    0    0  0.00000000000E+00  0.00000000000E+00  0.99330582221E+03  0.11603295345E+04  0.59975676077E+03 0.  0.
        1    1    3    3  502    0  0.10098331969E+03  0.12054008962E+03  0.99065447467E+03  0.10030572428E+04  0.50400001928E-02 0.  1.
       -1    1    3    3    0  502 -0.10098331969E+03 -0.12054008962E+03  0.26513475399E+01  0.15727229168E+03  0.50400001928E-02 0. -1.
</event>
<event>
 5   0  0.9028473E-03  0.5997154E+03  0.7818609E-02  0.9905997E-01
       -2   -1    0    0    0  501  0.00000000000E+00  0.00000000000E+00  0.21995013891E+03  0.21995013893E+03  0.25500000920E-02 0.  1.
        2   -1    0    0  501    0  0.00000000000E+00  0.00000000000E+00 -0.40879553282E+03  0.40879553283E+03  0.25500000920E-02 0. -1.
    10030    2    1    2    0    0  0.00000000000E+00  0.00000000000E+00 -0.18884539391E+03  0.62874567175E+03  0.59971537995E+03 0.  0.
        1    1    3    3  502    0  0.31994795140E+02  0.29725421791E+03 -0.70266139041E+02  0.30711735103E+03  0.50400001928E-02 0. -1.
       -1    1    3    3    0  502 -0.31994795140E+02 -0.29725421791E+03 -0.11857925487E+03  0.32162832072E+03  0.50400001928E-02 0.  1.
</event>
<event>
 5   0  0.6078658E-03  0.5966905E+03  0.7818609E-02  0.9912296E-01
        1   -1    0    0  501    0  0.00000000000E+00  0.00000000000E+00  0.94254629139E+03  0.94254629140E+03  0.50400001928E-02 0. -1.
       -1   -1    0    0    0  501  0.00000000000E+00  0.00000000000E+00 -0.94435571515E+02  0.94435571650E+02  0.50400001928E-02 0.  1.
    10030    2    1    2    0    0  0.00000000000E+00  0.00000000000E+00  0.84811071987E+03  0.10369818631E+04  0.59669053213E+03 0.  0.
        2    1    3    3  502    0  0.27446320559E+03  0.11696084062E+03  0.42389686985E+03  0.51836130810E+03  0.25500000920E-02 0.  1.
       -2    1    3    3    0  502 -0.27446320559E+03 -0.11696084062E+03  0.42421385002E+03  0.51862055495E+03  0.25500000920E-02 0. -1.
</event>
<event>
 5   0  0.9162342E-03  0.5999281E+03  0.7818609E-02  0.9905555E-01
        2   -1    0    0  501    0  0.00000000000E+00  0.00000000000E+00  0.55061534273E+03  0.55061534274E+03  0.25500000920E-02 0.  1.
       -2   -1    0    0    0  501  0.00000000000E+00  0.00000000000E+00 -0.16341434029E+03  0.16341434031E+03  0.25500000920E-02 0. -1.
    10030    2    1    2    0    0  0.00000000000E+00  0.00000000000E+00  0.38720100244E+03  0.71402968305E+03  0.59992813902E+03 0.  0.
        5    1    3    3  502    0 -0.50541291014E+02  0.28388795077E+03  0.95385769925E+02  0.30375537163E+03  0.46999998093E+01 0.  1.
       -5    1    3    3    0  502  0.50541291014E+02 -0.28388795077E+03  0.29181523252E+03  0.41027431143E+03  0.46999998093E+01 0. -1.
</event>
<event>
 5   0  0.6078658E-03  0.6016702E+03  0.7818609E-02  0.9901947E-01
        1   -1    0    0  501    0  0.00000000000E+00  0.00000000000E+00  0.48855584265E+03  0.48855584268E+03  0.50400001928E-02 0.  1.
       -1   -1    0    0    0  501  0.00000000000E+00  0.00000000000E+00 -0.18524340982E+03  0.18524340989E+03  0.50400001928E-02 0. -1.
    10030    2    1    2    0    0  0.00000000000E+00  0.00000000000E+00  0.30331243283E+03  0.67379925257E+03  0.60167017614E+03 0.  0.
        2    1    3    3  502    0  0.16328119382E+03  0.22864578642E+03  0.31238463356E+02  0.28269327106E+03  0.25500000920E-02 0. -1.
       -2    1    3    3    0  502 -0.16328119382E+03 -0.22864578642E+03  0.27207396948E+03  0.39110598151E+03  0.25500000920E-02 0.  1.
</event>
<event>
 5   0  0.5819446E-03  0.6005400E+03  0.7818609E-02  0.9904286E-01
        1   -1    0    0  501    0  0.00000000000E+00  0.00000000000E+00  0.14647834954E+04  0.14647834955E+04  0.50400001928E-02 0.  1.
       -1   -1    0    0    0  501  0.00000000000E+00  0.00000000000E+00 -0.61553166034E+02  0.61553166240E+02  0.50400001928E-02 0. -1.
    10030    2    1    2    0    0  0.00000000000E+00  0.00000000000E+00  0.14032303294E+04  0.15263366617E+04  0.60053996324E+03 0.  0.
        5    1    3    3  502    0  0.31595185648E+02  0.21377129500E+03  0.12313652969E+04  0.12501915880E+04  0.46999998093E+01 0.  1.
       -5    1    3    3    0  502 -0.31595185648E+02 -0.21377129500E+03  0.17186503250E+03  0.27614507368E+03  0.46999998093E+01 0. -1.
</event>
<event>
 5   0  0.5765045E-03  0.5996385E+03  0.7818609E-02  0.9906156E-01
        1   -1    0    0  501    0  0.00000000000E+00  0.00000000000E+00  0.61430066585E+03  0.61430066587E+03  0.50400001928E-02 0.  1.
       -1   -1    0    0    0  501  0.00000000000E+00  0.00000000000E+00 -0.14633158569E+03  0.14633158577E+03  0.50400001928E-02 0. -1.
    10030    2    1    2    0    0  0.00000000000E+00  0.00000000000E+00  0.46796908016E+03  0.76063225164E+03  0.59963852632E+03 0.  0.
        1    1    3    3  502    0 -0.11996286491E+03 -0.12330388094E+03 -0.77496643415E+02  0.18868138694E+03  0.50400001928E-02 0. -1.
       -1    1    3    3    0  502  0.11996286491E+03  0.12330388094E+03  0.54546572357E+03  0.57195086470E+03  0.50400001928E-02 0.  1.
</event>
<event>
 5   0  0.9162342E-03  0.5995922E+03  0.7818609E-02  0.9906253E-01
        2   -1    0    0  501    0  0.00000000000E+00  0.00000000000E+00  0.45886380120E+03  0.45886380121E+03  0.25500000920E-02 0.  1.
       -2   -1    0    0    0  501  0.00000000000E+00  0.00000000000E+00 -0.19587008656E+03  0.19587008658E+03  0.25500000920E-02 0. -1.
    10030    2    1    2    0    0  0.00000000000E+00  0.00000000000E+00  0.26299371464E+03  0.65473388779E+03  0.59959216963E+03 0.  0.
        5    1    3    3  502    0 -0.38454487663E+02  0.27998932705E+03  0.22394096733E+02  0.28354251260E+03  0.46999998093E+01 0. -1.
       -5    1    3    3    0  502  0.38454487663E+02 -0.27998932705E+03  0.24059961790E+03  0.37119137519E+03  0.46999998093E+01 0.  1.
</event>
<event>
 5   0  0.6078658E-03  0.6008627E+03  0.7818609E-02  0.9903618E-01
        1   -1    0    0  501    0  0.00000000000E+00  0.00000000000E+00  0.12765319921E+04  0.12765319921E+04  0.50400001928E-02 0.  1.
       -1   -1    0    0    0  501  0.00000000000E+00  0.00000000000E+00 -0.70706414745E+02  0.70706414925E+02  0.50400001928E-02 0. -1.
    10030    2    1    2    0    0  0.00000000000E+00  0.00000000000E+00  0.12058255773E+04  0.13472384070E+04  0.60086271508E+03 0.  0.
        2    1    3    3  502    0  0.50757801707E+02  0.18692057362E+03  0.11178485280E+04  0.11345047320E+04  0.25500000920E-02 0.  1.
       -2    1    3    3    0  502 -0.50757801707E+02 -0.18692057362E+03  0.87977049283E+02  0.21273367501E+03  0.25500000920E-02 0. -1.
</event>
<event>
 5   0  0.5790967E-03  0.5984054E+03  0.7818609E-02  0.9908720E-01
       -1   -1    0    0    0  501  0.00000000000E+00  0.00000000000E+00  0.23261207073E+03  0.23261207079E+03  0.50400001928E-02 0.  1.
        1   -1    0    0  501    0  0.00000000000E+00  0.00000000000E+00 -0.38485649253E+03  0.38485649256E+03  0.50400001928E-02 0. -1.
    10030    2    1    2    0    0  0.00000000000E+00  0.00000000000E+00 -0.15224442180E+03  0.61746856335E+03  0.59840543343E+03 0.  0.
        3    1    3    3  502    0 -0.95370084089E+02  0.42143807804E+02 -0.36550361871E+03  0.38008480496E+03  0.10100000352E+00 0. -1.
       -3    1    3    3    0  502  0.95370084089E+02 -0.42143807804E+02  0.21325919691E+03  0.23738375838E+03  0.10100000352E+00 0.  1.
</event>
<event>
 5   0  0.9822607E-03  0.6017658E+03  0.7818609E-02  0.9901749E-01
        2   -1    0    0  501    0  0.00000000000E+00  0.00000000000E+00  0.22525359483E+03  0.22525359485E+03  0.25500000920E-02 0. -1.
       -2   -1    0    0    0  501  0.00000000000E+00  0.00000000000E+00 -0.40190484971E+03  0.40190484972E+03  0.25500000920E-02 0.  1.
    10030    2    1    2    0    0  0.00000000000E+00  0.00000000000E+00 -0.17665125488E+03  0.62715844456E+03  0.60176577564E+03 0.  0.
        3    1    3    3  502    0 -0.13309739870E+03  0.10734987935E+03  0.16969250427E+03  0.24090344610E+03  0.10100000352E+00 0. -1.
       -3    1    3    3    0  502  0.13309739870E+03 -0.10734987935E+03 -0.34634375915E+03  0.38625499846E+03  0.10100000352E+00 0.  1.
</event>
<event>
 5   0  0.9162342E-03  0.6001702E+03  0.7818609E-02  0.9905053E-01
        2   -1    0    0  501    0  0.00000000000E+00  0.00000000000E+00  0.14585382870E+04  0.14585382870E+04  0.25500000920E-02 0.  1.
       -2   -1    0    0    0  501  0.00000000000E+00  0.00000000000E+00 -0.61740626344E+02  0.61740626397E+02  0.25500000920E-02 0. -1.
    10030    2    1    2    0    0  0.00000000000E+00  0.00000000000E+00  0.13967976607E+04  0.15202789134E+04  0.60017020062E+03 0.  0.
        5    1    3    3  502    0  0.18818539038E+03  0.19752769640E+03  0.38203710596E+03  0.46947350546E+03  0.46999998093E+01 0. -1.
       -5    1    3    3    0  502 -0.18818539038E+03 -0.19752769640E+03  0.10147605547E+04  0.10508054080E+04  0.46999998093E+01 0.  1.
</event>
<event>
 5   0  0.9028473E-03  0.5996670E+03  0.7818609E-02  0.9906097E-01
        2   -1    0    0  501    0  0.00000000000E+00  0.00000000000E+00  0.14140327397E+04  0.14140327397E+04  0.25500000920E-02 0.  1.
       -2   -1    0    0    0  501  0.00000000000E+00  0.00000000000E+00 -0.63577124883E+02  0.63577124934E+02  0.25500000920E-02 0. -1.
    10030    2    1    2    0    0  0.00000000000E+00  0.00000000000E+00  0.13504556148E+04  0.14776098646E+04  0.59966702800E+03 0.  0.
        1    1    3    3  502    0  0.21330137546E+03 -0.16666740620E+02  0.15763125419E+03  0.26574963658E+03  0.50400001928E-02 0. -1.
       -1    1    3    3    0  502 -0.21330137546E+03  0.16666740620E+02  0.11928243606E+04  0.12118602280E+04  0.50400001928E-02 0.  1.
</event>
<event>
 5   0  0.5891927E-03  0.6004263E+03  0.7818609E-02  0.9904522E-01
       -1   -1    0    0    0  501  0.00000000000E+00  0.00000000000E+00  0.18953451199E+03  0.18953451206E+03  0.50400001928E-02 0.  1.
        1   -1    0    0  501    0  0.00000000000E+00  0.00000000000E+00 -0.47552255881E+03  0.47552255883E+03  0.50400001928E-02 0. -1.
    10030    2    1    2    0    0  0.00000000000E+00  0.00000000000E+00 -0.28598804681E+03  0.66505707089E+03  0.60042630241E+03 0.  0.
        4    1    3    3  502    0  0.19729833439E+03  0.15093263159E+03 -0.32971961370E+03  0.41282433140E+03  0.12699999809E+01 0. -1.
       -4    1    3    3    0  502 -0.19729833439E+03 -0.15093263159E+03  0.43731566890E+02  0.25223273950E+03  0.12699999809E+01 0.  1.
</event>
<event>
 5   0  0.5790967E-03  0.5857882E+03  0.7818609E-02  0.9935338E-01
        1   -1    0    0  501    0  0.00000000000E+00  0.00000000000E+00  0.13465445273E+03  0.13465445283E+03  0.50400001928E-02 0. -1.
       -1   -1    0    0    0  501  0.00000000000E+00  0.00000000000E+00 -0.63708960856E+03  0.63708960858E+03  0.50400001928E-02 0.  1.
    10030    2    1    2    0    0  0.00000000000E+00  0.00000000000E+00 -0.50243515583E+03  0.77174406141E+03  0.58578819595E+03 0.  0.
        3    1    3    3  502    0 -0.97681568593E+02 -0.27255198452E+03 -0.30955333740E+03  0.42385086057E+03  0.10100000352E+00 0. -1.
       -3    1    3    3    0  502  0.97681568593E+02  0.27255198452E+03 -0.19288181843E+03  0.34789320084E+03  0.10100000352E+00 0.  1.
</event>
<event>
 5   0  0.5765045E-03  0.6011247E+03  0.7818609E-02  0.9903075E-01
       -1   -1    0    0    0  501  0.00000000000E+00  0.00000000000E+00  0.47689037109E+03  0.47689037112E+03  0.50400001928E-02 0.  1.
        1   -1    0    0  501    0  0.00000000000E+00  0.00000000000E+00 -0.18943080169E+03  0.18943080176E+03  0.50400001928E-02 0. -1.
    10030    2    1    2    0    0  0.00000000000E+00  0.00000000000E+00  0.28745956940E+03  0.66632117288E+03  0.60112469704E+03 0.  0.
        1    1    3    3  502    0  0.20162455148E+01 -0.27097253187E+03  0.28786143012E+03  0.39534084187E+03  0.50400001928E-02 0.  1.
       -1    1    3    3    0  502 -0.20162455148E+01  0.27097253187E+03 -0.40186071716E+00  0.27098033101E+03  0.50400001928E-02 0. -1.
</event>
<event>
 5   0  0.9391405E-03  0.6003069E+03  0.7818609E-02  0.9904770E-01
        2   -1    0    0  501    0  0.00000000000E+00  0.00000000000E+00  0.98671152739E+03  0.98671152739E+03  0.25500000920E-02 0.  1.
       -2   -1    0    0    0  501  0.00000000000E+00  0.00000000000E+00 -0.91305394852E+02  0.91305394887E+02  0.25500000920E-02 0. -1.
    10030    2    1    2    0    0  0.00000000000E+00  0.00000000000E+00  0.89540613254E+03  0.10780169223E+04  0.60030687364E+03 0.  0.
        2    1    3    3  502    0 -0.28332014332E+03  0.59395563978E+02  0.59016993263E+03  0.65734213771E+03  0.25500000920E-02 0.  1.
       -2    1    3    3    0  502  0.28332014332E+03 -0.59395563978E+02  0.30523619991E+03  0.42067478457E+03  0.25500000920E-02 0. -1.
</event>
<event>
 5   0  0.5765045E-03  0.5998880E+03  0.7818609E-02  0.9905638E-01
        1   -1    0    0  501    0  0.00000000000E+00  0.00000000000E+00  0.13943276264E+04  0.13943276264E+04  0.50400001928E-02 0. -1.
       -1   -1    0    0    0  501  0.00000000000E+00  0.00000000000E+00 -0.64523139476E+02  0.64523139673E+02  0.50400001928E-02 0.  1.
    10030    2    1    2    0    0  0.00000000000E+00  0.00000000000E+00  0.13298044870E+04  0.14588507661E+04  0.59988797643E+03 0.  0.
        1    1    3    3  502    0 -0.20644242689E+03 -0.17178239197E+03  0.98970722341E+03  0.10254989293E+04  0.50400001928E-02 0. -1.
       -1    1    3    3    0  502  0.20644242689E+03  0.17178239197E+03  0.34009726355E+03  0.43335183686E+03  0.50400001928E-02 0.  1.
</event>
<event>
 5   0  0.3806250E-03  0.5980713E+03  0.7818609E-02  0.9909416E-01
        4   -1    0    0  501    0  0.00000000000E+00  0.00000000000E+00  0.96408886628E+02  0.96417251158E+02  0.12699999809E+01 0. -1.
       -4   -1    0    0    0  501  0.00000000000E+00  0.00000000000E+00 -0.92748283814E+03  0.92748370765E+03  0.12699999809E+01 0.  1.
    10030    2    1    2    0    0  0.00000000000E+00  0.00000000000E+00 -0.83107395152E+03  0.10239009588E+04  0.59807128384E+03 0.  0.
        2    1    3    3  502    0 -0.35074456845E+02 -0.69612791665E+02 -0.90978823986E+03  0.91312145943E+03  0.25500000920E-02 0.  1.
       -2    1    3    3    0  502  0.35074456845E+02  0.69612791665E+02  0.78714288340E+02  0.11077949937E+03  0.25500000920E-02 0. -1.
</event>
<event>
 5   0  0.5891927E-03  0.6005288E+03  0.7818609E-02  0.9904309E-01
        1   -1    0    0  501    0  0.00000000000E+00  0.00000000000E+00  0.18847540363E+04  0.18847540363E+04  0.50400001928E-02 0. -1.
       -1   -1    0    0    0  501  0.00000000000E+00  0.00000000000E+00 -0.47835803978E+02  0.47835804243E+02  0.50400001928E-02 0.  1.
    10030    2    1    2    0    0  0.00000000000E+00  0.00000000000E+00  0.18369182323E+04  0.19325898405E+04  0.60052884989E+03 0.  0.
        4    1    3    3  502    0 -0.17432824314E+03  0.31799676313E+02  0.13839502386E+03  0.22484739558E+03  0.12699999809E+01 0.  1.
       -4    1    3    3    0  502  0.17432824314E+03 -0.31799676313E+02  0.16985232084E+04  0.17077424449E+04  0.12699999809E+01 0. -1.
</event>
<event>
 5   0  0.9028473E-03  0.5997684E+03  0.7818609E-02  0.9905887E-01
        2   -1    0    0  501    0  0.00000000000E+00  0.00000000000E+00  0.57031162958E+03  0.57031162958E+03  0.25500000920E-02 0.  1.
       -2   -1    0    0    0  501  0.00000000000E+00  0.00000000000E+00 -0.15768668148E+03  0.15768668150E+03  0.25500000920E-02 0. -1.
    10030    2    1    2    0    0  0.00000000000E+00  0.00000000000E+00  0.41262494809E+03  0.72799831109E+03  0.59976844961E+03 0.  0.
        1    1    3    3  502    0 -0.10071787030E+03  0.23238843091E+03  0.40120971809E+03  0.47446571018E+03  0.50400001928E-02 0.  1.
       -1    1    3    3    0  502  0.10071787030E+03 -0.23238843091E+03  0.11415230001E+02  0.25353260090E+03  0.50400001928E-02 0. -1.
</event>
<event>
 5   0  0.9822607E-03  0.5998999E+03  0.7818609E-02  0.9905614E-01
       -2   -1    0    0    0  501  0.00000000000E+00  0.00000000000E+00  0.42539253400E+02  0.42539253477E+02  0.25500000920E-02 0. -1.
        2   -1    0    0  501    0  0.00000000000E+00  0.00000000000E+00 -0.21149873495E+04  0.21149873496E+04  0.25500000920E-02 0.  1.
    10030    2    1    2    0    0  0.00000000000E+00  0.00000000000E+00 -0.20724480961E+04  0.21575266030E+04  0.59989993461E+03 0.  0.
        3    1    3    3  502    0 -0.23312270916E+03  0.41656564740E+02 -0.16982935076E+04  0.17147251428E+04  0.10100000352E+00 0.  1.
       -3    1    3    3    0  502  0.23312270916E+03 -0.41656564740E+02 -0.37415458850E+03  0.44280146026E+03  0.10100000352E+00 0. -1.
</event>
<event>
 5   0  0.3806250E-03  0.6006040E+03  0.7818609E-02  0.9904154E-01
        4   -1    0    0  501    0  0.00000000000E+00  0.00000000000E+00  0.12505532331E+04  0.12505538780E+04  0.12699999809E+01 0.  1.
       -4   -1    0    0    0  501  0.00000000000E+00  0.00000000000E+00 -0.72106857931E+02  0.72118041159E+02  0.12699999809E+01 0. -1.
    10030    2    1    2    0    0  0.00000000000E+00  0.00000000000E+00  0.11784463752E+04  0.13226719192E+04  0.60060398477E+03 0.  0.
        3    1    3    3  502    0  0.75237207983E+02 -0.14288934040E+03  0.31647235857E+02  0.16455867890E+03  0.10100000352E+00 0. -1.
       -3    1    3    3    0  502 -0.75237207983E+02  0.14288934040E+03  0.11467991394E+04  0.11581132403E+04  0.10100000352E+00 0.  1.
</event>
<event>
 5   0  0.3806250E-03  0.6006638E+03  0.7818609E-02  0.9904030E-01
        3   -1    0    0  501    0  0.00000000000E+00  0.00000000000E+00  0.17531650054E+03  0.17531652963E+03  0.10100000352E+00 0.  1.
       -3   -1    0    0    0  501  0.00000000000E+00  0.00000000000E+00 -0.51449372162E+03  0.51449373153E+03  0.10100000352E+00 0. -1.
    10030    2    1    2    0    0  0.00000000000E+00  0.00000000000E+00 -0.33917722108E+03  0.68981026116E+03  0.60066380705E+03 0.  0.
        2    1    3    3  502    0 -0.11228606932E+03 -0.15082898235E+03  0.99350321501E+02  0.21266882627E+03  0.25500000920E-02 0.  1.
       -2    1    3    3    0  502  0.11228606932E+03  0.15082898235E+03 -0.43852754258E+03  0.47714143489E+03  0.25500000920E-02 0. -1.
</event>
<event>
 5   0  0.5819446E-03  0.6005694E+03  0.7818609E-02  0.9904225E-01
       -1   -1    0    0    0  501  0.00000000000E+00  0.00000000000E+00  0.45700271128E+03  0.45700271130E+03  0.50400001928E-02 0. -1.
        1   -1    0    0  501    0  0.00000000000E+00  0.00000000000E+00 -0.19730932966E+03  0.19730932973E+03  0.50400001928E-02 0.  1.
    10030    2    1    2    0    0  0.00000000000E+00  0.00000000000E+00  0.25969338162E+03  0.65431204103E+03  0.60056939198E+03 0.  0.
        5    1    3    3  502    0 -0.80625674980E+02  0.22147480086E+03 -0.72801313248E+02  0.24672597774E+03  0.46999998093E+01 0.  1.
       -5    1    3    3    0  502  0.80625674980E+02 -0.22147480086E+03  0.33249469486E+03  0.40758606329E+03  0.46999998093E+01 0. -1.
</event>
<event>
 5   0  0.9162342E-03  0.5984497E+03  0.7818609E-02  0.9908628E-01
        2   -1    0    0  501    0  0.00000000000E+00  0.00000000000E+00  0.52857855339E+03  0.52857855339E+03  0.25500000920E-02 0.  1.
       -2   -1    0    0    0  501  0.00000000000E+00  0.00000000000E+00 -0.16938921686E+03  0.16938921688E+03  0.25500000920E-02 0. -1.
    10030    2    1    2    0    0  0.00000000000E+00  0.00000000000E+00  0.35918933653E+03  0.69796777027E+03  0.59844968783E+03 0.  0.
        5    1    3    3  502    0 -0.26463335004E+03  0.95958319974E+01  0.34200084159E+03  0.43256162057E+03  0.46999998093E+01 0.  1.
       -5    1    3    3    0  502  0.26463335004E+03 -0.95958319974E+01  0.17188494941E+02  0.26540614970E+03  0.46999998093E+01 0. -1.
</event>
<event>
 5   0  0.9028473E-03  0.6042460E+03  0.7818609E-02  0.9896636E-01
        2   -1    0    0  501    0  0.00000000000E+00  0.00000000000E+00  0.12343202471E+03  0.12343202474E+03  0.25500000920E-02 0. -1.
       -2   -1    0    0    0  501  0.00000000000E+00  0.00000000000E+00 -0.73950265804E+03  0.73950265804E+03  0.25500000920E-02 0.  1.
    10030    2    1    2    0    0  0.00000000000E+00  0.00000000000E+00 -0.61607063333E+03  0.86293468278E+03  0.60424601074E+03 0.  0.
        1    1    3    3  502    0 -0.12397895842E+02 -0.60584942583E+02 -0.73036746207E+03  0.73298081337E+03  0.50400001928E-02 0.  1.
       -1    1    3    3    0  502  0.12397895842E+02  0.60584942583E+02  0.11429682874E+03  0.12995386941E+03  0.50400001928E-02 0. -1.
</event>
<event>
 5   0  0.5819446E-03  0.5995815E+03  0.7818609E-02  0.9906275E-01
       -1   -1    0    0    0  501  0.00000000000E+00  0.00000000000E+00  0.10079648917E+03  0.10079648929E+03  0.50400001928E-02 0. -1.
        1   -1    0    0  501    0  0.00000000000E+00  0.00000000000E+00 -0.89164308433E+03  0.89164308434E+03  0.50400001928E-02 0.  1.
    10030    2    1    2    0    0  0.00000000000E+00  0.00000000000E+00 -0.79084659516E+03  0.99243957363E+03  0.59958149591E+03 0.  0.
        5    1    3    3  502    0  0.12754424089E+03  0.13936684636E+03 -0.78063742091E+03  0.80318585904E+03  0.46999998093E+01 0.  1.
       -5    1    3    3    0  502 -0.12754424089E+03 -0.13936684636E+03 -0.10209174253E+02  0.18925371459E+03  0.46999998093E+01 0. -1.
</event>
<event>
 5   0  0.6078658E-03  0.6004356E+03  0.7818609E-02  0.9904503E-01
       -1   -1    0    0    0  501  0.00000000000E+00  0.00000000000E+00  0.73492569699E+02  0.73492569872E+02  0.50400001928E-02 0.  1.
        1   -1    0    0  501    0  0.00000000000E+00  0.00000000000E+00 -0.12263923349E+04  0.12263923349E+04  0.50400001928E-02 0. -1.
    10030    2    1    2    0    0  0.00000000000E+00  0.00000000000E+00 -0.11528997652E+04  0.12998849048E+04  0.60043558945E+03 0.  0.
        2    1    3    3  502    0  0.22605535211E+03  0.99608216277E+02 -0.20709490947E+03  0.32235247867E+03  0.25500000920E-02 0.  1.
       -2    1    3    3    0  502 -0.22605535211E+03 -0.99608216277E+02 -0.94580485574E+03  0.97753242612E+03  0.25500000920E-02 0. -1.
</event>
<event>
 5   0  0.9303190E-03  0.5998753E+03  0.7818609E-02  0.9905665E-01
        2   -1    0    0  501    0  0.00000000000E+00  0.00000000000E+00  0.77523816547E+03  0.77523816548E+03  0.25500000920E-02 0. -1.
       -2   -1    0    0    0  501  0.00000000000E+00  0.00000000000E+00 -0.11604509921E+03  0.11604509924E+03  0.25500000920E-02 0.  1.
    10030    2    1    2    0    0  0.00000000000E+00  0.00000000000E+00  0.65919306626E+03  0.89128326472E+03  0.59987528651E+03 0.  0.
        4    1    3    3  502    0  0.15279253026E+03  0.47867490017E+02  0.70642327786E+03  0.72434267741E+03  0.12699999809E+01 0. -1.
       -4    1    3    3    0  502 -0.15279253026E+03 -0.47867490017E+02 -0.47230211604E+02  0.16694058731E+03  0.12699999809E+01 0.  1.
</event>
<event>
 5   0  0.9028473E-03  0.5997761E+03  0.7818609E-02  0.9905871E-01
        2   -1    0    0  501    0  0.00000000000E+00  0.00000000000E+00  0.25858729188E+03  0.25858729189E+03  0.25500000920E-02 0.  1.
       -2   -1    0    0    0  501  0.00000000000E+00  0.00000000000E+00 -0.34778528312E+03  0.34778528313E+03  0.25500000920E-02 0. -1.
    10030    2    1    2    0    0  0.00000000000E+00  0.00000000000E+00 -0.89197991237E+02  0.60637257502E+03  0.59977613999E+03 0.  0.
        1    1    3    3  502    0 -0.75942237386E+02 -0.26637369407E+03  0.71602857535E+02  0.28609288272E+03  0.50400001928E-02 0. -1.
       -1    1    3    3    0  502  0.75942237386E+02  0.26637369407E+03 -0.16080084877E+03  0.32027969230E+03  0.50400001928E-02 0.  1.
</event>
<event>
 5   0  0.9162342E-03  0.6000004E+03  0.7818609E-02  0.9905405E-01
       -2   -1    0    0    0  501  0.00000000000E+00  0.00000000000E+00  0.21301416864E+03  0.21301416866E+03  0.25500000920E-02 0. -1.
        2   -1    0    0  501    0  0.00000000000E+00  0.00000000000E+00 -0.42250762807E+03  0.42250762807E+03  0.25500000920E-02 0.  1.
    10030    2    1    2    0    0  0.00000000000E+00  0.00000000000E+00 -0.20949345942E+03  0.63552179673E+03  0.60000037048E+03 0.  0.
        5    1    3    3  502    0  0.94442264014E+01 -0.15545935680E+03 -0.37628542524E+03  0.40727093718E+03  0.46999998093E+01 0.  1.
       -5    1    3    3    0  502 -0.94442264014E+01  0.15545935680E+03  0.16679196581E+03  0.22825085955E+03  0.46999998093E+01 0. -1.
</event>
<event>
 5   0  0.9162342E-03  0.5991373E+03  0.7818609E-02  0.9907198E-01
       -2   -1    0    0    0  501  0.00000000000E+00  0.00000000000E+00  0.11327631963E+03  0.11327631966E+03  0.25500000920E-02 0. -1.
        2   -1    0    0  501    0  0.00000000000E+00  0.00000000000E+00 -0.79223410267E+03  0.79223410268E+03  0.25500000920E-02 0.  1.
    10030    2    1    2    0    0  0.00000000000E+00  0.00000000000E+00 -0.67895778304E+03  0.90551042234E+03  0.59913725791E+03 0.  0.
        5    1    3    3  502    0  0.26478873969E+03  0.97611424563E+02 -0.49120445328E+03  0.56652005418E+03  0.46999998093E+01 0. -1.
       -5    1    3    3    0  502 -0.26478873969E+03 -0.97611424563E+02 -0.18775332976E+03  0.33899036816E+03  0.46999998093E+01 0.  1.
</event>
<event>
 5   0  0.9162342E-03  0.5982182E+03  0.7818609E-02  0.9909110E-01
        2   -1    0    0  501    0  0.00000000000E+00  0.00000000000E+00  0.38559009306E+03  0.38559009307E+03  0.25500000920E-02 0.  1.
       -2   -1    0    0    0  501  0.00000000000E+00  0.00000000000E+00 -0.23202421861E+03  0.23202421862E+03  0.25500000920E-02 0. -1.
    10030    2    1    2    0    0  0.00000000000E+00  0.00000000000E+00  0.15356587445E+03  0.61761431170E+03  0.59821815437E+03 0.  0.
        5    1    3    3  502    0 -0.13855461145E+03 -0.15872713994E+03 -0.14235473310E+03  0.25431996646E+03  0.46999998093E+01 0. -1.
       -5    1    3    3    0  502  0.13855461145E+03  0.15872713994E+03  0.29592060755E+03  0.36329434523E+03  0.46999998093E+01 0.  1.
</event>
<event>
 5   0  0.5819446E-03  0.5998781E+03  0.7818609E-02  0.9905659E-01
        1   -1    0    0  501    0  0.00000000000E+00  0.00000000000E+00  0.15805546135E+04  0.15805546136E+04  0.50400001928E-02 0.  1.
       -1   -1    0    0    0  501  0.00000000000E+00  0.00000000000E+00 -0.56918903484E+02  0.56918903708E+02  0.50400001928E-02 0. -1.
    10030    2    1    2    0    0  0.00000000000E+00  0.00000000000E+00  0.15236357101E+04  0.16374735173E+04  0.59987810658E+03 0.  0.
        5    1    3    3  502    0  0.10873653987E+03  0.25736200748E+03  0.10593715345E+04  0.10956043885E+04  0.46999998093E+01 0.  1.
       -5    1    3    3    0  502 -0.10873653987E+03 -0.25736200748E+03  0.46426417558E+03  0.54186912878E+03  0.46999998093E+01 0. -1.
</event>
<event>
 5   0  0.9028473E-03  0.6044938E+03  0.7818609E-02  0.9896126E-01
       -2   -1    0    0    0  501  0.00000000000E+00  0.00000000000E+00  0.18688865406E+03  0.18688865408E+03  0.25500000920E-02 0.  1.
        2   -1    0    0  501    0  0.00000000000E+00  0.00000000000E+00 -0.48881079926E+03  0.48881079927E+03  0.25500000920E-02 0. -1.
    10030    2    1    2    0    0  0.00000000000E+00  0.00000000000E+00 -0.30192214520E+03  0.67569945335E+03  0.60449381262E+03 0.  0.
        1    1    3    3  502    0 -0.47786057115E+02  0.85216386211E+02 -0.47067326903E+03  0.48070642386E+03  0.50400001928E-02 0. -1.
       -1    1    3    3    0  502  0.47786057115E+02 -0.85216386211E+02  0.16875112383E+03  0.19499302949E+03  0.50400001928E-02 0.  1.
</event>
<event>
 5   0  0.3806250E-03  0.6002480E+03  0.7818609E-02  0.9904892E-01
        4   -1    0    0  501    0  0.00000000000E+00  0.00000000000E+00  0.20860584254E+03  0.20860970840E+03  0.12699999809E+01 0. -1.
       -4   -1    0    0    0  501  0.00000000000E+00  0.00000000000E+00 -0.43178355462E+03  0.43178542233E+03  0.12699999809E+01 0.  1.
    10030    2    1    2    0    0  0.00000000000E+00  0.00000000000E+00 -0.22317771208E+03  0.64039513074E+03  0.60024797567E+03 0.  0.
        3    1    3    3  502    0  0.24330925475E+03 -0.17443167642E+02 -0.29812813558E+03  0.38520650691E+03  0.10100000352E+00 0.  1.
       -3    1    3    3    0  502 -0.24330925475E+03  0.17443167642E+02  0.74950423497E+02  0.25518862382E+03  0.10100000352E+00 0. -1.
</event>
<event>
 5   0  0.6078658E-03  0.6025965E+03  0.7818609E-02  0.9900034E-01
       -1   -1    0    0    0  501  0.00000000000E+00  0.00000000000E+00  0.12942265043E+03  0.12942265053E+03  0.50400001928E-02 0. -1.
        1   -1    0    0  501    0  0.00000000000E+00  0.00000000000E+00 -0.70142764216E+03  0.70142764218E+03  0.50400001928E-02 0.  1.
    10030    2    1    2    0    0  0.00000000000E+00  0.00000000000E+00 -0.57200499173E+03  0.83085029271E+03  0.60259646392E+03 0.  0.
        2    1    3    3  502    0  0.53329672137E+02 -0.55224899670E+02 -0.68771581474E+03  0.69198763379E+03  0.25500000920E-02 0.  1.
       -2    1    3    3    0  502 -0.53329672137E+02  0.55224899670E+02  0.11571082301E+03  0.13886265892E+03  0.25500000920E-02 0. -1.
</event>
<event>
 5   0  0.5790967E-03  0.5998174E+03  0.7818609E-02  0.9905785E-01
       -1   -1    0    0    0  501  0.00000000000E+00  0.00000000000E+00  0.48969290898E+03  0.48969290901E+03  0.50400001928E-02 0.  1.
        1   -1    0    0  501    0  0.00000000000E+00  0.00000000000E+00 -0.18367681373E+03  0.18367681380E+03  0.50400001928E-02 0. -1.
    10030    2    1    2    0    0  0.00000000000E+00  0.00000000000E+00  0.30601609525E+03  0.67336972281E+03  0.59981741643E+03 0.  0.
        3    1    3    3  502    0  0.28596067320E+03  0.88038213582E+02  0.12997400896E+03  0.32621693223E+03  0.10100000352E+00 0. -1.
       -3    1    3    3    0  502 -0.28596067320E+03 -0.88038213582E+02  0.17604208629E+03  0.34715279058E+03  0.10100000352E+00 0.  1.
</event>
<event>
 5   0  0.9028473E-03  0.6000568E+03  0.7818609E-02  0.9905288E-01
        2   -1    0    0  501    0  0.00000000000E+00  0.00000000000E+00  0.30627809217E+03  0.30627809218E+03  0.25500000920E-02 0.  1.
       -2   -1    0    0    0  501  0.00000000000E+00  0.00000000000E+00 -0.29390623518E+03  0.29390623519E+03  0.25500000920E-02 0. -1.
    10030    2    1    2    0    0  0.00000000000E+00  0.00000000000E+00  0.12371856986E+02  0.60018432737E+03  0.60005680062E+03 0.  0.
        1    1    3    3  502    0  0.13034735867E+03  0.22827605727E+03  0.15084255737E+03  0.30307403282E+03  0.50400001928E-02 0.  1.
       -1    1    3    3    0  502 -0.13034735867E+03 -0.22827605727E+03 -0.13847070039E+03  0.29711029454E+03  0.50400001928E-02 0. -1.
</event>
<event>
 5   0  0.5891927E-03  0.5987479E+03  0.7818609E-02  0.9908007E-01
       -1   -1    0    0    0  501  0.00000000000E+00  0.00000000000E+00  0.57946245121E+02  0.57946245340E+02  0.50400001928E-02 0. -1.
        1   -1    0    0  501    0  0.00000000000E+00  0.00000000000E+00 -0.15466878629E+04  0.15466878629E+04  0.50400001928E-02 0.  1.
    10030    2    1    2    0    0  0.00000000000E+00  0.00000000000E+00 -0.14887416178E+04  0.16046341083E+04  0.59874787419E+03 0.  0.
        4    1    3    3  502    0  0.16382870094E+03  0.20726576809E+03 -0.36703339909E+03  0.45223231953E+03  0.12699999809E+01 0. -1.
       -4    1    3    3    0  502 -0.16382870094E+03 -0.20726576809E+03 -0.11217082187E+04  0.11524017887E+04  0.12699999809E+01 0.  1.
</event>
<event>
 5   0  0.5891927E-03  0.5984830E+03  0.7818609E-02  0.9908558E-01
        1   -1    0    0  501    0  0.00000000000E+00  0.00000000000E+00  0.12163774718E+04  0.12163774718E+04  0.50400001928E-02 0.  1.
       -1   -1    0    0    0  501  0.00000000000E+00  0.00000000000E+00 -0.73616518320E+02  0.73616518492E+02  0.50400001928E-02 0. -1.
    10030    2    1    2    0    0  0.00000000000E+00  0.00000000000E+00  0.11427609535E+04  0.12899939903E+04  0.59848299744E+03 0.  0.
        4    1    3    3  502    0 -0.67174192521E+02 -0.26961656372E+03  0.81080314098E+03  0.85709323291E+03  0.12699999809E+01 0.  1.
       -4    1    3    3    0  502  0.67174192521E+02  0.26961656372E+03  0.33195781251E+03  0.43290075740E+03  0.12699999809E+01 0. -1.
</event>
<event>
 5   0  0.5790967E-03  0.5995984E+03  0.7818609E-02  0.9906240E-01
        1   -1    0    0  501    0  0.00000000000E+00  0.00000000000E+00  0.93784688159E+03  0.93784688160E+03  0.50400001928E-02 0. -1.
       -1   -1    0    0    0  501  0.00000000000E+00  0.00000000000E+00 -0.95836060410E+02  0.95836060543E+02  0.50400001928E-02 0.  1.
    10030    2    1    2    0    0  0.00000000000E+00  0.00000000000E+00  0.84201082118E+03  0.10336829421E+04  0.59959836716E+03 0.  0.
        3    1    3    3  502    0  0.12621783579E+03 -0.21350480917E+03  0.13066137942E+03  0.28033489237E+03  0.10100000352E+00 0. -1.
       -3    1    3    3    0  502 -0.12621783579E+03  0.21350480917E+03  0.71134944175E+03  0.75334804977E+03  0.10100000352E+00 0.  1.
</event>
<event>
 5   0  0.9391405E-03  0.6002524E+03  0.7818609E-02  0.9904883E-01
        2   -1    0    0  501    0  0.00000000000E+00  0.00000000000E+00  0.51514835942E+03  0.51514835943E+03  0.25500000920E-02 0.  1.
       -2   -1    0    0    0  501  0.00000000000E+00  0.00000000000E+00 -0.17485395009E+03  0.17485395011E+03  0.25500000920E-02 0. -1.
    10030    2    1    2    0    0  0.00000000000E+00  0.00000000000E+00  0.34029440933E+03  0.69000230954E+03  0.60025236538E+03 0.  0.
        2    1    3    3  502    0  0.12252492927E+03  0.12572775204E+03 -0.10967518568E+03  0.20699872532E+03  0.25500000920E-02 0. -1.
       -2    1    3    3    0  502 -0.12252492927E+03 -0.12572775204E+03  0.44996959501E+03  0.48300358421E+03  0.25500000920E-02 0.  1.
</event>
<event>
 5   0  0.9303190E-03  0.6022860E+03  0.7818609E-02  0.9900675E-01
       -2   -1    0    0    0  501  0.00000000000E+00  0.00000000000E+00  0.17155997139E+03  0.17155997140E+03  0.25500000920E-02 0. -1.
        2   -1    0    0  501    0  0.00000000000E+00  0.00000000000E+00 -0.52860291743E+03  0.52860291744E+03  0.25500000920E-02 0.  1.
    10030    2    1    2    0    0  0.00000000000E+00  0.00000000000E+00 -0.35704294604E+03  0.70016288884E+03  0.60228598323E+03 0.  0.
        4    1    3    3  502    0 -0.13684586291E+03 -0.19449897978E+03  0.36240372977E+02  0.24056521125E+03  0.12699999809E+01 0. -1.
       -4    1    3    3    0  502  0.13684586291E+03  0.19449897978E+03 -0.39328331902E+03  0.45959767759E+03  0.12699999809E+01 0.  1.
</event>
<event>
 5   0  0.9162342E-03  0.5989071E+03  0.7818609E-02  0.9907676E-01
       -2   -1    0    0    0  501  0.00000000000E+00  0.00000000000E+00  0.27502434668E+03  0.27502434669E+03  0.25500000920E-02 0.  1.
        2   -1    0    0  501    0  0.00000000000E+00  0.00000000000E+00 -0.32605274010E+03  0.32605274011E+03  0.25500000920E-02 0. -1.
    10030    2    1    2    0    0  0.00000000000E+00  0.00000000000E+00 -0.51028393416E+02  0.60107708680E+03  0.59890714417E+03 0.  0.
        5    1    3    3  502    0 -0.82859609883E+02  0.20901082841E+03  0.17293718082E+03  0.28369102885E+03  0.46999998093E+01 0.  1.
       -5    1    3    3    0  502  0.82859609883E+02 -0.20901082841E+03 -0.22396557424E+03  0.31738605795E+03  0.46999998093E+01 0. -1.
</event>
<event>
 5   0  0.9822607E-03  0.6001572E+03  0.7818609E-02  0.9905080E-01
        2   -1    0    0  501    0  0.00000000000E+00  0.00000000000E+00  0.70538512016E+03  0.70538512016E+03  0.25500000920E-02 0. -1.
       -2   -1    0    0    0  501  0.00000000000E+00  0.00000000000E+00 -0.12765672535E+03  0.12765672537E+03  0.25500000920E-02 0.  1.
    10030    2    1    2    0    0  0.00000000000E+00  0.00000000000E+00  0.57772839481E+03  0.83304184554E+03  0.60015716129E+03 0.  0.
        3    1    3    3  502    0 -0.12048033466E+02 -0.29043556328E+03  0.39226310505E+03  0.48822978740E+03  0.10100000352E+00 0. -1.
       -3    1    3    3    0  502  0.12048033466E+02  0.29043556328E+03  0.18546528976E+03  0.34481205813E+03  0.10100000352E+00 0.  1.
</event>
<event>
 5   0  0.9162342E-03  0.5999925E+03  0.7818609E-02  0.9905422E-01
        2   -1    0    0  501    0  0.00000000000E+00  0.00000000000E+00  0.14498455311E+03  0.14498455313E+03  0.25500000920E-02 0.  1.
       -2   -1    0    0    0  501  0.00000000000E+00  0.00000000000E+00 -0.62074023044E+03  0.62074023045E+03  0.25500000920E-02 0. -1.
    10030    2    1    2    0    0  0.00000000000E+00  0.00000000000E+00 -0.47575567734E+03  0.76572478358E+03  0.59999248301E+03 0.  0.
        5    1    3    3  502    0 -0.10460556655E+03  0.91654408728E+02 -0.57705773642E+03  0.59359967685E+03  0.46999998093E+01 0. -1.
       -5    1    3    3    0  502  0.10460556655E+03 -0.91654408728E+02  0.10130205909E+03  0.17212510673E+03  0.46999998093E+01 0.  1.
</event>
<event>
 5   0  0.9391405E-03  0.6009910E+03  0.7818609E-02  0.9903352E-01
       -2   -1    0    0    0  501  0.00000000000E+00  0.00000000000E+00  0.20483144583E+03  0.20483144585E+03  0.25500000920E-02 0. -1.
        2   -1    0    0  501    0  0.00000000000E+00  0.00000000000E+00 -0.44083829064E+03  0.44083829065E+03  0.25500000920E-02 0.  1.
    10030    2    1    2    0    0  0.00000000000E+00  0.00000000000E+00 -0.23600684481E+03  0.64566973650E+03  0.60099099646E+03 0.  0.
        2    1    3    3  502    0  0.10712266148E+03 -0.10004683668E+03  0.16382022285E+03  0.21982197241E+03  0.25500000920E-02 0. -1.
       -2    1    3    3    0  502 -0.10712266148E+03  0.10004683668E+03 -0.39982706766E+03  0.42584776408E+03  0.25500000920E-02 0.  1.
</event>
<event>
 5   0  0.5765045E-03  0.5945893E+03  0.7818609E-02  0.9916695E-01
       -1   -1    0    0    0  501  0.00000000000E+00  0.00000000000E+00  0.10329422616E+03  0.10329422628E+03  0.50400001928E-02 0. -1.
        1   -1    0    0  501    0  0.00000000000E+00  0.00000000000E+00 -0.85565399315E+03  0.85565399316E+03  0.50400001928E-02 0.  1.
    10030    2    1    2    0    0  0.00000000000E+00  0.00000000000E+00 -0.75235976699E+03  0.95894821944E+03  0.59458932768E+03 0.  0.
        1    1    3    3  502    0  0.45339328550E+02  0.12807083063E+03  0.50299850603E+02  0.14487189986E+03  0.50400001928E-02 0. -1.
       -1    1    3    3    0  502 -0.45339328550E+02 -0.12807083063E+03 -0.80265961760E+03  0.81407631959E+03  0.50400001928E-02 0.  1.
</event>
<event>
 5   0  0.5891927E-03  0.5999637E+03  0.7818609E-02  0.9905481E-01
        1   -1    0    0  501    0  0.00000000000E+00  0.00000000000E+00  0.19878179931E+04  0.19878179931E+04  0.50400001928E-02 0. -1.
       -1   -1    0    0    0  501  0.00000000000E+00  0.00000000000E+00 -0.45270296358E+02  0.45270296639E+02  0.50400001928E-02 0.  1.
    10030    2    1    2    0    0  0.00000000000E+00  0.00000000000E+00  0.19425476968E+04  0.20330882898E+04  0.59996369873E+03 0.  0.
        4    1    3    3  502    0  0.91589276126E+02  0.24945061782E+03  0.14429381027E+04  0.14672035262E+04  0.12699999809E+01 0. -1.
       -4    1    3    3    0  502 -0.91589276126E+02 -0.24945061782E+03  0.49960959407E+03  0.56588476355E+03  0.12699999809E+01 0.  1.
</event>
<event>
 5   0  0.9303190E-03  0.5989052E+03  0.7818609E-02  0.9907680E-01
       -2   -1    0    0    0  501  0.00000000000E+00  0.00000000000E+00  0.46158848083E+02  0.46158848154E+02  0.25500000920E-02 0.  1.
        2   -1    0    0  501    0  0.00000000000E+00  0.00000000000E+00 -0.19426795594E+04  0.19426795594E+04  0.25500000920E-02 0. -1.
    10030    2    1    2    0    0  0.00000000000E+00  0.00000000000E+00 -0.18965207114E+04  0.19888384076E+04  0.59890517023E+03 0.  0.
        4    1    3    3  502    0 -0.21471131144E+03 -0.20270919990E+03 -0.78294400106E+03  0.83677648669E+03  0.12699999809E+01 0. -1.
       -4    1    3    3    0  502  0.21471131144E+03  0.20270919990E+03 -0.11135767103E+04  0.11520619209E+04  0.12699999809E+01 0.  1.
</event>
<event>
 5   0  0.9303190E-03  0.5955479E+03  0.7818609E-02  0.9914686E-01
       -2   -1    0    0    0  501  0.00000000000E+00  0.00000000000E+00  0.19856138756E+03  0.19856138757E+03  0.25500000920E-02 0.  1.
        2   -1    0    0  501    0  0.00000000000E+00  0.00000000000E+00 -0.44655879084E+03  0.44655879085E+03  0.25500000920E-02 0. -1.
    10030    2    1    2    0    0  0.00000000000E+00  0.00000000000E+00 -0.24799740328E+03  0.64512017842E+03  0.59554792634E+03 0.  0.
        4    1    3    3  502    0  0.26037758878E+03  0.13922786773E+03 -0.16576778174E+03  0.33861697869E+03  0.12699999809E+01 0. -1.
       -4    1    3    3    0  502 -0.26037758878E+03 -0.13922786773E+03 -0.82229621538E+02  0.30650319974E+03  0.12699999809E+01 0.  1.
</event>
<event>
 5   0  0.6078658E-03  0.6010987E+03  0.7818609E-02  0.9903129E-01
        1   -1    0    0  501    0  0.00000000000E+00  0.00000000000E+00  0.16261324369E+04  0.16261324369E+04  0.50400001928E-02 0. -1.
       -1   -1    0    0    0  501  0.00000000000E+00  0.00000000000E+00 -0.55548918408E+02  0.55548918637E+02  0.50400001928E-02 0.  1.
    10030    2    1    2    0    0  0.00000000000E+00  0.00000000000E+00  0.15705835184E+04  0.16816813555E+04  0.60109865498E+03 0.  0.
        2    1    3    3  502    0 -0.47304577561E+01 -0.28802830735E+03  0.54548615248E+03  0.61687748023E+03  0.25500000920E-02 0.  1.
       -2    1    3    3    0  502  0.47304577561E+01  0.28802830735E+03  0.10250973660E+04  0.10648038753E+04  0.25500000920E-02 0. -1.
</event>
<event>
 5   0  0.3806250E-03  0.6000128E+03  0.7818609E-02  0.9905380E-01
       -4   -1    0    0    0  501  0.00000000000E+00  0.00000000000E+00  0.21128446646E+03  0.21128828332E+03  0.12699999809E+01 0.  1.
        4   -1    0    0  501    0  0.00000000000E+00  0.00000000000E+00 -0.42597555626E+03  0.42597744944E+03  0.12699999809E+01 0. -1.
    10030    2    1    2    0    0  0.00000000000E+00  0.00000000000E+00 -0.21469108979E+03  0.63726573276E+03  0.60001279162E+03 0.  0.
        4    1    3    3  502    0  0.18163576167E+03 -0.99712988333E+02 -0.33776699462E+03  0.39626050209E+03  0.12699999809E+01 0. -1.
       -4    1    3    3    0  502 -0.18163576167E+03  0.99712988333E+02  0.12307590483E+03  0.24100523067E+03  0.12699999809E+01 0.  1.
</event>
<event>
 5   0  0.9391405E-03  0.5943578E+03  0.7818609E-02  0.9917181E-01
        2   -1    0    0  501    0  0.00000000000E+00  0.00000000000E+00  0.10207840172E+04  0.10207840172E+04  0.25500000920E-02 0. -1.
       -2   -1    0    0    0  501  0.00000000000E+00  0.00000000000E+00 -0.86517121584E+02  0.86517121622E+02  0.25500000920E-02 0.  1.
    10030    2    1    2    0    0  0.00000000000E+00  0.00000000000E+00  0.93426689558E+03  0.11073011388E+04  0.59435778769E+03 0.  0.
        2    1    3    3  502    0 -0.27098766755E+02 -0.29001503038E+03  0.35735368762E+03  0.46102572495E+03  0.25500000920E-02 0. -1.
       -2    1    3    3    0  502  0.27098766755E+02  0.29001503038E+03  0.57691320796E+03  0.64627541384E+03  0.25500000920E-02 0.  1.
</event>
<event>
 5   0  0.9822607E-03  0.5980401E+03  0.7818609E-02  0.9909481E-01
        2   -1    0    0  501    0  0.00000000000E+00  0.00000000000E+00  0.25770595527E+04  0.25770595527E+04  0.25500000920E-02 0. -1.
       -2   -1    0    0    0  501  0.00000000000E+00  0.00000000000E+00 -0.34695737255E+02  0.34695737349E+02  0.25500000920E-02 0.  1.
    10030    2    1    2    0    0  0.00000000000E+00  0.00000000000E+00  0.25423638154E+04  0.26117552900E+04  0.59804006974E+03 0.  0.
        3    1    3    3  502    0 -0.19983692021E+03  0.22214291613E+03  0.13211096543E+04  0.13544788662E+04  0.10100000352E+00 0.  1.
       -3    1    3    3    0  502  0.19983692021E+03 -0.22214291613E+03  0.12212541611E+04  0.12572764238E+04  0.10100000352E+00 0. -1.
</event>
<event>
 5   0  0.3806250E-03  0.5996240E+03  0.7818609E-02  0.9906186E-01
       -3   -1    0    0    0  501  0.00000000000E+00  0.00000000000E+00  0.38585208584E+03  0.38585209905E+03  0.10100000352E+00 0. -1.
        3   -1    0    0  501    0  0.00000000000E+00  0.00000000000E+00 -0.23295773333E+03  0.23295775523E+03  0.10100000352E+00 0.  1.
    10030    2    1    2    0    0  0.00000000000E+00  0.00000000000E+00  0.15289435250E+03  0.61880985428E+03  0.59962400947E+03 0.  0.
        3    1    3    3  502    0  0.11769379940E+03 -0.26977715729E+03  0.13533144159E+03  0.32395393854E+03  0.10100000352E+00 0.  1.
       -3    1    3    3    0  502 -0.11769379940E+03  0.26977715729E+03  0.17562910915E+02  0.29485591575E+03  0.10100000352E+00 0. -1.
</event>
<event>
 5   0  0.3806250E-03  0.5996104E+03  0.7818609E-02  0.9906215E-01
       -3   -1    0    0    0  501  0.00000000000E+00  0.00000000000E+00  0.22588967049E+03  0.22588969307E+03  0.10100000352E+00 0. -1.
        3   -1    0    0  501    0  0.00000000000E+00  0.00000000000E+00 -0.39790728505E+03  0.39790729787E+03  0.10100000352E+00 0.  1.
    10030    2    1    2    0    0  0.00000000000E+00  0.00000000000E+00 -0.17201761456E+03  0.62379699094E+03  0.59961039533E+03 0.  0.
        4    1    3    3  502    0 -0.12044021694E+03  0.19089042021E+03  0.11927411882E+03  0.25528988759E+03  0.12699999809E+01 0. -1.
       -4    1    3    3    0  502  0.12044021694E+03 -0.19089042021E+03 -0.29129173338E+03  0.36850710335E+03  0.12699999809E+01 0.  1.
</event>
<event>
 5   0  0.9391405E-03  0.6001135E+03  0.7818609E-02  0.9905171E-01
       -2   -1    0    0    0  501  0.00000000000E+00  0.00000000000E+00  0.35138720373E+03  0.35138720373E+03  0.25500000920E-02 0. -1.
        2   -1    0    0  501    0  0.00000000000E+00  0.00000000000E+00 -0.25622466385E+03  0.25622466386E+03  0.25500000920E-02 0.  1.
    10030    2    1    2    0    0  0.00000000000E+00  0.00000000000E+00  0.95162539873E+02  0.60761186760E+03  0.60011354980E+03 0.  0.
        2    1    3    3  502    0 -0.11624717067E+03  0.22084690164E+03 -0.12107529637E+03  0.27739139506E+03  0.25500000920E-02 0.  1.
       -2    1    3    3    0  502  0.11624717067E+03 -0.22084690164E+03  0.21623783625E+03  0.33022047254E+03  0.25500000920E-02 0. -1.
</event>
<event>
 5   0  0.9028473E-03  0.6006516E+03  0.7818609E-02  0.9904055E-01
        2   -1    0    0  501    0  0.00000000000E+00  0.00000000000E+00  0.21714669626E+03  0.21714669628E+03  0.25500000920E-02 0. -1.
       -2   -1    0    0    0  501  0.00000000000E+00  0.00000000000E+00 -0.41536704192E+03  0.41536704192E+03  0.25500000920E-02 0.  1.
    10030    2    1    2    0    0  0.00000000000E+00  0.00000000000E+00 -0.19822034565E+03  0.63251373820E+03  0.60065158252E+03 0.  0.
        1    1    3    3  502    0  0.66112055895E+02 -0.28920500376E+03 -0.49883874470E+02  0.30083008343E+03  0.50400001928E-02 0. -1.
       -1    1    3    3    0  502 -0.66112055895E+02  0.28920500376E+03 -0.14833647118E+03  0.33168365478E+03  0.50400001928E-02 0.  1.
</event>
<event>
 5   0  0.5790967E-03  0.6001591E+03  0.7818609E-02  0.9905076E-01
       -1   -1    0    0    0  501  0.00000000000E+00  0.00000000000E+00  0.30932079931E+03  0.30932079935E+03  0.50400001928E-02 0.  1.
        1   -1    0    0  501    0  0.00000000000E+00  0.00000000000E+00 -0.29111437729E+03  0.29111437733E+03  0.50400001928E-02 0. -1.
    10030    2    1    2    0    0  0.00000000000E+00  0.00000000000E+00  0.18206422025E+02  0.60043517668E+03  0.60015908524E+03 0.  0.
        3    1    3    3  502    0 -0.15213784696E+03  0.25059800992E+03 -0.54976504995E+02  0.29827456035E+03  0.10100000352E+00 0.  1.
       -3    1    3    3    0  502  0.15213784696E+03 -0.25059800992E+03  0.73182927020E+02  0.30216061633E+03  0.10100000352E+00 0. -1.
</event>
<event>
 5   0  0.9162342E-03  0.6000880E+03  0.7818609E-02  0.9905223E-01
       -2   -1    0    0    0  501  0.00000000000E+00  0.00000000000E+00  0.21483718601E+03  0.21483718602E+03  0.25500000920E-02 0. -1.
        2   -1    0    0  501    0  0.00000000000E+00  0.00000000000E+00 -0.41904480062E+03  0.41904480063E+03  0.25500000920E-02 0.  1.
    10030    2    1    2    0    0  0.00000000000E+00  0.00000000000E+00 -0.20420761462E+03  0.63388198665E+03  0.60008801282E+03 0.  0.
        5    1    3    3  502    0 -0.43023015935E+02  0.12840053371E+03  0.18067833293E+03  0.22584159702E+03  0.46999998093E+01 0. -1.
       -5    1    3    3    0  502  0.43023015935E+02 -0.12840053371E+03 -0.38488594754E+03  0.40804038963E+03  0.46999998093E+01 0.  1.
</event>
<event>
 5   0  0.9303190E-03  0.6011013E+03  0.7818609E-02  0.9903124E-01
        2   -1    0    0  501    0  0.00000000000E+00  0.00000000000E+00  0.81169235694E+03  0.81169235695E+03  0.25500000920E-02 0. -1.
       -2   -1    0    0    0  501  0.00000000000E+00  0.00000000000E+00 -0.11128685397E+03  0.11128685400E+03  0.25500000920E-02 0.  1.
    10030    2    1    2    0    0  0.00000000000E+00  0.00000000000E+00  0.70040550297E+03  0.92297921095E+03  0.60110128534E+03 0.  0.
        4    1    3    3  502    0  0.94042751187E+02 -0.97588483813E+02  0.76210526367E+03  0.77406304462E+03  0.12699999809E+01 0. -1.
       -4    1    3    3    0  502 -0.94042751187E+02  0.97588483813E+02 -0.61699760700E+02  0.14891616633E+03  0.12699999809E+01 0.  1.
</event>
<event>
 5   0  0.9391405E-03  0.6003147E+03  0.7818609E-02  0.9904753E-01
        2   -1    0    0  501    0  0.00000000000E+00  0.00000000000E+00  0.11628674287E+04  0.11628674287E+04  0.25500000920E-02 0.  1.
       -2   -1    0    0    0  501  0.00000000000E+00  0.00000000000E+00 -0.77476100694E+02  0.77476100736E+02  0.25500000920E-02 0. -1.
    10030    2    1    2    0    0  0.00000000000E+00  0.00000000000E+00  0.10853913280E+04  0.12403435294E+04  0.60031469755E+03 0.  0.
        2    1    3    3  502    0  0.65668320589E+02  0.18835953898E+02 -0.61199262593E+02  0.91719524839E+02  0.25500000920E-02 0. -1.
       -2    1    3    3    0  502 -0.65668320589E+02 -0.18835953898E+02  0.11465905906E+04  0.11486240046E+04  0.25500000920E-02 0.  1.
</event>
<event>
 5   0  0.5790967E-03  0.5992668E+03  0.7818609E-02  0.9906928E-01
        1   -1    0    0  501    0  0.00000000000E+00  0.00000000000E+00  0.94751619930E+03  0.94751619932E+03  0.50400001928E-02 0.  1.
       -1   -1    0    0    0  501  0.00000000000E+00  0.00000000000E+00 -0.94753196050E+02  0.94753196184E+02  0.50400001928E-02 0. -1.
    10030    2    1    2    0    0  0.00000000000E+00  0.00000000000E+00  0.85276300325E+03  0.10422693955E+04  0.59926684631E+03 0.  0.
        3    1    3    3  502    0 -0.14016502590E+02  0.29898223920E+03  0.40219814882E+03  0.50134838468E+03  0.10100000352E+00 0.  1.
       -3    1    3    3    0  502  0.14016502590E+02 -0.29898223920E+03  0.45056485443E+03  0.54092101082E+03  0.10100000352E+00 0. -1.
</event>
<event>
 5   0  0.5819446E-03  0.6020068E+03  0.7818609E-02  0.9901251E-01
       -1   -1    0    0    0  501  0.00000000000E+00  0.00000000000E+00  0.18329176267E+03  0.18329176274E+03  0.50400001928E-02 0. -1.
        1   -1    0    0  501    0  0.00000000000E+00  0.00000000000E+00 -0.49431059797E+03  0.49431059799E+03  0.50400001928E-02 0.  1.
    10030    2    1    2    0    0  0.00000000000E+00  0.00000000000E+00 -0.31101883529E+03  0.67760236074E+03  0.60200684661E+03 0.  0.
        5    1    3    3  502    0  0.24112899637E+02 -0.23792188484E+03 -0.36119286818E+03  0.43320968738E+03  0.46999998093E+01 0.  1.
       -5    1    3    3    0  502 -0.24112899637E+02  0.23792188484E+03  0.50174032891E+02  0.24439267336E+03  0.46999998093E+01 0. -1.
</event>
<event>
 5   0  0.9028473E-03  0.5973941E+03  0.7818609E-02  0.9910827E-01
        2   -1    0    0  501    0  0.00000000000E+00  0.00000000000E+00  0.90902603205E+03  0.90902603205E+03  0.25500000920E-02 0.  1.
       -2   -1    0    0    0  501  0.00000000000E+00  0.00000000000E+00 -0.98148940422E+02  0.98148940455E+02  0.25500000920E-02 0. -1.
    10030    2    1    2    0    0  0.00000000000E+00  0.00000000000E+00  0.81087709163E+03  0.10071749725E+04  0.59739414755E+03 0.  0.
        1    1    3    3  502    0 -0.38734535279E+02  0.18520726711E+02  0.90379654527E+03  0.90481576954E+03  0.50400001928E-02 0.  1.
       -1    1    3    3    0  502  0.38734535279E+02 -0.18520726711E+02 -0.92919453644E+02  0.10235920297E+03  0.50400001928E-02 0. -1.
</event>
<event>
 5   0  0.9162342E-03  0.6001607E+03  0.7818609E-02  0.9905073E-01
       -2   -1    0    0    0  501  0.00000000000E+00  0.00000000000E+00  0.20106615154E+03  0.20106615156E+03  0.25500000920E-02 0. -1.
        2   -1    0    0  501    0  0.00000000000E+00  0.00000000000E+00 -0.44785369598E+03  0.44785369599E+03  0.25500000920E-02 0.  1.
    10030    2    1    2    0    0  0.00000000000E+00  0.00000000000E+00 -0.24678754444E+03  0.64891984754E+03  0.60016070885E+03 0.  0.
        5    1    3    3  502    0  0.64881185733E+02 -0.11323269173E+03  0.16873195825E+03  0.21336301102E+03  0.46999998093E+01 0. -1.
       -5    1    3    3    0  502 -0.64881185733E+02  0.11323269173E+03 -0.41551950268E+03  0.43555683653E+03  0.46999998093E+01 0.  1.
</event>
<event>
 5   0  0.9162342E-03  0.6001261E+03  0.7818609E-02  0.9905145E-01
        2   -1    0    0  501    0  0.00000000000E+00  0.00000000000E+00  0.40901095103E+03  0.40901095104E+03  0.25500000920E-02 0. -1.
       -2   -1    0    0    0  501  0.00000000000E+00  0.00000000000E+00 -0.22013549114E+03  0.22013549115E+03  0.25500000920E-02 0.  1.
    10030    2    1    2    0    0  0.00000000000E+00  0.00000000000E+00  0.18887545989E+03  0.62914644219E+03  0.60012607540E+03 0.  0.
        5    1    3    3  502    0  0.21770958458E+03  0.17098962855E+03 -0.26831499211E+02  0.27816710021E+03  0.46999998093E+01 0.  1.
       -5    1    3    3    0  502 -0.21770958458E+03 -0.17098962855E+03  0.21570695911E+03  0.35097934198E+03  0.46999998093E+01 0. -1.
</event>
<event>
 5   0  0.5891927E-03  0.6003262E+03  0.7818609E-02  0.9904730E-01
       -1   -1    0    0    0  501  0.00000000000E+00  0.00000000000E+00  0.14538369024E+03  0.14538369033E+03  0.50400001928E-02 0.  1.
        1   -1    0    0  501    0  0.00000000000E+00  0.00000000000E+00 -0.61972482359E+03  0.61972482361E+03  0.50400001928E-02 0. -1.
    10030    2    1    2    0    0  0.00000000000E+00  0.00000000000E+00 -0.47434113334E+03  0.76510851393E+03  0.60032618410E+03 0.  0.
        4    1    3    3  502    0  0.11729185368E+03 -0.46732111717E+02 -0.58423168939E+03  0.59772029328E+03  0.12699999809E+01 0. -1.
       -4    1    3    3    0  502 -0.11729185368E+03  0.46732111717E+02  0.10989055605E+03  0.16738822066E+03  0.12699999809E+01 0.  1.
</event>
<event>
 5   0  0.5891927E-03  0.6009644E+03  0.7818609E-02  0.9903407E-01
        1   -1    0    0  501    0  0.00000000000E+00  0.00000000000E+00  0.96957819158E+03  0.96957819159E+03  0.50400001928E-02 0.  1.
       -1   -1    0    0    0  501  0.00000000000E+00  0.00000000000E+00 -0.93122495240E+02  0.93122495376E+02  0.50400001928E-02 0. -1.
    10030    2    1    2    0    0  0.00000000000E+00  0.00000000000E+00  0.87645569634E+03  0.10627006870E+04  0.60096436037E+03 0.  0.
        4    1    3    3  502    0  0.21526390063E+01  0.61104389209E+02 -0.82001255556E+02  0.10229466774E+03  0.12699999809E+01 0. -1.
       -4    1    3    3    0  502 -0.21526390063E+01 -0.61104389209E+02  0.95845695189E+03  0.96040601923E+03  0.12699999809E+01 0.  1.
</event>
<event>
 5   0  0.6078658E-03  0.6030609E+03  0.7818609E-02  0.9899076E-01
       -1   -1    0    0    0  501  0.00000000000E+00  0.00000000000E+00  0.79070480368E+02  0.79070480529E+02  0.50400001928E-02 0.  1.
        1   -1    0    0  501    0  0.00000000000E+00  0.00000000000E+00 -0.11498680713E+04  0.11498680713E+04  0.50400001928E-02 0. -1.
    10030    2    1    2    0    0  0.00000000000E+00  0.00000000000E+00 -0.10707975909E+04  0.12289385518E+04  0.60306092847E+03 0.  0.
        2    1    3    3  502    0 -0.79397315731E+02 -0.12351673385E+03  0.12923978156E+01  0.14684000676E+03  0.25500000920E-02 0.  1.
       -2    1    3    3    0  502  0.79397315731E+02  0.12351673385E+03 -0.10720899887E+04  0.10820985451E+04  0.25500000920E-02 0. -1.
</event>
<event>
 5   0  0.9028473E-03  0.5963959E+03  0.7818609E-02  0.9912912E-01
       -2   -1    0    0    0  501  0.00000000000E+00  0.00000000000E+00  0.11196566873E+03  0.11196566876E+03  0.25500000920E-02 0. -1.
        2   -1    0    0  501    0  0.00000000000E+00  0.00000000000E+00 -0.79419010145E+03  0.79419010145E+03  0.25500000920E-02 0.  1.
    10030    2    1    2    0    0  0.00000000000E+00  0.00000000000E+00 -0.68222443272E+03  0.90615577021E+03  0.59639592829E+03 0.  0.
        1    1    3    3  502    0 -0.82297266934E+02  0.23191981845E+03 -0.59699410805E+03  0.64572564407E+03  0.50400001928E-02 0.  1.
       -1    1    3    3    0  502  0.82297266934E+02 -0.23191981845E+03 -0.85230324675E+02  0.26043012614E+03  0.50400001928E-02 0. -1.
</event>
<event>
 5   0  0.9162342E-03  0.5997447E+03  0.7818609E-02  0.9905936E-01
        2   -1    0    0  501    0  0.00000000000E+00  0.00000000000E+00  0.52088501208E+03  0.52088501209E+03  0.25500000920E-02 0.  1.
       -2   -1    0    0    0  501  0.00000000000E+00  0.00000000000E+00 -0.17263586113E+03  0.17263586115E+03  0.25500000920E-02 0. -1.
    10030    2    1    2    0    0  0.00000000000E+00  0.00000000000E+00  0.34824915095E+03  0.69352087324E+03  0.59974472110E+03 0.  0.
        5    1    3    3  502    0 -0.15744672567E+03  0.22930028782E+03  0.44667753829E+02  0.28175413333E+03  0.46999998093E+01 0.  1.
       -5    1    3    3    0  502  0.15744672567E+03 -0.22930028782E+03  0.30358139712E+03  0.41176673991E+03  0.46999998093E+01 0. -1.
</event>
<event>
 5   0  0.9822607E-03  0.5982877E+03  0.7818609E-02  0.9908965E-01
        2   -1    0    0  501    0  0.00000000000E+00  0.00000000000E+00  0.17510387809E+04  0.17510387809E+04  0.25500000920E-02 0. -1.
       -2   -1    0    0    0  501  0.00000000000E+00  0.00000000000E+00 -0.51105118529E+02  0.51105118593E+02  0.25500000920E-02 0.  1.
    10030    2    1    2    0    0  0.00000000000E+00  0.00000000000E+00  0.16999336623E+04  0.18021438995E+04  0.59828770506E+03 0.  0.
        3    1    3    3  502    0 -0.11744920149E+03 -0.26785042989E+03  0.66068208448E+03  0.72252266032E+03  0.10100000352E+00 0.  1.
       -3    1    3    3    0  502  0.11744920149E+03  0.26785042989E+03  0.10392515779E+04  0.10796212392E+04  0.10100000352E+00 0. -1.
</event>
<event>
 5   0  0.5891927E-03  0.6001568E+03  0.7818609E-02  0.9905081E-01
       -1   -1    0    0    0  501  0.00000000000E+00  0.00000000000E+00  0.48251241143E+02  0.48251241406E+02  0.50400001928E-02 0. -1.
        1   -1    0    0  501    0  0.00000000000E+00  0.00000000000E+00 -0.18662118575E+04  0.18662118575E+04  0.50400001928E-02 0.  1.
    10030    2    1    2    0    0  0.00000000000E+00  0.00000000000E+00 -0.18179606164E+04  0.19144630989E+04  0.60015677492E+03 0.  0.
        4    1    3    3  502    0 -0.20544934011E+03  0.44491965571E+02 -0.15920775730E+04  0.16058958801E+04  0.12699999809E+01 0.  1.
       -4    1    3    3    0  502  0.20544934011E+03 -0.44491965571E+02 -0.22588304335E+03  0.30856721881E+03  0.12699999809E+01 0. -1.
</event>
<event>
 5   0  0.9028473E-03  0.6003599E+03  0.7818609E-02  0.9904660E-01
       -2   -1    0    0    0  501  0.00000000000E+00  0.00000000000E+00  0.31483416915E+03  0.31483416916E+03  0.25500000920E-02 0. -1.
        2   -1    0    0  501    0  0.00000000000E+00  0.00000000000E+00 -0.28620785828E+03  0.28620785830E+03  0.25500000920E-02 0.  1.
    10030    2    1    2    0    0  0.00000000000E+00  0.00000000000E+00  0.28626310869E+02  0.60104202746E+03  0.60035993629E+03 0.  0.
        1    1    3    3  502    0 -0.18996498438E+03 -0.22881121348E+03  0.55185346505E+02  0.30246766637E+03  0.50400001928E-02 0.  1.
       -1    1    3    3    0  502  0.18996498438E+03  0.22881121348E+03 -0.26559035636E+02  0.29857436109E+03  0.50400001928E-02 0. -1.
</event>
<event>
 5   0  0.5891927E-03  0.5998702E+03  0.7818609E-02  0.9905675E-01
        1   -1    0    0  501    0  0.00000000000E+00  0.00000000000E+00  0.14973956012E+04  0.14973956012E+04  0.50400001928E-02 0. -1.
       -1   -1    0    0    0  501  0.00000000000E+00  0.00000000000E+00 -0.60078349250E+02  0.60078349461E+02  0.50400001928E-02 0.  1.
    10030    2    1    2    0    0  0.00000000000E+00  0.00000000000E+00  0.14373172519E+04  0.15574739507E+04  0.59987017284E+03 0.  0.
        4    1    3    3  502    0 -0.11061830450E+03 -0.22018994038E+03  0.27469444751E+03  0.36902394439E+03  0.12699999809E+01 0.  1.
       -4    1    3    3    0  502  0.11061830450E+03  0.22018994038E+03  0.11626228044E+04  0.11884500063E+04  0.12699999809E+01 0. -1.
</event>
<event>
 5   0  0.9822607E-03  0.5991851E+03  0.7818609E-02  0.9907098E-01
        2   -1    0    0  501    0  0.00000000000E+00  0.00000000000E+00  0.77631637735E+03  0.77631637735E+03  0.25500000920E-02 0. -1.
       -2   -1    0    0    0  501  0.00000000000E+00  0.00000000000E+00 -0.11561741554E+03  0.11561741557E+03  0.25500000920E-02 0.  1.
    10030    2    1    2    0    0  0.00000000000E+00  0.00000000000E+00  0.66069896181E+03  0.89193379292E+03  0.59918509062E+03 0.  0.
        3    1    3    3  502    0  0.15823961885E+03 -0.19244735107E+03  0.82690512451E+02  0.26251379194E+03  0.10100000352E+00 0.  1.
       -3    1    3    3    0  502 -0.15823961885E+03  0.19244735107E+03  0.57800844936E+03  0.62942000098E+03  0.10100000352E+00 0. -1.
</event>
<event>
 5   0  0.9303190E-03  0.5993731E+03  0.7818609E-02  0.9906707E-01
       -2   -1    0    0    0  501  0.00000000000E+00  0.00000000000E+00  0.99193542751E+02  0.99193542783E+02  0.25500000920E-02 0. -1.
        2   -1    0    0  501    0  0.00000000000E+00  0.00000000000E+00 -0.90542220606E+03  0.90542220607E+03  0.25500000920E-02 0.  1.
    10030    2    1    2    0    0  0.00000000000E+00  0.00000000000E+00 -0.80622866331E+03  0.10046157489E+04  0.59937312693E+03 0.  0.
        4    1    3    3  502    0  0.12080716448E+03  0.91317190796E+02  0.30338486272E+02  0.15445140651E+03  0.12699999809E+01 0. -1.
       -4    1    3    3    0  502 -0.12080716448E+03 -0.91317190796E+02 -0.83656714958E+03  0.85016434234E+03  0.12699999809E+01 0.  1.
</event>
<event>
 5   0  0.5765045E-03  0.5990287E+03  0.7818609E-02  0.9907423E-01
       -1   -1    0    0    0  501  0.00000000000E+00  0.00000000000E+00  0.15531941735E+03  0.15531941743E+03  0.50400001928E-02 0.  1.
        1   -1    0    0  501    0  0.00000000000E+00  0.00000000000E+00 -0.57757653780E+03  0.57757653783E+03  0.50400001928E-02 0. -1.
    10030    2    1    2    0    0  0.00000000000E+00  0.00000000000E+00 -0.42225712046E+03  0.73289595525E+03  0.59902871838E+03 0.  0.
        1    1    3    3  502    0 -0.87839534917E+02 -0.93175008551E+02 -0.54239747902E+03  0.55730816555E+03  0.50400001928E-02 0. -1.
       -1    1    3    3    0  502  0.87839534917E+02  0.93175008551E+02  0.12014035856E+03  0.17558778971E+03  0.50400001928E-02 0.  1.
</event>
<event>
 5   0  0.9028473E-03  0.5993834E+03  0.7818609E-02  0.9906686E-01
        2   -1    0    0  501    0  0.00000000000E+00  0.00000000000E+00  0.91827685032E+03  0.91827685032E+03  0.25500000920E-02 0.  1.
       -2   -1    0    0    0  501  0.00000000000E+00  0.00000000000E+00 -0.97808305638E+02  0.97808305671E+02  0.25500000920E-02 0. -1.
    10030    2    1    2    0    0  0.00000000000E+00  0.00000000000E+00  0.82046854468E+03  0.10160851560E+04  0.59938335931E+03 0.  0.
        1    1    3    3  502    0  0.59319791122E+02 -0.29375311706E+03  0.40630537857E+03  0.50487007445E+03  0.50400001928E-02 0. -1.
       -1    1    3    3    0  502 -0.59319791122E+02  0.29375311706E+03  0.41416316611E+03  0.51121508154E+03  0.50400001928E-02 0.  1.
</event>
<event>
 5   0  0.5790967E-03  0.6018511E+03  0.7818609E-02  0.9901573E-01
       -1   -1    0    0    0  501  0.00000000000E+00  0.00000000000E+00  0.12699166908E+03  0.12699166918E+03  0.50400001928E-02 0. -1.
        1   -1    0    0  501    0  0.00000000000E+00  0.00000000000E+00 -0.71308764534E+03  0.71308764535E+03  0.50400001928E-02 0.  1.
    10030    2    1    2    0    0  0.00000000000E+00  0.00000000000E+00 -0.58609597626E+03  0.84007931453E+03  0.60185111225E+03 0.  0.
        3    1    3    3  502    0  0.23359036812E+03  0.18784148010E+03 -0.33017009026E+03  0.44593853885E+03  0.10100000352E+00 0.  1.
       -3    1    3    3    0  502 -0.23359036812E+03 -0.18784148010E+03 -0.25592588600E+03  0.39414077568E+03  0.10100000352E+00 0. -1.
</event>
<event>
 5   0  0.5819446E-03  0.6009813E+03  0.7818609E-02  0.9903372E-01
       -1   -1    0    0    0  501  0.00000000000E+00  0.00000000000E+00  0.56446993511E+02  0.56446993736E+02  0.50400001928E-02 0. -1.
        1   -1    0    0  501    0  0.00000000000E+00  0.00000000000E+00 -0.15996356439E+04  0.15996356439E+04  0.50400001928E-02 0.  1.
    10030    2    1    2    0    0  0.00000000000E+00  0.00000000000E+00 -0.15431886503E+04  0.16560826376E+04  0.60098127426E+03 0.  0.
        5    1    3    3  502    0 -0.14142980869E+03  0.23064524517E+03 -0.41153432388E+03  0.49252635426E+03  0.46999998093E+01 0. -1.
       -5    1    3    3    0  502  0.14142980869E+03 -0.23064524517E+03 -0.11316543265E+04  0.11635562833E+04  0.46999998093E+01 0.  1.
</event>
<event>
 5   0  0.5891927E-03  0.5997657E+03  0.7818609E-02  0.9905892E-01
       -1   -1    0    0    0  501  0.00000000000E+00  0.00000000000E+00  0.56826308205E+02  0.56826308429E+02  0.50400001928E-02 0. -1.
        1   -1    0    0  501    0  0.00000000000E+00  0.00000000000E+00 -0.15825367223E+04  0.15825367223E+04  0.50400001928E-02 0.  1.
    10030    2    1    2    0    0  0.00000000000E+00  0.00000000000E+00 -0.15257104141E+04  0.16393630308E+04  0.59976568665E+03 0.  0.
        4    1    3    3  502    0  0.14798017168E+03  0.23512329310E+02 -0.52833094838E+02  0.15888332087E+03  0.12699999809E+01 0. -1.
       -4    1    3    3    0  502 -0.14798017168E+03 -0.23512329310E+02 -0.14728773193E+04  0.14804797099E+04  0.12699999809E+01 0.  1.
</event>
<event>
 5   0  0.5790967E-03  0.6000246E+03  0.7818609E-02  0.9905355E-01
       -1   -1    0    0    0  501  0.00000000000E+00  0.00000000000E+00  0.73221510776E+02  0.73221510950E+02  0.50400001928E-02 0. -1.
        1   -1    0    0  501    0  0.00000000000E+00  0.00000000000E+00 -0.12292477991E+04  0.12292477991E+04  0.50400001928E-02 0.  1.
    10030    2    1    2    0    0  0.00000000000E+00  0.00000000000E+00 -0.11560262883E+04  0.13024693101E+04  0.60002460312E+03 0.  0.
        3    1    3    3  502    0  0.13336654291E+03 -0.16777318033E+03 -0.10337186075E+04  0.10557029149E+04  0.10100000352E+00 0.  1.
       -3    1    3    3    0  502 -0.13336654291E+03  0.16777318033E+03 -0.12230768086E+03  0.24676639521E+03  0.10100000352E+00 0. -1.
</event>
<event>
 5   0  0.5790967E-03  0.5998996E+03  0.7818609E-02  0.9905614E-01
       -1   -1    0    0    0  501  0.00000000000E+00  0.00000000000E+00  0.13795883762E+03  0.13795883771E+03  0.50400001928E-02 0. -1.
        1   -1    0    0  501    0  0.00000000000E+00  0.00000000000E+00 -0.65215014977E+03  0.65215014979E+03  0.50400001928E-02 0.  1.
    10030    2    1    2    0    0  0.00000000000E+00  0.00000000000E+00 -0.51419131215E+03  0.79010898750E+03  0.59989958045E+03 0.  0.
        3    1    3    3  502    0  0.73688206486E+02  0.97940949091E+02  0.10347217389E+03  0.16040225140E+03  0.10100000352E+00 0. -1.
       -3    1    3    3    0  502 -0.73688206486E+02 -0.97940949091E+02 -0.61766348605E+03  0.62970673609E+03  0.10100000352E+00 0.  1.
</event>
<event>
 5   0  0.5891927E-03  0.5990200E+03  0.7818609E-02  0.9907441E-01
       -1   -1    0    0    0  501  0.00000000000E+00  0.00000000000E+00  0.28460725580E+03  0.28460725585E+03  0.50400001928E-02 0.  1.
        1   -1    0    0  501    0  0.00000000000E+00  0.00000000000E+00 -0.31519309784E+03  0.31519309788E+03  0.50400001928E-02 0. -1.
    10030    2    1    2    0    0  0.00000000000E+00  0.00000000000E+00 -0.30585842039E+02  0.59980035373E+03  0.59902000852E+03 0.  0.
        4    1    3    3  502    0  0.27199821048E+03  0.10716309632E+03  0.49889301161E+02  0.29657631562E+03  0.12699999809E+01 0. -1.
       -4    1    3    3    0  502 -0.27199821048E+03 -0.10716309632E+03 -0.80475143200E+02  0.30322403811E+03  0.12699999809E+01 0.  1.
</event>
<event>
 5   0  0.5790967E-03  0.5997197E+03  0.7818609E-02  0.9905988E-01
       -1   -1    0    0    0  501  0.00000000000E+00  0.00000000000E+00  0.12137385855E+03  0.12137385866E+03  0.50400001928E-02 0.  1.
        1   -1    0    0  501    0  0.00000000000E+00  0.00000000000E+00 -0.74081796177E+03  0.74081796179E+03  0.50400001928E-02 0. -1.
    10030    2    1    2    0    0  0.00000000000E+00  0.00000000000E+00 -0.61944410322E+03  0.86219182045E+03  0.59971971639E+03 0.  0.
        3    1    3    3  502    0  0.70582719064E+02 -0.17781063353E+03 -0.64168528242E+03  0.66959581353E+03  0.10100000352E+00 0. -1.
       -3    1    3    3    0  502 -0.70582719064E+02  0.17781063353E+03  0.22241179198E+02  0.19259600691E+03  0.10100000352E+00 0.  1.
</event>
<event>
 5   0  0.5765045E-03  0.6024196E+03  0.7818609E-02  0.9900399E-01
        1   -1    0    0  501    0  0.00000000000E+00  0.00000000000E+00  0.60460350488E+03  0.60460350490E+03  0.50400001928E-02 0. -1.
       -1   -1    0    0    0  501  0.00000000000E+00  0.00000000000E+00 -0.15006091980E+03  0.15006091989E+03  0.50400001928E-02 0.  1.
    10030    2    1    2    0    0  0.00000000000E+00  0.00000000000E+00  0.45454258508E+03  0.75466442479E+03  0.60241964808E+03 0.  0.
        1    1    3    3  502    0  0.28367112872E+03  0.39421901867E+02  0.34414404012E+03  0.44772593849E+03  0.50400001928E-02 0. -1.
       -1    1    3    3    0  502 -0.28367112872E+03 -0.39421901867E+02  0.11039854495E+03  0.30693848630E+03  0.50400001928E-02 0.  1.
</event>
<event>
 5   0  0.5790967E-03  0.5975266E+03  0.7818609E-02  0.9910551E-01
       -1   -1    0    0    0  501  0.00000000000E+00  0.00000000000E+00  0.11586901976E+03  0.11586901987E+03  0.50400001928E-02 0. -1.
        1   -1    0    0  501    0  0.00000000000E+00  0.00000000000E+00 -0.77034829354E+03  0.77034829356E+03  0.50400001928E-02 0.  1.
    10030    2    1    2    0    0  0.00000000000E+00  0.00000000000E+00 -0.65447927378E+03  0.88621731343E+03  0.59752657415E+03 0.  0.
        3    1    3    3  502    0 -0.87853976325E+02  0.10968098293E+03  0.63790799014E+02  0.15432924354E+03  0.10100000352E+00 0. -1.
       -3    1    3    3    0  502  0.87853976325E+02 -0.10968098293E+03 -0.71827007279E+03  0.73188806989E+03  0.10100000352E+00 0.  1.
</event>
<event>
 5   0  0.9822607E-03  0.5985822E+03  0.7818609E-02  0.9908352E-01
        2   -1    0    0  501    0  0.00000000000E+00  0.00000000000E+00  0.68233809101E+03  0.68233809102E+03  0.25500000920E-02 0.  1.
       -2   -1    0    0    0  501  0.00000000000E+00  0.00000000000E+00 -0.13127679563E+03  0.13127679565E+03  0.25500000920E-02 0. -1.
    10030    2    1    2    0    0  0.00000000000E+00  0.00000000000E+00  0.55106129538E+03  0.81361488667E+03  0.59858218528E+03 0.  0.
        3    1    3    3  502    0 -0.14390470687E+03  0.12427427043E+02  0.63182738340E+03  0.64812719293E+03  0.10100000352E+00 0.  1.
       -3    1    3    3    0  502  0.14390470687E+03 -0.12427427043E+02 -0.80766088017E+02  0.16548769373E+03  0.10100000352E+00 0. -1.
</event>
<event>
 5   0  0.9391405E-03  0.5999952E+03  0.7818609E-02  0.9905416E-01
        2   -1    0    0  501    0  0.00000000000E+00  0.00000000000E+00  0.14820662025E+04  0.14820662025E+04  0.25500000920E-02 0. -1.
       -2   -1    0    0    0  501  0.00000000000E+00  0.00000000000E+00 -0.60725067148E+02  0.60725067201E+02  0.25500000920E-02 0.  1.
    10030    2    1    2    0    0  0.00000000000E+00  0.00000000000E+00  0.14213411354E+04  0.15427912697E+04  0.59999523234E+03 0.  0.
        2    1    3    3  502    0 -0.28551320780E+03  0.85754391598E+02  0.79699108758E+03  0.85092091360E+03  0.25500000920E-02 0. -1.
       -2    1    3    3    0  502  0.28551320780E+03 -0.85754391598E+02  0.62435004779E+03  0.69187035612E+03  0.25500000920E-02 0.  1.
</event>
<event>
 5   0  0.5819446E-03  0.6009195E+03  0.7818609E-02  0.9903500E-01
        1   -1    0    0  501    0  0.00000000000E+00  0.00000000000E+00  0.54182109719E+03  0.54182109721E+03  0.50400001928E-02 0. -1.
       -1   -1    0    0    0  501  0.00000000000E+00  0.00000000000E+00 -0.16661597942E+03  0.16661597950E+03  0.50400001928E-02 0.  1.
    10030    2    1    2    0    0  0.00000000000E+00  0.00000000000E+00  0.37520511777E+03  0.70843707671E+03  0.60091947152E+03 0.  0.
        5    1    3    3  502    0  0.26237972583E+03 -0.73016058101E+02  0.33709569151E+03  0.43339365535E+03  0.46999998093E+01 0. -1.
       -5    1    3    3    0  502 -0.26237972583E+03  0.73016058101E+02  0.38109426261E+02  0.27504342136E+03  0.46999998093E+01 0.  1.
</event>
<event>
 5   0  0.9028473E-03  0.5988093E+03  0.7818609E-02  0.9907879E-01
        2   -1    0    0  501    0  0.00000000000E+00  0.00000000000E+00  0.11251976272E+04  0.11251976272E+04  0.25500000920E-02 0.  1.
       -2   -1    0    0    0  501  0.00000000000E+00  0.00000000000E+00 -0.79668803629E+02  0.79668803670E+02  0.25500000920E-02 0. -1.
    10030    2    1    2    0    0  0.00000000000E+00  0.00000000000E+00  0.10455288236E+04  0.12048664309E+04  0.59880931467E+03 0.  0.
        1    1    3    3  502    0 -0.22293072001E+03 -0.11526509290E+03  0.19423648375E+03  0.31735147583E+03  0.50400001928E-02 0.  1.
       -1    1    3    3    0  502  0.22293072001E+03  0.11526509290E+03  0.85129233986E+03  0.88751495508E+03  0.50400001928E-02 0. -1.
</event>
<event>
 5   0  0.9028473E-03  0.6008997E+03  0.7818609E-02  0.9903541E-01
       -2   -1    0    0    0  501  0.00000000000E+00  0.00000000000E+00  0.19419512965E+03  0.19419512967E+03  0.25500000920E-02 0. -1.
        2   -1    0    0  501    0  0.00000000000E+00  0.00000000000E+00 -0.46484224992E+03  0.46484224993E+03  0.25500000920E-02 0.  1.
    10030    2    1    2    0    0  0.00000000000E+00  0.00000000000E+00 -0.27064712027E+03  0.65903737960E+03  0.60089966217E+03 0.  0.
        1    1    3    3  502    0  0.21664256152E+03 -0.60645924653E+02 -0.35373452694E+03  0.41921360094E+03  0.50400001928E-02 0.  1.
       -1    1    3    3    0  502 -0.21664256152E+03  0.60645924653E+02  0.83087406673E+02  0.23982377866E+03  0.50400001928E-02 0. -1.
</event>
<event>
 5   0  0.9303190E-03  0.6010193E+03  0.7818609E-02  0.9903294E-01
       -2   -1    0    0    0  501  0.00000000000E+00  0.00000000000E+00  0.28418947795E+03  0.28418947796E+03  0.25500000920E-02 0. -1.
        2   -1    0    0  501    0  0.00000000000E+00  0.00000000000E+00 -0.31776703425E+03  0.31776703426E+03  0.25500000920E-02 0.  1.
    10030    2    1    2    0    0  0.00000000000E+00  0.00000000000E+00 -0.33577556296E+02  0.60195651222E+03  0.60101929280E+03 0.  0.
        4    1    3    3  502    0 -0.74716314340E+02 -0.63943653499E+01  0.27466503532E+03  0.28472075805E+03  0.12699999809E+01 0. -1.
       -4    1    3    3    0  502  0.74716314340E+02  0.63943653499E+01 -0.30824259162E+03  0.31723575417E+03  0.12699999809E+01 0.  1.
</event>
<event>
 5   0  0.9391405E-03  0.6000901E+03  0.7818609E-02  0.9905219E-01
       -2   -1    0    0    0  501  0.00000000000E+00  0.00000000000E+00  0.38331281329E+02  0.38331281414E+02  0.25500000920E-02 0.  1.
        2   -1    0    0  501    0  0.00000000000E+00  0.00000000000E+00 -0.23486568622E+04  0.23486568622E+04  0.25500000920E-02 0. -1.
    10030    2    1    2    0    0  0.00000000000E+00  0.00000000000E+00 -0.23103255809E+04  0.23869881436E+04  0.60009008335E+03 0.  0.
        2    1    3    3  502    0  0.69754537388E+01  0.29794692784E+03 -0.10170267024E+04  0.10597944811E+04  0.25500000920E-02 0. -1.
       -2    1    3    3    0  502 -0.69754537388E+01 -0.29794692784E+03 -0.12932988785E+04  0.13271936625E+04  0.25500000920E-02 0.  1.
</event>
<event>
 5   0  0.5819446E-03  0.5995349E+03  0.7818609E-02  0.9906371E-01
       -1   -1    0    0    0  501  0.00000000000E+00  0.00000000000E+00  0.20339475098E+03  0.20339475105E+03  0.50400001928E-02 0. -1.
        1   -1    0    0  501    0  0.00000000000E+00  0.00000000000E+00 -0.44180356208E+03  0.44180356210E+03  0.50400001928E-02 0.  1.
    10030    2    1    2    0    0  0.00000000000E+00  0.00000000000E+00 -0.23840881109E+03  0.64519831315E+03  0.59953490481E+03 0.  0.
        5    1    3    3  502    0  0.76619697800E+02 -0.26290918834E+03 -0.25033151573E+03  0.37105225666E+03  0.46999998093E+01 0.  1.
       -5    1    3    3    0  502 -0.76619697800E+02  0.26290918834E+03  0.11922704635E+02  0.27414605649E+03  0.46999998093E+01 0. -1.
</event>
<event>
 5   0  0.9391405E-03  0.5945543E+03  0.7818609E-02  0.9916769E-01
        2   -1    0    0  501    0  0.00000000000E+00  0.00000000000E+00  0.10272926669E+04  0.10272926669E+04  0.25500000920E-02 0. -1.
       -2   -1    0    0    0  501  0.00000000000E+00  0.00000000000E+00 -0.86025840461E+02  0.86025840498E+02  0.25500000920E-02 0.  1.
    10030    2    1    2    0    0  0.00000000000E+00  0.00000000000E+00  0.94126682639E+03  0.11133185074E+04  0.59455433759E+03 0.  0.
        2    1    3    3  502    0 -0.59136765447E+01 -0.15334600359E+03 -0.61212407675E+01  0.15358202363E+03  0.25500000920E-02 0.  1.
       -2    1    3    3    0  502  0.59136765447E+01  0.15334600359E+03  0.94738806716E+03  0.95973648373E+03  0.25500000920E-02 0. -1.
</event>
<event>
 5   0  0.5819446E-03  0.6004450E+03  0.7818609E-02  0.9904483E-01
        1   -1    0    0  501    0  0.00000000000E+00  0.00000000000E+00  0.15163366058E+04  0.15163366058E+04  0.50400001928E-02 0.  1.
       -1   -1    0    0    0  501  0.00000000000E+00  0.00000000000E+00 -0.59441659528E+02  0.59441659741E+02  0.50400001928E-02 0. -1.
    10030    2    1    2    0    0  0.00000000000E+00  0.00000000000E+00  0.14568949463E+04  0.15757782655E+04  0.60044504969E+03 0.  0.
        5    1    3    3  502    0  0.56012333318E+02  0.27704365736E+03  0.46312959814E+03  0.54258795069E+03  0.46999998093E+01 0. -1.
       -5    1    3    3    0  502 -0.56012333318E+02 -0.27704365736E+03  0.99376534812E+03  0.10331903148E+04  0.46999998093E+01 0.  1.
</event>
<event>
 5   0  0.6078658E-03  0.6001586E+03  0.7818609E-02  0.9905077E-01
        1   -1    0    0  501    0  0.00000000000E+00  0.00000000000E+00  0.11023689935E+04  0.11023689935E+04  0.50400001928E-02 0. -1.
       -1   -1    0    0    0  501  0.00000000000E+00  0.00000000000E+00 -0.81685521152E+02  0.81685521307E+02  0.50400001928E-02 0.  1.
    10030    2    1    2    0    0  0.00000000000E+00  0.00000000000E+00  0.10206834724E+04  0.11840545148E+04  0.60015859849E+03 0.  0.
        2    1    3    3  502    0 -0.17581342144E+03  0.10443886470E+03  0.77067194214E+02  0.21853418050E+03  0.25500000920E-02 0.  1.
       -2    1    3    3    0  502  0.17581342144E+03 -0.10443886470E+03  0.94361627816E+03  0.96552033435E+03  0.25500000920E-02 0. -1.
</event>
<event>
 5   0  0.6078658E-03  0.6002481E+03  0.7818609E-02  0.9904892E-01
        1   -1    0    0  501    0  0.00000000000E+00  0.00000000000E+00  0.46158903978E+03  0.46158903981E+03  0.50400001928E-02 0.  1.
       -1   -1    0    0    0  501  0.00000000000E+00  0.00000000000E+00 -0.19513988263E+03  0.19513988270E+03  0.50400001928E-02 0. -1.
    10030    2    1    2    0    0  0.00000000000E+00  0.00000000000E+00  0.26644915715E+03  0.65672892251E+03  0.60024805232E+03 0.  0.
        2    1    3    3  502    0  0.19377187438E+03 -0.17865736371E+03 -0.23839880646E+02  0.26464000609E+03  0.25500000920E-02 0. -1.
       -2    1    3    3    0  502 -0.19377187438E+03  0.17865736371E+03  0.29028903779E+03  0.39208891642E+03  0.25500000920E-02 0.  1.
</event>
<event>
 5   0  0.6078658E-03  0.5998805E+03  0.7818609E-02  0.9905654E-01
       -1   -1    0    0    0  501  0.00000000000E+00  0.00000000000E+00  0.85833956685E+02  0.85833956833E+02  0.50400001928E-02 0. -1.
        1   -1    0    0  501    0  0.00000000000E+00  0.00000000000E+00 -0.10481183109E+04  0.10481183109E+04  0.50400001928E-02 0.  1.
    10030    2    1    2    0    0  0.00000000000E+00  0.00000000000E+00 -0.96228435423E+03  0.11339522678E+04  0.59988046073E+03 0.  0.
        2    1    3    3  502    0  0.11966448829E+03 -0.14406774673E+03 -0.92400870853E+03  0.94279753863E+03  0.25500000920E-02 0.  1.
       -2    1    3    3    0  502 -0.11966448829E+03  0.14406774673E+03 -0.38275645694E+02  0.19115472912E+03  0.25500000920E-02 0. -1.
</event>
<event>
 5   0  0.9028473E-03  0.6006730E+03  0.7818609E-02  0.9904011E-01
       -2   -1    0    0    0  501  0.00000000000E+00  0.00000000000E+00  0.16457108165E+03  0.16457108167E+03  0.25500000920E-02 0. -1.
        2   -1    0    0  501    0  0.00000000000E+00  0.00000000000E+00 -0.54810363955E+03  0.54810363955E+03  0.25500000920E-02 0.  1.
    10030    2    1    2    0    0  0.00000000000E+00  0.00000000000E+00 -0.38353255790E+03  0.71267472122E+03  0.60067298533E+03 0.  0.
        1    1    3    3  502    0 -0.59486396847E+02 -0.28642542701E+03 -0.11108826034E+03  0.31291973133E+03  0.50400001928E-02 0. -1.
       -1    1    3    3    0  502  0.59486396847E+02  0.28642542701E+03 -0.27244429756E+03  0.39975498989E+03  0.50400001928E-02 0.  1.
</event>
<event>
 5   0  0.9303190E-03  0.5999312E+03  0.7818609E-02  0.9905549E-01
        2   -1    0    0  501    0  0.00000000000E+00  0.00000000000E+00  0.10241985137E+04  0.10241985137E+04  0.25500000920E-02 0. -1.
       -2   -1    0    0    0  501  0.00000000000E+00  0.00000000000E+00 -0.87853451931E+02  0.87853451968E+02  0.25500000920E-02 0.  1.
    10030    2    1    2    0    0  0.00000000000E+00  0.00000000000E+00  0.93634506178E+03  0.11120519657E+04  0.59993124578E+03 0.  0.
        4    1    3    3  502    0  0.12253941895E+03 -0.14351613550E+03  0.90037095953E+03  0.91993601300E+03  0.12699999809E+01 0. -1.
       -4    1    3    3    0  502 -0.12253941895E+03  0.14351613550E+03  0.35974102251E+02  0.19211595269E+03  0.12699999809E+01 0.  1.
</event>
<event>
 5   0  0.3806250E-03  0.6000661E+03  0.7818609E-02  0.9905269E-01
        3   -1    0    0  501    0  0.00000000000E+00  0.00000000000E+00  0.85315166672E+03  0.85315167270E+03  0.10100000352E+00 0.  1.
       -3   -1    0    0    0  501  0.00000000000E+00  0.00000000000E+00 -0.10551440452E+03  0.10551445286E+03  0.10100000352E+00 0. -1.
    10030    2    1    2    0    0  0.00000000000E+00  0.00000000000E+00  0.74763726219E+03  0.95866612556E+03  0.60006605009E+03 0.  0.
        5    1    3    3  502    0  0.17419198179E+02  0.59479231418E+02  0.84275335906E+03  0.84504231944E+03  0.46999998093E+01 0.  1.
       -5    1    3    3    0  502 -0.17419198179E+02 -0.59479231418E+02 -0.95116096868E+02  0.11362380612E+03  0.46999998093E+01 0. -1.
</event>
<event>
 5   0  0.5790967E-03  0.5999364E+03  0.7818609E-02  0.9905538E-01
       -1   -1    0    0    0  501  0.00000000000E+00  0.00000000000E+00  0.44615109540E+03  0.44615109543E+03  0.50400001928E-02 0. -1.
        1   -1    0    0  501    0  0.00000000000E+00  0.00000000000E+00 -0.20168265157E+03  0.20168265163E+03  0.50400001928E-02 0.  1.
    10030    2    1    2    0    0  0.00000000000E+00  0.00000000000E+00  0.24446844383E+03  0.64783374706E+03  0.59993644981E+03 0.  0.
        3    1    3    3  502    0 -0.98560972725E+02 -0.14382646663E+03  0.38581320848E+03  0.42338181336E+03  0.10100000352E+00 0. -1.
       -3    1    3    3    0  502  0.98560972725E+02  0.14382646663E+03 -0.14134476465E+03  0.22445193370E+03  0.10100000352E+00 0.  1.
</event>
<event>
 5   0  0.9822607E-03  0.6007737E+03  0.7818609E-02  0.9903802E-01
        2   -1    0    0  501    0  0.00000000000E+00  0.00000000000E+00  0.62721529650E+03  0.62721529651E+03  0.25500000920E-02 0.  1.
       -2   -1    0    0    0  501  0.00000000000E+00  0.00000000000E+00 -0.14386171950E+03  0.14386171952E+03  0.25500000920E-02 0. -1.
    10030    2    1    2    0    0  0.00000000000E+00  0.00000000000E+00  0.48335357701E+03  0.77107701603E+03  0.60077373798E+03 0.  0.
        3    1    3    3  502    0  0.10426863714E+03  0.17510512566E+03  0.52491030360E+03  0.56308488770E+03  0.10100000352E+00 0.  1.
       -3    1    3    3    0  502 -0.10426863714E+03 -0.17510512566E+03 -0.41556726596E+02  0.20799212833E+03  0.10100000352E+00 0. -1.
</event>
<event>
 5   0  0.5790967E-03  0.5951658E+03  0.7818609E-02  0.9915487E-01
        1   -1    0    0  501    0  0.00000000000E+00  0.00000000000E+00  0.30312202795E+03  0.30312202799E+03  0.50400001928E-02 0. -1.
       -1   -1    0    0    0  501  0.00000000000E+00  0.00000000000E+00 -0.29214498958E+03  0.29214498962E+03  0.50400001928E-02 0.  1.
    10030    2    1    2    0    0  0.00000000000E+00  0.00000000000E+00  0.10977038373E+02  0.59526701761E+03  0.59516579781E+03 0.  0.
        3    1    3    3  502    0 -0.60746993770E+02 -0.79716035488E+02 -0.27475679273E+03  0.29246563716E+03  0.10100000352E+00 0.  1.
       -3    1    3    3    0  502  0.60746993770E+02  0.79716035488E+02  0.28573383110E+03  0.30280138045E+03  0.10100000352E+00 0. -1.
</event>
<event>
 5   0  0.6078658E-03  0.5985343E+03  0.7818609E-02  0.9908452E-01
        1   -1    0    0  501    0  0.00000000000E+00  0.00000000000E+00  0.31154910188E+03  0.31154910193E+03  0.50400001928E-02 0. -1.
       -1   -1    0    0    0  501  0.00000000000E+00  0.00000000000E+00 -0.28746938871E+03  0.28746938876E+03  0.50400001928E-02 0.  1.
    10030    2    1    2    0    0  0.00000000000E+00  0.00000000000E+00  0.24079713172E+02  0.59901849068E+03  0.59853430945E+03 0.  0.
        2    1    3    3  502    0 -0.23262049906E+03 -0.18546922749E+03 -0.20385410562E+02  0.29820579454E+03  0.25500000920E-02 0. -1.
       -2    1    3    3    0  502  0.23262049906E+03  0.18546922749E+03  0.44465123734E+02  0.30081269614E+03  0.25500000920E-02 0.  1.
</event>
<event>
 5   0  0.9391405E-03  0.6014027E+03  0.7818609E-02  0.9902500E-01
       -2   -1    0    0    0  501  0.00000000000E+00  0.00000000000E+00  0.18169695713E+03  0.18169695714E+03  0.25500000920E-02 0. -1.
        2   -1    0    0  501    0  0.00000000000E+00  0.00000000000E+00 -0.49764896050E+03  0.49764896050E+03  0.25500000920E-02 0.  1.
    10030    2    1    2    0    0  0.00000000000E+00  0.00000000000E+00 -0.31595200337E+03  0.67934591765E+03  0.60140269985E+03 0.  0.
        2    1    3    3  502    0  0.11352985417E+03 -0.64853236428E+02 -0.46385916745E+03  0.48193391382E+03  0.25500000920E-02 0.  1.
       -2    1    3    3    0  502 -0.11352985417E+03  0.64853236428E+02  0.14790716408E+03  0.19741200382E+03  0.25500000920E-02 0. -1.
</event>
<event>
 5   0  0.5819446E-03  0.5996271E+03  0.7818609E-02  0.9906180E-01
       -1   -1    0    0    0  501  0.00000000000E+00  0.00000000000E+00  0.12286997396E+03  0.12286997406E+03  0.50400001928E-02 0. -1.
        1   -1    0    0  501    0  0.00000000000E+00  0.00000000000E+00 -0.73157143199E+03  0.73157143201E+03  0.50400001928E-02 0.  1.
    10030    2    1    2    0    0  0.00000000000E+00  0.00000000000E+00 -0.60870145803E+03  0.85444140607E+03  0.59962709362E+03 0.  0.
        5    1    3    3  502    0 -0.87645416732E+01  0.29029671016E+03 -0.41019211320E+03  0.50262178310E+03  0.46999998093E+01 0.  1.
       -5    1    3    3    0  502  0.87645416732E+01 -0.29029671016E+03 -0.19850934483E+03  0.35181962297E+03  0.46999998093E+01 0. -1.
</event>
<event>
 5   0  0.5891927E-03  0.6001002E+03  0.7818609E-02  0.9905198E-01
        1   -1    0    0  501    0  0.00000000000E+00  0.00000000000E+00  0.72954051273E+03  0.72954051275E+03  0.50400001928E-02 0. -1.
       -1   -1    0    0    0  501  0.00000000000E+00  0.00000000000E+00 -0.12340651239E+03  0.12340651249E+03  0.50400001928E-02 0.  1.
    10030    2    1    2    0    0  0.00000000000E+00  0.00000000000E+00  0.60613400034E+03  0.85294702524E+03  0.60010015955E+03 0.  0.
        4    1    3    3  502    0 -0.19153874080E+03 -0.13960137368E+03  0.56458142232E+03  0.61231481126E+03  0.12699999809E+01 0. -1.
       -4    1    3    3    0  502  0.19153874080E+03  0.13960137368E+03  0.41552578022E+02  0.24063221397E+03  0.12699999809E+01 0.  1.
</event>
<event>
 5   0  0.9303190E-03  0.5950922E+03  0.7818609E-02  0.9915641E-01
        2   -1    0    0  501    0  0.00000000000E+00  0.00000000000E+00  0.85904363535E+03  0.85904363535E+03  0.25500000920E-02 0.  1.
       -2   -1    0    0    0  501  0.00000000000E+00  0.00000000000E+00 -0.10306074580E+03  0.10306074583E+03  0.25500000920E-02 0. -1.
    10030    2    1    2    0    0  0.00000000000E+00  0.00000000000E+00  0.75598288955E+03  0.96210438119E+03  0.59509218699E+03 0.  0.
        4    1    3    3  502    0 -0.20196797464E+03 -0.20575436282E+03  0.49686404398E+03  0.57445749338E+03  0.12699999809E+01 0. -1.
       -4    1    3    3    0  502  0.20196797464E+03  0.20575436282E+03  0.25911884556E+03  0.38764688781E+03  0.12699999809E+01 0.  1.
</event>
<event>
 5   0  0.5765045E-03  0.5997968E+03  0.7818609E-02  0.9905828E-01
        1   -1    0    0  501    0  0.00000000000E+00  0.00000000000E+00  0.93723495354E+03  0.93723495356E+03  0.50400001928E-02 0. -1.
       -1   -1    0    0    0  501  0.00000000000E+00  0.00000000000E+00 -0.95962116998E+02  0.95962117130E+02  0.50400001928E-02 0.  1.
    10030    2    1    2    0    0  0.00000000000E+00  0.00000000000E+00  0.84127283655E+03  0.10331970707E+04  0.59979680006E+03 0.  0.
        1    1    3    3  502    0  0.29368505077E+03 -0.31649569677E+02  0.50991927555E+03  0.58929642108E+03  0.50400001928E-02 0. -1.
       -1    1    3    3    0  502 -0.29368505077E+03  0.31649569677E+02  0.33135356100E+03  0.44390064960E+03  0.50400001928E-02 0.  1.
</event>
<event>
 5   0  0.9303190E-03  0.6018266E+03  0.7818609E-02  0.9901624E-01
       -2   -1    0    0    0  501  0.00000000000E+00  0.00000000000E+00  0.20793384311E+03  0.20793384312E+03  0.25500000920E-02 0.  1.
        2   -1    0    0  501    0  0.00000000000E+00  0.00000000000E+00 -0.43546933197E+03  0.43546933198E+03  0.25500000920E-02 0. -1.
    10030    2    1    2    0    0  0.00000000000E+00  0.00000000000E+00 -0.22753548886E+03  0.64340317510E+03  0.60182659217E+03 0.  0.
        4    1    3    3  502    0  0.13394174469E+03 -0.17310883286E+03  0.10699263744E+03  0.24363106606E+03  0.12699999809E+01 0.  1.
       -4    1    3    3    0  502 -0.13394174469E+03  0.17310883286E+03 -0.33452812630E+03  0.39977210904E+03  0.12699999809E+01 0. -1.
</event>
<event>
 5   0  0.9162342E-03  0.6012528E+03  0.7818609E-02  0.9902810E-01
       -2   -1    0    0    0  501  0.00000000000E+00  0.00000000000E+00  0.76512379884E+02  0.76512379926E+02  0.25500000920E-02 0.  1.
        2   -1    0    0  501    0  0.00000000000E+00  0.00000000000E+00 -0.11811974363E+04  0.11811974363E+04  0.25500000920E-02 0. -1.
    10030    2    1    2    0    0  0.00000000000E+00  0.00000000000E+00 -0.11046850564E+04  0.12577098162E+04  0.60125278209E+03 0.  0.
        5    1    3    3  502    0 -0.22826781689E+03 -0.13286293544E+03 -0.85254085581E+03  0.89252829460E+03  0.46999998093E+01 0.  1.
       -5    1    3    3    0  502  0.22826781689E+03  0.13286293544E+03 -0.25214420061E+03  0.36518152163E+03  0.46999998093E+01 0. -1.
</event>
<event>
 5   0  0.5891927E-03  0.6025716E+03  0.7818609E-02  0.9900085E-01
       -1   -1    0    0    0  501  0.00000000000E+00  0.00000000000E+00  0.15545892429E+03  0.15545892438E+03  0.50400001928E-02 0. -1.
        1   -1    0    0  501    0  0.00000000000E+00  0.00000000000E+00 -0.58390422727E+03  0.58390422729E+03  0.50400001928E-02 0.  1.
    10030    2    1    2    0    0  0.00000000000E+00  0.00000000000E+00 -0.42844530297E+03  0.73936315167E+03  0.60257156621E+03 0.  0.
        4    1    3    3  502    0 -0.55247294403E+02  0.55232903027E+02  0.14281193440E+03  0.16278758743E+03  0.12699999809E+01 0. -1.
       -4    1    3    3    0  502  0.55247294403E+02 -0.55232903027E+02 -0.57125723737E+03  0.57657556423E+03  0.12699999809E+01 0.  1.
</event>
<event>
 5   0  0.9162342E-03  0.6001427E+03  0.7818609E-02  0.9905110E-01
        2   -1    0    0  501    0  0.00000000000E+00  0.00000000000E+00  0.81807749012E+03  0.81807749012E+03  0.25500000920E-02 0.  1.
       -2   -1    0    0    0  501  0.00000000000E+00  0.00000000000E+00 -0.11006636941E+03  0.11006636944E+03  0.25500000920E-02 0. -1.
    10030    2    1    2    0    0  0.00000000000E+00  0.00000000000E+00  0.70801112071E+03  0.92814385957E+03  0.60014271387E+03 0.  0.
        5    1    3    3  502    0 -0.70334946776E+02 -0.10106445608E+02  0.80481978998E+03  0.80796418814E+03  0.46999998093E+01 0.  1.
       -5    1    3    3    0  502  0.70334946776E+02  0.10106445608E+02 -0.96808669270E+02  0.12017967143E+03  0.46999998093E+01 0. -1.
</event>
<event>
 5   0  0.3806250E-03  0.5986904E+03  0.7818609E-02  0.9908127E-01
        4   -1    0    0  501    0  0.00000000000E+00  0.00000000000E+00  0.21584600674E+03  0.21584974294E+03  0.12699999809E+01 0. -1.
       -4   -1    0    0    0  501  0.00000000000E+00  0.00000000000E+00 -0.41513744053E+03  0.41513938314E+03  0.12699999809E+01 0.  1.
    10030    2    1    2    0    0  0.00000000000E+00  0.00000000000E+00 -0.19929143379E+03  0.63098912607E+03  0.59869040551E+03 0.  0.
        4    1    3    3  502    0 -0.49165248387E+02 -0.24160422133E+03 -0.27855682245E+03  0.37200179791E+03  0.12699999809E+01 0.  1.
       -4    1    3    3    0  502  0.49165248387E+02  0.24160422133E+03  0.79265388661E+02  0.25898732817E+03  0.12699999809E+01 0. -1.
</event>
<event>
 5   0  0.3806250E-03  0.6004851E+03  0.7818609E-02  0.9904400E-01
       -3   -1    0    0    0  501  0.00000000000E+00  0.00000000000E+00  0.53057900387E+03  0.53057901348E+03  0.10100000352E+00 0.  1.
        3   -1    0    0  501    0  0.00000000000E+00  0.00000000000E+00 -0.16990039857E+03  0.16990042859E+03  0.10100000352E+00 0. -1.
    10030    2    1    2    0    0  0.00000000000E+00  0.00000000000E+00  0.36067860529E+03  0.70047944207E+03  0.60048513092E+03 0.  0.
        3    1    3    3  502    0  0.23986095256E+02  0.23488675616E+03 -0.36013576833E+02  0.23883908579E+03  0.10100000352E+00 0. -1.
       -3    1    3    3    0  502 -0.23986095256E+02 -0.23488675616E+03  0.39669218213E+03  0.46164035628E+03  0.10100000352E+00 0.  1.
</event>
<event>
 5   0  0.9391405E-03  0.5996345E+03  0.7818609E-02  0.9906165E-01
       -2   -1    0    0    0  501  0.00000000000E+00  0.00000000000E+00  0.19937643303E+03  0.19937643304E+03  0.25500000920E-02 0.  1.
        2   -1    0    0  501    0  0.00000000000E+00  0.00000000000E+00 -0.45085768219E+03  0.45085768220E+03  0.25500000920E-02 0. -1.
    10030    2    1    2    0    0  0.00000000000E+00  0.00000000000E+00 -0.25148124916E+03  0.65023411524E+03  0.59963454366E+03 0.  0.
        2    1    3    3  502    0  0.17498701039E+03 -0.68912297173E+02 -0.37894147821E+03  0.42304373582E+03  0.25500000920E-02 0. -1.
       -2    1    3    3    0  502 -0.17498701039E+03  0.68912297173E+02  0.12746022904E+03  0.22719037942E+03  0.25500000920E-02 0.  1.
</event>
<event>
 5   0  0.5790967E-03  0.6017166E+03  0.7818609E-02  0.9901851E-01
       -1   -1    0    0    0  501  0.00000000000E+00  0.00000000000E+00  0.33803190048E+03  0.33803190052E+03  0.50400001928E-02 0.  1.
        1   -1    0    0  501    0  0.00000000000E+00  0.00000000000E+00 -0.26777268606E+03  0.26777268611E+03  0.50400001928E-02 0. -1.
    10030    2    1    2    0    0  0.00000000000E+00  0.00000000000E+00  0.70259214419E+02  0.60580458663E+03  0.60171657777E+03 0.  0.
        3    1    3    3  502    0 -0.17173730079E+03 -0.24632930576E+03  0.53799389786E+02  0.30506755301E+03  0.10100000352E+00 0. -1.
       -3    1    3    3    0  502  0.17173730079E+03  0.24632930576E+03  0.16459824633E+02  0.30073703361E+03  0.10100000352E+00 0.  1.
</event>
</LesHouchesEvents>
